<event>
 7    1  0.2472338E-008  0.4614232E+02  0.7816164E-02  0.1320468E+00
        -11   -1    0    0    0    0  0.00000000000E+00  0.00000000000E+00  0.45593999997E+02  0.45594000000E+02  0.51100000000E-03 0.  1.
         11   -1    0    0    0    0 -0.00000000000E+00 -0.00000000000E+00 -0.45593999997E+02  0.45594000000E+02  0.51100000000E-03 0. -1.
    9900012    2    1    2    0    0 -0.12113854794E+02  0.37946434494E+02  0.21034166550E+02  0.46142317286E+02  0.99999956640E+01 0.  0.
         12    1    1    2    0    0  0.12113854794E+02 -0.37946434494E+02 -0.21034166550E+02  0.45045682714E+02  0.00000000000E+00 0. -1.
         11    1    3    3    0    0 -0.48415311204E+00  0.11845692615E+02  0.44704447847E+01  0.12670426773E+02  0.51100000000E-03 0. -1.
        -11    1    3    3    0    0 -0.90613651249E+01  0.22870328635E+02  0.12176499792E+02  0.27448632339E+02  0.51100000000E-03 0.  1.
        -12    1    3    3    0    0 -0.25683365571E+01  0.32304132433E+01  0.43872219730E+01  0.60232581742E+01  0.00000000000E+00 0.  1.
</event>
<event>
 7    1  0.2472338E-008  0.4614232E+02  0.7816164E-02  0.1320468E+00
        -11   -1    0    0    0    0  0.00000000000E+00  0.00000000000E+00  0.45593999997E+02  0.45594000000E+02  0.51100000000E-03 0. -1.
         11   -1    0    0    0    0 -0.00000000000E+00 -0.00000000000E+00 -0.45593999997E+02  0.45594000000E+02  0.51100000000E-03 0.  1.
    9900012    2    1    2    0    0 -0.25504085487E+02  0.25571934512E+02 -0.26920836977E+02  0.46142315692E+02  0.99999811353E+01 0.  0.
         12    1    1    2    0    0  0.25504085487E+02 -0.25571934512E+02  0.26920836977E+02  0.45045684308E+02  0.00000000000E+00 0. -1.
         11    1    3    3    0    0 -0.18353318190E+02  0.13368191122E+02 -0.17729135623E+02  0.28807552355E+02  0.51100000000E-03 0. -1.
        -11    1    3    3    0    0 -0.60304335200E+01  0.66790176848E+01 -0.64127845787E+01  0.11049851220E+02  0.51100000000E-03 0.  1.
         12    1    3    3    0    0 -0.11203337773E+01  0.55247257045E+01 -0.27789167753E+01  0.62849121176E+01  0.00000000000E+00 0. -1.
</event>
<event>
 7    1  0.2472338E-008  0.4614232E+02  0.7816164E-02  0.1320468E+00
        -11   -1    0    0    0    0  0.00000000000E+00  0.00000000000E+00  0.45593999997E+02  0.45594000000E+02  0.51100000000E-03 0.  1.
         11   -1    0    0    0    0 -0.00000000000E+00 -0.00000000000E+00 -0.45593999997E+02  0.45594000000E+02  0.51100000000E-03 0. -1.
    9900012    2    1    2    0    0 -0.92685439016E+00  0.36431686810E+02  0.26476151928E+02  0.46142317812E+02  0.10000000464E+02 0.  0.
         12    1    1    2    0    0  0.92685439016E+00 -0.36431686810E+02 -0.26476151928E+02  0.45045682188E+02  0.00000000000E+00 0. -1.
         11    1    3    3    0    0  0.14755568461E+01  0.11748365497E+02  0.58836969539E+01  0.13221923081E+02  0.51100000000E-03 0. -1.
        -11    1    3    3    0    0  0.29973916953E+00  0.19659510823E+02  0.17991193718E+02  0.26650877304E+02  0.51100000000E-03 0.  1.
         12    1    3    3    0    0 -0.27021504058E+01  0.50238104897E+01  0.26012612557E+01  0.62695174274E+01  0.00000000000E+00 0. -1.
</event>
<event>
 7    1  0.2472338E-008  0.4614232E+02  0.7816164E-02  0.1320468E+00
        -11   -1    0    0    0    0  0.00000000000E+00  0.00000000000E+00  0.45593999997E+02  0.45594000000E+02  0.51100000000E-03 0. -1.
         11   -1    0    0    0    0 -0.00000000000E+00 -0.00000000000E+00 -0.45593999997E+02  0.45594000000E+02  0.51100000000E-03 0.  1.
    9900012    2    1    2    0    0  0.20867480038E+02 -0.37134728097E+02 -0.14651747947E+02  0.46142317944E+02  0.10000001670E+02 0.  0.
         12    1    1    2    0    0 -0.20867480038E+02  0.37134728097E+02  0.14651747947E+02  0.45045682056E+02  0.00000000000E+00 0. -1.
         11    1    3    3    0    0  0.20328259680E+01 -0.51834994672E+01 -0.44703383423E+01  0.71403762715E+01  0.51100000000E-03 0. -1.
        -11    1    3    3    0    0  0.87559296694E+01 -0.13166378512E+02 -0.75507576284E+01  0.17522379077E+02  0.51100000000E-03 0.  1.
         12    1    3    3    0    0  0.10078724400E+02 -0.18784850118E+02 -0.26306519766E+01  0.21479562596E+02  0.00000000000E+00 0. -1.
</event>
<event>
 7    1  0.2472338E-008  0.4614232E+02  0.7816164E-02  0.1320468E+00
        -11   -1    0    0    0    0  0.00000000000E+00  0.00000000000E+00  0.45593999997E+02  0.45594000000E+02  0.51100000000E-03 0.  1.
         11   -1    0    0    0    0 -0.00000000000E+00 -0.00000000000E+00 -0.45593999997E+02  0.45594000000E+02  0.51100000000E-03 0. -1.
    9900012    2    1    2    0    0 -0.73648716053E+01 -0.38243005887E+01  0.44274676507E+02  0.46142316649E+02  0.99999898554E+01 0.  0.
         12    1    1    2    0    0  0.73648716053E+01  0.38243005887E+01 -0.44274676507E+02  0.45045683351E+02  0.00000000000E+00 0. -1.
         11    1    3    3    0    0 -0.18883918440E+01 -0.11551970364E+01  0.21951735037E+01  0.31175777330E+01  0.51100000000E-03 0. -1.
        -11    1    3    3    0    0 -0.69839845196E+01 -0.23299693117E+01  0.32678738575E+02  0.33497832048E+02  0.51100000000E-03 0.  1.
        -12    1    3    3    0    0  0.15075047583E+01 -0.33913424053E+00  0.94007644283E+01  0.95269068677E+01  0.00000000000E+00 0.  1.
</event>
<event>
 7    1  0.2472338E-008  0.4614232E+02  0.7816164E-02  0.1320468E+00
        -11   -1    0    0    0    0  0.00000000000E+00  0.00000000000E+00  0.45593999997E+02  0.45594000000E+02  0.51100000000E-03 0.  1.
         11   -1    0    0    0    0 -0.00000000000E+00 -0.00000000000E+00 -0.45593999997E+02  0.45594000000E+02  0.51100000000E-03 0. -1.
    9900012    2    1    2    0    0  0.37641730053E+02  0.24718140004E+02 -0.11075851820E+01  0.46142322831E+02  0.10000046235E+02 0.  0.
         12    1    1    2    0    0 -0.37641730053E+02 -0.24718140004E+02  0.11075851820E+01  0.45045677169E+02  0.00000000000E+00 0. -1.
         11    1    3    3    0    0  0.65866484104E+01  0.24949733286E+01  0.79482679763E+00  0.70880589086E+01  0.51100000000E-03 0. -1.
        -11    1    3    3    0    0  0.27086221930E+02  0.15543648208E+02 -0.18571418487E+01  0.31284459308E+02  0.51100000000E-03 0.  1.
         12    1    3    3    0    0  0.39688597124E+01  0.66795184674E+01 -0.45270130969E-01  0.77698046152E+01  0.00000000000E+00 0. -1.
</event>
<event>
 7    1  0.2472338E-008  0.4614232E+02  0.7816164E-02  0.1320468E+00
        -11   -1    0    0    0    0  0.00000000000E+00  0.00000000000E+00  0.45593999997E+02  0.45594000000E+02  0.51100000000E-03 0.  1.
         11   -1    0    0    0    0 -0.00000000000E+00 -0.00000000000E+00 -0.45593999997E+02  0.45594000000E+02  0.51100000000E-03 0. -1.
    9900012    2    1    2    0    0 -0.27598454815E+02  0.28329366206E+02  0.21561211265E+02  0.46142317310E+02  0.99999958902E+01 0.  0.
         12    1    1    2    0    0  0.27598454815E+02 -0.28329366206E+02 -0.21561211265E+02  0.45045682690E+02  0.00000000000E+00 0. -1.
         11    1    3    3    0    0 -0.15694843488E+01  0.57558715085E+01  0.12886883623E+01  0.61036100711E+01  0.51100000000E-03 0. -1.
        -11    1    3    3    0    0 -0.13385384731E+01  0.18373673135E+01  0.10898574491E+01  0.25209905611E+01  0.51100000000E-03 0.  1.
         12    1    3    3    0    0 -0.24690431993E+02  0.20736127384E+02  0.19182665453E+02  0.37517716678E+02  0.00000000000E+00 0. -1.
</event>
<event>
 7    1  0.2472338E-008  0.4614232E+02  0.7816164E-02  0.1320468E+00
        -11   -1    0    0    0    0  0.00000000000E+00  0.00000000000E+00  0.45593999997E+02  0.45594000000E+02  0.51100000000E-03 0.  1.
         11   -1    0    0    0    0 -0.00000000000E+00 -0.00000000000E+00 -0.45593999997E+02  0.45594000000E+02  0.51100000000E-03 0. -1.
    9900012    2    1    2    0    0  0.32170063858E+02 -0.31371466021E+02  0.31672704733E+01  0.46142317729E+02  0.99999997103E+01 0.  0.
         12    1    1    2    0    0 -0.32170063858E+02  0.31371466021E+02 -0.31672704733E+01  0.45045682271E+02  0.00000000000E+00 0. -1.
         11    1    3    3    0    0  0.92232864315E+01 -0.93068136772E+01 -0.23166158278E+01  0.13306107717E+02  0.51100000000E-03 0. -1.
        -11    1    3    3    0    0  0.20051463012E+02 -0.16642600604E+02  0.57445332409E+01  0.26684021177E+02  0.51100000000E-03 0.  1.
        -12    1    3    3    0    0  0.28953144150E+01 -0.54220517401E+01 -0.26064693971E+00  0.61521888350E+01  0.00000000000E+00 0.  1.
</event>
<event>
 7    1  0.2472338E-008  0.4614232E+02  0.7816164E-02  0.1320468E+00
        -11   -1    0    0    0    0  0.00000000000E+00  0.00000000000E+00  0.45593999997E+02  0.45594000000E+02  0.51100000000E-03 0. -1.
         11   -1    0    0    0    0 -0.00000000000E+00 -0.00000000000E+00 -0.45593999997E+02  0.45594000000E+02  0.51100000000E-03 0.  1.
    9900012    2    1    2    0    0  0.39478438797E+02 -0.14911976914E+02 -0.15754341769E+02  0.46142317966E+02  0.10000001867E+02 0.  0.
         12    1    1    2    0    0 -0.39478438797E+02  0.14911976914E+02  0.15754341769E+02  0.45045682034E+02  0.00000000000E+00 0. -1.
         11    1    3    3    0    0  0.40013341567E+01 -0.55934194127E+00  0.19416485004E-01  0.40402865866E+01  0.51100000000E-03 0.  1.
        -11    1    3    3    0    0  0.27977023041E+02 -0.14105219857E+02 -0.10991965223E+02  0.33203830279E+02  0.51100000000E-03 0. -1.
         12    1    3    3    0    0  0.75000815990E+01 -0.24741511620E+00 -0.47817930309E+01  0.88982011004E+01  0.00000000000E+00 0. -1.
</event>
<event>
 7    1  0.2472338E-008  0.4614232E+02  0.7816164E-02  0.1320468E+00
        -11   -1    0    0    0    0  0.00000000000E+00  0.00000000000E+00  0.45593999997E+02  0.45594000000E+02  0.51100000000E-03 0. -1.
         11   -1    0    0    0    0 -0.00000000000E+00 -0.00000000000E+00 -0.45593999997E+02  0.45594000000E+02  0.51100000000E-03 0.  1.
    9900012    2    1    2    0    0 -0.10193125970E+02  0.43080930990E+02 -0.83214796751E+01  0.46142318120E+02  0.10000003274E+02 0.  0.
         12    1    1    2    0    0  0.10193125970E+02 -0.43080930990E+02  0.83214796751E+01  0.45045681880E+02  0.00000000000E+00 0. -1.
         11    1    3    3    0    0 -0.49612599101E+01  0.91632772482E+01 -0.40255704071E+01  0.11170719188E+02  0.51100000000E-03 0. -1.
        -11    1    3    3    0    0 -0.29123562575E+01  0.27615463036E+02 -0.50146328386E+01  0.28217763208E+02  0.51100000000E-03 0.  1.
        -12    1    3    3    0    0 -0.23195098023E+01  0.63021907059E+01  0.71872357064E+00  0.67538357240E+01  0.00000000000E+00 0.  1.
</event>
<event>
 7    1  0.2472338E-008  0.4614232E+02  0.7816164E-02  0.1320468E+00
        -11   -1    0    0    0    0  0.00000000000E+00  0.00000000000E+00  0.45593999997E+02  0.45594000000E+02  0.51100000000E-03 0.  1.
         11   -1    0    0    0    0 -0.00000000000E+00 -0.00000000000E+00 -0.45593999997E+02  0.45594000000E+02  0.51100000000E-03 0. -1.
    9900012    2    1    2    0    0  0.82320688686E+01 -0.20554992186E+02  0.39228037360E+02  0.46142316780E+02  0.99999910511E+01 0.  0.
         12    1    1    2    0    0 -0.82320688686E+01  0.20554992186E+02 -0.39228037360E+02  0.45045683220E+02  0.00000000000E+00 0. -1.
         11    1    3    3    0    0  0.44760071118E+01 -0.10164697195E+02  0.14694475306E+02  0.18419644772E+02  0.51100000000E-03 0. -1.
        -11    1    3    3    0    0  0.51793886937E+01 -0.81141384291E+01  0.22074403516E+02  0.24082038961E+02  0.51100000000E-03 0.  1.
         12    1    3    3    0    0 -0.14233269369E+01 -0.22761565623E+01  0.24591585383E+01  0.36406330469E+01  0.00000000000E+00 0. -1.
</event>
<event>
 7    1  0.2472338E-008  0.4614231E+02  0.7816164E-02  0.1320468E+00
        -11   -1    0    0    0    0  0.00000000000E+00  0.00000000000E+00  0.45593999997E+02  0.45594000000E+02  0.51100000000E-03 0.  1.
         11   -1    0    0    0    0 -0.00000000000E+00 -0.00000000000E+00 -0.45593999997E+02  0.45594000000E+02  0.51100000000E-03 0. -1.
    9900012    2    1    2    0    0  0.13831482289E+02 -0.47299717285E+01  0.42607877588E+02  0.46142314663E+02  0.99999717524E+01 0.  0.
         12    1    1    2    0    0 -0.13831482289E+02  0.47299717285E+01 -0.42607877588E+02  0.45045685337E+02  0.00000000000E+00 0. -1.
         11    1    3    3    0    0  0.16374718384E+01  0.83845635485E+00  0.98199333639E+01  0.99907664677E+01  0.51100000000E-03 0. -1.
        -11    1    3    3    0    0  0.86380499961E+01 -0.64506189976E+01  0.18603200005E+02  0.21501289354E+02  0.51100000000E-03 0.  1.
        -12    1    3    3    0    0  0.35559604541E+01  0.88219091429E+00  0.14184744219E+02  0.14650258841E+02  0.00000000000E+00 0.  1.
</event>
<event>
 7    1  0.2472338E-008  0.4614232E+02  0.7816164E-02  0.1320468E+00
        -11   -1    0    0    0    0  0.00000000000E+00  0.00000000000E+00  0.45593999997E+02  0.45594000000E+02  0.51100000000E-03 0. -1.
         11   -1    0    0    0    0 -0.00000000000E+00 -0.00000000000E+00 -0.45593999997E+02  0.45594000000E+02  0.51100000000E-03 0.  1.
    9900012    2    1    2    0    0  0.21266179914E+02 -0.11438274446E+02 -0.38026688561E+02  0.46142316818E+02  0.99999914027E+01 0.  0.
         12    1    1    2    0    0 -0.21266179914E+02  0.11438274446E+02  0.38026688561E+02  0.45045683182E+02  0.00000000000E+00 0. -1.
         11    1    3    3    0    0  0.98185012708E+01 -0.33096356179E+01 -0.13019210015E+02  0.16639004922E+02  0.51100000000E-03 0. -1.
        -11    1    3    3    0    0  0.84518834535E+01 -0.47355488406E+01 -0.10412275853E+02  0.14222350208E+02  0.51100000000E-03 0.  1.
         12    1    3    3    0    0  0.29957951893E+01 -0.33930899877E+01 -0.14595202692E+02  0.15280961688E+02  0.00000000000E+00 0. -1.
</event>
<event>
 7    1  0.2472338E-008  0.4614232E+02  0.7816164E-02  0.1320468E+00
        -11   -1    0    0    0    0  0.00000000000E+00  0.00000000000E+00  0.45593999997E+02  0.45594000000E+02  0.51100000000E-03 0.  1.
         11   -1    0    0    0    0 -0.00000000000E+00 -0.00000000000E+00 -0.45593999997E+02  0.45594000000E+02  0.51100000000E-03 0. -1.
    9900012    2    1    2    0    0  0.38994016817E+01 -0.42620760384E+02  0.14049161451E+02  0.46142317780E+02  0.10000000176E+02 0.  0.
         12    1    1    2    0    0 -0.38994016817E+01  0.42620760384E+02 -0.14049161451E+02  0.45045682220E+02  0.00000000000E+00 0. -1.
         11    1    3    3    0    0  0.10195727521E+01 -0.11901893580E+02  0.71066928061E+01  0.13899628854E+02  0.51100000000E-03 0. -1.
        -11    1    3    3    0    0  0.39022825502E+01 -0.27691240632E+02  0.76020601992E+01  0.28979715947E+02  0.51100000000E-03 0.  1.
         12    1    3    3    0    0 -0.10224536206E+01 -0.30276261721E+01 -0.65959155476E+00  0.32629729793E+01  0.00000000000E+00 0. -1.
</event>
<event>
 7    1  0.2472338E-008  0.4614232E+02  0.7816164E-02  0.1320468E+00
        -11   -1    0    0    0    0  0.00000000000E+00  0.00000000000E+00  0.45593999997E+02  0.45594000000E+02  0.51100000000E-03 0.  1.
         11   -1    0    0    0    0 -0.00000000000E+00 -0.00000000000E+00 -0.45593999997E+02  0.45594000000E+02  0.51100000000E-03 0. -1.
    9900012    2    1    2    0    0 -0.14332733887E+02 -0.41413087195E+02  0.10423168389E+02  0.46142317732E+02  0.99999997334E+01 0.  0.
         12    1    1    2    0    0  0.14332733887E+02  0.41413087195E+02 -0.10423168389E+02  0.45045682268E+02  0.00000000000E+00 0. -1.
         11    1    3    3    0    0  0.40267161538E+00 -0.25445736812E+01  0.21148650917E+01  0.33331147994E+01  0.51100000000E-03 0. -1.
        -11    1    3    3    0    0 -0.92876099316E+01 -0.22857641437E+02  0.78481213347E+01  0.25890625312E+02  0.51100000000E-03 0.  1.
        -12    1    3    3    0    0 -0.54477955712E+01 -0.16010872078E+02  0.46018196229E+00  0.16918577621E+02  0.00000000000E+00 0.  1.
</event>
<event>
 7    1  0.2472338E-008  0.4614232E+02  0.7816164E-02  0.1320468E+00
        -11   -1    0    0    0    0  0.00000000000E+00  0.00000000000E+00  0.45593999997E+02  0.45594000000E+02  0.51100000000E-03 0.  1.
         11   -1    0    0    0    0 -0.00000000000E+00 -0.00000000000E+00 -0.45593999997E+02  0.45594000000E+02  0.51100000000E-03 0. -1.
    9900012    2    1    2    0    0 -0.36660406402E+02 -0.25174311081E+02  0.71681157227E+01  0.46142320751E+02  0.10000027267E+02 0.  0.
         12    1    1    2    0    0  0.36660406402E+02  0.25174311081E+02 -0.71681157227E+01  0.45045679249E+02  0.00000000000E+00 0. -1.
         11    1    3    3    0    0 -0.72561688336E+01 -0.67595104466E+01  0.39859392380E+01  0.10687875350E+02  0.51100000000E-03 0. -1.
        -11    1    3    3    0    0 -0.21189421999E+02 -0.16070799335E+02  0.39122209860E+01  0.26880618840E+02  0.51100000000E-03 0.  1.
         12    1    3    3    0    0 -0.82148155699E+01 -0.23440012988E+01 -0.73004450122E+00  0.85738265617E+01  0.00000000000E+00 0. -1.
</event>
<event>
 7    1  0.2472338E-008  0.4614232E+02  0.7816164E-02  0.1320468E+00
        -11   -1    0    0    0    0  0.00000000000E+00  0.00000000000E+00  0.45593999997E+02  0.45594000000E+02  0.51100000000E-03 0.  1.
         11   -1    0    0    0    0 -0.00000000000E+00 -0.00000000000E+00 -0.45593999997E+02  0.45594000000E+02  0.51100000000E-03 0. -1.
    9900012    2    1    2    0    0 -0.37954913425E+02  0.78422440839E+01  0.22957291363E+02  0.46142317942E+02  0.10000001647E+02 0.  0.
         12    1    1    2    0    0  0.37954913425E+02 -0.78422440839E+01 -0.22957291363E+02  0.45045682058E+02  0.00000000000E+00 0. -1.
         11    1    3    3    0    0 -0.12999922992E+01 -0.60917626663E+00  0.36210706852E-01  0.14361013816E+01  0.51100000000E-03 0. -1.
        -11    1    3    3    0    0 -0.15304803505E+02  0.36138520965E+01  0.52700185945E+01  0.16585235409E+02  0.51100000000E-03 0.  1.
         12    1    3    3    0    0 -0.21350117620E+02  0.48375682540E+01  0.17651062062E+02  0.28120981152E+02  0.00000000000E+00 0. -1.
</event>
<event>
 7    1  0.2472338E-008  0.4614232E+02  0.7816164E-02  0.1320468E+00
        -11   -1    0    0    0    0  0.00000000000E+00  0.00000000000E+00  0.45593999997E+02  0.45594000000E+02  0.51100000000E-03 0.  1.
         11   -1    0    0    0    0 -0.00000000000E+00 -0.00000000000E+00 -0.45593999997E+02  0.45594000000E+02  0.51100000000E-03 0. -1.
    9900012    2    1    2    0    0  0.29639943816E+02 -0.29902374178E+02 -0.16013600392E+02  0.46142315985E+02  0.99999838031E+01 0.  0.
         12    1    1    2    0    0 -0.29639943816E+02  0.29902374178E+02  0.16013600392E+02  0.45045684015E+02  0.00000000000E+00 0. -1.
         11    1    3    3    0    0  0.22388809009E+00  0.23399403246E+00 -0.30308199810E+00  0.44355162361E+00  0.51100000000E-03 0. -1.
        -11    1    3    3    0    0  0.55757101605E+01 -0.85977985168E+01 -0.80046277669E+00  0.10278687856E+02  0.51100000000E-03 0.  1.
         12    1    3    3    0    0  0.23840345565E+02 -0.21538569693E+02 -0.14910055617E+02  0.35420076505E+02  0.00000000000E+00 0. -1.
</event>
<event>
 7    1  0.2472338E-008  0.4614232E+02  0.7816164E-02  0.1320468E+00
        -11   -1    0    0    0    0  0.00000000000E+00  0.00000000000E+00  0.45593999997E+02  0.45594000000E+02  0.51100000000E-03 0.  1.
         11   -1    0    0    0    0 -0.00000000000E+00 -0.00000000000E+00 -0.45593999997E+02  0.45594000000E+02  0.51100000000E-03 0. -1.
    9900012    2    1    2    0    0 -0.40670691878E+01 -0.43628832501E+02  0.10444969727E+02  0.46142317968E+02  0.10000001883E+02 0.  0.
         12    1    1    2    0    0  0.40670691878E+01  0.43628832501E+02 -0.10444969727E+02  0.45045682032E+02  0.00000000000E+00 0. -1.
         11    1    3    3    0    0 -0.21445684325E+01 -0.74362365989E+01  0.11920821193E+00  0.77402195947E+01  0.51100000000E-03 0. -1.
        -11    1    3    3    0    0 -0.44368617572E+01 -0.18624922806E+02  0.67322336927E+01  0.20295232508E+02  0.51100000000E-03 0.  1.
         12    1    3    3    0    0  0.25143610019E+01 -0.17567673096E+02  0.35935278229E+01  0.18106865865E+02  0.00000000000E+00 0. -1.
</event>
<event>
 7    1  0.2472338E-008  0.4614232E+02  0.7816164E-02  0.1320468E+00
        -11   -1    0    0    0    0  0.00000000000E+00  0.00000000000E+00  0.45593999997E+02  0.45594000000E+02  0.51100000000E-03 0. -1.
         11   -1    0    0    0    0 -0.00000000000E+00 -0.00000000000E+00 -0.45593999997E+02  0.45594000000E+02  0.51100000000E-03 0.  1.
    9900012    2    1    2    0    0 -0.16689889488E+02 -0.23933545652E+02 -0.34318310687E+02  0.46142317998E+02  0.10000002162E+02 0.  0.
         12    1    1    2    0    0  0.16689889488E+02  0.23933545652E+02  0.34318310687E+02  0.45045682002E+02  0.00000000000E+00 0. -1.
         11    1    3    3    0    0  0.19461237112E+00 -0.85703237955E+00 -0.41438755971E+01  0.42360457623E+01  0.51100000000E-03 0. -1.
        -11    1    3    3    0    0 -0.14006085057E+02 -0.19786802023E+02 -0.22502506309E+02  0.33076437888E+02  0.51100000000E-03 0.  1.
        -12    1    3    3    0    0 -0.28784168021E+01 -0.32897112491E+01 -0.76719287808E+01  0.88298343476E+01  0.00000000000E+00 0.  1.
</event>
<event>
 7    1  0.2472338E-008  0.4614232E+02  0.7816164E-02  0.1320468E+00
        -11   -1    0    0    0    0  0.00000000000E+00  0.00000000000E+00  0.45593999997E+02  0.45594000000E+02  0.51100000000E-03 0.  1.
         11   -1    0    0    0    0 -0.00000000000E+00 -0.00000000000E+00 -0.45593999997E+02  0.45594000000E+02  0.51100000000E-03 0. -1.
    9900012    2    1    2    0    0 -0.12620127389E+02 -0.43096961352E+02 -0.35352435352E+01  0.46142316079E+02  0.99999846599E+01 0.  0.
         12    1    1    2    0    0  0.12620127389E+02  0.43096961352E+02  0.35352435352E+01  0.45045683921E+02  0.00000000000E+00 0. -1.
         11    1    3    3    0    0 -0.43877931336E+01 -0.21103224109E+02 -0.29267907249E+01  0.21752353909E+02  0.51100000000E-03 0. -1.
        -11    1    3    3    0    0 -0.19038278414E+01 -0.14196372598E+02 -0.79994011817E+00  0.14345781953E+02  0.51100000000E-03 0.  1.
        -12    1    3    3    0    0 -0.63285064143E+01 -0.77973646450E+01  0.19148730792E+00  0.10044180217E+02  0.00000000000E+00 0.  1.
</event>
<event>
 7    1  0.2472338E-008  0.4614232E+02  0.7816164E-02  0.1320468E+00
        -11   -1    0    0    0    0  0.00000000000E+00  0.00000000000E+00  0.45593999997E+02  0.45594000000E+02  0.51100000000E-03 0.  1.
         11   -1    0    0    0    0 -0.00000000000E+00 -0.00000000000E+00 -0.45593999997E+02  0.45594000000E+02  0.51100000000E-03 0. -1.
    9900012    2    1    2    0    0 -0.36311153905E+02 -0.53967360652E+01  0.26105341246E+02  0.46142317636E+02  0.99999988601E+01 0.  0.
         12    1    1    2    0    0  0.36311153905E+02  0.53967360652E+01 -0.26105341246E+02  0.45045682364E+02  0.00000000000E+00 0. -1.
         11    1    3    3    0    0  0.62098734681E-01 -0.42779876094E+00  0.11648401673E+01  0.12424656571E+01  0.51100000000E-03 0. -1.
        -11    1    3    3    0    0 -0.75467068971E+01  0.11953216010E+01  0.71785271577E+01  0.10483932046E+02  0.51100000000E-03 0.  1.
        -12    1    3    3    0    0 -0.28826545743E+02 -0.61642589053E+01  0.17761973921E+02  0.34415919933E+02  0.00000000000E+00 0.  1.
</event>
<event>
 7    1  0.2472338E-008  0.4614232E+02  0.7816164E-02  0.1320468E+00
        -11   -1    0    0    0    0  0.00000000000E+00  0.00000000000E+00  0.45593999997E+02  0.45594000000E+02  0.51100000000E-03 0.  1.
         11   -1    0    0    0    0 -0.00000000000E+00 -0.00000000000E+00 -0.45593999997E+02  0.45594000000E+02  0.51100000000E-03 0. -1.
    9900012    2    1    2    0    0 -0.38480723733E+02  0.46508259480E+00  0.23412201153E+02  0.46142316925E+02  0.99999923780E+01 0.  0.
         12    1    1    2    0    0  0.38480723733E+02 -0.46508259480E+00 -0.23412201153E+02  0.45045683075E+02  0.00000000000E+00 0. -1.
         11    1    3    3    0    0 -0.74071544248E+01  0.18806119688E+00  0.25349012354E+01  0.78311575275E+01  0.51100000000E-03 0.  1.
        -11    1    3    3    0    0 -0.27709549603E+02 -0.16006929704E+01  0.20363182964E+02  0.34424418338E+02  0.51100000000E-03 0. -1.
         12    1    3    3    0    0 -0.33640197050E+01  0.18777143683E+01  0.51411695328E+00  0.38867410599E+01  0.00000000000E+00 0. -1.
</event>
<event>
 7    1  0.2472338E-008  0.4614232E+02  0.7816164E-02  0.1320468E+00
        -11   -1    0    0    0    0  0.00000000000E+00  0.00000000000E+00  0.45593999997E+02  0.45594000000E+02  0.51100000000E-03 0.  1.
         11   -1    0    0    0    0 -0.00000000000E+00 -0.00000000000E+00 -0.45593999997E+02  0.45594000000E+02  0.51100000000E-03 0. -1.
    9900012    2    1    2    0    0 -0.18980410879E+02  0.30698648454E+02  0.26952742609E+02  0.46142319317E+02  0.10000014188E+02 0.  0.
         12    1    1    2    0    0  0.18980410879E+02 -0.30698648454E+02 -0.26952742609E+02  0.45045680683E+02  0.00000000000E+00 0. -1.
         11    1    3    3    0    0 -0.33793602647E+01  0.45087222945E+01  0.64204751157E+01  0.85423154648E+01  0.51100000000E-03 0. -1.
        -11    1    3    3    0    0 -0.30292815506E+01  0.11156237187E+02  0.10343722557E+02  0.15512278088E+02  0.51100000000E-03 0.  1.
         12    1    3    3    0    0 -0.12571769064E+02  0.15033688972E+02  0.10188544937E+02  0.22087725765E+02  0.00000000000E+00 0. -1.
</event>
<event>
 7    1  0.2472338E-008  0.4614232E+02  0.7816164E-02  0.1320468E+00
        -11   -1    0    0    0    0  0.00000000000E+00  0.00000000000E+00  0.45593999997E+02  0.45594000000E+02  0.51100000000E-03 0. -1.
         11   -1    0    0    0    0 -0.00000000000E+00 -0.00000000000E+00 -0.45593999997E+02  0.45594000000E+02  0.51100000000E-03 0.  1.
    9900012    2    1    2    0    0  0.42464219182E+02 -0.26880189437E+01 -0.14787769177E+02  0.46142317923E+02  0.10000001476E+02 0.  0.
         12    1    1    2    0    0 -0.42464219182E+02  0.26880189437E+01  0.14787769177E+02  0.45045682077E+02  0.00000000000E+00 0. -1.
         11    1    3    3    0    0  0.60808780390E+00 -0.80800829554E+00 -0.25387075114E-01  0.10115794322E+01  0.51100000000E-03 0. -1.
        -11    1    3    3    0    0  0.40739195343E+02 -0.10377289465E+01 -0.12789427132E+02  0.42712157112E+02  0.51100000000E-03 0.  1.
        -12    1    3    3    0    0  0.11169360350E+01 -0.84228170168E+00 -0.19729549702E+01  0.24185813788E+01  0.00000000000E+00 0.  1.
</event>
<event>
 7    1  0.2472338E-008  0.4614232E+02  0.7816164E-02  0.1320468E+00
        -11   -1    0    0    0    0  0.00000000000E+00  0.00000000000E+00  0.45593999997E+02  0.45594000000E+02  0.51100000000E-03 0.  1.
         11   -1    0    0    0    0 -0.00000000000E+00 -0.00000000000E+00 -0.45593999997E+02  0.45594000000E+02  0.51100000000E-03 0. -1.
    9900012    2    1    2    0    0 -0.25964275634E+02  0.24557784518E+02  0.27420522528E+02  0.46142318239E+02  0.10000004358E+02 0.  0.
         12    1    1    2    0    0  0.25964275634E+02 -0.24557784518E+02 -0.27420522528E+02  0.45045681761E+02  0.00000000000E+00 0. -1.
         11    1    3    3    0    0 -0.30317321212E+01  0.42397914521E+01  0.10968173098E+01  0.53263720940E+01  0.51100000000E-03 0. -1.
        -11    1    3    3    0    0 -0.22906059835E+02  0.20650488963E+02  0.25877509596E+02  0.40258859580E+02  0.51100000000E-03 0.  1.
        -12    1    3    3    0    0 -0.26483678178E-01 -0.33249589766E+00  0.44619562231E+00  0.55708656467E+00  0.00000000000E+00 0.  1.
</event>
<event>
 7    1  0.2472338E-008  0.4614232E+02  0.7816164E-02  0.1320468E+00
        -11   -1    0    0    0    0  0.00000000000E+00  0.00000000000E+00  0.45593999997E+02  0.45594000000E+02  0.51100000000E-03 0.  1.
         11   -1    0    0    0    0 -0.00000000000E+00 -0.00000000000E+00 -0.45593999997E+02  0.45594000000E+02  0.51100000000E-03 0. -1.
    9900012    2    1    2    0    0 -0.19537408050E+02 -0.26945081041E+02  0.30354008299E+02  0.46142317350E+02  0.99999962487E+01 0.  0.
         12    1    1    2    0    0  0.19537408050E+02  0.26945081041E+02 -0.30354008299E+02  0.45045682650E+02  0.00000000000E+00 0. -1.
         11    1    3    3    0    0 -0.10028149357E+02 -0.17165056495E+02  0.16638906789E+02  0.25924046047E+02  0.51100000000E-03 0. -1.
        -11    1    3    3    0    0 -0.46864268298E+01 -0.46825137257E+01  0.26917495903E+01  0.71508074607E+01  0.51100000000E-03 0.  1.
         12    1    3    3    0    0 -0.48228318635E+01 -0.50975108199E+01  0.11023351919E+02  0.13067463842E+02  0.00000000000E+00 0. -1.
</event>
<event>
 7    1  0.2472338E-008  0.4614232E+02  0.7816164E-02  0.1320468E+00
        -11   -1    0    0    0    0  0.00000000000E+00  0.00000000000E+00  0.45593999997E+02  0.45594000000E+02  0.51100000000E-03 0. -1.
         11   -1    0    0    0    0 -0.00000000000E+00 -0.00000000000E+00 -0.45593999997E+02  0.45594000000E+02  0.51100000000E-03 0.  1.
    9900012    2    1    2    0    0  0.27176044113E+02  0.35924521467E+02  0.68998378712E-01  0.46142318997E+02  0.10000011271E+02 0.  0.
         12    1    1    2    0    0 -0.27176044113E+02 -0.35924521467E+02 -0.68998378712E-01  0.45045681003E+02  0.00000000000E+00 0. -1.
         11    1    3    3    0    0  0.49316982185E+01  0.51886615602E+01 -0.55479289795E+00  0.71799478776E+01  0.51100000000E-03 0.  1.
        -11    1    3    3    0    0  0.41579921469E+01  0.52289056148E+01 -0.32954386771E+01  0.74491790794E+01  0.51100000000E-03 0. -1.
        -12    1    3    3    0    0  0.18086353747E+02  0.25506954292E+02  0.39192299537E+01  0.31513192040E+02  0.00000000000E+00 0.  1.
</event>
<event>
 7    1  0.2472338E-008  0.4614232E+02  0.7816164E-02  0.1320468E+00
        -11   -1    0    0    0    0  0.00000000000E+00  0.00000000000E+00  0.45593999997E+02  0.45594000000E+02  0.51100000000E-03 0. -1.
         11   -1    0    0    0    0 -0.00000000000E+00 -0.00000000000E+00 -0.45593999997E+02  0.45594000000E+02  0.51100000000E-03 0.  1.
    9900012    2    1    2    0    0  0.28925190365E+01  0.36876992223E+02 -0.25706695730E+02  0.46142318441E+02  0.10000006202E+02 0.  0.
         12    1    1    2    0    0 -0.28925190365E+01 -0.36876992223E+02  0.25706695730E+02  0.45045681559E+02  0.00000000000E+00 0. -1.
         11    1    3    3    0    0  0.25002244686E+01  0.32062611592E+01 -0.11968127282E+01  0.42383480251E+01  0.51100000000E-03 0. -1.
        -11    1    3    3    0    0  0.22033478149E+01  0.12030449770E+02 -0.98374383694E+01  0.15695912117E+02  0.51100000000E-03 0.  1.
        -12    1    3    3    0    0 -0.18110532470E+01  0.21640281294E+02 -0.14672444632E+02  0.26208058299E+02  0.00000000000E+00 0.  1.
</event>
<event>
 7    1  0.2472338E-008  0.4614232E+02  0.7816164E-02  0.1320468E+00
        -11   -1    0    0    0    0  0.00000000000E+00  0.00000000000E+00  0.45593999997E+02  0.45594000000E+02  0.51100000000E-03 0.  1.
         11   -1    0    0    0    0 -0.00000000000E+00 -0.00000000000E+00 -0.45593999997E+02  0.45594000000E+02  0.51100000000E-03 0. -1.
    9900012    2    1    2    0    0  0.15589485072E+02 -0.42163398465E+02  0.28860474741E+01  0.46142317799E+02  0.10000000347E+02 0.  0.
         12    1    1    2    0    0 -0.15589485072E+02  0.42163398465E+02 -0.28860474741E+01  0.45045682201E+02  0.00000000000E+00 0. -1.
         11    1    3    3    0    0  0.44070023420E+01 -0.14179273441E+02 -0.81486211214E+00  0.14870691493E+02  0.51100000000E-03 0. -1.
        -11    1    3    3    0    0  0.96439095494E+01 -0.14591097449E+02  0.97231003409E+00  0.17517148833E+02  0.51100000000E-03 0.  1.
        -12    1    3    3    0    0  0.15385731803E+01 -0.13393027575E+02  0.27285995521E+01  0.13754477473E+02  0.00000000000E+00 0.  1.
</event>
<event>
 7    1  0.2472338E-008  0.4614232E+02  0.7816164E-02  0.1320468E+00
        -11   -1    0    0    0    0  0.00000000000E+00  0.00000000000E+00  0.45593999997E+02  0.45594000000E+02  0.51100000000E-03 0.  1.
         11   -1    0    0    0    0 -0.00000000000E+00 -0.00000000000E+00 -0.45593999997E+02  0.45594000000E+02  0.51100000000E-03 0. -1.
    9900012    2    1    2    0    0 -0.21325183476E+02 -0.22326819245E+02  0.32800352541E+02  0.46142318357E+02  0.10000005434E+02 0.  0.
         12    1    1    2    0    0  0.21325183476E+02  0.22326819245E+02 -0.32800352541E+02  0.45045681643E+02  0.00000000000E+00 0. -1.
         11    1    3    3    0    0 -0.17396466544E+02 -0.18623796099E+02  0.21798929245E+02  0.33536191582E+02  0.51100000000E-03 0. -1.
        -11    1    3    3    0    0 -0.35107376874E+01 -0.17348545718E+01  0.55271809607E+01  0.67738267714E+01  0.51100000000E-03 0.  1.
         12    1    3    3    0    0 -0.41797924453E+00 -0.19681685740E+01  0.54742423351E+01  0.58323000033E+01  0.00000000000E+00 0. -1.
</event>
<event>
 7    1  0.2472338E-008  0.4614232E+02  0.7816164E-02  0.1320468E+00
        -11   -1    0    0    0    0  0.00000000000E+00  0.00000000000E+00  0.45593999997E+02  0.45594000000E+02  0.51100000000E-03 0. -1.
         11   -1    0    0    0    0 -0.00000000000E+00 -0.00000000000E+00 -0.45593999997E+02  0.45594000000E+02  0.51100000000E-03 0.  1.
    9900012    2    1    2    0    0  0.32319973390E+01 -0.44460904979E+02 -0.64726558484E+01  0.46142321494E+02  0.10000034035E+02 0.  0.
         12    1    1    2    0    0 -0.32319973390E+01  0.44460904979E+02  0.64726558484E+01  0.45045678506E+02  0.00000000000E+00 0. -1.
         11    1    3    3    0    0  0.11754463201E+00 -0.35399119618E+00  0.51012365554E+00  0.63194375743E+00  0.51100000000E-03 0. -1.
        -11    1    3    3    0    0 -0.10288285550E+00 -0.31963151286E+02 -0.21004037159E+01  0.32032254386E+02  0.51100000000E-03 0.  1.
         12    1    3    3    0    0  0.32173355625E+01 -0.12143762497E+02 -0.48823757881E+01  0.13478123350E+02  0.00000000000E+00 0. -1.
</event>
<event>
 7    1  0.2472338E-008  0.4614232E+02  0.7816164E-02  0.1320468E+00
        -11   -1    0    0    0    0  0.00000000000E+00  0.00000000000E+00  0.45593999997E+02  0.45594000000E+02  0.51100000000E-03 0.  1.
         11   -1    0    0    0    0 -0.00000000000E+00 -0.00000000000E+00 -0.45593999997E+02  0.45594000000E+02  0.51100000000E-03 0. -1.
    9900012    2    1    2    0    0 -0.33058597031E+02 -0.10957645629E+02  0.28568736524E+02  0.46142317166E+02  0.99999945725E+01 0.  0.
         12    1    1    2    0    0  0.33058597031E+02  0.10957645629E+02 -0.28568736524E+02  0.45045682834E+02  0.00000000000E+00 0. -1.
         11    1    3    3    0    0 -0.27737468974E+01 -0.33913434230E+01  0.26272402874E+01  0.51085490947E+01  0.51100000000E-03 0. -1.
        -11    1    3    3    0    0 -0.21101380632E+02 -0.58850568415E+01  0.14518847578E+02  0.26281154728E+02  0.51100000000E-03 0.  1.
         12    1    3    3    0    0 -0.91834695019E+01 -0.16812453650E+01  0.11422648659E+02  0.14752613343E+02  0.00000000000E+00 0. -1.
</event>
<event>
 7    1  0.2472338E-008  0.4614232E+02  0.7816164E-02  0.1320468E+00
        -11   -1    0    0    0    0  0.00000000000E+00  0.00000000000E+00  0.45593999997E+02  0.45594000000E+02  0.51100000000E-03 0.  1.
         11   -1    0    0    0    0 -0.00000000000E+00 -0.00000000000E+00 -0.45593999997E+02  0.45594000000E+02  0.51100000000E-03 0. -1.
    9900012    2    1    2    0    0 -0.31721596977E+02 -0.30281155762E+02  0.10291038234E+02  0.46142316777E+02  0.99999910304E+01 0.  0.
         12    1    1    2    0    0  0.31721596977E+02  0.30281155762E+02 -0.10291038234E+02  0.45045683223E+02  0.00000000000E+00 0. -1.
         11    1    3    3    0    0 -0.25393465573E+01 -0.15272664713E+01  0.25071876288E+01  0.38815993970E+01  0.51100000000E-03 0. -1.
        -11    1    3    3    0    0 -0.21868162102E+02 -0.18127975645E+02  0.32634862634E+01  0.28591788289E+02  0.51100000000E-03 0.  1.
        -12    1    3    3    0    0 -0.73140883176E+01 -0.10625913646E+02  0.45203643421E+01  0.13668929092E+02  0.00000000000E+00 0.  1.
</event>
<event>
 7    1  0.2472338E-008  0.4614232E+02  0.7816164E-02  0.1320468E+00
        -11   -1    0    0    0    0  0.00000000000E+00  0.00000000000E+00  0.45593999997E+02  0.45594000000E+02  0.51100000000E-03 0. -1.
         11   -1    0    0    0    0 -0.00000000000E+00 -0.00000000000E+00 -0.45593999997E+02  0.45594000000E+02  0.51100000000E-03 0.  1.
    9900012    2    1    2    0    0  0.15493763616E+02  0.36240056885E+02 -0.21810893182E+02  0.46142317683E+02  0.99999992890E+01 0.  0.
         12    1    1    2    0    0 -0.15493763616E+02 -0.36240056885E+02  0.21810893182E+02  0.45045682317E+02  0.00000000000E+00 0. -1.
         11    1    3    3    0    0  0.20179700879E+01  0.57624186210E+01 -0.10005882197E+01  0.61869902769E+01  0.51100000000E-03 0. -1.
        -11    1    3    3    0    0  0.13008464033E+02  0.27108888785E+02 -0.15989231049E+02  0.34055359306E+02  0.51100000000E-03 0.  1.
        -12    1    3    3    0    0  0.46732949495E+00  0.33687494790E+01 -0.48210739135E+01  0.58999681006E+01  0.00000000000E+00 0.  1.
</event>
<event>
 7    1  0.2472338E-008  0.4614232E+02  0.7816164E-02  0.1320468E+00
        -11   -1    0    0    0    0  0.00000000000E+00  0.00000000000E+00  0.45593999997E+02  0.45594000000E+02  0.51100000000E-03 0.  1.
         11   -1    0    0    0    0 -0.00000000000E+00 -0.00000000000E+00 -0.45593999997E+02  0.45594000000E+02  0.51100000000E-03 0. -1.
    9900012    2    1    2    0    0  0.64755198003E+01 -0.35999057739E+02  0.26291614724E+02  0.46142317414E+02  0.99999968390E+01 0.  0.
         12    1    1    2    0    0 -0.64755198003E+01  0.35999057739E+02 -0.26291614724E+02  0.45045682586E+02  0.00000000000E+00 0. -1.
         11    1    3    3    0    0  0.49876111478E+01 -0.10161604447E+02  0.10885500704E+02  0.15704413257E+02  0.51100000000E-03 0. -1.
        -11    1    3    3    0    0  0.16541765276E+01 -0.15225582505E+02  0.11406329194E+02  0.19096046935E+02  0.51100000000E-03 0.  1.
        -12    1    3    3    0    0 -0.16626787507E+00 -0.10611870787E+02  0.39997848263E+01  0.11341857223E+02  0.00000000000E+00 0.  1.
</event>
<event>
 7    1  0.2472338E-008  0.4614232E+02  0.7816164E-02  0.1320468E+00
        -11   -1    0    0    0    0  0.00000000000E+00  0.00000000000E+00  0.45593999997E+02  0.45594000000E+02  0.51100000000E-03 0.  1.
         11   -1    0    0    0    0 -0.00000000000E+00 -0.00000000000E+00 -0.45593999997E+02  0.45594000000E+02  0.51100000000E-03 0. -1.
    9900012    2    1    2    0    0 -0.44245492687E+02  0.19214098725E+01  0.82315301633E+01  0.46142317323E+02  0.99999960052E+01 0.  0.
         12    1    1    2    0    0  0.44245492687E+02 -0.19214098725E+01 -0.82315301633E+01  0.45045682677E+02  0.00000000000E+00 0. -1.
         11    1    3    3    0    0 -0.12038316409E+02  0.17590279667E+01  0.59274165543E+01  0.13533274128E+02  0.51100000000E-03 0. -1.
        -11    1    3    3    0    0 -0.13407871324E+01 -0.85984485444E+00 -0.28223980977E+00  0.16176226010E+01  0.51100000000E-03 0.  1.
         12    1    3    3    0    0 -0.30866389146E+02  0.10222267603E+01  0.25863534188E+01  0.30991420594E+02  0.00000000000E+00 0. -1.
</event>
<event>
 7    1  0.2472338E-008  0.4614232E+02  0.7816164E-02  0.1320468E+00
        -11   -1    0    0    0    0  0.00000000000E+00  0.00000000000E+00  0.45593999997E+02  0.45594000000E+02  0.51100000000E-03 0.  1.
         11   -1    0    0    0    0 -0.00000000000E+00 -0.00000000000E+00 -0.45593999997E+02  0.45594000000E+02  0.51100000000E-03 0. -1.
    9900012    2    1    2    0    0 -0.11154147501E+02 -0.43598707536E+02 -0.19623071432E+01  0.46142323686E+02  0.10000054025E+02 0.  0.
         12    1    1    2    0    0  0.11154147501E+02  0.43598707536E+02  0.19623071432E+01  0.45045676314E+02  0.00000000000E+00 0. -1.
         11    1    3    3    0    0 -0.13701972334E+01 -0.42992403286E+01 -0.25392210761E+01  0.51776975381E+01  0.51100000000E-03 0. -1.
        -11    1    3    3    0    0 -0.27895972362E+01 -0.47851331459E+01  0.14937672036E+01  0.57367841762E+01  0.51100000000E-03 0.  1.
        -12    1    3    3    0    0 -0.69943530314E+01 -0.34514334062E+02 -0.91685327071E+00  0.35227841971E+02  0.00000000000E+00 0.  1.
</event>
<event>
 7    1  0.2472338E-008  0.4614232E+02  0.7816164E-02  0.1320468E+00
        -11   -1    0    0    0    0  0.00000000000E+00  0.00000000000E+00  0.45593999997E+02  0.45594000000E+02  0.51100000000E-03 0. -1.
         11   -1    0    0    0    0 -0.00000000000E+00 -0.00000000000E+00 -0.45593999997E+02  0.45594000000E+02  0.51100000000E-03 0.  1.
    9900012    2    1    2    0    0 -0.43840998412E+02  0.59384449869E+01 -0.84743811423E+01  0.46142318672E+02  0.10000008303E+02 0.  0.
         12    1    1    2    0    0  0.43840998412E+02 -0.59384449869E+01  0.84743811423E+01  0.45045681328E+02  0.00000000000E+00 0. -1.
         11    1    3    3    0    0 -0.13993294035E+02 -0.99268690926E-01 -0.50532053238E+01  0.14878071667E+02  0.51100000000E-03 0. -1.
        -11    1    3    3    0    0 -0.94834059369E+01  0.59533868494E+00  0.14965366600E+01  0.96192015546E+01  0.51100000000E-03 0.  1.
        -12    1    3    3    0    0 -0.20364298440E+02  0.54423749929E+01 -0.49177124784E+01  0.21645045450E+02  0.00000000000E+00 0.  1.
</event>
<event>
 7    1  0.2472338E-008  0.4614232E+02  0.7816164E-02  0.1320468E+00
        -11   -1    0    0    0    0  0.00000000000E+00  0.00000000000E+00  0.45593999997E+02  0.45594000000E+02  0.51100000000E-03 0.  1.
         11   -1    0    0    0    0 -0.00000000000E+00 -0.00000000000E+00 -0.45593999997E+02  0.45594000000E+02  0.51100000000E-03 0. -1.
    9900012    2    1    2    0    0 -0.12029092983E+02  0.52394881370E+01  0.43092484014E+02  0.46142317716E+02  0.99999995863E+01 0.  0.
         12    1    1    2    0    0  0.12029092983E+02 -0.52394881370E+01 -0.43092484014E+02  0.45045682284E+02  0.00000000000E+00 0. -1.
         11    1    3    3    0    0 -0.89744519793E+01  0.21922432897E+01  0.18874783631E+02  0.21014380228E+02  0.51100000000E-03 0. -1.
        -11    1    3    3    0    0 -0.36928132150E+01  0.43784635421E+00  0.17545895938E+02  0.17935636130E+02  0.51100000000E-03 0.  1.
         12    1    3    3    0    0  0.63817221122E+00  0.26093984931E+01  0.66718044456E+01  0.71923013582E+01  0.00000000000E+00 0. -1.
</event>
<event>
 7    1  0.2472338E-008  0.4614232E+02  0.7816164E-02  0.1320468E+00
        -11   -1    0    0    0    0  0.00000000000E+00  0.00000000000E+00  0.45593999997E+02  0.45594000000E+02  0.51100000000E-03 0.  1.
         11   -1    0    0    0    0 -0.00000000000E+00 -0.00000000000E+00 -0.45593999997E+02  0.45594000000E+02  0.51100000000E-03 0. -1.
    9900012    2    1    2    0    0 -0.24922421709E+02 -0.16742414518E+02  0.33580917143E+02  0.46142317145E+02  0.99999943818E+01 0.  0.
         12    1    1    2    0    0  0.24922421709E+02  0.16742414518E+02 -0.33580917143E+02  0.45045682855E+02  0.00000000000E+00 0. -1.
         11    1    3    3    0    0 -0.46133276948E+01 -0.64373525074E+01  0.11777525822E+02  0.14192688769E+02  0.51100000000E-03 0. -1.
        -11    1    3    3    0    0 -0.72692331379E+01 -0.26127761041E+01  0.10597751226E+02  0.13114140486E+02  0.51100000000E-03 0.  1.
        -12    1    3    3    0    0 -0.13039860876E+02 -0.76922859062E+01  0.11205640094E+02  0.18835487890E+02  0.00000000000E+00 0.  1.
</event>
<event>
 7    1  0.2472338E-008  0.4614232E+02  0.7816164E-02  0.1320468E+00
        -11   -1    0    0    0    0  0.00000000000E+00  0.00000000000E+00  0.45593999997E+02  0.45594000000E+02  0.51100000000E-03 0. -1.
         11   -1    0    0    0    0 -0.00000000000E+00 -0.00000000000E+00 -0.45593999997E+02  0.45594000000E+02  0.51100000000E-03 0.  1.
    9900012    2    1    2    0    0  0.23768188193E+02  0.19143864664E+02 -0.33131544544E+02  0.46142316876E+02  0.99999919293E+01 0.  0.
         12    1    1    2    0    0 -0.23768188193E+02 -0.19143864664E+02  0.33131544544E+02  0.45045683124E+02  0.00000000000E+00 0. -1.
         11    1    3    3    0    0  0.13532794131E+02  0.67290537970E+01 -0.13400252709E+02  0.20198600321E+02  0.51100000000E-03 0. -1.
        -11    1    3    3    0    0  0.38635214923E+01  0.32191762931E+01 -0.96606846400E+01  0.10891222259E+02  0.51100000000E-03 0.  1.
        -12    1    3    3    0    0  0.63718725703E+01  0.91956345737E+01 -0.10070607195E+02  0.15052494296E+02  0.00000000000E+00 0.  1.
</event>
<event>
 7    1  0.2472338E-008  0.4614232E+02  0.7816164E-02  0.1320468E+00
        -11   -1    0    0    0    0  0.00000000000E+00  0.00000000000E+00  0.45593999997E+02  0.45594000000E+02  0.51100000000E-03 0. -1.
         11   -1    0    0    0    0 -0.00000000000E+00 -0.00000000000E+00 -0.45593999997E+02  0.45594000000E+02  0.51100000000E-03 0.  1.
    9900012    2    1    2    0    0 -0.93910670582E+01 -0.43486634677E+02  0.70593158882E+01  0.46142317889E+02  0.10000001168E+02 0.  0.
         12    1    1    2    0    0  0.93910670582E+01  0.43486634677E+02 -0.70593158882E+01  0.45045682111E+02  0.00000000000E+00 0. -1.
         11    1    3    3    0    0 -0.17277504813E+01 -0.13765206593E+02  0.56770651923E+01  0.14989833346E+02  0.51100000000E-03 0. -1.
        -11    1    3    3    0    0 -0.54304939697E+01 -0.12296998401E+02 -0.70984743677E+00  0.13461438187E+02  0.51100000000E-03 0.  1.
        -12    1    3    3    0    0 -0.22328226072E+01 -0.17424429683E+02  0.20920981327E+01  0.17691046356E+02  0.00000000000E+00 0.  1.
</event>
<event>
 7    1  0.2472338E-008  0.4614232E+02  0.7816164E-02  0.1320468E+00
        -11   -1    0    0    0    0  0.00000000000E+00  0.00000000000E+00  0.45593999997E+02  0.45594000000E+02  0.51100000000E-03 0. -1.
         11   -1    0    0    0    0 -0.00000000000E+00 -0.00000000000E+00 -0.45593999997E+02  0.45594000000E+02  0.51100000000E-03 0.  1.
    9900012    2    1    2    0    0 -0.16496558909E+02 -0.41758881715E+02 -0.36294415442E+01  0.46142317590E+02  0.99999984365E+01 0.  0.
         12    1    1    2    0    0  0.16496558909E+02  0.41758881715E+02  0.36294415442E+01  0.45045682410E+02  0.00000000000E+00 0. -1.
         11    1    3    3    0    0 -0.52981228977E+01 -0.85269754121E+01 -0.19258579307E+01  0.10221954067E+02  0.51100000000E-03 0. -1.
        -11    1    3    3    0    0 -0.11594667982E+02 -0.31835165496E+02 -0.27280542963E+00  0.33881979146E+02  0.51100000000E-03 0.  1.
        -12    1    3    3    0    0  0.39623197113E+00 -0.13967408062E+01 -0.14307781839E+01  0.20383843764E+01  0.00000000000E+00 0.  1.
</event>
<event>
 7    1  0.2472338E-008  0.4614232E+02  0.7816164E-02  0.1320468E+00
        -11   -1    0    0    0    0  0.00000000000E+00  0.00000000000E+00  0.45593999997E+02  0.45594000000E+02  0.51100000000E-03 0. -1.
         11   -1    0    0    0    0 -0.00000000000E+00 -0.00000000000E+00 -0.45593999997E+02  0.45594000000E+02  0.51100000000E-03 0.  1.
    9900012    2    1    2    0    0 -0.20183572825E+01 -0.27774006632E+01 -0.44914649471E+02  0.46142318102E+02  0.10000003110E+02 0.  0.
         12    1    1    2    0    0  0.20183572825E+01  0.27774006632E+01  0.44914649471E+02  0.45045681898E+02  0.00000000000E+00 0. -1.
         11    1    3    3    0    0 -0.91273535949E+00 -0.34859332482E+00 -0.66575054682E+00  0.11822974221E+01  0.51100000000E-03 0. -1.
        -11    1    3    3    0    0  0.22724965289E+01 -0.10415932593E+00 -0.49495238476E+01  0.54472815438E+01  0.51100000000E-03 0.  1.
        -12    1    3    3    0    0 -0.33781184520E+01 -0.23246480124E+01 -0.39299375076E+02  0.39512739136E+02  0.00000000000E+00 0.  1.
</event>
<event>
 7    1  0.2472338E-008  0.4614232E+02  0.7816164E-02  0.1320468E+00
        -11   -1    0    0    0    0  0.00000000000E+00  0.00000000000E+00  0.45593999997E+02  0.45594000000E+02  0.51100000000E-03 0. -1.
         11   -1    0    0    0    0 -0.00000000000E+00 -0.00000000000E+00 -0.45593999997E+02  0.45594000000E+02  0.51100000000E-03 0.  1.
    9900012    2    1    2    0    0 -0.42248375926E+02 -0.16141720537E+01  0.15542933119E+02  0.46142316636E+02  0.99999897384E+01 0.  0.
         12    1    1    2    0    0  0.42248375926E+02  0.16141720537E+01 -0.15542933119E+02  0.45045683364E+02  0.00000000000E+00 0. -1.
         11    1    3    3    0    0 -0.96606308285E+01 -0.35815010996E+01  0.30747868274E+01  0.10752174312E+02  0.51100000000E-03 0. -1.
        -11    1    3    3    0    0 -0.17394392846E+02  0.61789329409E+00  0.95743148714E+01  0.19864898694E+02  0.51100000000E-03 0.  1.
        -12    1    3    3    0    0 -0.15193352252E+02  0.13494357518E+01  0.28938314197E+01  0.15525243630E+02  0.00000000000E+00 0.  1.
</event>
<event>
 7    1  0.2472338E-008  0.4614232E+02  0.7816164E-02  0.1320468E+00
        -11   -1    0    0    0    0  0.00000000000E+00  0.00000000000E+00  0.45593999997E+02  0.45594000000E+02  0.51100000000E-03 0.  1.
         11   -1    0    0    0    0 -0.00000000000E+00 -0.00000000000E+00 -0.45593999997E+02  0.45594000000E+02  0.51100000000E-03 0. -1.
    9900012    2    1    2    0    0  0.70659230451E+01  0.19503080900E+02  0.39985198176E+02  0.46142317562E+02  0.99999981866E+01 0.  0.
         12    1    1    2    0    0 -0.70659230451E+01 -0.19503080900E+02 -0.39985198176E+02  0.45045682438E+02  0.00000000000E+00 0. -1.
         11    1    3    3    0    0  0.35851699012E+01  0.50965443651E+01  0.12193530802E+02  0.13693443736E+02  0.51100000000E-03 0. -1.
        -11    1    3    3    0    0  0.56332580129E+01  0.11434557408E+02  0.18570314833E+02  0.22524193486E+02  0.51100000000E-03 0.  1.
         12    1    3    3    0    0 -0.21525048689E+01  0.29719791269E+01  0.92213525420E+01  0.99246803397E+01  0.00000000000E+00 0. -1.
</event>
<event>
 7    1  0.2472338E-008  0.4614232E+02  0.7816164E-02  0.1320468E+00
        -11   -1    0    0    0    0  0.00000000000E+00  0.00000000000E+00  0.45593999997E+02  0.45594000000E+02  0.51100000000E-03 0. -1.
         11   -1    0    0    0    0 -0.00000000000E+00 -0.00000000000E+00 -0.45593999997E+02  0.45594000000E+02  0.51100000000E-03 0.  1.
    9900012    2    1    2    0    0  0.19643674234E+02 -0.40084875037E+02 -0.60367610569E+01  0.46142316209E+02  0.99999858460E+01 0.  0.
         12    1    1    2    0    0 -0.19643674234E+02  0.40084875037E+02  0.60367610569E+01  0.45045683791E+02  0.00000000000E+00 0. -1.
         11    1    3    3    0    0 -0.37935558607E+00 -0.13986436592E+01 -0.17822455524E+01  0.22970664370E+01  0.51100000000E-03 0. -1.
        -11    1    3    3    0    0  0.45369273451E+01 -0.10258318455E+02 -0.20077362854E+01  0.11395078434E+02  0.51100000000E-03 0.  1.
        -12    1    3    3    0    0  0.15486102475E+02 -0.28427912923E+02 -0.22467792191E+01  0.32450171338E+02  0.00000000000E+00 0.  1.
</event>
<event>
 7    1  0.2472338E-008  0.4614231E+02  0.7816164E-02  0.1320468E+00
        -11   -1    0    0    0    0  0.00000000000E+00  0.00000000000E+00  0.45593999997E+02  0.45594000000E+02  0.51100000000E-03 0.  1.
         11   -1    0    0    0    0 -0.00000000000E+00 -0.00000000000E+00 -0.45593999997E+02  0.45594000000E+02  0.51100000000E-03 0. -1.
    9900012    2    1    2    0    0  0.95709183724E+01 -0.55202863897E+01  0.43669644668E+02  0.46142313128E+02  0.99999577509E+01 0.  0.
         12    1    1    2    0    0 -0.95709183724E+01  0.55202863897E+01 -0.43669644668E+02  0.45045686872E+02  0.00000000000E+00 0. -1.
         11    1    3    3    0    0  0.35458289677E+01 -0.37738704455E+01  0.62736929384E+01  0.81347541176E+01  0.51100000000E-03 0. -1.
        -11    1    3    3    0    0 -0.16898289769E+00 -0.12272299327E+00  0.38665426147E+01  0.38721787414E+01  0.51100000000E-03 0.  1.
         12    1    3    3    0    0  0.61940723024E+01 -0.16236929510E+01  0.33529409115E+02  0.34135380269E+02  0.00000000000E+00 0. -1.
</event>
<event>
 7    1  0.2472338E-008  0.4614232E+02  0.7816164E-02  0.1320468E+00
        -11   -1    0    0    0    0  0.00000000000E+00  0.00000000000E+00  0.45593999997E+02  0.45594000000E+02  0.51100000000E-03 0.  1.
         11   -1    0    0    0    0 -0.00000000000E+00 -0.00000000000E+00 -0.45593999997E+02  0.45594000000E+02  0.51100000000E-03 0. -1.
    9900012    2    1    2    0    0  0.25539272490E+02 -0.19848208448E+02  0.31351358191E+02  0.46142317872E+02  0.10000001013E+02 0.  0.
         12    1    1    2    0    0 -0.25539272490E+02  0.19848208448E+02 -0.31351358191E+02  0.45045682128E+02  0.00000000000E+00 0. -1.
         11    1    3    3    0    0  0.94521121714E+01 -0.12954480555E+02  0.16966795660E+02  0.23345944962E+02  0.51100000000E-03 0. -1.
        -11    1    3    3    0    0  0.23597069341E+01 -0.12659567812E+01  0.11475081599E+01  0.29133552178E+01  0.51100000000E-03 0.  1.
         12    1    3    3    0    0  0.13727453385E+02 -0.56277711116E+01  0.13237054372E+02  0.19883017692E+02  0.00000000000E+00 0. -1.
</event>
<event>
 7    1  0.2472338E-008  0.4614232E+02  0.7816164E-02  0.1320468E+00
        -11   -1    0    0    0    0  0.00000000000E+00  0.00000000000E+00  0.45593999997E+02  0.45594000000E+02  0.51100000000E-03 0.  1.
         11   -1    0    0    0    0 -0.00000000000E+00 -0.00000000000E+00 -0.45593999997E+02  0.45594000000E+02  0.51100000000E-03 0. -1.
    9900012    2    1    2    0    0 -0.31760598858E+01 -0.87811647232E+01  0.44067190843E+02  0.46142317420E+02  0.99999968908E+01 0.  0.
         12    1    1    2    0    0  0.31760598858E+01  0.87811647232E+01 -0.44067190843E+02  0.45045682580E+02  0.00000000000E+00 0. -1.
         11    1    3    3    0    0 -0.47835692095E+00 -0.96821021669E+01  0.36265946933E+02  0.37539190653E+02  0.51100000000E-03 0. -1.
        -11    1    3    3    0    0 -0.21423361016E+01  0.22097450949E+00  0.72577812198E+01  0.75705892903E+01  0.51100000000E-03 0.  1.
         12    1    3    3    0    0 -0.55536686325E+00  0.67996293419E+00  0.54346269041E+00  0.10325374766E+01  0.00000000000E+00 0. -1.
</event>
<event>
 7    1  0.2472338E-008  0.4614232E+02  0.7816164E-02  0.1320468E+00
        -11   -1    0    0    0    0  0.00000000000E+00  0.00000000000E+00  0.45593999997E+02  0.45594000000E+02  0.51100000000E-03 0.  1.
         11   -1    0    0    0    0 -0.00000000000E+00 -0.00000000000E+00 -0.45593999997E+02  0.45594000000E+02  0.51100000000E-03 0. -1.
    9900012    2    1    2    0    0 -0.12005020111E+02  0.25804197567E+02  0.34916133016E+02  0.46142318023E+02  0.10000002391E+02 0.  0.
         12    1    1    2    0    0  0.12005020111E+02 -0.25804197567E+02 -0.34916133016E+02  0.45045681977E+02  0.00000000000E+00 0. -1.
         11    1    3    3    0    0  0.11061282757E+01  0.50991598415E+01  0.58645316385E+01  0.78496931437E+01  0.51100000000E-03 0. -1.
        -11    1    3    3    0    0 -0.94417257863E+01  0.13314953165E+02  0.22275816202E+02  0.27616048800E+02  0.51100000000E-03 0.  1.
        -12    1    3    3    0    0 -0.36694226003E+01  0.73900845608E+01  0.67757851759E+01  0.10676576080E+02  0.00000000000E+00 0.  1.
</event>
<event>
 7    1  0.2472338E-008  0.4614232E+02  0.7816164E-02  0.1320468E+00
        -11   -1    0    0    0    0  0.00000000000E+00  0.00000000000E+00  0.45593999997E+02  0.45594000000E+02  0.51100000000E-03 0. -1.
         11   -1    0    0    0    0 -0.00000000000E+00 -0.00000000000E+00 -0.45593999997E+02  0.45594000000E+02  0.51100000000E-03 0.  1.
    9900012    2    1    2    0    0  0.16538493799E+02 -0.60692386761E+01 -0.41457883104E+02  0.46142317558E+02  0.99999981451E+01 0.  0.
         12    1    1    2    0    0 -0.16538493799E+02  0.60692386761E+01  0.41457883104E+02  0.45045682442E+02  0.00000000000E+00 0. -1.
         11    1    3    3    0    0  0.33839493335E+01  0.51309144360E+00 -0.14620477957E+02  0.15015750127E+02  0.51100000000E-03 0. -1.
        -11    1    3    3    0    0  0.11096959331E+00 -0.16253485782E+01 -0.45345452811E+01  0.48183164507E+01  0.51100000000E-03 0.  1.
        -12    1    3    3    0    0  0.13043574872E+02 -0.49569815415E+01 -0.22302859866E+02  0.26308250980E+02  0.00000000000E+00 0.  1.
</event>
<event>
 7    1  0.2472338E-008  0.4614232E+02  0.7816164E-02  0.1320468E+00
        -11   -1    0    0    0    0  0.00000000000E+00  0.00000000000E+00  0.45593999997E+02  0.45594000000E+02  0.51100000000E-03 0. -1.
         11   -1    0    0    0    0 -0.00000000000E+00 -0.00000000000E+00 -0.45593999997E+02  0.45594000000E+02  0.51100000000E-03 0.  1.
    9900012    2    1    2    0    0  0.43735871400E+02 -0.57092944746E+00 -0.10768521999E+02  0.46142317925E+02  0.10000001494E+02 0.  0.
         12    1    1    2    0    0 -0.43735871400E+02  0.57092944746E+00  0.10768521999E+02  0.45045682075E+02  0.00000000000E+00 0. -1.
         11    1    3    3    0    0  0.25483922139E+01 -0.10995131575E+01 -0.24729147872E+01  0.37173296686E+01  0.51100000000E-03 0. -1.
        -11    1    3    3    0    0  0.35927076229E+02  0.17871090968E+01 -0.56810014664E+01  0.36417335751E+02  0.51100000000E-03 0.  1.
        -12    1    3    3    0    0  0.52604029577E+01 -0.12585253868E+01 -0.26146057451E+01  0.60076525057E+01  0.00000000000E+00 0.  1.
</event>
<event>
 7    1  0.2472338E-008  0.4614232E+02  0.7816164E-02  0.1320468E+00
        -11   -1    0    0    0    0  0.00000000000E+00  0.00000000000E+00  0.45593999997E+02  0.45594000000E+02  0.51100000000E-03 0. -1.
         11   -1    0    0    0    0 -0.00000000000E+00 -0.00000000000E+00 -0.45593999997E+02  0.45594000000E+02  0.51100000000E-03 0.  1.
    9900012    2    1    2    0    0  0.14134737450E+02  0.42028747973E+02 -0.79313657323E+01  0.46142322945E+02  0.10000047273E+02 0.  0.
         12    1    1    2    0    0 -0.14134737450E+02 -0.42028747973E+02  0.79313657323E+01  0.45045677055E+02  0.00000000000E+00 0. -1.
         11    1    3    3    0    0 -0.27848881522E+00 -0.13837798646E+00 -0.46604529178E+00  0.56027043689E+00  0.51100000000E-03 0. -1.
        -11    1    3    3    0    0  0.23387677174E+01  0.41331103704E+01  0.83905692649E+00  0.48224944331E+01  0.51100000000E-03 0.  1.
        -12    1    3    3    0    0  0.12074458548E+02  0.38034015589E+02 -0.83043773671E+01  0.40759558075E+02  0.00000000000E+00 0.  1.
</event>
<event>
 7    1  0.2472338E-008  0.4614232E+02  0.7816164E-02  0.1320468E+00
        -11   -1    0    0    0    0  0.00000000000E+00  0.00000000000E+00  0.45593999997E+02  0.45594000000E+02  0.51100000000E-03 0.  1.
         11   -1    0    0    0    0 -0.00000000000E+00 -0.00000000000E+00 -0.45593999997E+02  0.45594000000E+02  0.51100000000E-03 0. -1.
    9900012    2    1    2    0    0 -0.16531509281E+02  0.39361468101E+02  0.14370022355E+02  0.46142317492E+02  0.99999975425E+01 0.  0.
         12    1    1    2    0    0  0.16531509281E+02 -0.39361468101E+02 -0.14370022355E+02  0.45045682508E+02  0.00000000000E+00 0. -1.
         11    1    3    3    0    0 -0.27269425199E+01  0.70177332287E+01  0.63501949605E+01  0.98493538607E+01  0.51100000000E-03 0. -1.
        -11    1    3    3    0    0 -0.15633672583E+01  0.29624245731E+01  0.19940242737E+01  0.38982315992E+01  0.51100000000E-03 0.  1.
         12    1    3    3    0    0 -0.12241199502E+02  0.29381310299E+02  0.60258031210E+01  0.32394732032E+02  0.00000000000E+00 0. -1.
</event>
<event>
 7    1  0.2472338E-008  0.4614232E+02  0.7816164E-02  0.1320468E+00
        -11   -1    0    0    0    0  0.00000000000E+00  0.00000000000E+00  0.45593999997E+02  0.45594000000E+02  0.51100000000E-03 0. -1.
         11   -1    0    0    0    0 -0.00000000000E+00 -0.00000000000E+00 -0.45593999997E+02  0.45594000000E+02  0.51100000000E-03 0.  1.
    9900012    2    1    2    0    0 -0.41036608747E+02  0.12746673902E+02 -0.13514157083E+02  0.46142318801E+02  0.10000009480E+02 0.  0.
         12    1    1    2    0    0  0.41036608747E+02 -0.12746673902E+02  0.13514157083E+02  0.45045681199E+02  0.00000000000E+00 0. -1.
         11    1    3    3    0    0 -0.77724269760E+01  0.37456350066E+01 -0.76655990537E+00  0.86618714520E+01  0.51100000000E-03 0. -1.
        -11    1    3    3    0    0 -0.17374666968E+02  0.68713373417E+01 -0.10075835012E+02  0.21227736115E+02  0.51100000000E-03 0.  1.
        -12    1    3    3    0    0 -0.15889514803E+02  0.21297015540E+01 -0.26717621659E+01  0.16252711234E+02  0.00000000000E+00 0.  1.
</event>
<event>
 7    1  0.2472338E-008  0.4614232E+02  0.7816164E-02  0.1320468E+00
        -11   -1    0    0    0    0  0.00000000000E+00  0.00000000000E+00  0.45593999997E+02  0.45594000000E+02  0.51100000000E-03 0. -1.
         11   -1    0    0    0    0 -0.00000000000E+00 -0.00000000000E+00 -0.45593999997E+02  0.45594000000E+02  0.51100000000E-03 0.  1.
    9900012    2    1    2    0    0  0.20817239735E+02  0.12128178549E+02 -0.38061310468E+02  0.46142317191E+02  0.99999948058E+01 0.  0.
         12    1    1    2    0    0 -0.20817239735E+02 -0.12128178549E+02  0.38061310468E+02  0.45045682809E+02  0.00000000000E+00 0. -1.
         11    1    3    3    0    0  0.85378734231E+01  0.14968733844E+01 -0.19612311394E+02  0.21442450210E+02  0.51100000000E-03 0. -1.
        -11    1    3    3    0    0  0.42024859108E+01  0.47989778404E+01 -0.84216476129E+01  0.10564810690E+02  0.51100000000E-03 0.  1.
        -12    1    3    3    0    0  0.80768804013E+01  0.58323273242E+01 -0.10027351462E+02  0.14135056292E+02  0.00000000000E+00 0.  1.
</event>
<event>
 7    1  0.2472338E-008  0.4614232E+02  0.7816164E-02  0.1320468E+00
        -11   -1    0    0    0    0  0.00000000000E+00  0.00000000000E+00  0.45593999997E+02  0.45594000000E+02  0.51100000000E-03 0.  1.
         11   -1    0    0    0    0 -0.00000000000E+00 -0.00000000000E+00 -0.45593999997E+02  0.45594000000E+02  0.51100000000E-03 0. -1.
    9900012    2    1    2    0    0 -0.91193321618E+01 -0.33542790624E+02  0.28650173695E+02  0.46142317913E+02  0.10000001385E+02 0.  0.
         12    1    1    2    0    0  0.91193321618E+01  0.33542790624E+02 -0.28650173695E+02  0.45045682087E+02  0.00000000000E+00 0. -1.
         11    1    3    3    0    0 -0.93924829894E+01 -0.30024084765E+02  0.24074208080E+02  0.39613531749E+02  0.51100000000E-03 0. -1.
        -11    1    3    3    0    0  0.45265270956E+00 -0.39809495951E+01  0.34082134434E+01  0.52601115284E+01  0.51100000000E-03 0.  1.
        -12    1    3    3    0    0 -0.17950188199E+00  0.46224373609E+00  0.11677521713E+01  0.12686746355E+01  0.00000000000E+00 0.  1.
</event>
<event>
 7    1  0.2472338E-008  0.4614232E+02  0.7816164E-02  0.1320468E+00
        -11   -1    0    0    0    0  0.00000000000E+00  0.00000000000E+00  0.45593999997E+02  0.45594000000E+02  0.51100000000E-03 0.  1.
         11   -1    0    0    0    0 -0.00000000000E+00 -0.00000000000E+00 -0.45593999997E+02  0.45594000000E+02  0.51100000000E-03 0. -1.
    9900012    2    1    2    0    0  0.42035208086E+02  0.14006894896E+02 -0.81216752004E+01  0.46142318392E+02  0.10000005756E+02 0.  0.
         12    1    1    2    0    0 -0.42035208086E+02 -0.14006894896E+02  0.81216752004E+01  0.45045681608E+02  0.00000000000E+00 0. -1.
         11    1    3    3    0    0  0.18453948056E+02  0.71126253283E+01 -0.62735523046E+00  0.19787147666E+02  0.51100000000E-03 0. -1.
        -11    1    3    3    0    0  0.12499957166E+02  0.48925213233E+01 -0.12559341539E+01  0.13481953304E+02  0.51100000000E-03 0.  1.
         12    1    3    3    0    0  0.11081302864E+02  0.20017482444E+01 -0.62383858160E+01  0.12873217422E+02  0.00000000000E+00 0. -1.
</event>
<event>
 7    1  0.2472338E-008  0.4614232E+02  0.7816164E-02  0.1320468E+00
        -11   -1    0    0    0    0  0.00000000000E+00  0.00000000000E+00  0.45593999997E+02  0.45594000000E+02  0.51100000000E-03 0.  1.
         11   -1    0    0    0    0 -0.00000000000E+00 -0.00000000000E+00 -0.45593999997E+02  0.45594000000E+02  0.51100000000E-03 0. -1.
    9900012    2    1    2    0    0  0.37976483240E+02 -0.53559715769E+01  0.23626549021E+02  0.46142317305E+02  0.99999958425E+01 0.  0.
         12    1    1    2    0    0 -0.37976483240E+02  0.53559715769E+01 -0.23626549021E+02  0.45045682695E+02  0.00000000000E+00 0. -1.
         11    1    3    3    0    0  0.45570496251E+01 -0.89573311644E+00  0.46218206252E+01  0.65521191422E+01  0.51100000000E-03 0.  1.
        -11    1    3    3    0    0  0.22609864973E+02 -0.10731232233E+01  0.16440350110E+02  0.27975751993E+02  0.51100000000E-03 0. -1.
         12    1    3    3    0    0  0.10809568641E+02 -0.33871152372E+01  0.25643782856E+01  0.11614446170E+02  0.00000000000E+00 0. -1.
</event>
<event>
 7    1  0.2472338E-008  0.4614232E+02  0.7816164E-02  0.1320468E+00
        -11   -1    0    0    0    0  0.00000000000E+00  0.00000000000E+00  0.45593999997E+02  0.45594000000E+02  0.51100000000E-03 0. -1.
         11   -1    0    0    0    0 -0.00000000000E+00 -0.00000000000E+00 -0.45593999997E+02  0.45594000000E+02  0.51100000000E-03 0.  1.
    9900012    2    1    2    0    0 -0.34151758646E+02  0.18770186326E+02 -0.22593161992E+02  0.46142317830E+02  0.10000000628E+02 0.  0.
         12    1    1    2    0    0  0.34151758646E+02 -0.18770186326E+02  0.22593161992E+02  0.45045682170E+02  0.00000000000E+00 0. -1.
         11    1    3    3    0    0 -0.10540550553E+02  0.64763417438E+01 -0.81586964472E+01  0.14819262340E+02  0.51100000000E-03 0. -1.
        -11    1    3    3    0    0 -0.12519265695E+02  0.10920439033E+02 -0.82289990939E+01  0.18539267207E+02  0.51100000000E-03 0.  1.
         12    1    3    3    0    0 -0.11091942399E+02  0.13734055491E+01 -0.62054664512E+01  0.12783788283E+02  0.00000000000E+00 0. -1.
</event>
<event>
 7    1  0.2472338E-008  0.4614232E+02  0.7816164E-02  0.1320468E+00
        -11   -1    0    0    0    0  0.00000000000E+00  0.00000000000E+00  0.45593999997E+02  0.45594000000E+02  0.51100000000E-03 0. -1.
         11   -1    0    0    0    0 -0.00000000000E+00 -0.00000000000E+00 -0.45593999997E+02  0.45594000000E+02  0.51100000000E-03 0.  1.
    9900012    2    1    2    0    0  0.13991905824E+01  0.36115516471E+01 -0.44878864418E+02  0.46142317510E+02  0.99999977083E+01 0.  0.
         12    1    1    2    0    0 -0.13991905824E+01 -0.36115516471E+01  0.44878864418E+02  0.45045682490E+02  0.00000000000E+00 0. -1.
         11    1    3    3    0    0 -0.23808728921E+01  0.13525050209E+01 -0.50159005632E+01  0.57146377209E+01  0.51100000000E-03 0. -1.
        -11    1    3    3    0    0  0.47490975523E+00  0.22583845709E+00 -0.18057701328E+00  0.55601313218E+00  0.51100000000E-03 0.  1.
        -12    1    3    3    0    0  0.33051537193E+01  0.20332081691E+01 -0.39682386841E+02  0.39871666657E+02  0.00000000000E+00 0.  1.
</event>
<event>
 7    1  0.2472338E-008  0.4614232E+02  0.7816164E-02  0.1320468E+00
        -11   -1    0    0    0    0  0.00000000000E+00  0.00000000000E+00  0.45593999997E+02  0.45594000000E+02  0.51100000000E-03 0.  1.
         11   -1    0    0    0    0 -0.00000000000E+00 -0.00000000000E+00 -0.45593999997E+02  0.45594000000E+02  0.51100000000E-03 0. -1.
    9900012    2    1    2    0    0  0.39413709627E+02 -0.21244072574E+02  0.49358193408E+01  0.46142318313E+02  0.10000005030E+02 0.  0.
         12    1    1    2    0    0 -0.39413709627E+02  0.21244072574E+02 -0.49358193408E+01  0.45045681687E+02  0.00000000000E+00 0. -1.
         11    1    3    3    0    0  0.90640006023E+00  0.79101400002E-01 -0.52857457867E+00  0.10522402040E+01  0.51100000000E-03 0. -1.
        -11    1    3    3    0    0  0.16968880766E+02 -0.13850356475E+02  0.15503655753E+01  0.21958572872E+02  0.51100000000E-03 0.  1.
        -12    1    3    3    0    0  0.21538428802E+02 -0.74728174990E+01  0.39140283441E+01  0.23131505236E+02  0.00000000000E+00 0.  1.
</event>
<event>
 7    1  0.2472338E-008  0.4614232E+02  0.7816164E-02  0.1320468E+00
        -11   -1    0    0    0    0  0.00000000000E+00  0.00000000000E+00  0.45593999997E+02  0.45594000000E+02  0.51100000000E-03 0.  1.
         11   -1    0    0    0    0 -0.00000000000E+00 -0.00000000000E+00 -0.45593999997E+02  0.45594000000E+02  0.51100000000E-03 0. -1.
    9900012    2    1    2    0    0  0.11146617425E+02 -0.42107337710E+02  0.11482104450E+02  0.46142315505E+02  0.99999794241E+01 0.  0.
         12    1    1    2    0    0 -0.11146617425E+02  0.42107337710E+02 -0.11482104450E+02  0.45045684495E+02  0.00000000000E+00 0. -1.
         11    1    3    3    0    0  0.18937483480E+01 -0.11055304492E+01  0.82719006469E+00  0.23436561275E+01  0.51100000000E-03 0. -1.
        -11    1    3    3    0    0  0.87327597875E+01 -0.28671288017E+02  0.93085161467E+01  0.31383950088E+02  0.51100000000E-03 0.  1.
        -12    1    3    3    0    0  0.52010928915E+00 -0.12330519244E+02  0.13463982390E+01  0.12414709289E+02  0.00000000000E+00 0.  1.
</event>
<event>
 7    1  0.2472338E-008  0.4614232E+02  0.7816164E-02  0.1320468E+00
        -11   -1    0    0    0    0  0.00000000000E+00  0.00000000000E+00  0.45593999997E+02  0.45594000000E+02  0.51100000000E-03 0. -1.
         11   -1    0    0    0    0 -0.00000000000E+00 -0.00000000000E+00 -0.45593999997E+02  0.45594000000E+02  0.51100000000E-03 0.  1.
    9900012    2    1    2    0    0 -0.43887462046E+02  0.10032065570E+02  0.15368140038E+01  0.46142318057E+02  0.10000002701E+02 0.  0.
         12    1    1    2    0    0  0.43887462046E+02 -0.10032065570E+02 -0.15368140038E+01  0.45045681943E+02  0.00000000000E+00 0. -1.
         11    1    3    3    0    0 -0.47109433634E+01  0.33055873445E+01 -0.18198920440E+01  0.60358845564E+01  0.51100000000E-03 0. -1.
        -11    1    3    3    0    0 -0.53001110753E+00 -0.40241936598E+00  0.10373285595E+00  0.67350863896E+00  0.51100000000E-03 0.  1.
        -12    1    3    3    0    0 -0.38646507575E+02  0.71288975910E+01  0.32529731919E+01  0.39432924862E+02  0.00000000000E+00 0.  1.
</event>
<event>
 7    1  0.2472338E-008  0.4614232E+02  0.7816164E-02  0.1320468E+00
        -11   -1    0    0    0    0  0.00000000000E+00  0.00000000000E+00  0.45593999997E+02  0.45594000000E+02  0.51100000000E-03 0. -1.
         11   -1    0    0    0    0 -0.00000000000E+00 -0.00000000000E+00 -0.45593999997E+02  0.45594000000E+02  0.51100000000E-03 0.  1.
    9900012    2    1    2    0    0  0.13919436577E+02  0.23318849428E+02  0.35938753650E+02  0.46142317996E+02  0.10000002145E+02 0.  0.
         12    1    1    2    0    0 -0.13919436577E+02 -0.23318849428E+02 -0.35938753650E+02  0.45045682004E+02  0.00000000000E+00 0. -1.
         11    1    3    3    0    0  0.13040278898E+02  0.14075333914E+02  0.23298670424E+02  0.30182643064E+02  0.51100000000E-03 0. -1.
        -11    1    3    3    0    0 -0.16230639309E+00  0.27917795424E+01  0.18774716481E+01  0.33682749932E+01  0.51100000000E-03 0.  1.
         12    1    3    3    0    0  0.10414640723E+01  0.64517359710E+01  0.10762611578E+02  0.12591399940E+02  0.00000000000E+00 0. -1.
</event>
<event>
 7    1  0.2472338E-008  0.4614231E+02  0.7816164E-02  0.1320468E+00
        -11   -1    0    0    0    0  0.00000000000E+00  0.00000000000E+00  0.45593999997E+02  0.45594000000E+02  0.51100000000E-03 0. -1.
         11   -1    0    0    0    0 -0.00000000000E+00 -0.00000000000E+00 -0.45593999997E+02  0.45594000000E+02  0.51100000000E-03 0.  1.
    9900012    2    1    2    0    0 -0.34548676238E+02  0.28905064950E+02 -0.14518665081E-02  0.46142314173E+02  0.99999672790E+01 0.  0.
         12    1    1    2    0    0  0.34548676238E+02 -0.28905064950E+02  0.14518665081E-02  0.45045685827E+02  0.00000000000E+00 0. -1.
         11    1    3    3    0    0 -0.45262125641E+01  0.31702836080E+01  0.11721112159E+01  0.56489948924E+01  0.51100000000E-03 0. -1.
        -11    1    3    3    0    0 -0.18210101225E+02  0.12770752391E+02 -0.43669397890E+01  0.22666496568E+02  0.51100000000E-03 0.  1.
        -12    1    3    3    0    0 -0.11812362449E+02  0.12964028950E+02  0.31933767067E+01  0.17826822713E+02  0.00000000000E+00 0.  1.
</event>
<event>
 7    1  0.2472338E-008  0.4614232E+02  0.7816164E-02  0.1320468E+00
        -11   -1    0    0    0    0  0.00000000000E+00  0.00000000000E+00  0.45593999997E+02  0.45594000000E+02  0.51100000000E-03 0. -1.
         11   -1    0    0    0    0 -0.00000000000E+00 -0.00000000000E+00 -0.45593999997E+02  0.45594000000E+02  0.51100000000E-03 0.  1.
    9900012    2    1    2    0    0  0.16029671169E+02  0.39756392527E+02 -0.13841690079E+02  0.46142317757E+02  0.99999999609E+01 0.  0.
         12    1    1    2    0    0 -0.16029671169E+02 -0.39756392527E+02  0.13841690079E+02  0.45045682243E+02  0.00000000000E+00 0. -1.
         11    1    3    3    0    0 -0.17266136252E+00 -0.30572327326E+00 -0.41695583257E+00  0.54509732466E+00  0.51100000000E-03 0. -1.
        -11    1    3    3    0    0  0.95966354830E+01  0.18047742088E+02 -0.44254845773E+01  0.20914141653E+02  0.51100000000E-03 0.  1.
        -12    1    3    3    0    0  0.66056970482E+01  0.22014373712E+02 -0.89992496693E+01  0.24683078779E+02  0.00000000000E+00 0.  1.
</event>
<event>
 7    1  0.2472338E-008  0.4614232E+02  0.7816164E-02  0.1320468E+00
        -11   -1    0    0    0    0  0.00000000000E+00  0.00000000000E+00  0.45593999997E+02  0.45594000000E+02  0.51100000000E-03 0.  1.
         11   -1    0    0    0    0 -0.00000000000E+00 -0.00000000000E+00 -0.45593999997E+02  0.45594000000E+02  0.51100000000E-03 0. -1.
    9900012    2    1    2    0    0  0.92687219089E+01  0.18786467162E+02  0.39878225567E+02  0.46142318425E+02  0.10000006050E+02 0.  0.
         12    1    1    2    0    0 -0.92687219089E+01 -0.18786467162E+02 -0.39878225567E+02  0.45045681575E+02  0.00000000000E+00 0. -1.
         11    1    3    3    0    0  0.18034600981E+00 -0.36714197365E+00  0.42618633746E+00  0.59072241148E+00  0.51100000000E-03 0. -1.
        -11    1    3    3    0    0  0.80399476082E+01  0.83226865054E+01  0.16531154093E+02  0.20178873212E+02  0.51100000000E-03 0.  1.
        -12    1    3    3    0    0  0.10484282909E+01  0.10830922630E+02  0.22920885137E+02  0.25372722801E+02  0.00000000000E+00 0.  1.
</event>
<event>
 7    1  0.2472338E-008  0.4614232E+02  0.7816164E-02  0.1320468E+00
        -11   -1    0    0    0    0  0.00000000000E+00  0.00000000000E+00  0.45593999997E+02  0.45594000000E+02  0.51100000000E-03 0.  1.
         11   -1    0    0    0    0 -0.00000000000E+00 -0.00000000000E+00 -0.45593999997E+02  0.45594000000E+02  0.51100000000E-03 0. -1.
    9900012    2    1    2    0    0  0.42296326299E+02 -0.14517852448E+01 -0.15428109412E+02  0.46142318089E+02  0.10000002994E+02 0.  0.
         12    1    1    2    0    0 -0.42296326299E+02  0.14517852448E+01  0.15428109412E+02  0.45045681911E+02  0.00000000000E+00 0. -1.
         11    1    3    3    0    0  0.91209816446E+01  0.32270359748E+01 -0.30531328004E+01  0.10145328358E+02  0.51100000000E-03 0. -1.
        -11    1    3    3    0    0  0.29749150573E+02 -0.28187382347E+01 -0.11356483710E+02  0.31967592458E+02  0.51100000000E-03 0.  1.
         12    1    3    3    0    0  0.34261940810E+01 -0.18600829849E+01 -0.10184929014E+01  0.40293972727E+01  0.00000000000E+00 0. -1.
</event>
<event>
 7    1  0.2472338E-008  0.4614232E+02  0.7816164E-02  0.1320468E+00
        -11   -1    0    0    0    0  0.00000000000E+00  0.00000000000E+00  0.45593999997E+02  0.45594000000E+02  0.51100000000E-03 0. -1.
         11   -1    0    0    0    0 -0.00000000000E+00 -0.00000000000E+00 -0.45593999997E+02  0.45594000000E+02  0.51100000000E-03 0.  1.
    9900012    2    1    2    0    0  0.87578893479E+01  0.40332886866E+02  0.18046354308E+02  0.46142319934E+02  0.10000019812E+02 0.  0.
         12    1    1    2    0    0 -0.87578893479E+01 -0.40332886866E+02 -0.18046354308E+02  0.45045680066E+02  0.00000000000E+00 0. -1.
         11    1    3    3    0    0  0.30696084901E+01  0.11474341656E+02  0.73926359198E+01  0.13990499591E+02  0.51100000000E-03 0. -1.
        -11    1    3    3    0    0  0.57237098303E+01  0.10956596738E+02  0.32687762691E+01  0.12786428933E+02  0.51100000000E-03 0.  1.
        -12    1    3    3    0    0 -0.35428972464E-01  0.17901948473E+02  0.73849421196E+01  0.19365391410E+02  0.00000000000E+00 0.  1.
</event>
<event>
 7    1  0.2472338E-008  0.4614232E+02  0.7816164E-02  0.1320468E+00
        -11   -1    0    0    0    0  0.00000000000E+00  0.00000000000E+00  0.45593999997E+02  0.45594000000E+02  0.51100000000E-03 0. -1.
         11   -1    0    0    0    0 -0.00000000000E+00 -0.00000000000E+00 -0.45593999997E+02  0.45594000000E+02  0.51100000000E-03 0.  1.
    9900012    2    1    2    0    0  0.39074064285E+02 -0.16861513924E+01 -0.22349227899E+02  0.46142316589E+02  0.99999893118E+01 0.  0.
         12    1    1    2    0    0 -0.39074064285E+02  0.16861513924E+01  0.22349227899E+02  0.45045683411E+02  0.00000000000E+00 0. -1.
         11    1    3    3    0    0  0.58565858251E+01 -0.28273527099E+01 -0.22910322335E+01  0.68950960710E+01  0.51100000000E-03 0. -1.
        -11    1    3    3    0    0  0.27489539799E+02  0.30633009673E+01 -0.15784305222E+02  0.31846552448E+02  0.51100000000E-03 0.  1.
        -12    1    3    3    0    0  0.57279386609E+01 -0.19220996498E+01 -0.42738904433E+01  0.74006680704E+01  0.00000000000E+00 0.  1.
</event>
<event>
 7    1  0.2472338E-008  0.4614232E+02  0.7816164E-02  0.1320468E+00
        -11   -1    0    0    0    0  0.00000000000E+00  0.00000000000E+00  0.45593999997E+02  0.45594000000E+02  0.51100000000E-03 0.  1.
         11   -1    0    0    0    0 -0.00000000000E+00 -0.00000000000E+00 -0.45593999997E+02  0.45594000000E+02  0.51100000000E-03 0. -1.
    9900012    2    1    2    0    0  0.77027184182E+01  0.34203567471E+02  0.28282460237E+02  0.46142318122E+02  0.10000003293E+02 0.  0.
         12    1    1    2    0    0 -0.77027184182E+01 -0.34203567471E+02 -0.28282460237E+02  0.45045681878E+02  0.00000000000E+00 0. -1.
         11    1    3    3    0    0  0.57020221772E+01  0.14337105328E+02  0.12272596293E+02  0.19715026404E+02  0.51100000000E-03 0.  1.
        -11    1    3    3    0    0 -0.93905768634E-02  0.37715813175E+01  0.67976391956E+01  0.77738544309E+01  0.51100000000E-03 0. -1.
         12    1    3    3    0    0  0.20100868178E+01  0.16094880826E+02  0.92122247487E+01  0.18653437287E+02  0.00000000000E+00 0. -1.
</event>
<event>
 7    1  0.2472338E-008  0.4614232E+02  0.7816164E-02  0.1320468E+00
        -11   -1    0    0    0    0  0.00000000000E+00  0.00000000000E+00  0.45593999997E+02  0.45594000000E+02  0.51100000000E-03 0. -1.
         11   -1    0    0    0    0 -0.00000000000E+00 -0.00000000000E+00 -0.45593999997E+02  0.45594000000E+02  0.51100000000E-03 0.  1.
    9900012    2    1    2    0    0 -0.36037915066E+02 -0.96196168469E+01 -0.25255595558E+02  0.46142318103E+02  0.10000003117E+02 0.  0.
         12    1    1    2    0    0  0.36037915066E+02  0.96196168469E+01  0.25255595558E+02  0.45045681897E+02  0.00000000000E+00 0. -1.
         11    1    3    3    0    0 -0.18602446960E+02 -0.30397135803E+01 -0.90198904752E+01  0.20896155531E+02  0.51100000000E-03 0. -1.
        -11    1    3    3    0    0 -0.64081410332E+01 -0.23374682377E+01 -0.28521223098E+01  0.73934180995E+01  0.51100000000E-03 0.  1.
         12    1    3    3    0    0 -0.11027327073E+02 -0.42424350288E+01 -0.13383582773E+02  0.17852744472E+02  0.00000000000E+00 0. -1.
</event>
<event>
 7    1  0.2472338E-008  0.4614232E+02  0.7816164E-02  0.1320468E+00
        -11   -1    0    0    0    0  0.00000000000E+00  0.00000000000E+00  0.45593999997E+02  0.45594000000E+02  0.51100000000E-03 0.  1.
         11   -1    0    0    0    0 -0.00000000000E+00 -0.00000000000E+00 -0.45593999997E+02  0.45594000000E+02  0.51100000000E-03 0. -1.
    9900012    2    1    2    0    0 -0.14768179654E+00 -0.50986700170E+01  0.44755952297E+02  0.46142317500E+02  0.99999976207E+01 0.  0.
         12    1    1    2    0    0  0.14768179654E+00  0.50986700170E+01 -0.44755952297E+02  0.45045682500E+02  0.00000000000E+00 0. -1.
         11    1    3    3    0    0  0.76715013384E+00 -0.79646749589E+00  0.71017434876E+00  0.13142403382E+01  0.51100000000E-03 0. -1.
        -11    1    3    3    0    0 -0.32255130858E+01 -0.25811605706E+01  0.12809062357E+02  0.13458766781E+02  0.51100000000E-03 0.  1.
         12    1    3    3    0    0  0.23106811554E+01 -0.17210419505E+01  0.31236715592E+02  0.31369310381E+02  0.00000000000E+00 0. -1.
</event>
<event>
 7    1  0.2472338E-008  0.4614232E+02  0.7816164E-02  0.1320468E+00
        -11   -1    0    0    0    0  0.00000000000E+00  0.00000000000E+00  0.45593999997E+02  0.45594000000E+02  0.51100000000E-03 0. -1.
         11   -1    0    0    0    0 -0.00000000000E+00 -0.00000000000E+00 -0.45593999997E+02  0.45594000000E+02  0.51100000000E-03 0.  1.
    9900012    2    1    2    0    0  0.64060283562E+01 -0.18109645951E+02 -0.40744534666E+02  0.46142316733E+02  0.99999906280E+01 0.  0.
         12    1    1    2    0    0 -0.64060283562E+01  0.18109645951E+02  0.40744534666E+02  0.45045683267E+02  0.00000000000E+00 0. -1.
         11    1    3    3    0    0  0.46495649073E+01 -0.62092672875E+01 -0.13584380839E+02  0.15643172859E+02  0.51100000000E-03 0. -1.
        -11    1    3    3    0    0  0.26329414209E+00 -0.89404716201E+01 -0.24975614150E+02  0.26528902333E+02  0.51100000000E-03 0.  1.
        -12    1    3    3    0    0  0.14931693069E+01 -0.29599070436E+01 -0.21845396777E+01  0.39702415404E+01  0.00000000000E+00 0.  1.
</event>
<event>
 7    1  0.2472338E-008  0.4614232E+02  0.7816164E-02  0.1320468E+00
        -11   -1    0    0    0    0  0.00000000000E+00  0.00000000000E+00  0.45593999997E+02  0.45594000000E+02  0.51100000000E-03 0.  1.
         11   -1    0    0    0    0 -0.00000000000E+00 -0.00000000000E+00 -0.45593999997E+02  0.45594000000E+02  0.51100000000E-03 0. -1.
    9900012    2    1    2    0    0 -0.10235736247E+02  0.11012637782E+01  0.43853509749E+02  0.46142318789E+02  0.10000009373E+02 0.  0.
         12    1    1    2    0    0  0.10235736247E+02 -0.11012637782E+01 -0.43853509749E+02  0.45045681211E+02  0.00000000000E+00 0. -1.
         11    1    3    3    0    0 -0.32376902855E+01  0.92935920143E+00  0.41425530986E+01  0.53392034374E+01  0.51100000000E-03 0. -1.
        -11    1    3    3    0    0 -0.70849856795E+01  0.66487948853E+00  0.22798946276E+02  0.23883698172E+02  0.51100000000E-03 0.  1.
        -12    1    3    3    0    0  0.86939718029E-01 -0.49297491176E+00  0.16912010375E+02  0.16919417180E+02  0.00000000000E+00 0.  1.
</event>
<event>
 7    1  0.2472338E-008  0.4614232E+02  0.7816164E-02  0.1320468E+00
        -11   -1    0    0    0    0  0.00000000000E+00  0.00000000000E+00  0.45593999997E+02  0.45594000000E+02  0.51100000000E-03 0.  1.
         11   -1    0    0    0    0 -0.00000000000E+00 -0.00000000000E+00 -0.45593999997E+02  0.45594000000E+02  0.51100000000E-03 0. -1.
    9900012    2    1    2    0    0 -0.37174390359E+02  0.22630539273E+02  0.11620541962E+02  0.46142316502E+02  0.99999885161E+01 0.  0.
         12    1    1    2    0    0  0.37174390359E+02 -0.22630539273E+02 -0.11620541962E+02  0.45045683498E+02  0.00000000000E+00 0. -1.
         11    1    3    3    0    0 -0.33375101818E+02  0.17883856611E+02  0.88665870925E+01  0.38888894502E+02  0.51100000000E-03 0. -1.
        -11    1    3    3    0    0 -0.41947300108E+01  0.47163849647E+01  0.25510316315E+01  0.68079225645E+01  0.51100000000E-03 0.  1.
         12    1    3    3    0    0  0.39544146993E+00  0.30297697755E-01  0.20292323816E+00  0.44549943570E+00  0.00000000000E+00 0. -1.
</event>
<event>
 7    1  0.2472338E-008  0.4614232E+02  0.7816164E-02  0.1320468E+00
        -11   -1    0    0    0    0  0.00000000000E+00  0.00000000000E+00  0.45593999997E+02  0.45594000000E+02  0.51100000000E-03 0.  1.
         11   -1    0    0    0    0 -0.00000000000E+00 -0.00000000000E+00 -0.45593999997E+02  0.45594000000E+02  0.51100000000E-03 0. -1.
    9900012    2    1    2    0    0 -0.15221934206E+02 -0.10212520762E+02  0.41147424471E+02  0.46142318721E+02  0.10000008753E+02 0.  0.
         12    1    1    2    0    0  0.15221934206E+02  0.10212520762E+02 -0.41147424471E+02  0.45045681279E+02  0.00000000000E+00 0. -1.
         11    1    3    3    0    0 -0.66287933132E+01 -0.37549456286E+01  0.13113424812E+02  0.15165830938E+02  0.51100000000E-03 0.  1.
        -11    1    3    3    0    0  0.69096635398E+00 -0.31967765232E+01  0.57171881914E+01  0.65865814895E+01  0.51100000000E-03 0. -1.
         12    1    3    3    0    0 -0.92841072469E+01 -0.32607986102E+01  0.22316811467E+02  0.24389906294E+02  0.00000000000E+00 0. -1.
</event>
<event>
 7    1  0.2472338E-008  0.4614231E+02  0.7816164E-02  0.1320468E+00
        -11   -1    0    0    0    0  0.00000000000E+00  0.00000000000E+00  0.45593999997E+02  0.45594000000E+02  0.51100000000E-03 0.  1.
         11   -1    0    0    0    0 -0.00000000000E+00 -0.00000000000E+00 -0.45593999997E+02  0.45594000000E+02  0.51100000000E-03 0. -1.
    9900012    2    1    2    0    0  0.10844699362E+02 -0.10305251091E+02  0.42488918286E+02  0.46142313398E+02  0.99999602162E+01 0.  0.
         12    1    1    2    0    0 -0.10844699362E+02  0.10305251091E+02 -0.42488918286E+02  0.45045686602E+02  0.00000000000E+00 0. -1.
         11    1    3    3    0    0  0.60975978714E+01 -0.31588899644E+01  0.10673575898E+02  0.12691907198E+02  0.51100000000E-03 0. -1.
        -11    1    3    3    0    0  0.44210517502E+01 -0.68543409593E+01  0.31963916339E+02  0.32988174192E+02  0.51100000000E-03 0.  1.
         12    1    3    3    0    0  0.32604974004E+00 -0.29202016719E+00 -0.14857395016E+00  0.46223200851E+00  0.00000000000E+00 0. -1.
</event>
<event>
 7    1  0.2472338E-008  0.4614232E+02  0.7816164E-02  0.1320468E+00
        -11   -1    0    0    0    0  0.00000000000E+00  0.00000000000E+00  0.45593999997E+02  0.45594000000E+02  0.51100000000E-03 0. -1.
         11   -1    0    0    0    0 -0.00000000000E+00 -0.00000000000E+00 -0.45593999997E+02  0.45594000000E+02  0.51100000000E-03 0.  1.
    9900012    2    1    2    0    0  0.41221249168E+02  0.15914301983E+02 -0.87554037623E+01  0.46142317791E+02  0.10000000275E+02 0.  0.
         12    1    1    2    0    0 -0.41221249168E+02 -0.15914301983E+02  0.87554037623E+01  0.45045682209E+02  0.00000000000E+00 0. -1.
         11    1    3    3    0    0  0.58194542989E+01  0.38145483462E+01  0.18660894832E+00  0.69607219872E+01  0.51100000000E-03 0. -1.
        -11    1    3    3    0    0  0.13306171638E+02  0.47063710054E+01  0.29655076068E+00  0.14117084483E+02  0.51100000000E-03 0.  1.
        -12    1    3    3    0    0  0.22095623232E+02  0.73933826318E+01 -0.92385634713E+01  0.25064511321E+02  0.00000000000E+00 0.  1.
</event>
<event>
 7    1  0.2472338E-008  0.4614232E+02  0.7816164E-02  0.1320468E+00
        -11   -1    0    0    0    0  0.00000000000E+00  0.00000000000E+00  0.45593999997E+02  0.45594000000E+02  0.51100000000E-03 0.  1.
         11   -1    0    0    0    0 -0.00000000000E+00 -0.00000000000E+00 -0.45593999997E+02  0.45594000000E+02  0.51100000000E-03 0. -1.
    9900012    2    1    2    0    0 -0.71982511931E+01 -0.26152758674E+02  0.35962923844E+02  0.46142317655E+02  0.99999990355E+01 0.  0.
         12    1    1    2    0    0  0.71982511931E+01  0.26152758674E+02 -0.35962923844E+02  0.45045682345E+02  0.00000000000E+00 0. -1.
         11    1    3    3    0    0 -0.34247958967E+01 -0.96190236056E+01  0.15513804933E+02  0.18572371572E+02  0.51100000000E-03 0. -1.
        -11    1    3    3    0    0 -0.49524083819E+01 -0.11861866542E+02  0.18124977137E+02  0.22220374054E+02  0.51100000000E-03 0.  1.
         12    1    3    3    0    0  0.11789530855E+01 -0.46718685262E+01  0.23241417740E+01  0.53495720286E+01  0.00000000000E+00 0. -1.
</event>
<event>
 7    1  0.2472338E-008  0.4614231E+02  0.7816164E-02  0.1320468E+00
        -11   -1    0    0    0    0  0.00000000000E+00  0.00000000000E+00  0.45593999997E+02  0.45594000000E+02  0.51100000000E-03 0.  1.
         11   -1    0    0    0    0 -0.00000000000E+00 -0.00000000000E+00 -0.45593999997E+02  0.45594000000E+02  0.51100000000E-03 0. -1.
    9900012    2    1    2    0    0  0.85122928357E+01 -0.39668587197E+02  0.19571868705E+02  0.46142312259E+02  0.99999498245E+01 0.  0.
         12    1    1    2    0    0 -0.85122928357E+01  0.39668587197E+02 -0.19571868705E+02  0.45045687741E+02  0.00000000000E+00 0. -1.
         11    1    3    3    0    0  0.95436867120E+01 -0.31845368329E+02  0.14738357237E+02  0.36365211595E+02  0.51100000000E-03 0. -1.
        -11    1    3    3    0    0 -0.49303930043E+00 -0.67509971221E+01  0.51853006675E+01  0.85268043936E+01  0.51100000000E-03 0.  1.
         12    1    3    3    0    0 -0.53835457593E+00 -0.10722217459E+01 -0.35178919980E+00  0.12502962701E+01  0.00000000000E+00 0. -1.
</event>
<event>
 7    1  0.2472338E-008  0.4614232E+02  0.7816164E-02  0.1320468E+00
        -11   -1    0    0    0    0  0.00000000000E+00  0.00000000000E+00  0.45593999997E+02  0.45594000000E+02  0.51100000000E-03 0.  1.
         11   -1    0    0    0    0 -0.00000000000E+00 -0.00000000000E+00 -0.45593999997E+02  0.45594000000E+02  0.51100000000E-03 0. -1.
    9900012    2    1    2    0    0  0.16569436948E+02 -0.15892059377E+01  0.41857398331E+02  0.46142316396E+02  0.99999875533E+01 0.  0.
         12    1    1    2    0    0 -0.16569436948E+02  0.15892059377E+01 -0.41857398331E+02  0.45045683604E+02  0.00000000000E+00 0. -1.
         11    1    3    3    0    0  0.23796079029E+01  0.99952279312E+00  0.53737390532E+01  0.59614303031E+01  0.51100000000E-03 0. -1.
        -11    1    3    3    0    0  0.92445753539E+01 -0.41888847391E+00  0.31504181540E+02  0.32835211219E+02  0.51100000000E-03 0.  1.
        -12    1    3    3    0    0  0.49452536914E+01 -0.21698402570E+01  0.49794777375E+01  0.73456748738E+01  0.00000000000E+00 0.  1.
</event>
<event>
 7    1  0.2472338E-008  0.4614232E+02  0.7816164E-02  0.1320468E+00
        -11   -1    0    0    0    0  0.00000000000E+00  0.00000000000E+00  0.45593999997E+02  0.45594000000E+02  0.51100000000E-03 0. -1.
         11   -1    0    0    0    0 -0.00000000000E+00 -0.00000000000E+00 -0.45593999997E+02  0.45594000000E+02  0.51100000000E-03 0.  1.
    9900012    2    1    2    0    0 -0.37253605359E+02  0.24794932858E+02 -0.51471988389E+01  0.46142318036E+02  0.10000002510E+02 0.  0.
         12    1    1    2    0    0  0.37253605359E+02 -0.24794932858E+02  0.51471988389E+01  0.45045681964E+02  0.00000000000E+00 0. -1.
         11    1    3    3    0    0 -0.15438984645E+02  0.12468505276E+02 -0.47648638905E+01  0.20409061685E+02  0.51100000000E-03 0. -1.
        -11    1    3    3    0    0  0.64720236984E-01  0.10731986922E+01 -0.34634501746E+00  0.11295571142E+01  0.51100000000E-03 0.  1.
        -12    1    3    3    0    0 -0.21879340952E+02  0.11253228889E+02 -0.35989930939E-01  0.24603699238E+02  0.00000000000E+00 0.  1.
</event>
<event>
 7    1  0.2472338E-008  0.4614232E+02  0.7816164E-02  0.1320468E+00
        -11   -1    0    0    0    0  0.00000000000E+00  0.00000000000E+00  0.45593999997E+02  0.45594000000E+02  0.51100000000E-03 0.  1.
         11   -1    0    0    0    0 -0.00000000000E+00 -0.00000000000E+00 -0.45593999997E+02  0.45594000000E+02  0.51100000000E-03 0. -1.
    9900012    2    1    2    0    0 -0.43372075689E+02  0.88472809130E+01  0.83487794250E+01  0.46142318220E+02  0.10000004185E+02 0.  0.
         12    1    1    2    0    0  0.43372075689E+02 -0.88472809130E+01 -0.83487794250E+01  0.45045681780E+02  0.00000000000E+00 0. -1.
         11    1    3    3    0    0 -0.76927235242E+01  0.12276755054E+01 -0.13556262702E+00  0.77912489277E+01  0.51100000000E-03 0. -1.
        -11    1    3    3    0    0 -0.30874486649E+02  0.55895219973E+01  0.43115150312E+01  0.31671214756E+02  0.51100000000E-03 0.  1.
        -12    1    3    3    0    0 -0.48048655154E+01  0.20300834103E+01  0.41728270209E+01  0.66798545359E+01  0.00000000000E+00 0.  1.
</event>
<event>
 7    1  0.2472338E-008  0.4614232E+02  0.7816164E-02  0.1320468E+00
        -11   -1    0    0    0    0  0.00000000000E+00  0.00000000000E+00  0.45593999997E+02  0.45594000000E+02  0.51100000000E-03 0. -1.
         11   -1    0    0    0    0 -0.00000000000E+00 -0.00000000000E+00 -0.45593999997E+02  0.45594000000E+02  0.51100000000E-03 0.  1.
    9900012    2    1    2    0    0  0.11628337851E+02  0.25746452557E+02 -0.35085829356E+02  0.46142317831E+02  0.10000000640E+02 0.  0.
         12    1    1    2    0    0 -0.11628337851E+02 -0.25746452557E+02  0.35085829356E+02  0.45045682169E+02  0.00000000000E+00 0. -1.
         11    1    3    3    0    0  0.33832448901E+00  0.31978230636E+01 -0.40188446440E+01  0.51470038216E+01  0.51100000000E-03 0. -1.
        -11    1    3    3    0    0  0.12126862250E+02  0.22828747905E+02 -0.29771923876E+02  0.39428162149E+02  0.51100000000E-03 0.  1.
         12    1    3    3    0    0 -0.83684888813E+00 -0.28011841072E+00 -0.12950608354E+01  0.15671518602E+01  0.00000000000E+00 0. -1.
</event>
<event>
 7    1  0.2472338E-008  0.4614232E+02  0.7816164E-02  0.1320468E+00
        -11   -1    0    0    0    0  0.00000000000E+00  0.00000000000E+00  0.45593999997E+02  0.45594000000E+02  0.51100000000E-03 0.  1.
         11   -1    0    0    0    0 -0.00000000000E+00 -0.00000000000E+00 -0.45593999997E+02  0.45594000000E+02  0.51100000000E-03 0. -1.
    9900012    2    1    2    0    0 -0.10140284379E+02 -0.34078848110E+02  0.27657191576E+02  0.46142317613E+02  0.99999986536E+01 0.  0.
         12    1    1    2    0    0  0.10140284379E+02  0.34078848110E+02 -0.27657191576E+02  0.45045682387E+02  0.00000000000E+00 0. -1.
         11    1    3    3    0    0 -0.63543729260E+00 -0.13636563199E+02  0.74847482498E+01  0.15568593162E+02  0.51100000000E-03 0. -1.
        -11    1    3    3    0    0 -0.69986302658E+01 -0.16236493760E+02  0.17955449742E+02  0.25199260523E+02  0.51100000000E-03 0.  1.
         12    1    3    3    0    0 -0.25062168210E+01 -0.42057911510E+01  0.22169935841E+01  0.53744639278E+01  0.00000000000E+00 0. -1.
</event>
<event>
 7    1  0.2472338E-008  0.4614231E+02  0.7816164E-02  0.1320468E+00
        -11   -1    0    0    0    0  0.00000000000E+00  0.00000000000E+00  0.45593999997E+02  0.45594000000E+02  0.51100000000E-03 0. -1.
         11   -1    0    0    0    0 -0.00000000000E+00 -0.00000000000E+00 -0.45593999997E+02  0.45594000000E+02  0.51100000000E-03 0.  1.
    9900012    2    1    2    0    0  0.30173768788E+02 -0.25234156585E+02 -0.21952111332E+02  0.46142310158E+02  0.99999306686E+01 0.  0.
         12    1    1    2    0    0 -0.30173768788E+02  0.25234156585E+02  0.21952111332E+02  0.45045689842E+02  0.00000000000E+00 0. -1.
         11    1    3    3    0    0  0.21073879761E+02 -0.20059297259E+02 -0.17188187202E+02  0.33792271221E+02  0.51100000000E-03 0. -1.
        -11    1    3    3    0    0  0.53489895252E+01 -0.51676154599E+01 -0.42443445291E+01  0.85633170690E+01  0.51100000000E-03 0.  1.
        -12    1    3    3    0    0  0.37508995013E+01 -0.72438655578E-02 -0.51957960102E+00  0.37867218678E+01  0.00000000000E+00 0.  1.
</event>
<event>
 7    1  0.2472338E-008  0.4614232E+02  0.7816164E-02  0.1320468E+00
        -11   -1    0    0    0    0  0.00000000000E+00  0.00000000000E+00  0.45593999997E+02  0.45594000000E+02  0.51100000000E-03 0.  1.
         11   -1    0    0    0    0 -0.00000000000E+00 -0.00000000000E+00 -0.45593999997E+02  0.45594000000E+02  0.51100000000E-03 0. -1.
    9900012    2    1    2    0    0  0.27813098435E+02 -0.26461652783E+02  0.23565355312E+02  0.46142317815E+02  0.10000000491E+02 0.  0.
         12    1    1    2    0    0 -0.27813098435E+02  0.26461652783E+02 -0.23565355312E+02  0.45045682185E+02  0.00000000000E+00 0. -1.
         11    1    3    3    0    0  0.38903878536E+01 -0.63115418179E+01  0.40244975590E+01  0.84360689088E+01  0.51100000000E-03 0. -1.
        -11    1    3    3    0    0  0.52142584066E+01 -0.87408762099E+01  0.79618978690E+01  0.12922198945E+02  0.51100000000E-03 0.  1.
         12    1    3    3    0    0  0.18708452175E+02 -0.11409234755E+02  0.11578959884E+02  0.24784049961E+02  0.00000000000E+00 0. -1.
</event>
<event>
 7    1  0.2472338E-008  0.4614232E+02  0.7816164E-02  0.1320468E+00
        -11   -1    0    0    0    0  0.00000000000E+00  0.00000000000E+00  0.45593999997E+02  0.45594000000E+02  0.51100000000E-03 0.  1.
         11   -1    0    0    0    0 -0.00000000000E+00 -0.00000000000E+00 -0.45593999997E+02  0.45594000000E+02  0.51100000000E-03 0. -1.
    9900012    2    1    2    0    0  0.33953930223E+02 -0.20475775020E+02  0.21377246344E+02  0.46142318725E+02  0.10000008793E+02 0.  0.
         12    1    1    2    0    0 -0.33953930223E+02  0.20475775020E+02 -0.21377246344E+02  0.45045681275E+02  0.00000000000E+00 0. -1.
         11    1    3    3    0    0  0.60056967861E+01 -0.61376119604E+01  0.18685683374E+01  0.87880727327E+01  0.51100000000E-03 0. -1.
        -11    1    3    3    0    0  0.14991268236E+02 -0.76355999823E+01  0.73316035680E+01  0.18351918743E+02  0.51100000000E-03 0.  1.
        -12    1    3    3    0    0  0.12956965201E+02 -0.67025630776E+01  0.12177074438E+02  0.19002327249E+02  0.00000000000E+00 0.  1.
</event>
<event>
 7    1  0.2472338E-008  0.4614232E+02  0.7816164E-02  0.1320468E+00
        -11   -1    0    0    0    0  0.00000000000E+00  0.00000000000E+00  0.45593999997E+02  0.45594000000E+02  0.51100000000E-03 0.  1.
         11   -1    0    0    0    0 -0.00000000000E+00 -0.00000000000E+00 -0.45593999997E+02  0.45594000000E+02  0.51100000000E-03 0. -1.
    9900012    2    1    2    0    0 -0.23692958358E+02  0.15902388474E+02  0.34855002817E+02  0.46142318117E+02  0.10000003247E+02 0.  0.
         12    1    1    2    0    0  0.23692958358E+02 -0.15902388474E+02 -0.34855002817E+02  0.45045681883E+02  0.00000000000E+00 0. -1.
         11    1    3    3    0    0 -0.14939789875E+02  0.52467078242E+01  0.15216181512E+02  0.21960360757E+02  0.51100000000E-03 0. -1.
        -11    1    3    3    0    0 -0.38644594501E+00  0.84519535860E+00  0.29474870755E+01  0.30905300491E+01  0.51100000000E-03 0.  1.
        -12    1    3    3    0    0 -0.83667225384E+01  0.98104852908E+01  0.16691334229E+02  0.21091427311E+02  0.00000000000E+00 0.  1.
</event>
<event>
 7    1  0.2472338E-008  0.4614232E+02  0.7816164E-02  0.1320468E+00
        -11   -1    0    0    0    0  0.00000000000E+00  0.00000000000E+00  0.45593999997E+02  0.45594000000E+02  0.51100000000E-03 0.  1.
         11   -1    0    0    0    0 -0.00000000000E+00 -0.00000000000E+00 -0.45593999997E+02  0.45594000000E+02  0.51100000000E-03 0. -1.
    9900012    2    1    2    0    0  0.77243935515E+01 -0.28044918923E+02  0.34393745935E+02  0.46142317715E+02  0.99999995765E+01 0.  0.
         12    1    1    2    0    0 -0.77243935515E+01  0.28044918923E+02 -0.34393745935E+02  0.45045682285E+02  0.00000000000E+00 0. -1.
         11    1    3    3    0    0  0.10896916651E+01 -0.29674435459E+01  0.17017714334E+01  0.35901497734E+01  0.51100000000E-03 0. -1.
        -11    1    3    3    0    0  0.70348331300E+01 -0.17800801977E+02  0.27884577756E+02  0.33821695775E+02  0.51100000000E-03 0.  1.
        -12    1    3    3    0    0 -0.40013124350E+00 -0.72766734001E+01  0.48073967454E+01  0.87304721666E+01  0.00000000000E+00 0.  1.
</event>
<event>
 7    1  0.2472338E-008  0.4614232E+02  0.7816164E-02  0.1320468E+00
        -11   -1    0    0    0    0  0.00000000000E+00  0.00000000000E+00  0.45593999997E+02  0.45594000000E+02  0.51100000000E-03 0.  1.
         11   -1    0    0    0    0 -0.00000000000E+00 -0.00000000000E+00 -0.45593999997E+02  0.45594000000E+02  0.51100000000E-03 0. -1.
    9900012    2    1    2    0    0 -0.14785648256E+01  0.12233479771E+02  0.43327466167E+02  0.46142317569E+02  0.99999982480E+01 0.  0.
         12    1    1    2    0    0  0.14785648256E+01 -0.12233479771E+02 -0.43327466167E+02  0.45045682431E+02  0.00000000000E+00 0. -1.
         11    1    3    3    0    0 -0.14100523115E+00 -0.39329555153E+00  0.56157511867E+01  0.56312721047E+01  0.51100000000E-03 0. -1.
        -11    1    3    3    0    0 -0.16072302627E+01  0.11998558542E+02  0.37912661846E+02  0.39798473899E+02  0.51100000000E-03 0.  1.
        -12    1    3    3    0    0  0.26967066827E+00  0.62821678043E+00 -0.20094686577E+00  0.71257156511E+00  0.00000000000E+00 0.  1.
</event>
<event>
 7    1  0.2472338E-008  0.4614232E+02  0.7816164E-02  0.1320468E+00
        -11   -1    0    0    0    0  0.00000000000E+00  0.00000000000E+00  0.45593999997E+02  0.45594000000E+02  0.51100000000E-03 0.  1.
         11   -1    0    0    0    0 -0.00000000000E+00 -0.00000000000E+00 -0.45593999997E+02  0.45594000000E+02  0.51100000000E-03 0. -1.
    9900012    2    1    2    0    0  0.17667919013E+02 -0.37870169612E+02 -0.16816905486E+02  0.46142318534E+02  0.10000007045E+02 0.  0.
         12    1    1    2    0    0 -0.17667919013E+02  0.37870169612E+02  0.16816905486E+02  0.45045681466E+02  0.00000000000E+00 0. -1.
         11    1    3    3    0    0  0.54801572195E+01 -0.82371767799E+01 -0.23974291698E+01  0.10179924918E+02  0.51100000000E-03 0. -1.
        -11    1    3    3    0    0  0.80517828856E+01 -0.11409709116E+02 -0.38152511776E+01  0.14476491687E+02  0.51100000000E-03 0.  1.
         12    1    3    3    0    0  0.41359789076E+01 -0.18223283716E+02 -0.10604225138E+02  0.21485901929E+02  0.00000000000E+00 0. -1.
</event>
<event>
 7    1  0.2472338E-008  0.4614232E+02  0.7816164E-02  0.1320468E+00
        -11   -1    0    0    0    0  0.00000000000E+00  0.00000000000E+00  0.45593999997E+02  0.45594000000E+02  0.51100000000E-03 0.  1.
         11   -1    0    0    0    0 -0.00000000000E+00 -0.00000000000E+00 -0.45593999997E+02  0.45594000000E+02  0.51100000000E-03 0. -1.
    9900012    2    1    2    0    0 -0.22882671593E+02 -0.92002234321E+01  0.37694201593E+02  0.46142316476E+02  0.99999882774E+01 0.  0.
         12    1    1    2    0    0  0.22882671593E+02  0.92002234321E+01 -0.37694201593E+02  0.45045683524E+02  0.00000000000E+00 0. -1.
         11    1    3    3    0    0 -0.15264764000E-01 -0.98131711920E+00  0.29659437126E+01  0.31241060592E+01  0.51100000000E-03 0. -1.
        -11    1    3    3    0    0 -0.53715380268E+01 -0.38650199047E+01  0.51803233237E+01  0.84040198498E+01  0.51100000000E-03 0.  1.
        -12    1    3    3    0    0 -0.17495868802E+02 -0.43538864082E+01  0.29547934557E+02  0.34614190567E+02  0.00000000000E+00 0.  1.
</event>
<event>
 7    1  0.2472338E-008  0.4614232E+02  0.7816164E-02  0.1320468E+00
        -11   -1    0    0    0    0  0.00000000000E+00  0.00000000000E+00  0.45593999997E+02  0.45594000000E+02  0.51100000000E-03 0.  1.
         11   -1    0    0    0    0 -0.00000000000E+00 -0.00000000000E+00 -0.45593999997E+02  0.45594000000E+02  0.51100000000E-03 0. -1.
    9900012    2    1    2    0    0 -0.35614658026E+02  0.27557465648E+02 -0.11381945353E+01  0.46142320229E+02  0.10000022506E+02 0.  0.
         12    1    1    2    0    0  0.35614658026E+02 -0.27557465648E+02  0.11381945353E+01  0.45045679771E+02  0.00000000000E+00 0. -1.
         11    1    3    3    0    0 -0.10091667264E+01  0.28165559769E+01  0.53222441833E+00  0.30388596784E+01  0.51100000000E-03 0. -1.
        -11    1    3    3    0    0 -0.34767795315E+01  0.51018691045E+01  0.74232844730E+00  0.62183692441E+01  0.51100000000E-03 0.  1.
         12    1    3    3    0    0 -0.31128711768E+02  0.19639040566E+02 -0.24127474009E+01  0.36885091307E+02  0.00000000000E+00 0. -1.
</event>
<event>
 7    1  0.2472338E-008  0.4614232E+02  0.7816164E-02  0.1320468E+00
        -11   -1    0    0    0    0  0.00000000000E+00  0.00000000000E+00  0.45593999997E+02  0.45594000000E+02  0.51100000000E-03 0.  1.
         11   -1    0    0    0    0 -0.00000000000E+00 -0.00000000000E+00 -0.45593999997E+02  0.45594000000E+02  0.51100000000E-03 0. -1.
    9900012    2    1    2    0    0 -0.59735561970E+01 -0.25823380121E+02  0.36422282934E+02  0.46142322864E+02  0.10000046534E+02 0.  0.
         12    1    1    2    0    0  0.59735561970E+01  0.25823380121E+02 -0.36422282934E+02  0.45045677136E+02  0.00000000000E+00 0. -1.
         11    1    3    3    0    0 -0.62053362325E+01 -0.13036089245E+02  0.17181218084E+02  0.22441926737E+02  0.51100000000E-03 0. -1.
        -11    1    3    3    0    0 -0.13392819353E+01 -0.73671998540E+01  0.71319327465E+01  0.10340878819E+02  0.51100000000E-03 0.  1.
         12    1    3    3    0    0  0.15710619709E+01 -0.54200910219E+01  0.12109132104E+02  0.13359517308E+02  0.00000000000E+00 0. -1.
</event>
<event>
 7    1  0.2472338E-008  0.4614232E+02  0.7816164E-02  0.1320468E+00
        -11   -1    0    0    0    0  0.00000000000E+00  0.00000000000E+00  0.45593999997E+02  0.45594000000E+02  0.51100000000E-03 0.  1.
         11   -1    0    0    0    0 -0.00000000000E+00 -0.00000000000E+00 -0.45593999997E+02  0.45594000000E+02  0.51100000000E-03 0. -1.
    9900012    2    1    2    0    0  0.37184226557E+02 -0.71258369360E+01  0.24406334505E+02  0.46142318513E+02  0.10000006859E+02 0.  0.
         12    1    1    2    0    0 -0.37184226557E+02  0.71258369360E+01 -0.24406334505E+02  0.45045681487E+02  0.00000000000E+00 0. -1.
         11    1    3    3    0    0  0.25996442667E+02 -0.67481909517E+01  0.15466712939E+02  0.30993101198E+02  0.51100000000E-03 0. -1.
        -11    1    3    3    0    0  0.11419731947E+02 -0.86900771928E-01  0.75007552556E+01  0.13663058192E+02  0.51100000000E-03 0.  1.
         12    1    3    3    0    0 -0.23194805812E+00 -0.29074521230E+00  0.14388663107E+01  0.14861591234E+01  0.00000000000E+00 0. -1.
</event>
<event>
 7    1  0.2472338E-008  0.4614232E+02  0.7816164E-02  0.1320468E+00
        -11   -1    0    0    0    0  0.00000000000E+00  0.00000000000E+00  0.45593999997E+02  0.45594000000E+02  0.51100000000E-03 0.  1.
         11   -1    0    0    0    0 -0.00000000000E+00 -0.00000000000E+00 -0.45593999997E+02  0.45594000000E+02  0.51100000000E-03 0. -1.
    9900012    2    1    2    0    0  0.26859799926E+01 -0.10088890092E+02  0.43819097440E+02  0.46142317718E+02  0.99999996067E+01 0.  0.
         12    1    1    2    0    0 -0.26859799926E+01  0.10088890092E+02 -0.43819097440E+02  0.45045682282E+02  0.00000000000E+00 0. -1.
         11    1    3    3    0    0  0.18023820899E+01 -0.37442987134E+01  0.68214952775E+01  0.79875623399E+01  0.51100000000E-03 0. -1.
        -11    1    3    3    0    0  0.21666669533E+01  0.13990271711E+00  0.15853163933E+02  0.16001150752E+02  0.51100000000E-03 0.  1.
         12    1    3    3    0    0 -0.12830690506E+01 -0.64844940961E+01  0.21144438230E+02  0.22153604626E+02  0.00000000000E+00 0. -1.
</event>
<event>
 7    1  0.2472338E-008  0.4614232E+02  0.7816164E-02  0.1320468E+00
        -11   -1    0    0    0    0  0.00000000000E+00  0.00000000000E+00  0.45593999997E+02  0.45594000000E+02  0.51100000000E-03 0. -1.
         11   -1    0    0    0    0 -0.00000000000E+00 -0.00000000000E+00 -0.45593999997E+02  0.45594000000E+02  0.51100000000E-03 0.  1.
    9900012    2    1    2    0    0  0.15043501322E+02  0.29945466394E+02 -0.30101089595E+02  0.46142317806E+02  0.10000000405E+02 0.  0.
         12    1    1    2    0    0 -0.15043501322E+02 -0.29945466394E+02  0.30101089595E+02  0.45045682194E+02  0.00000000000E+00 0. -1.
         11    1    3    3    0    0  0.51065272232E+01  0.44080239305E+01 -0.36963825284E+01  0.76922389010E+01  0.51100000000E-03 0. -1.
        -11    1    3    3    0    0  0.83570470068E+00  0.69444621093E+01 -0.45316323569E+01  0.83342455215E+01  0.51100000000E-03 0.  1.
        -12    1    3    3    0    0  0.91012693986E+01  0.18592980354E+02 -0.21873074710E+02  0.30115833383E+02  0.00000000000E+00 0.  1.
</event>
<event>
 7    1  0.2472338E-008  0.4614232E+02  0.7816164E-02  0.1320468E+00
        -11   -1    0    0    0    0  0.00000000000E+00  0.00000000000E+00  0.45593999997E+02  0.45594000000E+02  0.51100000000E-03 0.  1.
         11   -1    0    0    0    0 -0.00000000000E+00 -0.00000000000E+00 -0.45593999997E+02  0.45594000000E+02  0.51100000000E-03 0. -1.
    9900012    2    1    2    0    0 -0.57544313435E+01 -0.22182069804E+02  0.38780868756E+02  0.46142317828E+02  0.10000000611E+02 0.  0.
         12    1    1    2    0    0  0.57544313435E+01  0.22182069804E+02 -0.38780868756E+02  0.45045682172E+02  0.00000000000E+00 0. -1.
         11    1    3    3    0    0 -0.25974946800E+01 -0.98673949377E+01  0.12154110261E+02  0.15869305529E+02  0.51100000000E-03 0. -1.
        -11    1    3    3    0    0 -0.19548632412E+01 -0.50975307977E+01  0.48593830354E+01  0.73088928212E+01  0.51100000000E-03 0.  1.
        -12    1    3    3    0    0 -0.12020734223E+01 -0.72171440687E+01  0.21767375459E+02  0.22964119478E+02  0.00000000000E+00 0.  1.
</event>
<event>
 7    1  0.2472338E-008  0.4614232E+02  0.7816164E-02  0.1320468E+00
        -11   -1    0    0    0    0  0.00000000000E+00  0.00000000000E+00  0.45593999997E+02  0.45594000000E+02  0.51100000000E-03 0.  1.
         11   -1    0    0    0    0 -0.00000000000E+00 -0.00000000000E+00 -0.45593999997E+02  0.45594000000E+02  0.51100000000E-03 0. -1.
    9900012    2    1    2    0    0 -0.33906621171E+01 -0.28181746474E+02  0.34977222520E+02  0.46142317420E+02  0.99999968856E+01 0.  0.
         12    1    1    2    0    0  0.33906621171E+01  0.28181746474E+02 -0.34977222520E+02  0.45045682580E+02  0.00000000000E+00 0. -1.
         11    1    3    3    0    0 -0.49173848767E+00 -0.96875200557E+01  0.14882677244E+02  0.17764682203E+02  0.51100000000E-03 0. -1.
        -11    1    3    3    0    0 -0.28791864878E+01 -0.19050493439E+02  0.20069017980E+02  0.27820433103E+02  0.51100000000E-03 0.  1.
         12    1    3    3    0    0 -0.19737141662E-01  0.55626702048E+00  0.25527296643E-01  0.55720211388E+00  0.00000000000E+00 0. -1.
</event>
<event>
 7    1  0.2472338E-008  0.4614232E+02  0.7816164E-02  0.1320468E+00
        -11   -1    0    0    0    0  0.00000000000E+00  0.00000000000E+00  0.45593999997E+02  0.45594000000E+02  0.51100000000E-03 0. -1.
         11   -1    0    0    0    0 -0.00000000000E+00 -0.00000000000E+00 -0.45593999997E+02  0.45594000000E+02  0.51100000000E-03 0.  1.
    9900012    2    1    2    0    0 -0.40858791564E+02 -0.39451983655E+01 -0.18550150904E+02  0.46142317224E+02  0.99999950993E+01 0.  0.
         12    1    1    2    0    0  0.40858791564E+02  0.39451983655E+01  0.18550150904E+02  0.45045682776E+02  0.00000000000E+00 0. -1.
         11    1    3    3    0    0 -0.27894146596E+01  0.21867488897E+01 -0.15723587173E+01  0.38775013922E+01  0.51100000000E-03 0. -1.
        -11    1    3    3    0    0 -0.28094566313E+02 -0.30600975885E+01 -0.12755770807E+02  0.31006104926E+02  0.51100000000E-03 0.  1.
         12    1    3    3    0    0 -0.99748105916E+01 -0.30718496667E+01 -0.42220213800E+01  0.11258710905E+02  0.00000000000E+00 0. -1.
</event>
<event>
 7    1  0.2472338E-008  0.4614232E+02  0.7816164E-02  0.1320468E+00
        -11   -1    0    0    0    0  0.00000000000E+00  0.00000000000E+00  0.45593999997E+02  0.45594000000E+02  0.51100000000E-03 0. -1.
         11   -1    0    0    0    0 -0.00000000000E+00 -0.00000000000E+00 -0.45593999997E+02  0.45594000000E+02  0.51100000000E-03 0.  1.
    9900012    2    1    2    0    0  0.12763510586E+00  0.10808491217E+02 -0.43729550662E+02  0.46142319028E+02  0.10000011554E+02 0.  0.
         12    1    1    2    0    0 -0.12763510586E+00 -0.10808491217E+02  0.43729550662E+02  0.45045680972E+02  0.00000000000E+00 0. -1.
         11    1    3    3    0    0  0.15018197494E+01  0.75148195761E+01 -0.37344882397E+02  0.38123066736E+02  0.51100000000E-03 0.  1.
        -11    1    3    3    0    0  0.62107376046E+00  0.26257254059E+01 -0.41488997879E+01  0.49490944864E+01  0.51100000000E-03 0. -1.
        -12    1    3    3    0    0 -0.19952584040E+01  0.66794623475E+00 -0.22357684770E+01  0.30701578061E+01  0.00000000000E+00 0.  1.
</event>
<event>
 7    1  0.2472338E-008  0.4614232E+02  0.7816164E-02  0.1320468E+00
        -11   -1    0    0    0    0  0.00000000000E+00  0.00000000000E+00  0.45593999997E+02  0.45594000000E+02  0.51100000000E-03 0.  1.
         11   -1    0    0    0    0 -0.00000000000E+00 -0.00000000000E+00 -0.45593999997E+02  0.45594000000E+02  0.51100000000E-03 0. -1.
    9900012    2    1    2    0    0 -0.19535154125E+02  0.61907944888E+01  0.40114402775E+02  0.46142317708E+02  0.99999995187E+01 0.  0.
         12    1    1    2    0    0  0.19535154125E+02 -0.61907944888E+01 -0.40114402775E+02  0.45045682292E+02  0.00000000000E+00 0. -1.
         11    1    3    3    0    0 -0.45265203935E+01  0.42166364123E+01  0.13183269581E+02  0.14562554948E+02  0.51100000000E-03 0. -1.
        -11    1    3    3    0    0 -0.63268267655E+01 -0.11283988361E+01  0.63818256945E+01  0.90570260190E+01  0.51100000000E-03 0.  1.
        -12    1    3    3    0    0 -0.86818069664E+01  0.31025569126E+01  0.20549307500E+02  0.22522736741E+02  0.00000000000E+00 0.  1.
</event>
<event>
 7    1  0.2472338E-008  0.4614232E+02  0.7816164E-02  0.1320468E+00
        -11   -1    0    0    0    0  0.00000000000E+00  0.00000000000E+00  0.45593999997E+02  0.45594000000E+02  0.51100000000E-03 0. -1.
         11   -1    0    0    0    0 -0.00000000000E+00 -0.00000000000E+00 -0.45593999997E+02  0.45594000000E+02  0.51100000000E-03 0.  1.
    9900012    2    1    2    0    0  0.10711031680E+02  0.22938590343E+02 -0.37258667290E+02  0.46142318577E+02  0.10000007444E+02 0.  0.
         12    1    1    2    0    0 -0.10711031680E+02 -0.22938590343E+02  0.37258667290E+02  0.45045681423E+02  0.00000000000E+00 0. -1.
         11    1    3    3    0    0  0.12979820936E+01  0.50157333003E+00 -0.32566386958E+01  0.35414727412E+01  0.51100000000E-03 0.  1.
        -11    1    3    3    0    0 -0.13249824698E+01  0.50766271192E+01 -0.66041777498E+01  0.84346242041E+01  0.51100000000E-03 0. -1.
        -12    1    3    3    0    0  0.10738032057E+02  0.17360389893E+02 -0.27397850845E+02  0.34166221632E+02  0.00000000000E+00 0.  1.
</event>
<event>
 7    1  0.2472338E-008  0.4614232E+02  0.7816164E-02  0.1320468E+00
        -11   -1    0    0    0    0  0.00000000000E+00  0.00000000000E+00  0.45593999997E+02  0.45594000000E+02  0.51100000000E-03 0. -1.
         11   -1    0    0    0    0 -0.00000000000E+00 -0.00000000000E+00 -0.45593999997E+02  0.45594000000E+02  0.51100000000E-03 0.  1.
    9900012    2    1    2    0    0 -0.14201370115E+02 -0.39898111159E+02 -0.15348462847E+02  0.46142317644E+02  0.99999989277E+01 0.  0.
         12    1    1    2    0    0  0.14201370115E+02  0.39898111159E+02  0.15348462847E+02  0.45045682356E+02  0.00000000000E+00 0. -1.
         11    1    3    3    0    0 -0.78957982146E+01 -0.21816692745E+02 -0.94597179918E+01  0.25055897040E+02  0.51100000000E-03 0. -1.
        -11    1    3    3    0    0 -0.34536285659E+01 -0.14690198490E+02 -0.68173209435E+01  0.16559146930E+02  0.51100000000E-03 0.  1.
         12    1    3    3    0    0 -0.28519433341E+01 -0.33912199243E+01  0.92857608826E+00  0.45272736727E+01  0.00000000000E+00 0. -1.
</event>
<event>
 7    1  0.2472338E-008  0.4614232E+02  0.7816164E-02  0.1320468E+00
        -11   -1    0    0    0    0  0.00000000000E+00  0.00000000000E+00  0.45593999997E+02  0.45594000000E+02  0.51100000000E-03 0. -1.
         11   -1    0    0    0    0 -0.00000000000E+00 -0.00000000000E+00 -0.45593999997E+02  0.45594000000E+02  0.51100000000E-03 0.  1.
    9900012    2    1    2    0    0 -0.28668972174E+02  0.18742634802E+02 -0.29256062651E+02  0.46142317336E+02  0.99999961216E+01 0.  0.
         12    1    1    2    0    0  0.28668972174E+02 -0.18742634802E+02  0.29256062651E+02  0.45045682664E+02  0.00000000000E+00 0. -1.
         11    1    3    3    0    0 -0.17483337025E+02  0.84071841786E+01 -0.18472219549E+02  0.26787510423E+02  0.51100000000E-03 0. -1.
        -11    1    3    3    0    0  0.11608987069E+00 -0.13843852334E+00 -0.11895088763E+01  0.12031515743E+01  0.51100000000E-03 0.  1.
        -12    1    3    3    0    0 -0.11301725020E+02  0.10473889147E+02 -0.95943342254E+01  0.18151655338E+02  0.00000000000E+00 0.  1.
</event>
<event>
 7    1  0.2472338E-008  0.4614232E+02  0.7816164E-02  0.1320468E+00
        -11   -1    0    0    0    0  0.00000000000E+00  0.00000000000E+00  0.45593999997E+02  0.45594000000E+02  0.51100000000E-03 0.  1.
         11   -1    0    0    0    0 -0.00000000000E+00 -0.00000000000E+00 -0.45593999997E+02  0.45594000000E+02  0.51100000000E-03 0. -1.
    9900012    2    1    2    0    0 -0.43910792907E+02  0.57422443896E+01  0.82451429558E+01  0.46142317780E+02  0.10000000170E+02 0.  0.
         12    1    1    2    0    0  0.43910792907E+02 -0.57422443896E+01 -0.82451429558E+01  0.45045682220E+02  0.00000000000E+00 0. -1.
         11    1    3    3    0    0 -0.48613659879E+01  0.37076399117E+01  0.15483994912E+01  0.63069021102E+01  0.51100000000E-03 0. -1.
        -11    1    3    3    0    0 -0.31177135482E+02  0.73230169993E+00  0.64875618606E+01  0.31853390742E+02  0.51100000000E-03 0.  1.
        -12    1    3    3    0    0 -0.78722914372E+01  0.13023027780E+01  0.20918160402E+00  0.79820249274E+01  0.00000000000E+00 0.  1.
</event>
<event>
 7    1  0.2472338E-008  0.4614232E+02  0.7816164E-02  0.1320468E+00
        -11   -1    0    0    0    0  0.00000000000E+00  0.00000000000E+00  0.45593999997E+02  0.45594000000E+02  0.51100000000E-03 0. -1.
         11   -1    0    0    0    0 -0.00000000000E+00 -0.00000000000E+00 -0.45593999997E+02  0.45594000000E+02  0.51100000000E-03 0.  1.
    9900012    2    1    2    0    0  0.25362456832E+02 -0.13005061859E+01 -0.37204407797E+02  0.46142317716E+02  0.99999995923E+01 0.  0.
         12    1    1    2    0    0 -0.25362456832E+02  0.13005061859E+01  0.37204407797E+02  0.45045682284E+02  0.00000000000E+00 0. -1.
         11    1    3    3    0    0  0.26373044329E+01  0.11301922323E+01 -0.59968509999E+01  0.66479268445E+01  0.51100000000E-03 0. -1.
        -11    1    3    3    0    0  0.47780348728E+01 -0.28134081744E+01 -0.11915040745E+02  0.13142034813E+02  0.51100000000E-03 0.  1.
        -12    1    3    3    0    0  0.17947117526E+02  0.38270975617E+00 -0.19292516051E+02  0.26352356059E+02  0.00000000000E+00 0.  1.
</event>
<event>
 7    1  0.2472338E-008  0.4614232E+02  0.7816164E-02  0.1320468E+00
        -11   -1    0    0    0    0  0.00000000000E+00  0.00000000000E+00  0.45593999997E+02  0.45594000000E+02  0.51100000000E-03 0.  1.
         11   -1    0    0    0    0 -0.00000000000E+00 -0.00000000000E+00 -0.45593999997E+02  0.45594000000E+02  0.51100000000E-03 0. -1.
    9900012    2    1    2    0    0 -0.39153510724E+02  0.16784451059E+01  0.22210329701E+02  0.46142319570E+02  0.10000016494E+02 0.  0.
         12    1    1    2    0    0  0.39153510724E+02 -0.16784451059E+01 -0.22210329701E+02  0.45045680430E+02  0.00000000000E+00 0. -1.
         11    1    3    3    0    0 -0.15311540306E+01 -0.15390964474E+01  0.23829093392E+00  0.21840406063E+01  0.51100000000E-03 0. -1.
        -11    1    3    3    0    0 -0.65731094448E+01  0.58321463437E+00  0.18068191202E+01  0.68418201289E+01  0.51100000000E-03 0.  1.
        -12    1    3    3    0    0 -0.31049247248E+02  0.26343269189E+01  0.20165219647E+02  0.37116458835E+02  0.00000000000E+00 0.  1.
</event>
<event>
 7    1  0.2472338E-008  0.4614232E+02  0.7816164E-02  0.1320468E+00
        -11   -1    0    0    0    0  0.00000000000E+00  0.00000000000E+00  0.45593999997E+02  0.45594000000E+02  0.51100000000E-03 0.  1.
         11   -1    0    0    0    0 -0.00000000000E+00 -0.00000000000E+00 -0.45593999997E+02  0.45594000000E+02  0.51100000000E-03 0. -1.
    9900012    2    1    2    0    0 -0.33173704821E+02  0.14742393810E+02  0.26669844936E+02  0.46142317680E+02  0.99999992561E+01 0.  0.
         12    1    1    2    0    0  0.33173704821E+02 -0.14742393810E+02 -0.26669844936E+02  0.45045682320E+02  0.00000000000E+00 0. -1.
         11    1    3    3    0    0 -0.55243234535E+01 -0.23533202219E+00  0.37886475387E+01  0.67027890622E+01  0.51100000000E-03 0. -1.
        -11    1    3    3    0    0 -0.23087259146E+02  0.12885081656E+02  0.21885994729E+02  0.34322640191E+02  0.51100000000E-03 0.  1.
        -12    1    3    3    0    0 -0.45621222221E+01  0.20926441757E+01  0.99520266832E+00  0.51168884262E+01  0.00000000000E+00 0.  1.
</event>
<event>
 7    1  0.2472338E-008  0.4614232E+02  0.7816164E-02  0.1320468E+00
        -11   -1    0    0    0    0  0.00000000000E+00  0.00000000000E+00  0.45593999997E+02  0.45594000000E+02  0.51100000000E-03 0.  1.
         11   -1    0    0    0    0 -0.00000000000E+00 -0.00000000000E+00 -0.45593999997E+02  0.45594000000E+02  0.51100000000E-03 0. -1.
    9900012    2    1    2    0    0  0.28055675996E+02 -0.95731439056E+01  0.33916772826E+02  0.46142317424E+02  0.99999969227E+01 0.  0.
         12    1    1    2    0    0 -0.28055675996E+02  0.95731439056E+01 -0.33916772826E+02  0.45045682576E+02  0.00000000000E+00 0. -1.
         11    1    3    3    0    0  0.10980505977E+02 -0.31488207542E+01  0.89814526084E+01  0.14531107145E+02  0.51100000000E-03 0.  1.
        -11    1    3    3    0    0  0.11049498724E+02 -0.19619147915E+01  0.10618276664E+02  0.15449541459E+02  0.51100000000E-03 0. -1.
        -12    1    3    3    0    0  0.60256712953E+01 -0.44624083599E+01  0.14317043553E+02  0.16161668820E+02  0.00000000000E+00 0.  1.
</event>
<event>
 7    1  0.2472338E-008  0.4614232E+02  0.7816164E-02  0.1320468E+00
        -11   -1    0    0    0    0  0.00000000000E+00  0.00000000000E+00  0.45593999997E+02  0.45594000000E+02  0.51100000000E-03 0. -1.
         11   -1    0    0    0    0 -0.00000000000E+00 -0.00000000000E+00 -0.45593999997E+02  0.45594000000E+02  0.51100000000E-03 0.  1.
    9900012    2    1    2    0    0 -0.75702733456E+00 -0.77011117243E+01 -0.44376044137E+02  0.46142317572E+02  0.99999982747E+01 0.  0.
         12    1    1    2    0    0  0.75702733456E+00  0.77011117243E+01  0.44376044137E+02  0.45045682428E+02  0.00000000000E+00 0. -1.
         11    1    3    3    0    0 -0.69612127881E+00  0.16117931462E+01 -0.44926967698E+01  0.48235657461E+01  0.51100000000E-03 0. -1.
        -11    1    3    3    0    0 -0.15004660330E+01 -0.72229117351E+01 -0.20842696594E+02  0.22109723060E+02  0.51100000000E-03 0.  1.
        -12    1    3    3    0    0  0.14395599773E+01 -0.20899931353E+01 -0.19040650773E+02  0.19209028765E+02  0.00000000000E+00 0.  1.
</event>
<event>
 7    1  0.2472338E-008  0.4614232E+02  0.7816164E-02  0.1320468E+00
        -11   -1    0    0    0    0  0.00000000000E+00  0.00000000000E+00  0.45593999997E+02  0.45594000000E+02  0.51100000000E-03 0.  1.
         11   -1    0    0    0    0 -0.00000000000E+00 -0.00000000000E+00 -0.45593999997E+02  0.45594000000E+02  0.51100000000E-03 0. -1.
    9900012    2    1    2    0    0 -0.27277436061E+02 -0.19258892783E+02  0.30234914187E+02  0.46142317575E+02  0.99999982997E+01 0.  0.
         12    1    1    2    0    0  0.27277436061E+02  0.19258892783E+02 -0.30234914187E+02  0.45045682425E+02  0.00000000000E+00 0. -1.
         11    1    3    3    0    0 -0.45732620136E+01 -0.26429247924E+01  0.48692000907E+01  0.71839325364E+01  0.51100000000E-03 0. -1.
        -11    1    3    3    0    0 -0.12875474078E+02 -0.88731999257E+01  0.19889628666E+02  0.25300372297E+02  0.51100000000E-03 0.  1.
         12    1    3    3    0    0 -0.98286999693E+01 -0.77427680650E+01  0.54760854302E+01  0.13658012741E+02  0.00000000000E+00 0. -1.
</event>
<event>
 7    1  0.2472338E-008  0.4614232E+02  0.7816164E-02  0.1320468E+00
        -11   -1    0    0    0    0  0.00000000000E+00  0.00000000000E+00  0.45593999997E+02  0.45594000000E+02  0.51100000000E-03 0. -1.
         11   -1    0    0    0    0 -0.00000000000E+00 -0.00000000000E+00 -0.45593999997E+02  0.45594000000E+02  0.51100000000E-03 0.  1.
    9900012    2    1    2    0    0  0.13247691531E+02  0.38455084864E+02 -0.19360233642E+02  0.46142317305E+02  0.99999958374E+01 0.  0.
         12    1    1    2    0    0 -0.13247691531E+02 -0.38455084864E+02  0.19360233642E+02  0.45045682695E+02  0.00000000000E+00 0. -1.
         11    1    3    3    0    0  0.11401716095E+01  0.41076529774E+01 -0.55462232552E+00  0.42988847934E+01  0.51100000000E-03 0. -1.
        -11    1    3    3    0    0  0.13017710506E+02  0.33067846066E+02 -0.16835278686E+02  0.39323909253E+02  0.51100000000E-03 0.  1.
         12    1    3    3    0    0 -0.91019058390E+00  0.12795858205E+01 -0.19703326310E+01  0.25195232581E+01  0.00000000000E+00 0. -1.
</event>
<event>
 7    1  0.2472338E-008  0.4614232E+02  0.7816164E-02  0.1320468E+00
        -11   -1    0    0    0    0  0.00000000000E+00  0.00000000000E+00  0.45593999997E+02  0.45594000000E+02  0.51100000000E-03 0.  1.
         11   -1    0    0    0    0 -0.00000000000E+00 -0.00000000000E+00 -0.45593999997E+02  0.45594000000E+02  0.51100000000E-03 0. -1.
    9900012    2    1    2    0    0 -0.22092366166E+02 -0.34480438448E+02  0.18765400638E+02  0.46142317193E+02  0.99999948230E+01 0.  0.
         12    1    1    2    0    0  0.22092366166E+02  0.34480438448E+02 -0.18765400638E+02  0.45045682807E+02  0.00000000000E+00 0. -1.
         11    1    3    3    0    0 -0.15440028515E+01 -0.88042877177E+00  0.61439064850E+00  0.18805785699E+01  0.51100000000E-03 0. -1.
        -11    1    3    3    0    0 -0.20065369424E+02 -0.30188462410E+02  0.13978543573E+02  0.38850508279E+02  0.51100000000E-03 0.  1.
         12    1    3    3    0    0 -0.48299389053E+00 -0.34115472664E+01  0.41724664164E+01  0.54112303448E+01  0.00000000000E+00 0. -1.
</event>
<event>
 7    1  0.2472338E-008  0.4614232E+02  0.7816164E-02  0.1320468E+00
        -11   -1    0    0    0    0  0.00000000000E+00  0.00000000000E+00  0.45593999997E+02  0.45594000000E+02  0.51100000000E-03 0.  1.
         11   -1    0    0    0    0 -0.00000000000E+00 -0.00000000000E+00 -0.45593999997E+02  0.45594000000E+02  0.51100000000E-03 0. -1.
    9900012    2    1    2    0    0  0.41438575637E+01 -0.44367808837E+02  0.65908647768E+01  0.46142317465E+02  0.99999973028E+01 0.  0.
         12    1    1    2    0    0 -0.41438575637E+01  0.44367808837E+02 -0.65908647768E+01  0.45045682535E+02  0.00000000000E+00 0. -1.
         11    1    3    3    0    0  0.30672539191E+01 -0.81104797041E+01  0.16984002135E+01  0.88358639183E+01  0.51100000000E-03 0. -1.
        -11    1    3    3    0    0 -0.15539430888E+01 -0.31361329117E+02  0.36489757591E+01  0.31611117149E+02  0.51100000000E-03 0.  1.
        -12    1    3    3    0    0  0.26305467334E+01 -0.48960000163E+01  0.12434888043E+01  0.56953363977E+01  0.00000000000E+00 0.  1.
</event>
<event>
 7    1  0.2472338E-008  0.4614232E+02  0.7816164E-02  0.1320468E+00
        -11   -1    0    0    0    0  0.00000000000E+00  0.00000000000E+00  0.45593999997E+02  0.45594000000E+02  0.51100000000E-03 0. -1.
         11   -1    0    0    0    0 -0.00000000000E+00 -0.00000000000E+00 -0.45593999997E+02  0.45594000000E+02  0.51100000000E-03 0.  1.
    9900012    2    1    2    0    0 -0.33995903318E+02  0.22499199138E+02  0.19161891790E+02  0.46142317619E+02  0.99999987019E+01 0.  0.
         12    1    1    2    0    0  0.33995903318E+02 -0.22499199138E+02 -0.19161891790E+02  0.45045682381E+02  0.00000000000E+00 0. -1.
         11    1    3    3    0    0 -0.13404585120E+02  0.68160232691E+01  0.32406917601E+01  0.15383210289E+02  0.51100000000E-03 0. -1.
        -11    1    3    3    0    0 -0.13356065105E+02  0.12818488303E+02  0.10601462087E+02  0.21332817819E+02  0.51100000000E-03 0.  1.
         12    1    3    3    0    0 -0.72352530924E+01  0.28646875660E+01  0.53197379431E+01  0.94262895110E+01  0.00000000000E+00 0. -1.
</event>
<event>
 7    1  0.2472338E-008  0.4614232E+02  0.7816164E-02  0.1320468E+00
        -11   -1    0    0    0    0  0.00000000000E+00  0.00000000000E+00  0.45593999997E+02  0.45594000000E+02  0.51100000000E-03 0.  1.
         11   -1    0    0    0    0 -0.00000000000E+00 -0.00000000000E+00 -0.45593999997E+02  0.45594000000E+02  0.51100000000E-03 0. -1.
    9900012    2    1    2    0    0 -0.44761625862E+02  0.35911614863E+01 -0.35516128429E+01  0.46142317139E+02  0.99999943227E+01 0.  0.
         12    1    1    2    0    0  0.44761625862E+02 -0.35911614863E+01  0.35516128429E+01  0.45045682861E+02  0.00000000000E+00 0. -1.
         11    1    3    3    0    0 -0.22217882321E+02  0.12742721059E+01 -0.36249559309E+01  0.22547691012E+02  0.51100000000E-03 0. -1.
        -11    1    3    3    0    0 -0.15997918086E+02  0.80723550356E+00 -0.28475923370E+01  0.16269412854E+02  0.51100000000E-03 0.  1.
         12    1    3    3    0    0 -0.65458254558E+01  0.15096538768E+01  0.29209354249E+01  0.73252132722E+01  0.00000000000E+00 0. -1.
</event>
<event>
 7    1  0.2472338E-008  0.4614232E+02  0.7816164E-02  0.1320468E+00
        -11   -1    0    0    0    0  0.00000000000E+00  0.00000000000E+00  0.45593999997E+02  0.45594000000E+02  0.51100000000E-03 0.  1.
         11   -1    0    0    0    0 -0.00000000000E+00 -0.00000000000E+00 -0.45593999997E+02  0.45594000000E+02  0.51100000000E-03 0. -1.
    9900012    2    1    2    0    0  0.31234281515E+02 -0.25220873874E+02  0.20431362945E+02  0.46142318603E+02  0.10000007679E+02 0.  0.
         12    1    1    2    0    0 -0.31234281515E+02  0.25220873874E+02 -0.20431362945E+02  0.45045681397E+02  0.00000000000E+00 0. -1.
         11    1    3    3    0    0  0.99565456221E+00 -0.18468450136E+01  0.27700628975E+01  0.34749695292E+01  0.51100000000E-03 0.  1.
        -11    1    3    3    0    0  0.36566806795E+01 -0.49361956872E+01  0.82572592786E+00  0.61983195322E+01  0.51100000000E-03 0. -1.
        -12    1    3    3    0    0  0.26581946273E+02 -0.18437833173E+02  0.16835574119E+02  0.36469029542E+02  0.00000000000E+00 0.  1.
</event>
<event>
 7    1  0.2472338E-008  0.4614232E+02  0.7816164E-02  0.1320468E+00
        -11   -1    0    0    0    0  0.00000000000E+00  0.00000000000E+00  0.45593999997E+02  0.45594000000E+02  0.51100000000E-03 0.  1.
         11   -1    0    0    0    0 -0.00000000000E+00 -0.00000000000E+00 -0.45593999997E+02  0.45594000000E+02  0.51100000000E-03 0. -1.
    9900012    2    1    2    0    0  0.10852863019E+02  0.18269271393E+02  0.39718542339E+02  0.46142317427E+02  0.99999969549E+01 0.  0.
         12    1    1    2    0    0 -0.10852863019E+02 -0.18269271393E+02 -0.39718542339E+02  0.45045682573E+02  0.00000000000E+00 0. -1.
         11    1    3    3    0    0  0.15061415292E+01  0.79682396686E+01  0.13140926645E+02  0.15441672806E+02  0.51100000000E-03 0.  1.
        -11    1    3    3    0    0 -0.54074862660E+00  0.16872659386E+01  0.12144038012E+01  0.21480345151E+01  0.51100000000E-03 0. -1.
        -12    1    3    3    0    0  0.98874701166E+01  0.86137657858E+01  0.25363211893E+02  0.28552610106E+02  0.00000000000E+00 0.  1.
</event>
<event>
 7    1  0.2472338E-008  0.4614232E+02  0.7816164E-02  0.1320468E+00
        -11   -1    0    0    0    0  0.00000000000E+00  0.00000000000E+00  0.45593999997E+02  0.45594000000E+02  0.51100000000E-03 0.  1.
         11   -1    0    0    0    0 -0.00000000000E+00 -0.00000000000E+00 -0.45593999997E+02  0.45594000000E+02  0.51100000000E-03 0. -1.
    9900012    2    1    2    0    0  0.41149766928E+02 -0.10161624197E+02  0.15249628100E+02  0.46142322275E+02  0.10000041157E+02 0.  0.
         12    1    1    2    0    0 -0.41149766928E+02  0.10161624197E+02 -0.15249628100E+02  0.45045677725E+02  0.00000000000E+00 0. -1.
         11    1    3    3    0    0  0.11449102448E+02  0.30410890450E+00  0.27753409165E+01  0.11784606338E+02  0.51100000000E-03 0. -1.
        -11    1    3    3    0    0  0.17956798746E+02 -0.37755913344E+01  0.88054717073E+01  0.20352838706E+02  0.51100000000E-03 0.  1.
        -12    1    3    3    0    0  0.11743865734E+02 -0.66901417668E+01  0.36688154763E+01  0.14004877230E+02  0.00000000000E+00 0.  1.
</event>
<event>
 7    1  0.2472338E-008  0.4614232E+02  0.7816164E-02  0.1320468E+00
        -11   -1    0    0    0    0  0.00000000000E+00  0.00000000000E+00  0.45593999997E+02  0.45594000000E+02  0.51100000000E-03 0.  1.
         11   -1    0    0    0    0 -0.00000000000E+00 -0.00000000000E+00 -0.45593999997E+02  0.45594000000E+02  0.51100000000E-03 0. -1.
    9900012    2    1    2    0    0 -0.16690278113E+02 -0.21013017202E+02  0.36180121576E+02  0.46142317936E+02  0.10000001591E+02 0.  0.
         12    1    1    2    0    0  0.16690278113E+02  0.21013017202E+02 -0.36180121576E+02  0.45045682064E+02  0.00000000000E+00 0. -1.
         11    1    3    3    0    0 -0.89201862834E+00 -0.26400727512E+01  0.10399381041E+01  0.29744163942E+01  0.51100000000E-03 0. -1.
        -11    1    3    3    0    0 -0.10427170109E+02 -0.15963739735E+02  0.28546109595E+02  0.34328519282E+02  0.51100000000E-03 0.  1.
        -12    1    3    3    0    0 -0.53710893755E+01 -0.24092047161E+01  0.65940738764E+01  0.88393822596E+01  0.00000000000E+00 0.  1.
</event>
<event>
 7    1  0.2472338E-008  0.4614232E+02  0.7816164E-02  0.1320468E+00
        -11   -1    0    0    0    0  0.00000000000E+00  0.00000000000E+00  0.45593999997E+02  0.45594000000E+02  0.51100000000E-03 0.  1.
         11   -1    0    0    0    0 -0.00000000000E+00 -0.00000000000E+00 -0.45593999997E+02  0.45594000000E+02  0.51100000000E-03 0. -1.
    9900012    2    1    2    0    0  0.12349941749E+02 -0.41948944007E+02  0.10811035389E+02  0.46142318180E+02  0.10000003816E+02 0.  0.
         12    1    1    2    0    0 -0.12349941749E+02  0.41948944007E+02 -0.10811035389E+02  0.45045681820E+02  0.00000000000E+00 0. -1.
         11    1    3    3    0    0  0.34372760191E+01 -0.18151632002E+02  0.84546648745E+01  0.20316937987E+02  0.51100000000E-03 0.  1.
        -11    1    3    3    0    0  0.69645010277E+01 -0.20525454700E+02  0.32416111395E+01  0.21915898527E+02  0.51100000000E-03 0. -1.
        -12    1    3    3    0    0  0.19481647023E+01 -0.32718573043E+01 -0.88524062452E+00  0.39094816652E+01  0.00000000000E+00 0.  1.
</event>
<event>
 7    1  0.2472338E-008  0.4614232E+02  0.7816164E-02  0.1320468E+00
        -11   -1    0    0    0    0  0.00000000000E+00  0.00000000000E+00  0.45593999997E+02  0.45594000000E+02  0.51100000000E-03 0. -1.
         11   -1    0    0    0    0 -0.00000000000E+00 -0.00000000000E+00 -0.45593999997E+02  0.45594000000E+02  0.51100000000E-03 0.  1.
    9900012    2    1    2    0    0 -0.24229926557E+02 -0.16826665335E+02 -0.34042437491E+02  0.46142316993E+02  0.99999929927E+01 0.  0.
         12    1    1    2    0    0  0.24229926557E+02  0.16826665335E+02  0.34042437491E+02  0.45045683007E+02  0.00000000000E+00 0. -1.
         11    1    3    3    0    0 -0.86742511307E+01 -0.95372345253E+01 -0.10784951203E+02  0.16808231548E+02  0.51100000000E-03 0. -1.
        -11    1    3    3    0    0 -0.12602648443E+02 -0.76279199486E+01 -0.20737291493E+02  0.25437121874E+02  0.51100000000E-03 0.  1.
         12    1    3    3    0    0 -0.29530269838E+01  0.33848913837E+00 -0.25201947951E+01  0.38969635704E+01  0.00000000000E+00 0. -1.
</event>
<event>
 7    1  0.2472338E-008  0.4614232E+02  0.7816164E-02  0.1320468E+00
        -11   -1    0    0    0    0  0.00000000000E+00  0.00000000000E+00  0.45593999997E+02  0.45594000000E+02  0.51100000000E-03 0.  1.
         11   -1    0    0    0    0 -0.00000000000E+00 -0.00000000000E+00 -0.45593999997E+02  0.45594000000E+02  0.51100000000E-03 0. -1.
    9900012    2    1    2    0    0 -0.30583552814E+02 -0.24234380707E+02  0.22504545929E+02  0.46142317649E+02  0.99999989787E+01 0.  0.
         12    1    1    2    0    0  0.30583552814E+02  0.24234380707E+02 -0.22504545929E+02  0.45045682351E+02  0.00000000000E+00 0. -1.
         11    1    3    3    0    0 -0.19495396120E+00  0.41963441595E+00  0.13152275272E+01  0.13942466781E+01  0.51100000000E-03 0. -1.
        -11    1    3    3    0    0 -0.11745422960E+02 -0.12247461707E+02  0.80223797718E+01  0.18770025472E+02  0.51100000000E-03 0.  1.
         12    1    3    3    0    0 -0.18643175893E+02 -0.12406553417E+02  0.13166938630E+02  0.25978045499E+02  0.00000000000E+00 0. -1.
</event>
<event>
 7    1  0.2472338E-008  0.4614232E+02  0.7816164E-02  0.1320468E+00
        -11   -1    0    0    0    0  0.00000000000E+00  0.00000000000E+00  0.45593999997E+02  0.45594000000E+02  0.51100000000E-03 0.  1.
         11   -1    0    0    0    0 -0.00000000000E+00 -0.00000000000E+00 -0.45593999997E+02  0.45594000000E+02  0.51100000000E-03 0. -1.
    9900012    2    1    2    0    0  0.16884784261E+02 -0.13982997288E+02  0.39350897833E+02  0.46142319708E+02  0.10000017754E+02 0.  0.
         12    1    1    2    0    0 -0.16884784261E+02  0.13982997288E+02 -0.39350897833E+02  0.45045680292E+02  0.00000000000E+00 0. -1.
         11    1    3    3    0    0  0.54523126504E+01 -0.38946272647E+00  0.79468187279E+01  0.96452746259E+01  0.51100000000E-03 0. -1.
        -11    1    3    3    0    0  0.56282577900E+01 -0.52001884050E+01  0.86293700245E+01  0.11540592380E+02  0.51100000000E-03 0.  1.
         12    1    3    3    0    0  0.58042138205E+01 -0.83933461563E+01  0.22774709081E+02  0.24956452702E+02  0.00000000000E+00 0. -1.
</event>
<event>
 7    1  0.2472338E-008  0.4614232E+02  0.7816164E-02  0.1320468E+00
        -11   -1    0    0    0    0  0.00000000000E+00  0.00000000000E+00  0.45593999997E+02  0.45594000000E+02  0.51100000000E-03 0. -1.
         11   -1    0    0    0    0 -0.00000000000E+00 -0.00000000000E+00 -0.45593999997E+02  0.45594000000E+02  0.51100000000E-03 0.  1.
    9900012    2    1    2    0    0  0.28057201329E+02  0.28865006166E+02 -0.20216781042E+02  0.46142319152E+02  0.10000012680E+02 0.  0.
         12    1    1    2    0    0 -0.28057201329E+02 -0.28865006166E+02  0.20216781042E+02  0.45045680848E+02  0.00000000000E+00 0. -1.
         11    1    3    3    0    0  0.43421502040E+01  0.14076504267E+01 -0.39485059880E+00  0.45816651312E+01  0.51100000000E-03 0. -1.
        -11    1    3    3    0    0  0.15701039187E+02  0.15589509669E+02 -0.13391508653E+02  0.25862868123E+02  0.51100000000E-03 0.  1.
         12    1    3    3    0    0  0.80140119379E+01  0.11867846070E+02 -0.64304217905E+01  0.15697785897E+02  0.00000000000E+00 0. -1.
</event>
<event>
 7    1  0.2472338E-008  0.4614232E+02  0.7816164E-02  0.1320468E+00
        -11   -1    0    0    0    0  0.00000000000E+00  0.00000000000E+00  0.45593999997E+02  0.45594000000E+02  0.51100000000E-03 0.  1.
         11   -1    0    0    0    0 -0.00000000000E+00 -0.00000000000E+00 -0.45593999997E+02  0.45594000000E+02  0.51100000000E-03 0. -1.
    9900012    2    1    2    0    0  0.45425142832E+01  0.32909073728E+02  0.30421569953E+02  0.46142317765E+02  0.10000000036E+02 0.  0.
         12    1    1    2    0    0 -0.45425142832E+01 -0.32909073728E+02 -0.30421569953E+02  0.45045682235E+02  0.00000000000E+00 0. -1.
         11    1    3    3    0    0  0.48567045487E+01  0.28075619303E+02  0.28198874811E+02  0.40087460873E+02  0.51100000000E-03 0. -1.
        -11    1    3    3    0    0 -0.54678823470E+00  0.13558912878E+01  0.21108817794E+01  0.25677306529E+01  0.51100000000E-03 0.  1.
         12    1    3    3    0    0  0.23259796917E+00  0.34775631363E+01  0.11181336239E+00  0.34871262395E+01  0.00000000000E+00 0. -1.
</event>
<event>
 7    1  0.2472338E-008  0.4614232E+02  0.7816164E-02  0.1320468E+00
        -11   -1    0    0    0    0  0.00000000000E+00  0.00000000000E+00  0.45593999997E+02  0.45594000000E+02  0.51100000000E-03 0.  1.
         11   -1    0    0    0    0 -0.00000000000E+00 -0.00000000000E+00 -0.45593999997E+02  0.45594000000E+02  0.51100000000E-03 0. -1.
    9900012    2    1    2    0    0  0.32766459247E+02 -0.13869809275E+02  0.27624283636E+02  0.46142317551E+02  0.99999980830E+01 0.  0.
         12    1    1    2    0    0 -0.32766459247E+02  0.13869809275E+02 -0.27624283636E+02  0.45045682449E+02  0.00000000000E+00 0. -1.
         11    1    3    3    0    0  0.17737335640E+02 -0.32898975161E+01  0.13576143187E+02  0.22577603180E+02  0.51100000000E-03 0. -1.
        -11    1    3    3    0    0  0.59133242564E+01 -0.24635078973E+01  0.28905292072E+01  0.70279039749E+01  0.51100000000E-03 0.  1.
         12    1    3    3    0    0  0.91157993507E+01 -0.81164038612E+01  0.11157611242E+02  0.16536810396E+02  0.00000000000E+00 0. -1.
</event>
<event>
 7    1  0.2472338E-008  0.4614232E+02  0.7816164E-02  0.1320468E+00
        -11   -1    0    0    0    0  0.00000000000E+00  0.00000000000E+00  0.45593999997E+02  0.45594000000E+02  0.51100000000E-03 0.  1.
         11   -1    0    0    0    0 -0.00000000000E+00 -0.00000000000E+00 -0.45593999997E+02  0.45594000000E+02  0.51100000000E-03 0. -1.
    9900012    2    1    2    0    0 -0.12083823237E+02  0.35451728417E+02  0.25025381504E+02  0.46142317064E+02  0.99999936389E+01 0.  0.
         12    1    1    2    0    0  0.12083823237E+02 -0.35451728417E+02 -0.25025381504E+02  0.45045682936E+02  0.00000000000E+00 0. -1.
         11    1    3    3    0    0 -0.16523688212E+01  0.46161012990E+01 -0.10039907172E+00  0.49039569899E+01  0.51100000000E-03 0. -1.
        -11    1    3    3    0    0 -0.54089780693E+01  0.11290227145E+02  0.97501159303E+01  0.15867924680E+02  0.51100000000E-03 0.  1.
        -12    1    3    3    0    0 -0.50224763463E+01  0.19545399974E+02  0.15375664645E+02  0.25370435394E+02  0.00000000000E+00 0.  1.
</event>
<event>
 7    1  0.2472338E-008  0.4614232E+02  0.7816164E-02  0.1320468E+00
        -11   -1    0    0    0    0  0.00000000000E+00  0.00000000000E+00  0.45593999997E+02  0.45594000000E+02  0.51100000000E-03 0. -1.
         11   -1    0    0    0    0 -0.00000000000E+00 -0.00000000000E+00 -0.45593999997E+02  0.45594000000E+02  0.51100000000E-03 0.  1.
    9900012    2    1    2    0    0  0.24891275393E+02 -0.15449999329E+02 -0.34217472205E+02  0.46142317920E+02  0.10000001450E+02 0.  0.
         12    1    1    2    0    0 -0.24891275393E+02  0.15449999329E+02  0.34217472205E+02  0.45045682080E+02  0.00000000000E+00 0. -1.
         11    1    3    3    0    0  0.11143726376E+02 -0.82518054967E+01 -0.11331709460E+02  0.17907612098E+02  0.51100000000E-03 0. -1.
        -11    1    3    3    0    0  0.36313475271E+01 -0.85974226050E+00 -0.21465710129E+01  0.43050678266E+01  0.51100000000E-03 0.  1.
        -12    1    3    3    0    0  0.10116201489E+02 -0.63384515721E+01 -0.20739191732E+02  0.23929637995E+02  0.00000000000E+00 0.  1.
</event>
<event>
 7    1  0.2472338E-008  0.4614231E+02  0.7816164E-02  0.1320468E+00
        -11   -1    0    0    0    0  0.00000000000E+00  0.00000000000E+00  0.45593999997E+02  0.45594000000E+02  0.51100000000E-03 0.  1.
         11   -1    0    0    0    0 -0.00000000000E+00 -0.00000000000E+00 -0.45593999997E+02  0.45594000000E+02  0.51100000000E-03 0. -1.
    9900012    2    1    2    0    0  0.43170146096E+02 -0.56698040586E+01 -0.11545805492E+02  0.46142314119E+02  0.99999667917E+01 0.  0.
         12    1    1    2    0    0 -0.43170146096E+02  0.56698040586E+01  0.11545805492E+02  0.45045685881E+02  0.00000000000E+00 0. -1.
         11    1    3    3    0    0  0.41306925413E+01 -0.83474040361E+00  0.91125472340E+00  0.43115887843E+01  0.51100000000E-03 0. -1.
        -11    1    3    3    0    0  0.13970315180E+02 -0.21150868026E+01 -0.79573731275E+01  0.16216136585E+02  0.51100000000E-03 0.  1.
        -12    1    3    3    0    0  0.25069138375E+02 -0.27199768523E+01 -0.44996870875E+01  0.25614588750E+02  0.00000000000E+00 0.  1.
</event>
<event>
 7    1  0.2472338E-008  0.4614232E+02  0.7816164E-02  0.1320468E+00
        -11   -1    0    0    0    0  0.00000000000E+00  0.00000000000E+00  0.45593999997E+02  0.45594000000E+02  0.51100000000E-03 0.  1.
         11   -1    0    0    0    0 -0.00000000000E+00 -0.00000000000E+00 -0.45593999997E+02  0.45594000000E+02  0.51100000000E-03 0. -1.
    9900012    2    1    2    0    0  0.15364501212E+02 -0.12839348027E+02  0.40350917590E+02  0.46142319789E+02  0.10000018495E+02 0.  0.
         12    1    1    2    0    0 -0.15364501212E+02  0.12839348027E+02 -0.40350917590E+02  0.45045680211E+02  0.00000000000E+00 0. -1.
         11    1    3    3    0    0  0.50116100170E+01  0.28831140091E+00  0.11706459505E+02  0.12737368363E+02  0.51100000000E-03 0. -1.
        -11    1    3    3    0    0  0.60030968824E+01 -0.10280924106E+02  0.21393986001E+02  0.24483406828E+02  0.51100000000E-03 0.  1.
        -12    1    3    3    0    0  0.43497943130E+01 -0.28467353216E+01  0.72504720848E+01  0.89215445977E+01  0.00000000000E+00 0.  1.
</event>
<event>
 7    1  0.2472338E-008  0.4614232E+02  0.7816164E-02  0.1320468E+00
        -11   -1    0    0    0    0  0.00000000000E+00  0.00000000000E+00  0.45593999997E+02  0.45594000000E+02  0.51100000000E-03 0.  1.
         11   -1    0    0    0    0 -0.00000000000E+00 -0.00000000000E+00 -0.45593999997E+02  0.45594000000E+02  0.51100000000E-03 0. -1.
    9900012    2    1    2    0    0 -0.15025517070E+02  0.12649378064E+02  0.40538137819E+02  0.46142317116E+02  0.99999941202E+01 0.  0.
         12    1    1    2    0    0  0.15025517070E+02 -0.12649378064E+02 -0.40538137819E+02  0.45045682884E+02  0.00000000000E+00 0. -1.
         11    1    3    3    0    0 -0.78811090930E+00 -0.14204642332E+01  0.30260663552E+01  0.34345182036E+01  0.51100000000E-03 0. -1.
        -11    1    3    3    0    0 -0.84943881814E+01  0.57252160387E+01  0.17489401952E+02  0.20268495509E+02  0.51100000000E-03 0.  1.
         12    1    3    3    0    0 -0.57430179793E+01  0.83446262585E+01  0.20022669511E+02  0.22439303404E+02  0.00000000000E+00 0. -1.
</event>
<event>
 7    1  0.2472338E-008  0.4614232E+02  0.7816164E-02  0.1320468E+00
        -11   -1    0    0    0    0  0.00000000000E+00  0.00000000000E+00  0.45593999997E+02  0.45594000000E+02  0.51100000000E-03 0.  1.
         11   -1    0    0    0    0 -0.00000000000E+00 -0.00000000000E+00 -0.45593999997E+02  0.45594000000E+02  0.51100000000E-03 0. -1.
    9900012    2    1    2    0    0  0.26788490682E+02 -0.24982252908E+02  0.26217870968E+02  0.46142323720E+02  0.10000054342E+02 0.  0.
         12    1    1    2    0    0 -0.26788490682E+02  0.24982252908E+02 -0.26217870968E+02  0.45045676280E+02  0.00000000000E+00 0. -1.
         11    1    3    3    0    0  0.59635362009E+01 -0.45192547437E+01  0.33778834397E+01  0.82095995184E+01  0.51100000000E-03 0. -1.
        -11    1    3    3    0    0  0.18178284136E+02 -0.20699914603E+02  0.19998004668E+02  0.34041983927E+02  0.51100000000E-03 0.  1.
         12    1    3    3    0    0  0.26466703455E+01  0.23691643846E+00  0.28419828596E+01  0.38907402754E+01  0.00000000000E+00 0. -1.
</event>
<event>
 7    1  0.2472338E-008  0.4614232E+02  0.7816164E-02  0.1320468E+00
        -11   -1    0    0    0    0  0.00000000000E+00  0.00000000000E+00  0.45593999997E+02  0.45594000000E+02  0.51100000000E-03 0.  1.
         11   -1    0    0    0    0 -0.00000000000E+00 -0.00000000000E+00 -0.45593999997E+02  0.45594000000E+02  0.51100000000E-03 0. -1.
    9900012    2    1    2    0    0  0.19276730408E+02 -0.10442501435E+02  0.39350668729E+02  0.46142319843E+02  0.10000018982E+02 0.  0.
         12    1    1    2    0    0 -0.19276730408E+02  0.10442501435E+02 -0.39350668729E+02  0.45045680157E+02  0.00000000000E+00 0. -1.
         11    1    3    3    0    0  0.11084014870E+01 -0.18698296837E-01  0.43781788374E+00  0.11918843246E+01  0.51100000000E-03 0. -1.
        -11    1    3    3    0    0  0.11557347668E+02 -0.92083201971E+01  0.19916074519E+02  0.24799505449E+02  0.51100000000E-03 0.  1.
         12    1    3    3    0    0  0.66109812525E+01 -0.12154829408E+01  0.18996776326E+02  0.20150930069E+02  0.00000000000E+00 0. -1.
</event>
<event>
 7    1  0.2472338E-008  0.4614232E+02  0.7816164E-02  0.1320468E+00
        -11   -1    0    0    0    0  0.00000000000E+00  0.00000000000E+00  0.45593999997E+02  0.45594000000E+02  0.51100000000E-03 0.  1.
         11   -1    0    0    0    0 -0.00000000000E+00 -0.00000000000E+00 -0.45593999997E+02  0.45594000000E+02  0.51100000000E-03 0. -1.
    9900012    2    1    2    0    0 -0.13447551618E+02 -0.50487300873E+01  0.42694111870E+02  0.46142317539E+02  0.99999979761E+01 0.  0.
         12    1    1    2    0    0  0.13447551618E+02  0.50487300873E+01 -0.42694111870E+02  0.45045682461E+02  0.00000000000E+00 0. -1.
         11    1    3    3    0    0  0.42538410887E+00 -0.18734747488E+00  0.34949961946E+00  0.58155048065E+00  0.51100000000E-03 0. -1.
        -11    1    3    3    0    0 -0.37739852555E+00 -0.17363511104E+01  0.12882732279E+02  0.13004696692E+02  0.51100000000E-03 0.  1.
        -12    1    3    3    0    0 -0.13495537202E+02 -0.31250315020E+01  0.29461879971E+02  0.32556070366E+02  0.00000000000E+00 0.  1.
</event>
<event>
 7    1  0.2472338E-008  0.4614231E+02  0.7816164E-02  0.1320468E+00
        -11   -1    0    0    0    0  0.00000000000E+00  0.00000000000E+00  0.45593999997E+02  0.45594000000E+02  0.51100000000E-03 0.  1.
         11   -1    0    0    0    0 -0.00000000000E+00 -0.00000000000E+00 -0.45593999997E+02  0.45594000000E+02  0.51100000000E-03 0. -1.
    9900012    2    1    2    0    0  0.99371875118E+01  0.42868754044E+02  0.96247747416E+01  0.46142311441E+02  0.99999423679E+01 0.  0.
         12    1    1    2    0    0 -0.99371875118E+01 -0.42868754044E+02 -0.96247747416E+01  0.45045688559E+02  0.00000000000E+00 0. -1.
         11    1    3    3    0    0  0.74200879259E+01  0.23379764743E+02  0.18053944694E+01  0.24595336016E+02  0.51100000000E-03 0. -1.
        -11    1    3    3    0    0 -0.55291404111E+00  0.29041607565E+01  0.24701357341E+01  0.38524582337E+01  0.51100000000E-03 0.  1.
         12    1    3    3    0    0  0.30700136270E+01  0.16584828544E+02  0.53492445381E+01  0.17694517191E+02  0.00000000000E+00 0. -1.
</event>
<event>
 7    1  0.2472338E-008  0.4614232E+02  0.7816164E-02  0.1320468E+00
        -11   -1    0    0    0    0  0.00000000000E+00  0.00000000000E+00  0.45593999997E+02  0.45594000000E+02  0.51100000000E-03 0. -1.
         11   -1    0    0    0    0 -0.00000000000E+00 -0.00000000000E+00 -0.45593999997E+02  0.45594000000E+02  0.51100000000E-03 0.  1.
    9900012    2    1    2    0    0 -0.24185433664E+02 -0.28890561371E+02 -0.24688331090E+02  0.46142318411E+02  0.10000005925E+02 0.  0.
         12    1    1    2    0    0  0.24185433664E+02  0.28890561371E+02  0.24688331090E+02  0.45045681589E+02  0.00000000000E+00 0. -1.
         11    1    3    3    0    0 -0.35305089983E+01 -0.67663969702E+01 -0.31993570511E+01  0.82755366923E+01  0.51100000000E-03 0. -1.
        -11    1    3    3    0    0 -0.75234714981E+01 -0.12972365776E+02 -0.83867806796E+01  0.17182054232E+02  0.51100000000E-03 0.  1.
         12    1    3    3    0    0 -0.13131453168E+02 -0.91517986240E+01 -0.13102193359E+02  0.20684727486E+02  0.00000000000E+00 0. -1.
</event>
<event>
 7    1  0.2472338E-008  0.4614232E+02  0.7816164E-02  0.1320468E+00
        -11   -1    0    0    0    0  0.00000000000E+00  0.00000000000E+00  0.45593999997E+02  0.45594000000E+02  0.51100000000E-03 0. -1.
         11   -1    0    0    0    0 -0.00000000000E+00 -0.00000000000E+00 -0.45593999997E+02  0.45594000000E+02  0.51100000000E-03 0.  1.
    9900012    2    1    2    0    0 -0.34335504562E+02 -0.26377332824E+02  0.12426689853E+02  0.46142321171E+02  0.10000031093E+02 0.  0.
         12    1    1    2    0    0  0.34335504562E+02  0.26377332824E+02 -0.12426689853E+02  0.45045678829E+02  0.00000000000E+00 0. -1.
         11    1    3    3    0    0 -0.14436784452E+02 -0.12722315417E+02  0.80766836818E+01  0.20868897298E+02  0.51100000000E-03 0. -1.
        -11    1    3    3    0    0 -0.99701328827E+01 -0.89724318100E+01  0.49057395967E+01  0.14281959373E+02  0.51100000000E-03 0.  1.
        -12    1    3    3    0    0 -0.99285872277E+01 -0.46825855976E+01 -0.55573342503E+00  0.10991464500E+02  0.00000000000E+00 0.  1.
</event>
<event>
 7    1  0.2472338E-008  0.4614232E+02  0.7816164E-02  0.1320468E+00
        -11   -1    0    0    0    0  0.00000000000E+00  0.00000000000E+00  0.45593999997E+02  0.45594000000E+02  0.51100000000E-03 0.  1.
         11   -1    0    0    0    0 -0.00000000000E+00 -0.00000000000E+00 -0.45593999997E+02  0.45594000000E+02  0.51100000000E-03 0. -1.
    9900012    2    1    2    0    0  0.26351118893E+02  0.18272811992E+02  0.31635997106E+02  0.46142318322E+02  0.10000005111E+02 0.  0.
         12    1    1    2    0    0 -0.26351118893E+02 -0.18272811992E+02 -0.31635997106E+02  0.45045681678E+02  0.00000000000E+00 0. -1.
         11    1    3    3    0    0  0.10040482068E+02  0.91429998902E+01  0.10789854064E+02  0.17344355800E+02  0.51100000000E-03 0. -1.
        -11    1    3    3    0    0  0.66111247809E+01  0.63965604482E+01  0.13462151633E+02  0.16304983388E+02  0.51100000000E-03 0.  1.
        -12    1    3    3    0    0  0.96995120440E+01  0.27332516533E+01  0.73839914094E+01  0.12492979133E+02  0.00000000000E+00 0.  1.
</event>
<event>
 7    1  0.2472338E-008  0.4614232E+02  0.7816164E-02  0.1320468E+00
        -11   -1    0    0    0    0  0.00000000000E+00  0.00000000000E+00  0.45593999997E+02  0.45594000000E+02  0.51100000000E-03 0.  1.
         11   -1    0    0    0    0 -0.00000000000E+00 -0.00000000000E+00 -0.45593999997E+02  0.45594000000E+02  0.51100000000E-03 0. -1.
    9900012    2    1    2    0    0  0.26609285572E+02 -0.35914110160E+02 -0.55889102915E+01  0.46142319791E+02  0.10000018513E+02 0.  0.
         12    1    1    2    0    0 -0.26609285572E+02  0.35914110160E+02  0.55889102915E+01  0.45045680209E+02  0.00000000000E+00 0. -1.
         11    1    3    3    0    0  0.33252410762E+01 -0.43569943003E+01 -0.16445452954E+01  0.57223384239E+01  0.51100000000E-03 0.  1.
        -11    1    3    3    0    0  0.16914104575E+02 -0.16675448597E+02 -0.47089195129E+01  0.24214281792E+02  0.51100000000E-03 0. -1.
        -12    1    3    3    0    0  0.63699399209E+01 -0.14881667262E+02  0.76455451681E+00  0.16205699575E+02  0.00000000000E+00 0.  1.
</event>
<event>
 7    1  0.2472338E-008  0.4614232E+02  0.7816164E-02  0.1320468E+00
        -11   -1    0    0    0    0  0.00000000000E+00  0.00000000000E+00  0.45593999997E+02  0.45594000000E+02  0.51100000000E-03 0.  1.
         11   -1    0    0    0    0 -0.00000000000E+00 -0.00000000000E+00 -0.45593999997E+02  0.45594000000E+02  0.51100000000E-03 0. -1.
    9900012    2    1    2    0    0 -0.36052088636E+01 -0.19227004907E+02  0.40576324347E+02  0.46142319340E+02  0.10000014394E+02 0.  0.
         12    1    1    2    0    0  0.36052088636E+01  0.19227004907E+02 -0.40576324347E+02  0.45045680660E+02  0.00000000000E+00 0. -1.
         11    1    3    3    0    0  0.10695074947E+01 -0.47678658127E+01  0.17154816041E+02  0.17837155164E+02  0.51100000000E-03 0. -1.
        -11    1    3    3    0    0 -0.29177323398E+01 -0.39815228760E+01  0.49137657663E+01  0.69649681037E+01  0.51100000000E-03 0.  1.
         12    1    3    3    0    0 -0.17569840185E+01 -0.10477616218E+02  0.18507742540E+02  0.21340196072E+02  0.00000000000E+00 0. -1.
</event>
<event>
 7    1  0.2472338E-008  0.4614232E+02  0.7816164E-02  0.1320468E+00
        -11   -1    0    0    0    0  0.00000000000E+00  0.00000000000E+00  0.45593999997E+02  0.45594000000E+02  0.51100000000E-03 0. -1.
         11   -1    0    0    0    0 -0.00000000000E+00 -0.00000000000E+00 -0.45593999997E+02  0.45594000000E+02  0.51100000000E-03 0.  1.
    9900012    2    1    2    0    0 -0.35311907856E+02  0.27024496370E+02 -0.72013364937E+01  0.46142317768E+02  0.10000000061E+02 0.  0.
         12    1    1    2    0    0  0.35311907856E+02 -0.27024496370E+02  0.72013364937E+01  0.45045682232E+02  0.00000000000E+00 0. -1.
         11    1    3    3    0    0 -0.63296198701E+01  0.20553485255E+01 -0.10910943331E+01  0.67438143781E+01  0.51100000000E-03 0. -1.
        -11    1    3    3    0    0 -0.42386108327E-01  0.55781685002E+00  0.73531802892E+00  0.92393132056E+00  0.51100000000E-03 0.  1.
        -12    1    3    3    0    0 -0.28939901878E+02  0.24411330994E+02 -0.68455601895E+01  0.38474572069E+02  0.00000000000E+00 0.  1.
</event>
<event>
 7    1  0.2472338E-008  0.4614232E+02  0.7816164E-02  0.1320468E+00
        -11   -1    0    0    0    0  0.00000000000E+00  0.00000000000E+00  0.45593999997E+02  0.45594000000E+02  0.51100000000E-03 0.  1.
         11   -1    0    0    0    0 -0.00000000000E+00 -0.00000000000E+00 -0.45593999997E+02  0.45594000000E+02  0.51100000000E-03 0. -1.
    9900012    2    1    2    0    0 -0.34755761263E+02  0.23108975460E+02  0.16944775565E+02  0.46142321997E+02  0.10000038630E+02 0.  0.
         12    1    1    2    0    0  0.34755761263E+02 -0.23108975460E+02 -0.16944775565E+02  0.45045678003E+02  0.00000000000E+00 0. -1.
         11    1    3    3    0    0 -0.22136902701E+02  0.12126667763E+02  0.11555754244E+02  0.27760295183E+02  0.51100000000E-03 0. -1.
        -11    1    3    3    0    0 -0.53993599953E+01  0.49558439489E+01  0.51813419860E+01  0.89755101605E+01  0.51100000000E-03 0.  1.
        -12    1    3    3    0    0 -0.72194985664E+01  0.60264637483E+01  0.20767933509E+00  0.94065166543E+01  0.00000000000E+00 0.  1.
</event>
<event>
 7    1  0.2472338E-008  0.4614233E+02  0.7816164E-02  0.1320468E+00
        -11   -1    0    0    0    0  0.00000000000E+00  0.00000000000E+00  0.45593999997E+02  0.45594000000E+02  0.51100000000E-03 0.  1.
         11   -1    0    0    0    0 -0.00000000000E+00 -0.00000000000E+00 -0.45593999997E+02  0.45594000000E+02  0.51100000000E-03 0. -1.
    9900012    2    1    2    0    0  0.30971127364E+02 -0.97610417567E+01  0.31218965895E+02  0.46142328755E+02  0.10000100252E+02 0.  0.
         12    1    1    2    0    0 -0.30971127364E+02  0.97610417567E+01 -0.31218965895E+02  0.45045671245E+02  0.00000000000E+00 0. -1.
         11    1    3    3    0    0  0.10488522626E+02 -0.86814901661E+00  0.50317336365E+01  0.11665381830E+02  0.51100000000E-03 0. -1.
        -11    1    3    3    0    0  0.77333991092E+01 -0.28392959498E+01  0.11021420060E+02  0.13760042284E+02  0.51100000000E-03 0.  1.
         12    1    3    3    0    0  0.12749205629E+02 -0.60535967903E+01  0.15165812199E+02  0.20716904641E+02  0.00000000000E+00 0. -1.
</event>
<event>
 7    1  0.2472338E-008  0.4614232E+02  0.7816164E-02  0.1320468E+00
        -11   -1    0    0    0    0  0.00000000000E+00  0.00000000000E+00  0.45593999997E+02  0.45594000000E+02  0.51100000000E-03 0. -1.
         11   -1    0    0    0    0 -0.00000000000E+00 -0.00000000000E+00 -0.45593999997E+02  0.45594000000E+02  0.51100000000E-03 0.  1.
    9900012    2    1    2    0    0 -0.14252249106E+02  0.41270415612E+02 -0.11078804028E+02  0.46142315322E+02  0.99999777602E+01 0.  0.
         12    1    1    2    0    0  0.14252249106E+02 -0.41270415612E+02  0.11078804028E+02  0.45045684678E+02  0.00000000000E+00 0. -1.
         11    1    3    3    0    0  0.26155477443E+00  0.35021926233E+01  0.23588813823E+00  0.35198590235E+01  0.51100000000E-03 0. -1.
        -11    1    3    3    0    0 -0.11632967857E+02  0.20893279794E+02 -0.77326961903E+01  0.25132641572E+02  0.51100000000E-03 0.  1.
        -12    1    3    3    0    0 -0.28808360234E+01  0.16874943194E+02 -0.35819959764E+01  0.17489814727E+02  0.00000000000E+00 0.  1.
</event>
<event>
 7    1  0.2472338E-008  0.4614232E+02  0.7816164E-02  0.1320468E+00
        -11   -1    0    0    0    0  0.00000000000E+00  0.00000000000E+00  0.45593999997E+02  0.45594000000E+02  0.51100000000E-03 0.  1.
         11   -1    0    0    0    0 -0.00000000000E+00 -0.00000000000E+00 -0.45593999997E+02  0.45594000000E+02  0.51100000000E-03 0. -1.
    9900012    2    1    2    0    0 -0.10352597458E+02 -0.26126905358E+01  0.43761981879E+02  0.46142317810E+02  0.10000000443E+02 0.  0.
         12    1    1    2    0    0  0.10352597458E+02  0.26126905358E+01 -0.43761981879E+02  0.45045682190E+02  0.00000000000E+00 0. -1.
         11    1    3    3    0    0 -0.77712700820E+00  0.30251492898E+00  0.10754150179E+02  0.10786435371E+02  0.51100000000E-03 0. -1.
        -11    1    3    3    0    0 -0.17029254323E+01 -0.42174896754E+01  0.95449443250E+01  0.10573227351E+02  0.51100000000E-03 0.  1.
        -12    1    3    3    0    0 -0.78725450178E+01  0.13022842106E+01  0.23462887375E+02  0.24782655088E+02  0.00000000000E+00 0.  1.
</event>
<event>
 7    1  0.2472338E-008  0.4614232E+02  0.7816164E-02  0.1320468E+00
        -11   -1    0    0    0    0  0.00000000000E+00  0.00000000000E+00  0.45593999997E+02  0.45594000000E+02  0.51100000000E-03 0.  1.
         11   -1    0    0    0    0 -0.00000000000E+00 -0.00000000000E+00 -0.45593999997E+02  0.45594000000E+02  0.51100000000E-03 0. -1.
    9900012    2    1    2    0    0  0.29219984868E+02 -0.14327809761E+02  0.31145140951E+02  0.46142318152E+02  0.10000003569E+02 0.  0.
         12    1    1    2    0    0 -0.29219984868E+02  0.14327809761E+02 -0.31145140951E+02  0.45045681848E+02  0.00000000000E+00 0. -1.
         11    1    3    3    0    0  0.20058949512E+01 -0.25894686032E+01  0.17688760757E+01  0.37226180350E+01  0.51100000000E-03 0. -1.
        -11    1    3    3    0    0  0.23228934752E+02 -0.11533783431E+02  0.28079350229E+02  0.38223833919E+02  0.51100000000E-03 0.  1.
         12    1    3    3    0    0  0.39851551649E+01 -0.20455772679E+00  0.12969146463E+01  0.41958661980E+01  0.00000000000E+00 0. -1.
</event>
<event>
 7    1  0.2472338E-008  0.4614232E+02  0.7816164E-02  0.1320468E+00
        -11   -1    0    0    0    0  0.00000000000E+00  0.00000000000E+00  0.45593999997E+02  0.45594000000E+02  0.51100000000E-03 0.  1.
         11   -1    0    0    0    0 -0.00000000000E+00 -0.00000000000E+00 -0.45593999997E+02  0.45594000000E+02  0.51100000000E-03 0. -1.
    9900012    2    1    2    0    0 -0.29140301403E+01 -0.42468171186E+01  0.44750267965E+02  0.46142317519E+02  0.99999977881E+01 0.  0.
         12    1    1    2    0    0  0.29140301403E+01  0.42468171186E+01 -0.44750267965E+02  0.45045682481E+02  0.00000000000E+00 0. -1.
         11    1    3    3    0    0  0.12041379803E+01  0.32567951055E+00  0.35312237151E+01  0.37450709748E+01  0.51100000000E-03 0. -1.
        -11    1    3    3    0    0 -0.64794815458E+00 -0.58617579798E-01  0.27958213352E+02  0.27965782073E+02  0.51100000000E-03 0.  1.
         12    1    3    3    0    0 -0.34702199660E+01 -0.45138790494E+01  0.13260830897E+02  0.14431464471E+02  0.00000000000E+00 0. -1.
</event>
<event>
 7    1  0.2472338E-008  0.4614232E+02  0.7816164E-02  0.1320468E+00
        -11   -1    0    0    0    0  0.00000000000E+00  0.00000000000E+00  0.45593999997E+02  0.45594000000E+02  0.51100000000E-03 0.  1.
         11   -1    0    0    0    0 -0.00000000000E+00 -0.00000000000E+00 -0.45593999997E+02  0.45594000000E+02  0.51100000000E-03 0. -1.
    9900012    2    1    2    0    0 -0.19534454104E+02  0.78703648536E+01  0.39819291253E+02  0.46142317676E+02  0.99999992279E+01 0.  0.
         12    1    1    2    0    0  0.19534454104E+02 -0.78703648536E+01 -0.39819291253E+02  0.45045682324E+02  0.00000000000E+00 0. -1.
         11    1    3    3    0    0 -0.16679580754E+02  0.55456258557E+01  0.24576182085E+02  0.30215080777E+02  0.51100000000E-03 0. -1.
        -11    1    3    3    0    0  0.11257284513E+00  0.18851205397E+00  0.57518931543E+01  0.57560823969E+01  0.51100000000E-03 0.  1.
         12    1    3    3    0    0 -0.29674461955E+01  0.21362269440E+01  0.94912160146E+01  0.10171154503E+02  0.00000000000E+00 0. -1.
</event>
<event>
 7    1  0.2472338E-008  0.4614232E+02  0.7816164E-02  0.1320468E+00
        -11   -1    0    0    0    0  0.00000000000E+00  0.00000000000E+00  0.45593999997E+02  0.45594000000E+02  0.51100000000E-03 0.  1.
         11   -1    0    0    0    0 -0.00000000000E+00 -0.00000000000E+00 -0.45593999997E+02  0.45594000000E+02  0.51100000000E-03 0. -1.
    9900012    2    1    2    0    0  0.12654463446E+02  0.24419425610E+02  0.35674497099E+02  0.46142317238E+02  0.99999952293E+01 0.  0.
         12    1    1    2    0    0 -0.12654463446E+02 -0.24419425610E+02 -0.35674497099E+02  0.45045682762E+02  0.00000000000E+00 0. -1.
         11    1    3    3    0    0 -0.49302615424E+00 -0.13834066270E+00 -0.30635307001E+00  0.59671215201E+00  0.51100000000E-03 0. -1.
        -11    1    3    3    0    0  0.41411101070E+01  0.88557369816E+01  0.11377826817E+02  0.15000927096E+02  0.51100000000E-03 0.  1.
        -12    1    3    3    0    0  0.90063794936E+01  0.15702029291E+02  0.24603023352E+02  0.30544677990E+02  0.00000000000E+00 0.  1.
</event>
<event>
 7    1  0.2472338E-008  0.4614232E+02  0.7816164E-02  0.1320468E+00
        -11   -1    0    0    0    0  0.00000000000E+00  0.00000000000E+00  0.45593999997E+02  0.45594000000E+02  0.51100000000E-03 0.  1.
         11   -1    0    0    0    0 -0.00000000000E+00 -0.00000000000E+00 -0.45593999997E+02  0.45594000000E+02  0.51100000000E-03 0. -1.
    9900012    2    1    2    0    0  0.10469717478E+02  0.42624214237E+02  0.10132866023E+02  0.46142316553E+02  0.99999889794E+01 0.  0.
         12    1    1    2    0    0 -0.10469717478E+02 -0.42624214237E+02 -0.10132866023E+02  0.45045683447E+02  0.00000000000E+00 0. -1.
         11    1    3    3    0    0 -0.88940567100E+00  0.86535518631E+01  0.36920761829E+01  0.94502078864E+01  0.51100000000E-03 0. -1.
        -11    1    3    3    0    0  0.47890145432E+01  0.19906526746E+02  0.51697397391E+01  0.21117070739E+02  0.51100000000E-03 0.  1.
        -12    1    3    3    0    0  0.65701086062E+01  0.14064135628E+02  0.12710501014E+01  0.15575037927E+02  0.00000000000E+00 0.  1.
</event>
<event>
 7    1  0.2472338E-008  0.4614232E+02  0.7816164E-02  0.1320468E+00
        -11   -1    0    0    0    0  0.00000000000E+00  0.00000000000E+00  0.45593999997E+02  0.45594000000E+02  0.51100000000E-03 0.  1.
         11   -1    0    0    0    0 -0.00000000000E+00 -0.00000000000E+00 -0.45593999997E+02  0.45594000000E+02  0.51100000000E-03 0. -1.
    9900012    2    1    2    0    0 -0.42505795715E+02 -0.24699271815E+01  0.14706131897E+02  0.46142317354E+02  0.99999962887E+01 0.  0.
         12    1    1    2    0    0  0.42505795715E+02  0.24699271815E+01 -0.14706131897E+02  0.45045682646E+02  0.00000000000E+00 0. -1.
         11    1    3    3    0    0 -0.17073351683E+02  0.94354825800E+00  0.17794882705E+01  0.17191748014E+02  0.51100000000E-03 0.  1.
        -11    1    3    3    0    0 -0.13545180821E+02 -0.14427395531E+01  0.49182439904E+01  0.14482490984E+02  0.51100000000E-03 0. -1.
         12    1    3    3    0    0 -0.11887263211E+02 -0.19707358864E+01  0.80083996364E+01  0.14468078356E+02  0.00000000000E+00 0. -1.
</event>
<event>
 7    1  0.2472338E-008  0.4614232E+02  0.7816164E-02  0.1320468E+00
        -11   -1    0    0    0    0  0.00000000000E+00  0.00000000000E+00  0.45593999997E+02  0.45594000000E+02  0.51100000000E-03 0.  1.
         11   -1    0    0    0    0 -0.00000000000E+00 -0.00000000000E+00 -0.45593999997E+02  0.45594000000E+02  0.51100000000E-03 0. -1.
    9900012    2    1    2    0    0 -0.25929727490E+02 -0.12705286258E+02  0.34573666953E+02  0.46142317486E+02  0.99999974928E+01 0.  0.
         12    1    1    2    0    0  0.25929727490E+02  0.12705286258E+02 -0.34573666953E+02  0.45045682514E+02  0.00000000000E+00 0. -1.
         11    1    3    3    0    0 -0.49459418696E+01 -0.53587730359E+01  0.10208242347E+02  0.12545397623E+02  0.51100000000E-03 0. -1.
        -11    1    3    3    0    0 -0.11871892032E+02 -0.68750887804E+01  0.11979086321E+02  0.18212829969E+02  0.51100000000E-03 0.  1.
        -12    1    3    3    0    0 -0.91118935886E+01 -0.47142444137E+00  0.12386338285E+02  0.15384089894E+02  0.00000000000E+00 0.  1.
</event>
<event>
 7    1  0.2472338E-008  0.4614232E+02  0.7816164E-02  0.1320468E+00
        -11   -1    0    0    0    0  0.00000000000E+00  0.00000000000E+00  0.45593999997E+02  0.45594000000E+02  0.51100000000E-03 0.  1.
         11   -1    0    0    0    0 -0.00000000000E+00 -0.00000000000E+00 -0.45593999997E+02  0.45594000000E+02  0.51100000000E-03 0. -1.
    9900012    2    1    2    0    0  0.35387114826E+02  0.27842368345E+02  0.12915667621E+01  0.46142317460E+02  0.99999972543E+01 0.  0.
         12    1    1    2    0    0 -0.35387114826E+02 -0.27842368345E+02 -0.12915667621E+01  0.45045682540E+02  0.00000000000E+00 0. -1.
         11    1    3    3    0    0  0.15523036789E+02  0.15905182142E+02  0.15320136329E+01  0.22277489898E+02  0.51100000000E-03 0. -1.
        -11    1    3    3    0    0  0.40452367787E+01  0.41087882173E+01 -0.20565508453E+01  0.61217222128E+01  0.51100000000E-03 0.  1.
        -12    1    3    3    0    0  0.15818841259E+02  0.78283979859E+01  0.18161039745E+01  0.17743105349E+02  0.00000000000E+00 0.  1.
</event>
<event>
 7    1  0.2472338E-008  0.4614232E+02  0.7816164E-02  0.1320468E+00
        -11   -1    0    0    0    0  0.00000000000E+00  0.00000000000E+00  0.45593999997E+02  0.45594000000E+02  0.51100000000E-03 0.  1.
         11   -1    0    0    0    0 -0.00000000000E+00 -0.00000000000E+00 -0.45593999997E+02  0.45594000000E+02  0.51100000000E-03 0. -1.
    9900012    2    1    2    0    0 -0.37296549435E+02  0.17239968669E+02  0.18462513163E+02  0.46142317501E+02  0.99999976285E+01 0.  0.
         12    1    1    2    0    0  0.37296549435E+02 -0.17239968669E+02 -0.18462513163E+02  0.45045682499E+02  0.00000000000E+00 0. -1.
         11    1    3    3    0    0 -0.87689612145E+00 -0.68982201560E+00  0.10909161557E+01  0.15604164639E+01  0.51100000000E-03 0. -1.
        -11    1    3    3    0    0 -0.16124874231E+01 -0.24704757998E+00 -0.29405481984E-01  0.16315676940E+01  0.51100000000E-03 0.  1.
        -12    1    3    3    0    0 -0.34807165891E+02  0.18176838264E+02  0.17401002490E+02  0.42950333343E+02  0.00000000000E+00 0.  1.
</event>
<event>
 7    1  0.2472338E-008  0.4614232E+02  0.7816164E-02  0.1320468E+00
        -11   -1    0    0    0    0  0.00000000000E+00  0.00000000000E+00  0.45593999997E+02  0.45594000000E+02  0.51100000000E-03 0.  1.
         11   -1    0    0    0    0 -0.00000000000E+00 -0.00000000000E+00 -0.45593999997E+02  0.45594000000E+02  0.51100000000E-03 0. -1.
    9900012    2    1    2    0    0  0.21706782091E+02 -0.39590626562E+01  0.39271551881E+02  0.46142319264E+02  0.10000013701E+02 0.  0.
         12    1    1    2    0    0 -0.21706782091E+02  0.39590626562E+01 -0.39271551881E+02  0.45045680736E+02  0.00000000000E+00 0. -1.
         11    1    3    3    0    0  0.12028482386E+01  0.14394105481E+01  0.91959181117E+00  0.20891136808E+01  0.51100000000E-03 0. -1.
        -11    1    3    3    0    0  0.95440935329E+01 -0.28372400265E+01  0.13531133401E+02  0.16799738799E+02  0.51100000000E-03 0.  1.
         12    1    3    3    0    0  0.10959840319E+02 -0.25612331779E+01  0.24820826669E+02  0.27253466784E+02  0.00000000000E+00 0. -1.
</event>
<event>
 7    1  0.2472338E-008  0.4614233E+02  0.7816164E-02  0.1320468E+00
        -11   -1    0    0    0    0  0.00000000000E+00  0.00000000000E+00  0.45593999997E+02  0.45594000000E+02  0.51100000000E-03 0. -1.
         11   -1    0    0    0    0 -0.00000000000E+00 -0.00000000000E+00 -0.45593999997E+02  0.45594000000E+02  0.51100000000E-03 0.  1.
    9900012    2    1    2    0    0  0.28169575384E+02  0.32633877028E+02 -0.13062068026E+02  0.46142328418E+02  0.10000097176E+02 0.  0.
         12    1    1    2    0    0 -0.28169575384E+02 -0.32633877028E+02  0.13062068026E+02  0.45045671582E+02  0.00000000000E+00 0. -1.
         11    1    3    3    0    0  0.12626137759E+01 -0.24938204715E+00 -0.43464769764E+00  0.13584196092E+01  0.51100000000E-03 0. -1.
        -11    1    3    3    0    0  0.21754455434E+02  0.22448535819E+02 -0.80623083281E+01  0.32283028165E+02  0.51100000000E-03 0.  1.
        -12    1    3    3    0    0  0.51525061744E+01  0.10434723255E+02 -0.45651120003E+01  0.12500880644E+02  0.00000000000E+00 0.  1.
</event>
<event>
 7    1  0.2472338E-008  0.4614232E+02  0.7816164E-02  0.1320468E+00
        -11   -1    0    0    0    0  0.00000000000E+00  0.00000000000E+00  0.45593999997E+02  0.45594000000E+02  0.51100000000E-03 0.  1.
         11   -1    0    0    0    0 -0.00000000000E+00 -0.00000000000E+00 -0.45593999997E+02  0.45594000000E+02  0.51100000000E-03 0. -1.
    9900012    2    1    2    0    0  0.79715323596E+01 -0.31374402949E+02  0.31324350999E+02  0.46142318142E+02  0.10000003471E+02 0.  0.
         12    1    1    2    0    0 -0.79715323596E+01  0.31374402949E+02 -0.31324350999E+02  0.45045681858E+02  0.00000000000E+00 0. -1.
         11    1    3    3    0    0  0.25243667208E+01 -0.76673320695E+01  0.98074849706E+01  0.12702250593E+02  0.51100000000E-03 0. -1.
        -11    1    3    3    0    0 -0.54595056276E+00 -0.86332440957E+00  0.37495328639E+01  0.38861791019E+01  0.51100000000E-03 0.  1.
        -12    1    3    3    0    0  0.59931162015E+01 -0.22843746470E+02  0.17767333165E+02  0.29553888447E+02  0.00000000000E+00 0.  1.
</event>
<event>
 7    1  0.2472338E-008  0.4614232E+02  0.7816164E-02  0.1320468E+00
        -11   -1    0    0    0    0  0.00000000000E+00  0.00000000000E+00  0.45593999997E+02  0.45594000000E+02  0.51100000000E-03 0. -1.
         11   -1    0    0    0    0 -0.00000000000E+00 -0.00000000000E+00 -0.45593999997E+02  0.45594000000E+02  0.51100000000E-03 0.  1.
    9900012    2    1    2    0    0  0.32473926998E+02 -0.26729135121E+02 -0.16127955555E+02  0.46142317084E+02  0.99999938237E+01 0.  0.
         12    1    1    2    0    0 -0.32473926998E+02  0.26729135121E+02  0.16127955555E+02  0.45045682916E+02  0.00000000000E+00 0. -1.
         11    1    3    3    0    0  0.21410302873E+01 -0.32967962792E+01 -0.33107390227E+01  0.51394425316E+01  0.51100000000E-03 0. -1.
        -11    1    3    3    0    0  0.19470334769E+01 -0.42880413424E+01 -0.14876577961E+01  0.49387613724E+01  0.51100000000E-03 0.  1.
        -12    1    3    3    0    0  0.28385863234E+02 -0.19144297500E+02 -0.11329558736E+02  0.36064113180E+02  0.00000000000E+00 0.  1.
</event>
<event>
 7    1  0.2472338E-008  0.4614232E+02  0.7816164E-02  0.1320468E+00
        -11   -1    0    0    0    0  0.00000000000E+00  0.00000000000E+00  0.45593999997E+02  0.45594000000E+02  0.51100000000E-03 0. -1.
         11   -1    0    0    0    0 -0.00000000000E+00 -0.00000000000E+00 -0.45593999997E+02  0.45594000000E+02  0.51100000000E-03 0.  1.
    9900012    2    1    2    0    0 -0.37253192074E+02  0.14216024535E+02 -0.20957516790E+02  0.46142321147E+02  0.10000030880E+02 0.  0.
         12    1    1    2    0    0  0.37253192074E+02 -0.14216024535E+02  0.20957516790E+02  0.45045678853E+02  0.00000000000E+00 0. -1.
         11    1    3    3    0    0 -0.26206600128E+01  0.14718089906E+01 -0.45657524554E+01  0.54662762785E+01  0.51100000000E-03 0. -1.
        -11    1    3    3    0    0 -0.92153835698E+01  0.56088423924E+01 -0.39150292941E+01  0.11476491709E+02  0.51100000000E-03 0.  1.
        -12    1    3    3    0    0 -0.25417148491E+02  0.71353731519E+01 -0.12476735041E+02  0.29199553160E+02  0.00000000000E+00 0.  1.
</event>
<event>
 7    1  0.2472338E-008  0.4614232E+02  0.7816164E-02  0.1320468E+00
        -11   -1    0    0    0    0  0.00000000000E+00  0.00000000000E+00  0.45593999997E+02  0.45594000000E+02  0.51100000000E-03 0. -1.
         11   -1    0    0    0    0 -0.00000000000E+00 -0.00000000000E+00 -0.45593999997E+02  0.45594000000E+02  0.51100000000E-03 0.  1.
    9900012    2    1    2    0    0  0.38805338847E+01 -0.11744503218E+02 -0.43314219916E+02  0.46142317121E+02  0.99999941627E+01 0.  0.
         12    1    1    2    0    0 -0.38805338847E+01  0.11744503218E+02  0.43314219916E+02  0.45045682879E+02  0.00000000000E+00 0. -1.
         11    1    3    3    0    0  0.19180810279E+01 -0.80997504146E+01 -0.23204579584E+02  0.24652332659E+02  0.51100000000E-03 0. -1.
        -11    1    3    3    0    0  0.11463105769E+01 -0.12928665690E+01 -0.18374324401E+02  0.18455387543E+02  0.51100000000E-03 0.  1.
         12    1    3    3    0    0  0.81614227989E+00 -0.23518862343E+01 -0.17353159323E+01  0.30345969196E+01  0.00000000000E+00 0. -1.
</event>
<event>
 7    1  0.2472338E-008  0.4614232E+02  0.7816164E-02  0.1320468E+00
        -11   -1    0    0    0    0  0.00000000000E+00  0.00000000000E+00  0.45593999997E+02  0.45594000000E+02  0.51100000000E-03 0.  1.
         11   -1    0    0    0    0 -0.00000000000E+00 -0.00000000000E+00 -0.45593999997E+02  0.45594000000E+02  0.51100000000E-03 0. -1.
    9900012    2    1    2    0    0  0.12607707080E+02  0.25604339536E+02  0.34850782073E+02  0.46142317721E+02  0.99999996353E+01 0.  0.
         12    1    1    2    0    0 -0.12607707080E+02 -0.25604339536E+02 -0.34850782073E+02  0.45045682279E+02  0.00000000000E+00 0. -1.
         11    1    3    3    0    0  0.10430989231E+02  0.16431402364E+02  0.18232387150E+02  0.26668641912E+02  0.51100000000E-03 0. -1.
        -11    1    3    3    0    0  0.29635295883E+01  0.46838261064E+01  0.10084750150E+02  0.11507515825E+02  0.51100000000E-03 0.  1.
        -12    1    3    3    0    0 -0.78681173939E+00  0.44891110653E+01  0.65336447728E+01  0.79661599838E+01  0.00000000000E+00 0.  1.
</event>
<event>
 7    1  0.2472338E-008  0.4614232E+02  0.7816164E-02  0.1320468E+00
        -11   -1    0    0    0    0  0.00000000000E+00  0.00000000000E+00  0.45593999997E+02  0.45594000000E+02  0.51100000000E-03 0.  1.
         11   -1    0    0    0    0 -0.00000000000E+00 -0.00000000000E+00 -0.45593999997E+02  0.45594000000E+02  0.51100000000E-03 0. -1.
    9900012    2    1    2    0    0  0.18718234466E+02  0.16397834585E+02  0.37547993931E+02  0.46142321752E+02  0.10000036390E+02 0.  0.
         12    1    1    2    0    0 -0.18718234466E+02 -0.16397834585E+02 -0.37547993931E+02  0.45045678248E+02  0.00000000000E+00 0. -1.
         11    1    3    3    0    0  0.13864117037E+02  0.11425719854E+02  0.24213682956E+02  0.30150675912E+02  0.51100000000E-03 0. -1.
        -11    1    3    3    0    0  0.40244991847E+01  0.61330730153E+01  0.11817456765E+02  0.13909114384E+02  0.51100000000E-03 0.  1.
         12    1    3    3    0    0  0.82961824466E+00 -0.11609582841E+01  0.15168542100E+01  0.20825314556E+01  0.00000000000E+00 0. -1.
</event>
<event>
 7    1  0.2472338E-008  0.4614232E+02  0.7816164E-02  0.1320468E+00
        -11   -1    0    0    0    0  0.00000000000E+00  0.00000000000E+00  0.45593999997E+02  0.45594000000E+02  0.51100000000E-03 0.  1.
         11   -1    0    0    0    0 -0.00000000000E+00 -0.00000000000E+00 -0.45593999997E+02  0.45594000000E+02  0.51100000000E-03 0. -1.
    9900012    2    1    2    0    0  0.15913803447E+02 -0.10270973661E+02  0.40870178166E+02  0.46142317594E+02  0.99999984774E+01 0.  0.
         12    1    1    2    0    0 -0.15913803447E+02  0.10270973661E+02 -0.40870178166E+02  0.45045682406E+02  0.00000000000E+00 0. -1.
         11    1    3    3    0    0  0.37655389928E+01 -0.11459861611E+01  0.23518516750E+01  0.45851689991E+01  0.51100000000E-03 0. -1.
        -11    1    3    3    0    0  0.78948939833E+01 -0.38859038058E+01  0.23455944122E+02  0.25052163865E+02  0.51100000000E-03 0.  1.
        -12    1    3    3    0    0  0.42533704708E+01 -0.52390836942E+01  0.15062382369E+02  0.16504984730E+02  0.00000000000E+00 0.  1.
</event>
<event>
 7    1  0.2472338E-008  0.4614232E+02  0.7816164E-02  0.1320468E+00
        -11   -1    0    0    0    0  0.00000000000E+00  0.00000000000E+00  0.45593999997E+02  0.45594000000E+02  0.51100000000E-03 0. -1.
         11   -1    0    0    0    0 -0.00000000000E+00 -0.00000000000E+00 -0.45593999997E+02  0.45594000000E+02  0.51100000000E-03 0.  1.
    9900012    2    1    2    0    0  0.84507259385E+01 -0.28767678895E+02 -0.33617247062E+02  0.46142318543E+02  0.10000007132E+02 0.  0.
         12    1    1    2    0    0 -0.84507259385E+01  0.28767678895E+02  0.33617247062E+02  0.45045681457E+02  0.00000000000E+00 0. -1.
         11    1    3    3    0    0  0.24399793807E+00 -0.10861407703E+01 -0.44764452625E+01  0.46127864915E+01  0.51100000000E-03 0. -1.
        -11    1    3    3    0    0  0.61761480485E+01 -0.20975794920E+02 -0.25638157846E+02  0.33696348693E+02  0.51100000000E-03 0.  1.
         12    1    3    3    0    0  0.20305799519E+01 -0.67057432043E+01 -0.35026439532E+01  0.78331833584E+01  0.00000000000E+00 0. -1.
</event>
<event>
 7    1  0.2472338E-008  0.4614232E+02  0.7816164E-02  0.1320468E+00
        -11   -1    0    0    0    0  0.00000000000E+00  0.00000000000E+00  0.45593999997E+02  0.45594000000E+02  0.51100000000E-03 0.  1.
         11   -1    0    0    0    0 -0.00000000000E+00 -0.00000000000E+00 -0.45593999997E+02  0.45594000000E+02  0.51100000000E-03 0. -1.
    9900012    2    1    2    0    0 -0.21023267526E+02 -0.36027265051E+02  0.17005056524E+02  0.46142317056E+02  0.99999935710E+01 0.  0.
         12    1    1    2    0    0  0.21023267526E+02  0.36027265051E+02 -0.17005056524E+02  0.45045682944E+02  0.00000000000E+00 0. -1.
         11    1    3    3    0    0 -0.62903651779E+01 -0.55709718287E+01  0.63821844267E+01  0.10551620705E+02  0.51100000000E-03 0.  1.
        -11    1    3    3    0    0 -0.11046426932E+02 -0.19538015930E+02  0.70353305965E+01  0.23521341188E+02  0.51100000000E-03 0. -1.
         12    1    3    3    0    0 -0.36864754164E+01 -0.10918277292E+02  0.35875415008E+01  0.12069355163E+02  0.00000000000E+00 0. -1.
</event>
<event>
 7    1  0.2472338E-008  0.4614232E+02  0.7816164E-02  0.1320468E+00
        -11   -1    0    0    0    0  0.00000000000E+00  0.00000000000E+00  0.45593999997E+02  0.45594000000E+02  0.51100000000E-03 0.  1.
         11   -1    0    0    0    0 -0.00000000000E+00 -0.00000000000E+00 -0.45593999997E+02  0.45594000000E+02  0.51100000000E-03 0. -1.
    9900012    2    1    2    0    0  0.41829632718E+02 -0.14766503075E+02  0.78323547628E+01  0.46142316882E+02  0.99999919875E+01 0.  0.
         12    1    1    2    0    0 -0.41829632718E+02  0.14766503075E+02 -0.78323547628E+01  0.45045683118E+02  0.00000000000E+00 0. -1.
         11    1    3    3    0    0  0.74566672465E+01 -0.65715077263E+01  0.16566369895E+01  0.10076261539E+02  0.51100000000E-03 0. -1.
        -11    1    3    3    0    0  0.13471213471E+02 -0.31684875489E+01  0.42772337408E+01  0.14484737984E+02  0.51100000000E-03 0.  1.
         12    1    3    3    0    0  0.20901752000E+02 -0.50265077995E+01  0.18984840325E+01  0.21581317359E+02  0.00000000000E+00 0. -1.
</event>
<event>
 7    1  0.2472338E-008  0.4614232E+02  0.7816164E-02  0.1320468E+00
        -11   -1    0    0    0    0  0.00000000000E+00  0.00000000000E+00  0.45593999997E+02  0.45594000000E+02  0.51100000000E-03 0.  1.
         11   -1    0    0    0    0 -0.00000000000E+00 -0.00000000000E+00 -0.45593999997E+02  0.45594000000E+02  0.51100000000E-03 0. -1.
    9900012    2    1    2    0    0 -0.24480932358E+02 -0.37358972562E+02 -0.58399054563E+01  0.46142319011E+02  0.10000011400E+02 0.  0.
         12    1    1    2    0    0  0.24480932358E+02  0.37358972562E+02  0.58399054563E+01  0.45045680989E+02  0.00000000000E+00 0. -1.
         11    1    3    3    0    0 -0.52473072321E+01 -0.10093821757E+02 -0.14451879097E+01  0.11467695461E+02  0.51100000000E-03 0. -1.
        -11    1    3    3    0    0 -0.17353976283E+02 -0.27416967009E+02 -0.36706396408E+01  0.32654619405E+02  0.51100000000E-03 0.  1.
         12    1    3    3    0    0 -0.18796488430E+01  0.15181620408E+00 -0.72407790575E+00  0.20200041451E+01  0.00000000000E+00 0. -1.
</event>
<event>
 7    1  0.2472338E-008  0.4614232E+02  0.7816164E-02  0.1320468E+00
        -11   -1    0    0    0    0  0.00000000000E+00  0.00000000000E+00  0.45593999997E+02  0.45594000000E+02  0.51100000000E-03 0. -1.
         11   -1    0    0    0    0 -0.00000000000E+00 -0.00000000000E+00 -0.45593999997E+02  0.45594000000E+02  0.51100000000E-03 0.  1.
    9900012    2    1    2    0    0  0.43874569673E+02 -0.58803457390E+01  0.83400913968E+01  0.46142318137E+02  0.10000003427E+02 0.  0.
         12    1    1    2    0    0 -0.43874569673E+02  0.58803457390E+01 -0.83400913968E+01  0.45045681863E+02  0.00000000000E+00 0. -1.
         11    1    3    3    0    0  0.85069840880E+01  0.70021636383E+00  0.11519858861E+01  0.86131383927E+01  0.51100000000E-03 0. -1.
        -11    1    3    3    0    0  0.11034008419E+02  0.16272001801E+01  0.20889792474E+01  0.11347288521E+02  0.51100000000E-03 0.  1.
        -12    1    3    3    0    0  0.24333577166E+02 -0.82077622829E+01  0.50991262632E+01  0.26181891224E+02  0.00000000000E+00 0.  1.
</event>
<event>
 7    1  0.2472338E-008  0.4614232E+02  0.7816164E-02  0.1320468E+00
        -11   -1    0    0    0    0  0.00000000000E+00  0.00000000000E+00  0.45593999997E+02  0.45594000000E+02  0.51100000000E-03 0.  1.
         11   -1    0    0    0    0 -0.00000000000E+00 -0.00000000000E+00 -0.45593999997E+02  0.45594000000E+02  0.51100000000E-03 0. -1.
    9900012    2    1    2    0    0 -0.13010346621E+02 -0.38890260659E+02  0.18638457444E+02  0.46142316642E+02  0.99999897910E+01 0.  0.
         12    1    1    2    0    0  0.13010346621E+02  0.38890260659E+02 -0.18638457444E+02  0.45045683358E+02  0.00000000000E+00 0. -1.
         11    1    3    3    0    0 -0.23701292133E+01 -0.54993096606E+01  0.13118990988E+01  0.61303343088E+01  0.51100000000E-03 0. -1.
        -11    1    3    3    0    0 -0.76105882782E+01 -0.31166167062E+02  0.16806134449E+02  0.36217360183E+02  0.51100000000E-03 0.  1.
        -12    1    3    3    0    0 -0.30296291291E+01 -0.22247839365E+01  0.52042389654E+00  0.37946221493E+01  0.00000000000E+00 0.  1.
</event>
<event>
 7    1  0.2472338E-008  0.4614232E+02  0.7816164E-02  0.1320468E+00
        -11   -1    0    0    0    0  0.00000000000E+00  0.00000000000E+00  0.45593999997E+02  0.45594000000E+02  0.51100000000E-03 0.  1.
         11   -1    0    0    0    0 -0.00000000000E+00 -0.00000000000E+00 -0.45593999997E+02  0.45594000000E+02  0.51100000000E-03 0. -1.
    9900012    2    1    2    0    0  0.44585544891E+02  0.57553522784E+01 -0.28493159257E+01  0.46142317695E+02  0.99999993984E+01 0.  0.
         12    1    1    2    0    0 -0.44585544891E+02 -0.57553522784E+01  0.28493159257E+01  0.45045682305E+02  0.00000000000E+00 0. -1.
         11    1    3    3    0    0  0.81239464070E+01  0.23037133639E+01  0.41512760974E-01  0.84443664095E+01  0.51100000000E-03 0. -1.
        -11    1    3    3    0    0  0.21709385530E+02  0.39545818054E+01  0.19775107593E+01  0.22155060063E+02  0.51100000000E-03 0.  1.
         12    1    3    3    0    0  0.14752212954E+02 -0.50294289101E+00 -0.48683394459E+01  0.15542891223E+02  0.00000000000E+00 0. -1.
</event>
<event>
 7    1  0.2472338E-008  0.4614232E+02  0.7816164E-02  0.1320468E+00
        -11   -1    0    0    0    0  0.00000000000E+00  0.00000000000E+00  0.45593999997E+02  0.45594000000E+02  0.51100000000E-03 0. -1.
         11   -1    0    0    0    0 -0.00000000000E+00 -0.00000000000E+00 -0.45593999997E+02  0.45594000000E+02  0.51100000000E-03 0.  1.
    9900012    2    1    2    0    0  0.33557082699E+02 -0.19379479170E+02  0.22966746548E+02  0.46142318085E+02  0.10000002958E+02 0.  0.
         12    1    1    2    0    0 -0.33557082699E+02  0.19379479170E+02 -0.22966746548E+02  0.45045681915E+02  0.00000000000E+00 0. -1.
         11    1    3    3    0    0  0.24841097440E+02 -0.15019160126E+02  0.13993301956E+02  0.32225266373E+02  0.51100000000E-03 0. -1.
        -11    1    3    3    0    0  0.29291942873E+01 -0.17795602329E+01  0.70352007494E+00  0.34988504615E+01  0.51100000000E-03 0.  1.
         12    1    3    3    0    0  0.57867909712E+01 -0.25807588108E+01  0.82699245168E+01  0.10418201251E+02  0.00000000000E+00 0. -1.
</event>
<event>
 7    1  0.2472338E-008  0.4614232E+02  0.7816164E-02  0.1320468E+00
        -11   -1    0    0    0    0  0.00000000000E+00  0.00000000000E+00  0.45593999997E+02  0.45594000000E+02  0.51100000000E-03 0. -1.
         11   -1    0    0    0    0 -0.00000000000E+00 -0.00000000000E+00 -0.45593999997E+02  0.45594000000E+02  0.51100000000E-03 0.  1.
    9900012    2    1    2    0    0 -0.80415135769E+00 -0.70057365707E+01 -0.44490295999E+02  0.46142318272E+02  0.10000004658E+02 0.  0.
         12    1    1    2    0    0  0.80415135769E+00  0.70057365707E+01  0.44490295999E+02  0.45045681728E+02  0.00000000000E+00 0. -1.
         11    1    3    3    0    0 -0.11413237254E+01 -0.39193263067E+01 -0.37037073989E+02  0.37261355161E+02  0.51100000000E-03 0.  1.
        -11    1    3    3    0    0  0.16165607940E+01 -0.39588833335E+00 -0.39241928908E+01  0.42625446013E+01  0.51100000000E-03 0. -1.
        -12    1    3    3    0    0 -0.12793884264E+01 -0.26905219306E+01 -0.35290291191E+01  0.46184185094E+01  0.00000000000E+00 0.  1.
</event>
<event>
 7    1  0.2472338E-008  0.4614232E+02  0.7816164E-02  0.1320468E+00
        -11   -1    0    0    0    0  0.00000000000E+00  0.00000000000E+00  0.45593999997E+02  0.45594000000E+02  0.51100000000E-03 0.  1.
         11   -1    0    0    0    0 -0.00000000000E+00 -0.00000000000E+00 -0.45593999997E+02  0.45594000000E+02  0.51100000000E-03 0. -1.
    9900012    2    1    2    0    0 -0.18562755894E+02  0.84594361748E+00  0.41034402547E+02  0.46142315196E+02  0.99999766134E+01 0.  0.
         12    1    1    2    0    0  0.18562755894E+02 -0.84594361748E+00 -0.41034402547E+02  0.45045684804E+02  0.00000000000E+00 0. -1.
         11    1    3    3    0    0 -0.39636115111E+00 -0.87118365874E+00  0.75858753402E+00  0.12212773793E+01  0.51100000000E-03 0. -1.
        -11    1    3    3    0    0 -0.62112487873E+01  0.39426724432E+01  0.11148452176E+02  0.13357105363E+02  0.51100000000E-03 0.  1.
        -12    1    3    3    0    0 -0.11955145956E+02 -0.22255451670E+01  0.29127362837E+02  0.31563932454E+02  0.00000000000E+00 0.  1.
</event>
<event>
 7    1  0.2472338E-008  0.4614232E+02  0.7816164E-02  0.1320468E+00
        -11   -1    0    0    0    0  0.00000000000E+00  0.00000000000E+00  0.45593999997E+02  0.45594000000E+02  0.51100000000E-03 0. -1.
         11   -1    0    0    0    0 -0.00000000000E+00 -0.00000000000E+00 -0.45593999997E+02  0.45594000000E+02  0.51100000000E-03 0.  1.
    9900012    2    1    2    0    0  0.38873401700E+01  0.43324101071E+02 -0.11705738741E+02  0.46142318001E+02  0.10000002192E+02 0.  0.
         12    1    1    2    0    0 -0.38873401700E+01 -0.43324101071E+02  0.11705738741E+02  0.45045681999E+02  0.00000000000E+00 0. -1.
         11    1    3    3    0    0  0.22179457288E+01  0.15176761247E+02 -0.25458313174E+01  0.15547817293E+02  0.51100000000E-03 0. -1.
        -11    1    3    3    0    0  0.42857388521E+01  0.19876444148E+02 -0.79655290341E+01  0.21837816799E+02  0.51100000000E-03 0.  1.
         12    1    3    3    0    0 -0.26163444109E+01  0.82708956763E+01 -0.11943783892E+01  0.87566839101E+01  0.00000000000E+00 0. -1.
</event>
<event>
 7    1  0.2472338E-008  0.4614232E+02  0.7816164E-02  0.1320468E+00
        -11   -1    0    0    0    0  0.00000000000E+00  0.00000000000E+00  0.45593999997E+02  0.45594000000E+02  0.51100000000E-03 0. -1.
         11   -1    0    0    0    0 -0.00000000000E+00 -0.00000000000E+00 -0.45593999997E+02  0.45594000000E+02  0.51100000000E-03 0.  1.
    9900012    2    1    2    0    0  0.43345284024E+02  0.86262691578E+01 -0.87113365523E+01  0.46142317064E+02  0.99999936407E+01 0.  0.
         12    1    1    2    0    0 -0.43345284024E+02 -0.86262691578E+01  0.87113365523E+01  0.45045682936E+02  0.00000000000E+00 0. -1.
         11    1    3    3    0    0  0.74390986687E+01  0.18577339991E+01 -0.47457517007E+01  0.90174011822E+01  0.51100000000E-03 0. -1.
        -11    1    3    3    0    0 -0.55748907754E-01  0.38412267708E+00 -0.32635335101E-01  0.38951700602E+00  0.51100000000E-03 0.  1.
        -12    1    3    3    0    0  0.35961934263E+02  0.63844124817E+01 -0.39329495165E+01  0.36735398876E+02  0.00000000000E+00 0.  1.
</event>
<event>
 7    1  0.2472338E-008  0.4614232E+02  0.7816164E-02  0.1320468E+00
        -11   -1    0    0    0    0  0.00000000000E+00  0.00000000000E+00  0.45593999997E+02  0.45594000000E+02  0.51100000000E-03 0.  1.
         11   -1    0    0    0    0 -0.00000000000E+00 -0.00000000000E+00 -0.45593999997E+02  0.45594000000E+02  0.51100000000E-03 0. -1.
    9900012    2    1    2    0    0 -0.25521326283E+02  0.30575066152E+02  0.21046156156E+02  0.46142318138E+02  0.10000003440E+02 0.  0.
         12    1    1    2    0    0  0.25521326283E+02 -0.30575066152E+02 -0.21046156156E+02  0.45045681862E+02  0.00000000000E+00 0. -1.
         11    1    3    3    0    0 -0.83419341855E+01  0.96530446824E+01  0.45412430808E+01  0.13542231226E+02  0.51100000000E-03 0. -1.
        -11    1    3    3    0    0 -0.16472187548E+02  0.18451982123E+02  0.16959962906E+02  0.29990814409E+02  0.51100000000E-03 0.  1.
         12    1    3    3    0    0 -0.70720454984E+00  0.24700393464E+01 -0.45504983092E+00  0.26092725034E+01  0.00000000000E+00 0. -1.
</event>
<event>
 7    1  0.2472338E-008  0.4614232E+02  0.7816164E-02  0.1320468E+00
        -11   -1    0    0    0    0  0.00000000000E+00  0.00000000000E+00  0.45593999997E+02  0.45594000000E+02  0.51100000000E-03 0. -1.
         11   -1    0    0    0    0 -0.00000000000E+00 -0.00000000000E+00 -0.45593999997E+02  0.45594000000E+02  0.51100000000E-03 0.  1.
    9900012    2    1    2    0    0  0.11606121756E+02 -0.95946962619E+01 -0.42454130657E+02  0.46142317983E+02  0.10000002021E+02 0.  0.
         12    1    1    2    0    0 -0.11606121756E+02  0.95946962619E+01  0.42454130657E+02  0.45045682017E+02  0.00000000000E+00 0. -1.
         11    1    3    3    0    0  0.21124480775E+01 -0.41892870975E+01 -0.53527014121E+01  0.71178631578E+01  0.51100000000E-03 0. -1.
        -11    1    3    3    0    0  0.16780868749E+01 -0.36140700705E+01 -0.10098603467E+02  0.10856300948E+02  0.51100000000E-03 0.  1.
        -12    1    3    3    0    0  0.78155868039E+01 -0.17913390939E+01 -0.27002825778E+02  0.28168153877E+02  0.00000000000E+00 0.  1.
</event>
<event>
 7    1  0.2472338E-008  0.4614232E+02  0.7816164E-02  0.1320468E+00
        -11   -1    0    0    0    0  0.00000000000E+00  0.00000000000E+00  0.45593999997E+02  0.45594000000E+02  0.51100000000E-03 0. -1.
         11   -1    0    0    0    0 -0.00000000000E+00 -0.00000000000E+00 -0.45593999997E+02  0.45594000000E+02  0.51100000000E-03 0.  1.
    9900012    2    1    2    0    0  0.40422435372E+02  0.16231608877E+02 -0.11474966339E+02  0.46142320289E+02  0.10000023054E+02 0.  0.
         12    1    1    2    0    0 -0.40422435372E+02 -0.16231608877E+02  0.11474966339E+02  0.45045679711E+02  0.00000000000E+00 0. -1.
         11    1    3    3    0    0  0.50891828654E+01  0.85389460933E+00  0.11584727695E+01  0.52887595578E+01  0.51100000000E-03 0. -1.
        -11    1    3    3    0    0 -0.15586788402E-01  0.39911280985E+00 -0.38722372246E+00  0.55630608060E+00  0.51100000000E-03 0.  1.
        -12    1    3    3    0    0  0.35348839295E+02  0.14978601458E+02 -0.12246215386E+02  0.40297254651E+02  0.00000000000E+00 0.  1.
</event>
<event>
 7    1  0.2472338E-008  0.4614232E+02  0.7816164E-02  0.1320468E+00
        -11   -1    0    0    0    0  0.00000000000E+00  0.00000000000E+00  0.45593999997E+02  0.45594000000E+02  0.51100000000E-03 0.  1.
         11   -1    0    0    0    0 -0.00000000000E+00 -0.00000000000E+00 -0.45593999997E+02  0.45594000000E+02  0.51100000000E-03 0. -1.
    9900012    2    1    2    0    0  0.54688186073E+01  0.42267484951E+02  0.14583045663E+02  0.46142317834E+02  0.10000000663E+02 0.  0.
         12    1    1    2    0    0 -0.54688186073E+01 -0.42267484951E+02 -0.14583045663E+02  0.45045682166E+02  0.00000000000E+00 0. -1.
         11    1    3    3    0    0 -0.40088923897E+00  0.23615194735E+01  0.11348445706E+01  0.26505393539E+01  0.51100000000E-03 0. -1.
        -11    1    3    3    0    0  0.51141291359E+00  0.30293429482E+02  0.10870413571E+02  0.32188807130E+02  0.51100000000E-03 0.  1.
        -12    1    3    3    0    0  0.53582949327E+01  0.96125359947E+01  0.25777875209E+01  0.11302971350E+02  0.00000000000E+00 0.  1.
</event>
<event>
 7    1  0.2472338E-008  0.4614232E+02  0.7816164E-02  0.1320468E+00
        -11   -1    0    0    0    0  0.00000000000E+00  0.00000000000E+00  0.45593999997E+02  0.45594000000E+02  0.51100000000E-03 0.  1.
         11   -1    0    0    0    0 -0.00000000000E+00 -0.00000000000E+00 -0.45593999997E+02  0.45594000000E+02  0.51100000000E-03 0. -1.
    9900012    2    1    2    0    0 -0.34582984230E+02  0.12106784296E+02  0.26202222240E+02  0.46142317914E+02  0.10000001397E+02 0.  0.
         12    1    1    2    0    0  0.34582984230E+02 -0.12106784296E+02 -0.26202222240E+02  0.45045682086E+02  0.00000000000E+00 0. -1.
         11    1    3    3    0    0 -0.42153489780E+01  0.20409375578E+01  0.26795814471E+01  0.53958085691E+01  0.51100000000E-03 0. -1.
        -11    1    3    3    0    0 -0.28129028830E+02  0.92902147816E+01  0.24233629084E+02  0.38272955627E+02  0.51100000000E-03 0.  1.
         12    1    3    3    0    0 -0.22386064222E+01  0.77563195614E+00 -0.71098829105E+00  0.24735537178E+01  0.00000000000E+00 0. -1.
</event>
<event>
 7    1  0.2472338E-008  0.4614232E+02  0.7816164E-02  0.1320468E+00
        -11   -1    0    0    0    0  0.00000000000E+00  0.00000000000E+00  0.45593999997E+02  0.45594000000E+02  0.51100000000E-03 0. -1.
         11   -1    0    0    0    0 -0.00000000000E+00 -0.00000000000E+00 -0.45593999997E+02  0.45594000000E+02  0.51100000000E-03 0.  1.
    9900012    2    1    2    0    0 -0.30374192240E+02  0.18325780453E+02 -0.27761259765E+02  0.46142319550E+02  0.10000016310E+02 0.  0.
         12    1    1    2    0    0  0.30374192240E+02 -0.18325780453E+02  0.27761259765E+02  0.45045680450E+02  0.00000000000E+00 0. -1.
         11    1    3    3    0    0  0.11517727419E-01 -0.39354611183E+00 -0.59442506249E+00  0.71298851058E+00  0.51100000000E-03 0. -1.
        -11    1    3    3    0    0 -0.22855678049E+02  0.10633597572E+02 -0.20766630389E+02  0.32660501441E+02  0.51100000000E-03 0.  1.
         12    1    3    3    0    0 -0.75300319185E+01  0.80857289929E+01 -0.64002043136E+01  0.12768829598E+02  0.00000000000E+00 0. -1.
</event>
<event>
 7    1  0.2472338E-008  0.4614232E+02  0.7816164E-02  0.1320468E+00
        -11   -1    0    0    0    0  0.00000000000E+00  0.00000000000E+00  0.45593999997E+02  0.45594000000E+02  0.51100000000E-03 0.  1.
         11   -1    0    0    0    0 -0.00000000000E+00 -0.00000000000E+00 -0.45593999997E+02  0.45594000000E+02  0.51100000000E-03 0. -1.
    9900012    2    1    2    0    0 -0.28917455234E+02 -0.17749875215E+02  0.29628300254E+02  0.46142318039E+02  0.10000002538E+02 0.  0.
         12    1    1    2    0    0  0.28917455234E+02  0.17749875215E+02 -0.29628300254E+02  0.45045681961E+02  0.00000000000E+00 0. -1.
         11    1    3    3    0    0 -0.44247322264E+00  0.20313139452E+00 -0.59706105874E+00  0.77040709055E+00  0.51100000000E-03 0. -1.
        -11    1    3    3    0    0 -0.15801468932E+02 -0.99472009769E+01  0.19047442486E+02  0.26672800626E+02  0.51100000000E-03 0.  1.
         12    1    3    3    0    0 -0.12673513079E+02 -0.80058056326E+01  0.11177918827E+02  0.18699110323E+02  0.00000000000E+00 0. -1.
</event>
<event>
 7    1  0.2472338E-008  0.4614232E+02  0.7816164E-02  0.1320468E+00
        -11   -1    0    0    0    0  0.00000000000E+00  0.00000000000E+00  0.45593999997E+02  0.45594000000E+02  0.51100000000E-03 0.  1.
         11   -1    0    0    0    0 -0.00000000000E+00 -0.00000000000E+00 -0.45593999997E+02  0.45594000000E+02  0.51100000000E-03 0. -1.
    9900012    2    1    2    0    0 -0.10325678473E+02  0.38913802415E+02  0.20204203621E+02  0.46142317651E+02  0.99999989959E+01 0.  0.
         12    1    1    2    0    0  0.10325678473E+02 -0.38913802415E+02 -0.20204203621E+02  0.45045682349E+02  0.00000000000E+00 0. -1.
         11    1    3    3    0    0  0.63574779118E+00  0.12698908161E+02  0.77000930882E+01  0.14864651949E+02  0.51100000000E-03 0. -1.
        -11    1    3    3    0    0 -0.59808522682E+01  0.11932135076E+02  0.40442794765E+01  0.13946420260E+02  0.51100000000E-03 0.  1.
        -12    1    3    3    0    0 -0.49805739955E+01  0.14282759178E+02  0.84598310565E+01  0.17331245442E+02  0.00000000000E+00 0.  1.
</event>
<event>
 7    1  0.2472338E-008  0.4614232E+02  0.7816164E-02  0.1320468E+00
        -11   -1    0    0    0    0  0.00000000000E+00  0.00000000000E+00  0.45593999997E+02  0.45594000000E+02  0.51100000000E-03 0.  1.
         11   -1    0    0    0    0 -0.00000000000E+00 -0.00000000000E+00 -0.45593999997E+02  0.45594000000E+02  0.51100000000E-03 0. -1.
    9900012    2    1    2    0    0 -0.26835813917E+02  0.36085822507E+02  0.26011558762E+01  0.46142317559E+02  0.99999981608E+01 0.  0.
         12    1    1    2    0    0  0.26835813917E+02 -0.36085822507E+02 -0.26011558762E+01  0.45045682441E+02  0.00000000000E+00 0. -1.
         11    1    3    3    0    0  0.52515294870E+00  0.30619762771E+01 -0.17448882018E+00  0.31115801373E+01  0.51100000000E-03 0. -1.
        -11    1    3    3    0    0 -0.68389030586E+01  0.72929375013E+01  0.13358768329E+01  0.10086728886E+02  0.51100000000E-03 0.  1.
        -12    1    3    3    0    0 -0.20522063808E+02  0.25730908729E+02  0.14397678635E+01  0.32944008536E+02  0.00000000000E+00 0.  1.
</event>
<event>
 7    1  0.2472338E-008  0.4614232E+02  0.7816164E-02  0.1320468E+00
        -11   -1    0    0    0    0  0.00000000000E+00  0.00000000000E+00  0.45593999997E+02  0.45594000000E+02  0.51100000000E-03 0. -1.
         11   -1    0    0    0    0 -0.00000000000E+00 -0.00000000000E+00 -0.45593999997E+02  0.45594000000E+02  0.51100000000E-03 0.  1.
    9900012    2    1    2    0    0 -0.10366617840E+02  0.39987618915E+02 -0.17962095310E+02  0.46142319854E+02  0.10000019086E+02 0.  0.
         12    1    1    2    0    0  0.10366617840E+02 -0.39987618915E+02  0.17962095310E+02  0.45045680146E+02  0.00000000000E+00 0. -1.
         11    1    3    3    0    0 -0.16511286623E+01  0.47382879172E+01  0.69594622400E+00  0.50657615078E+01  0.51100000000E-03 0. -1.
        -11    1    3    3    0    0  0.55318637585E+00  0.23656992583E+01 -0.12128981137E+01  0.27154502836E+01  0.51100000000E-03 0.  1.
        -12    1    3    3    0    0 -0.92686755531E+01  0.32883631739E+02 -0.17445143420E+02  0.38361108063E+02  0.00000000000E+00 0.  1.
</event>
<event>
 7    1  0.2472338E-008  0.4614231E+02  0.7816164E-02  0.1320468E+00
        -11   -1    0    0    0    0  0.00000000000E+00  0.00000000000E+00  0.45593999997E+02  0.45594000000E+02  0.51100000000E-03 0.  1.
         11   -1    0    0    0    0 -0.00000000000E+00 -0.00000000000E+00 -0.45593999997E+02  0.45594000000E+02  0.51100000000E-03 0. -1.
    9900012    2    1    2    0    0  0.21160298793E+01  0.77728612745E+01  0.44319508002E+02  0.46142314919E+02  0.99999740849E+01 0.  0.
         12    1    1    2    0    0 -0.21160298793E+01 -0.77728612745E+01 -0.44319508002E+02  0.45045685081E+02  0.00000000000E+00 0. -1.
         11    1    3    3    0    0  0.33515595730E+01  0.54090907764E+01  0.21037471980E+02  0.21978772536E+02  0.51100000000E-03 0. -1.
        -11    1    3    3    0    0  0.67533563751E+00  0.34894436517E+01  0.84564720043E+01  0.91730155479E+01  0.51100000000E-03 0.  1.
         12    1    3    3    0    0 -0.19108653312E+01 -0.11256731536E+01  0.14825564018E+02  0.14990526835E+02  0.00000000000E+00 0. -1.
</event>
<event>
 7    1  0.2472338E-008  0.4614232E+02  0.7816164E-02  0.1320468E+00
        -11   -1    0    0    0    0  0.00000000000E+00  0.00000000000E+00  0.45593999997E+02  0.45594000000E+02  0.51100000000E-03 0.  1.
         11   -1    0    0    0    0 -0.00000000000E+00 -0.00000000000E+00 -0.45593999997E+02  0.45594000000E+02  0.51100000000E-03 0. -1.
    9900012    2    1    2    0    0 -0.37317818866E+02 -0.24298271212E+02  0.67888097368E+01  0.46142317338E+02  0.99999961441E+01 0.  0.
         12    1    1    2    0    0  0.37317818866E+02  0.24298271212E+02 -0.67888097368E+01  0.45045682662E+02  0.00000000000E+00 0. -1.
         11    1    3    3    0    0 -0.40824414629E+01 -0.59151598053E+01  0.16680333531E+01  0.73781962124E+01  0.51100000000E-03 0. -1.
        -11    1    3    3    0    0 -0.14744953315E+02 -0.11371809597E+02  0.17364353824E+01  0.18701521592E+02  0.51100000000E-03 0.  1.
         12    1    3    3    0    0 -0.18490424089E+02 -0.70113018102E+01  0.33843410012E+01  0.20062599534E+02  0.00000000000E+00 0. -1.
</event>
<event>
 7    1  0.2472338E-008  0.4614232E+02  0.7816164E-02  0.1320468E+00
        -11   -1    0    0    0    0  0.00000000000E+00  0.00000000000E+00  0.45593999997E+02  0.45594000000E+02  0.51100000000E-03 0.  1.
         11   -1    0    0    0    0 -0.00000000000E+00 -0.00000000000E+00 -0.45593999997E+02  0.45594000000E+02  0.51100000000E-03 0. -1.
    9900012    2    1    2    0    0  0.37781113686E+02  0.24044632438E+02  0.48535134832E+01  0.46142317703E+02  0.99999994720E+01 0.  0.
         12    1    1    2    0    0 -0.37781113686E+02 -0.24044632438E+02 -0.48535134832E+01  0.45045682297E+02  0.00000000000E+00 0. -1.
         11    1    3    3    0    0  0.54574261139E+01  0.62638885731E+01  0.93894583236E+00  0.83607068709E+01  0.51100000000E-03 0. -1.
        -11    1    3    3    0    0  0.30049191165E+02  0.13994389417E+02  0.31308674585E+01  0.33295632689E+02  0.51100000000E-03 0.  1.
        -12    1    3    3    0    0  0.22744964069E+01  0.37863544481E+01  0.78370019232E+00  0.44859781434E+01  0.00000000000E+00 0.  1.
</event>
<event>
 7    1  0.2472338E-008  0.4614232E+02  0.7816164E-02  0.1320468E+00
        -11   -1    0    0    0    0  0.00000000000E+00  0.00000000000E+00  0.45593999997E+02  0.45594000000E+02  0.51100000000E-03 0.  1.
         11   -1    0    0    0    0 -0.00000000000E+00 -0.00000000000E+00 -0.45593999997E+02  0.45594000000E+02  0.51100000000E-03 0. -1.
    9900012    2    1    2    0    0  0.17810388931E+02  0.31937640577E+02  0.26303815666E+02  0.46142316987E+02  0.99999929423E+01 0.  0.
         12    1    1    2    0    0 -0.17810388931E+02 -0.31937640577E+02 -0.26303815666E+02  0.45045683013E+02  0.00000000000E+00 0. -1.
         11    1    3    3    0    0 -0.15609214597E+00  0.33048413365E+00 -0.57182795211E-01  0.36993871630E+00  0.51100000000E-03 0. -1.
        -11    1    3    3    0    0  0.72898250447E+01  0.62755333933E+01  0.95240369244E+01  0.13536290044E+02  0.51100000000E-03 0.  1.
         12    1    3    3    0    0  0.10676656032E+02  0.25331623050E+02  0.16836961537E+02  0.32236088227E+02  0.00000000000E+00 0. -1.
</event>
<event>
 7    1  0.2472338E-008  0.4614232E+02  0.7816164E-02  0.1320468E+00
        -11   -1    0    0    0    0  0.00000000000E+00  0.00000000000E+00  0.45593999997E+02  0.45594000000E+02  0.51100000000E-03 0.  1.
         11   -1    0    0    0    0 -0.00000000000E+00 -0.00000000000E+00 -0.45593999997E+02  0.45594000000E+02  0.51100000000E-03 0. -1.
    9900012    2    1    2    0    0  0.12332642096E+02  0.31693084971E+02  0.29539258608E+02  0.46142317686E+02  0.99999993109E+01 0.  0.
         12    1    1    2    0    0 -0.12332642096E+02 -0.31693084971E+02 -0.29539258608E+02  0.45045682314E+02  0.00000000000E+00 0. -1.
         11    1    3    3    0    0  0.13973739263E+01  0.65843474579E+01  0.41769475703E+01  0.79216902617E+01  0.51100000000E-03 0. -1.
        -11    1    3    3    0    0  0.34367594157E+01  0.17218689859E+02  0.13724535816E+02  0.22285813411E+02  0.51100000000E-03 0.  1.
        -12    1    3    3    0    0  0.74985087545E+01  0.78900476539E+01  0.11637775222E+02  0.15934814013E+02  0.00000000000E+00 0.  1.
</event>
<event>
 7    1  0.2472338E-008  0.4614232E+02  0.7816164E-02  0.1320468E+00
        -11   -1    0    0    0    0  0.00000000000E+00  0.00000000000E+00  0.45593999997E+02  0.45594000000E+02  0.51100000000E-03 0. -1.
         11   -1    0    0    0    0 -0.00000000000E+00 -0.00000000000E+00 -0.45593999997E+02  0.45594000000E+02  0.51100000000E-03 0.  1.
    9900012    2    1    2    0    0  0.98043998006E+01 -0.19679653115E+02 -0.39315372862E+02  0.46142317127E+02  0.99999942206E+01 0.  0.
         12    1    1    2    0    0 -0.98043998006E+01  0.19679653115E+02  0.39315372862E+02  0.45045682873E+02  0.00000000000E+00 0. -1.
         11    1    3    3    0    0  0.19258681760E+01 -0.13844127892E+01 -0.37997867519E+01  0.44792796991E+01  0.51100000000E-03 0. -1.
        -11    1    3    3    0    0  0.26960972149E+01 -0.77895348589E+01 -0.69253928937E+01  0.10766004853E+02  0.51100000000E-03 0.  1.
         12    1    3    3    0    0  0.51824344097E+01 -0.10505705467E+02 -0.28590193216E+02  0.30897032575E+02  0.00000000000E+00 0. -1.
</event>
<event>
 7    1  0.2472338E-008  0.4614232E+02  0.7816164E-02  0.1320468E+00
        -11   -1    0    0    0    0  0.00000000000E+00  0.00000000000E+00  0.45593999997E+02  0.45594000000E+02  0.51100000000E-03 0.  1.
         11   -1    0    0    0    0 -0.00000000000E+00 -0.00000000000E+00 -0.45593999997E+02  0.45594000000E+02  0.51100000000E-03 0. -1.
    9900012    2    1    2    0    0  0.24269855892E+02 -0.22091491470E+02  0.30855365114E+02  0.46142318112E+02  0.10000003202E+02 0.  0.
         12    1    1    2    0    0 -0.24269855892E+02  0.22091491470E+02 -0.30855365114E+02  0.45045681888E+02  0.00000000000E+00 0. -1.
         11    1    3    3    0    0  0.13932391800E+01 -0.88485518126E+00  0.12268521642E+00  0.16550335428E+01  0.51100000000E-03 0. -1.
        -11    1    3    3    0    0  0.17970146196E+02 -0.18259886560E+02  0.20700027010E+02  0.32936920469E+02  0.51100000000E-03 0.  1.
        -12    1    3    3    0    0  0.49064705157E+01 -0.29467497288E+01  0.10032652888E+02  0.11550364100E+02  0.00000000000E+00 0.  1.
</event>
<event>
 7    1  0.2472338E-008  0.4614232E+02  0.7816164E-02  0.1320468E+00
        -11   -1    0    0    0    0  0.00000000000E+00  0.00000000000E+00  0.45593999997E+02  0.45594000000E+02  0.51100000000E-03 0.  1.
         11   -1    0    0    0    0 -0.00000000000E+00 -0.00000000000E+00 -0.45593999997E+02  0.45594000000E+02  0.51100000000E-03 0. -1.
    9900012    2    1    2    0    0  0.21103798437E+02  0.31456995296E+02  0.24376229446E+02  0.46142318482E+02  0.10000006570E+02 0.  0.
         12    1    1    2    0    0 -0.21103798437E+02 -0.31456995296E+02 -0.24376229446E+02  0.45045681518E+02  0.00000000000E+00 0. -1.
         11    1    3    3    0    0  0.44197860181E+01  0.11291855001E+02  0.12080086984E+02  0.17116337213E+02  0.51100000000E-03 0. -1.
        -11    1    3    3    0    0  0.12113389724E+02  0.15625659638E+02  0.10229854428E+02  0.22260848403E+02  0.51100000000E-03 0.  1.
         12    1    3    3    0    0  0.45706226943E+01  0.45394806569E+01  0.20662880332E+01  0.67651328652E+01  0.00000000000E+00 0. -1.
</event>
<event>
 7    1  0.2472338E-008  0.4614232E+02  0.7816164E-02  0.1320468E+00
        -11   -1    0    0    0    0  0.00000000000E+00  0.00000000000E+00  0.45593999997E+02  0.45594000000E+02  0.51100000000E-03 0.  1.
         11   -1    0    0    0    0 -0.00000000000E+00 -0.00000000000E+00 -0.45593999997E+02  0.45594000000E+02  0.51100000000E-03 0. -1.
    9900012    2    1    2    0    0 -0.36598362269E+02 -0.96214314058E+00  0.26244002179E+02  0.46142317736E+02  0.99999997755E+01 0.  0.
         12    1    1    2    0    0  0.36598362269E+02  0.96214314058E+00 -0.26244002179E+02  0.45045682264E+02  0.00000000000E+00 0. -1.
         11    1    3    3    0    0 -0.16416811676E+02  0.12004233857E+01  0.88234525881E+01  0.18676349690E+02  0.51100000000E-03 0.  1.
        -11    1    3    3    0    0 -0.11068983216E+02 -0.36741721464E+01  0.12101908550E+02  0.16807085446E+02  0.51100000000E-03 0. -1.
         12    1    3    3    0    0 -0.91125673770E+01  0.15116056202E+01  0.53186410415E+01  0.10658882600E+02  0.00000000000E+00 0. -1.
</event>
<event>
 7    1  0.2472338E-008  0.4614232E+02  0.7816164E-02  0.1320468E+00
        -11   -1    0    0    0    0  0.00000000000E+00  0.00000000000E+00  0.45593999997E+02  0.45594000000E+02  0.51100000000E-03 0.  1.
         11   -1    0    0    0    0 -0.00000000000E+00 -0.00000000000E+00 -0.45593999997E+02  0.45594000000E+02  0.51100000000E-03 0. -1.
    9900012    2    1    2    0    0 -0.15270920952E+02  0.26670144470E+02  0.32933507206E+02  0.46142317302E+02  0.99999958139E+01 0.  0.
         12    1    1    2    0    0  0.15270920952E+02 -0.26670144470E+02 -0.32933507206E+02  0.45045682698E+02  0.00000000000E+00 0. -1.
         11    1    3    3    0    0 -0.10579166496E+02  0.13713153636E+02  0.19595414106E+02  0.26152430110E+02  0.51100000000E-03 0. -1.
        -11    1    3    3    0    0 -0.43575265962E+01  0.52591356701E+01  0.84501675215E+01  0.10865168081E+02  0.51100000000E-03 0.  1.
         12    1    3    3    0    0 -0.33422786057E+00  0.76978551642E+01  0.48879255790E+01  0.91247191111E+01  0.00000000000E+00 0. -1.
</event>
<event>
 7    1  0.2472338E-008  0.4614232E+02  0.7816164E-02  0.1320468E+00
        -11   -1    0    0    0    0  0.00000000000E+00  0.00000000000E+00  0.45593999997E+02  0.45594000000E+02  0.51100000000E-03 0. -1.
         11   -1    0    0    0    0 -0.00000000000E+00 -0.00000000000E+00 -0.45593999997E+02  0.45594000000E+02  0.51100000000E-03 0.  1.
    9900012    2    1    2    0    0  0.25047175314E+02 -0.34195282493E+02 -0.15245823014E+02  0.46142318127E+02  0.10000003341E+02 0.  0.
         12    1    1    2    0    0 -0.25047175314E+02  0.34195282493E+02  0.15245823014E+02  0.45045681873E+02  0.00000000000E+00 0. -1.
         11    1    3    3    0    0  0.13861169111E+02 -0.21396895497E+02 -0.69873525109E+01  0.26434489619E+02  0.51100000000E-03 0. -1.
        -11    1    3    3    0    0  0.98551473590E+00  0.52082305823E+00 -0.60058476422E+00  0.12661746612E+01  0.51100000000E-03 0.  1.
        -12    1    3    3    0    0  0.10200491467E+02 -0.13319210055E+02 -0.76578857386E+01  0.18441653847E+02  0.00000000000E+00 0.  1.
</event>
<event>
 7    1  0.2472338E-008  0.4614232E+02  0.7816164E-02  0.1320468E+00
        -11   -1    0    0    0    0  0.00000000000E+00  0.00000000000E+00  0.45593999997E+02  0.45594000000E+02  0.51100000000E-03 0. -1.
         11   -1    0    0    0    0 -0.00000000000E+00 -0.00000000000E+00 -0.45593999997E+02  0.45594000000E+02  0.51100000000E-03 0.  1.
    9900012    2    1    2    0    0 -0.20973296140E+02 -0.38018571696E+02 -0.11992602531E+02  0.46142318073E+02  0.10000002844E+02 0.  0.
         12    1    1    2    0    0  0.20973296140E+02  0.38018571696E+02  0.11992602531E+02  0.45045681927E+02  0.00000000000E+00 0. -1.
         11    1    3    3    0    0 -0.19690030087E+01 -0.10479446152E+01 -0.14215165735E+01  0.26449707739E+01  0.51100000000E-03 0. -1.
        -11    1    3    3    0    0 -0.99035678611E+01 -0.22564984770E+02 -0.95460858634E+01  0.26427011742E+02  0.51100000000E-03 0.  1.
         12    1    3    3    0    0 -0.91007252699E+01 -0.14405642311E+02 -0.10250000943E+01  0.17070335557E+02  0.00000000000E+00 0. -1.
</event>
<event>
 7    1  0.2472338E-008  0.4614232E+02  0.7816164E-02  0.1320468E+00
        -11   -1    0    0    0    0  0.00000000000E+00  0.00000000000E+00  0.45593999997E+02  0.45594000000E+02  0.51100000000E-03 0.  1.
         11   -1    0    0    0    0 -0.00000000000E+00 -0.00000000000E+00 -0.45593999997E+02  0.45594000000E+02  0.51100000000E-03 0. -1.
    9900012    2    1    2    0    0  0.62831857362E+01 -0.16009563611E+02  0.41633269285E+02  0.46142315841E+02  0.99999824878E+01 0.  0.
         12    1    1    2    0    0 -0.62831857362E+01  0.16009563611E+02 -0.41633269285E+02  0.45045684159E+02  0.00000000000E+00 0. -1.
         11    1    3    3    0    0  0.40474939164E+01 -0.51974342134E+01  0.10707399900E+02  0.12571552899E+02  0.51100000000E-03 0.  1.
        -11    1    3    3    0    0  0.30007553236E+01 -0.41346597561E+01  0.20793214946E+02  0.21411626091E+02  0.51100000000E-03 0. -1.
         12    1    3    3    0    0 -0.76506350384E+00 -0.66774696411E+01  0.10132654439E+02  0.12159136851E+02  0.00000000000E+00 0. -1.
</event>
<event>
 7    1  0.2472338E-008  0.4614232E+02  0.7816164E-02  0.1320468E+00
        -11   -1    0    0    0    0  0.00000000000E+00  0.00000000000E+00  0.45593999997E+02  0.45594000000E+02  0.51100000000E-03 0.  1.
         11   -1    0    0    0    0 -0.00000000000E+00 -0.00000000000E+00 -0.45593999997E+02  0.45594000000E+02  0.51100000000E-03 0. -1.
    9900012    2    1    2    0    0 -0.38775868833E+02  0.17014660503E+02  0.15363804717E+02  0.46142321282E+02  0.10000032103E+02 0.  0.
         12    1    1    2    0    0  0.38775868833E+02 -0.17014660503E+02 -0.15363804717E+02  0.45045678718E+02  0.00000000000E+00 0. -1.
         11    1    3    3    0    0 -0.16447800227E+02  0.90070772099E+01  0.10318328950E+02  0.21403866117E+02  0.51100000000E-03 0. -1.
        -11    1    3    3    0    0 -0.17853585340E+02  0.43500377637E+01  0.45955212679E+01  0.18941809682E+02  0.51100000000E-03 0.  1.
         12    1    3    3    0    0 -0.44744832663E+01  0.36575455292E+01  0.44995449901E+00  0.57966454825E+01  0.00000000000E+00 0. -1.
</event>
<event>
 7    1  0.2472338E-008  0.4614232E+02  0.7816164E-02  0.1320468E+00
        -11   -1    0    0    0    0  0.00000000000E+00  0.00000000000E+00  0.45593999997E+02  0.45594000000E+02  0.51100000000E-03 0.  1.
         11   -1    0    0    0    0 -0.00000000000E+00 -0.00000000000E+00 -0.45593999997E+02  0.45594000000E+02  0.51100000000E-03 0. -1.
    9900012    2    1    2    0    0 -0.26823312653E+02  0.19194408366E+02  0.30678951568E+02  0.46142317815E+02  0.10000000490E+02 0.  0.
         12    1    1    2    0    0  0.26823312653E+02 -0.19194408366E+02 -0.30678951568E+02  0.45045682185E+02  0.00000000000E+00 0. -1.
         11    1    3    3    0    0 -0.20074441509E+01  0.19062460679E+01  0.27997421205E+01  0.39372785389E+01  0.51100000000E-03 0.  1.
        -11    1    3    3    0    0 -0.61452416276E+01  0.92524916846E+01  0.12459559337E+02  0.16691711002E+02  0.51100000000E-03 0. -1.
         12    1    3    3    0    0 -0.18670626875E+02  0.80356706138E+01  0.15419650111E+02  0.25513328274E+02  0.00000000000E+00 0. -1.
</event>
<event>
 7    1  0.2472338E-008  0.4614232E+02  0.7816164E-02  0.1320468E+00
        -11   -1    0    0    0    0  0.00000000000E+00  0.00000000000E+00  0.45593999997E+02  0.45594000000E+02  0.51100000000E-03 0. -1.
         11   -1    0    0    0    0 -0.00000000000E+00 -0.00000000000E+00 -0.45593999997E+02  0.45594000000E+02  0.51100000000E-03 0.  1.
    9900012    2    1    2    0    0  0.84430621790E+01 -0.40303708149E+02  0.18260320527E+02  0.46142317684E+02  0.99999993010E+01 0.  0.
         12    1    1    2    0    0 -0.84430621790E+01  0.40303708149E+02 -0.18260320527E+02  0.45045682316E+02  0.00000000000E+00 0. -1.
         11    1    3    3    0    0  0.51569694641E+01 -0.16738323047E+02  0.11170321791E+02  0.20773586153E+02  0.51100000000E-03 0. -1.
        -11    1    3    3    0    0  0.37311812705E+01 -0.84813677328E+01  0.25631682625E+01  0.96137996701E+01  0.51100000000E-03 0.  1.
         12    1    3    3    0    0 -0.44508855557E+00 -0.15084017370E+02  0.45268304728E+01  0.15754931861E+02  0.00000000000E+00 0. -1.
</event>
<event>
 7    1  0.2472338E-008  0.4614232E+02  0.7816164E-02  0.1320468E+00
        -11   -1    0    0    0    0  0.00000000000E+00  0.00000000000E+00  0.45593999997E+02  0.45594000000E+02  0.51100000000E-03 0.  1.
         11   -1    0    0    0    0 -0.00000000000E+00 -0.00000000000E+00 -0.45593999997E+02  0.45594000000E+02  0.51100000000E-03 0. -1.
    9900012    2    1    2    0    0  0.32401408976E+02 -0.78167831985E+01  0.30301156643E+02  0.46142317664E+02  0.99999991127E+01 0.  0.
         12    1    1    2    0    0 -0.32401408976E+02  0.78167831985E+01 -0.30301156643E+02  0.45045682336E+02  0.00000000000E+00 0. -1.
         11    1    3    3    0    0  0.18037811640E+01  0.15712945955E+01  0.68703026219E+00  0.24888961480E+01  0.51100000000E-03 0. -1.
        -11    1    3    3    0    0  0.20155548566E+02 -0.51557082893E+01  0.19322548331E+02  0.28393455941E+02  0.51100000000E-03 0.  1.
         12    1    3    3    0    0  0.10442079246E+02 -0.42323695047E+01  0.10291578050E+02  0.15259965575E+02  0.00000000000E+00 0. -1.
</event>
<event>
 7    1  0.2472338E-008  0.4614231E+02  0.7816164E-02  0.1320468E+00
        -11   -1    0    0    0    0  0.00000000000E+00  0.00000000000E+00  0.45593999997E+02  0.45594000000E+02  0.51100000000E-03 0.  1.
         11   -1    0    0    0    0 -0.00000000000E+00 -0.00000000000E+00 -0.45593999997E+02  0.45594000000E+02  0.51100000000E-03 0. -1.
    9900012    2    1    2    0    0  0.22453974897E+02  0.30707782782E+02  0.24123949363E+02  0.46142313803E+02  0.99999639075E+01 0.  0.
         12    1    1    2    0    0 -0.22453974897E+02 -0.30707782782E+02 -0.24123949363E+02  0.45045686197E+02  0.00000000000E+00 0. -1.
         11    1    3    3    0    0  0.41285005041E+01  0.13088662957E+02  0.87493199647E+01  0.16276001184E+02  0.51100000000E-03 0. -1.
        -11    1    3    3    0    0  0.87146236995E+01  0.95379954216E+01  0.92901123667E+01  0.15913020170E+02  0.51100000000E-03 0.  1.
         12    1    3    3    0    0  0.96108506931E+01  0.80811244036E+01  0.60845170318E+01  0.13953292450E+02  0.00000000000E+00 0. -1.
</event>
<event>
 7    1  0.2472338E-008  0.4614232E+02  0.7816164E-02  0.1320468E+00
        -11   -1    0    0    0    0  0.00000000000E+00  0.00000000000E+00  0.45593999997E+02  0.45594000000E+02  0.51100000000E-03 0. -1.
         11   -1    0    0    0    0 -0.00000000000E+00 -0.00000000000E+00 -0.45593999997E+02  0.45594000000E+02  0.51100000000E-03 0.  1.
    9900012    2    1    2    0    0  0.41071484012E+02 -0.17952375820E+02  0.44675277593E+01  0.46142318733E+02  0.10000008866E+02 0.  0.
         12    1    1    2    0    0 -0.41071484012E+02  0.17952375820E+02 -0.44675277593E+01  0.45045681267E+02  0.00000000000E+00 0. -1.
         11    1    3    3    0    0  0.12820399878E+02 -0.26572157155E+01  0.47424233389E+01  0.13925301712E+02  0.51100000000E-03 0. -1.
        -11    1    3    3    0    0 -0.81082652435E-02 -0.15419360214E+00  0.21151399493E-01  0.15584945854E+00  0.51100000000E-03 0.  1.
        -12    1    3    3    0    0  0.28259192399E+02 -0.15140966502E+02 -0.29604697912E+00  0.32061167563E+02  0.00000000000E+00 0.  1.
</event>
<event>
 7    1  0.2472338E-008  0.4614232E+02  0.7816164E-02  0.1320468E+00
        -11   -1    0    0    0    0  0.00000000000E+00  0.00000000000E+00  0.45593999997E+02  0.45594000000E+02  0.51100000000E-03 0.  1.
         11   -1    0    0    0    0 -0.00000000000E+00 -0.00000000000E+00 -0.45593999997E+02  0.45594000000E+02  0.51100000000E-03 0. -1.
    9900012    2    1    2    0    0  0.44188025716E+02  0.46978239663E+00  0.87356223465E+01  0.46142318631E+02  0.10000007936E+02 0.  0.
         12    1    1    2    0    0 -0.44188025716E+02 -0.46978239663E+00 -0.87356223465E+01  0.45045681369E+02  0.00000000000E+00 0. -1.
         11    1    3    3    0    0  0.10898353576E+01  0.10151703059E+01  0.12409750024E+01  0.19386415538E+01  0.51100000000E-03 0. -1.
        -11    1    3    3    0    0  0.24056687652E+02  0.69717067573E+00  0.11489020898E+01  0.24094195235E+02  0.51100000000E-03 0.  1.
        -12    1    3    3    0    0  0.19041502707E+02 -0.12425585849E+01  0.63457452543E+01  0.20109481843E+02  0.00000000000E+00 0.  1.
</event>
<event>
 7    1  0.2472338E-008  0.4614232E+02  0.7816164E-02  0.1320468E+00
        -11   -1    0    0    0    0  0.00000000000E+00  0.00000000000E+00  0.45593999997E+02  0.45594000000E+02  0.51100000000E-03 0. -1.
         11   -1    0    0    0    0 -0.00000000000E+00 -0.00000000000E+00 -0.45593999997E+02  0.45594000000E+02  0.51100000000E-03 0.  1.
    9900012    2    1    2    0    0  0.20859147904E+02  0.37098763540E+02  0.14754361785E+02  0.46142317641E+02  0.99999989062E+01 0.  0.
         12    1    1    2    0    0 -0.20859147904E+02 -0.37098763540E+02 -0.14754361785E+02  0.45045682359E+02  0.00000000000E+00 0. -1.
         11    1    3    3    0    0  0.10971710635E+02  0.15676999972E+02  0.42538200366E+01  0.19602085285E+02  0.51100000000E-03 0. -1.
        -11    1    3    3    0    0  0.48066181128E+01  0.49199881712E+01  0.13879894966E+01  0.70168637146E+01  0.51100000000E-03 0.  1.
         12    1    3    3    0    0  0.50808191569E+01  0.16501775397E+02  0.91125522518E+01  0.19523368641E+02  0.00000000000E+00 0. -1.
</event>
<event>
 7    1  0.2472338E-008  0.4614232E+02  0.7816164E-02  0.1320468E+00
        -11   -1    0    0    0    0  0.00000000000E+00  0.00000000000E+00  0.45593999997E+02  0.45594000000E+02  0.51100000000E-03 0.  1.
         11   -1    0    0    0    0 -0.00000000000E+00 -0.00000000000E+00 -0.45593999997E+02  0.45594000000E+02  0.51100000000E-03 0. -1.
    9900012    2    1    2    0    0  0.16710742737E+02  0.63756895923E+01  0.41342654083E+02  0.46142318883E+02  0.10000010234E+02 0.  0.
         12    1    1    2    0    0 -0.16710742737E+02 -0.63756895923E+01 -0.41342654083E+02  0.45045681117E+02  0.00000000000E+00 0. -1.
         11    1    3    3    0    0  0.21179724152E+01  0.27129084569E+01  0.39568041586E+01  0.52442329142E+01  0.51100000000E-03 0. -1.
        -11    1    3    3    0    0  0.58106489623E+01  0.24314367375E+01  0.78783745137E+01  0.10086838514E+02  0.51100000000E-03 0.  1.
         12    1    3    3    0    0  0.87821213594E+01  0.12313443980E+01  0.29507475411E+02  0.30811247455E+02  0.00000000000E+00 0. -1.
</event>
<event>
 7    1  0.2472338E-008  0.4614232E+02  0.7816164E-02  0.1320468E+00
        -11   -1    0    0    0    0  0.00000000000E+00  0.00000000000E+00  0.45593999997E+02  0.45594000000E+02  0.51100000000E-03 0.  1.
         11   -1    0    0    0    0 -0.00000000000E+00 -0.00000000000E+00 -0.45593999997E+02  0.45594000000E+02  0.51100000000E-03 0. -1.
    9900012    2    1    2    0    0 -0.33677701100E+02 -0.26950887809E+02 -0.12983666951E+02  0.46142317492E+02  0.99999975470E+01 0.  0.
         12    1    1    2    0    0  0.33677701100E+02  0.26950887809E+02  0.12983666951E+02  0.45045682508E+02  0.00000000000E+00 0. -1.
         11    1    3    3    0    0 -0.88573860957E+01 -0.72467195059E+01 -0.50139098328E+01  0.12494299665E+02  0.51100000000E-03 0. -1.
        -11    1    3    3    0    0 -0.25063324298E+02 -0.19949779577E+02 -0.72417056782E+01  0.32842141091E+02  0.51100000000E-03 0.  1.
         12    1    3    3    0    0  0.24300929301E+00  0.24561127422E+00 -0.72805144030E+00  0.80587673638E+00  0.00000000000E+00 0. -1.
</event>
<event>
 7    1  0.2472338E-008  0.4614232E+02  0.7816164E-02  0.1320468E+00
        -11   -1    0    0    0    0  0.00000000000E+00  0.00000000000E+00  0.45593999997E+02  0.45594000000E+02  0.51100000000E-03 0.  1.
         11   -1    0    0    0    0 -0.00000000000E+00 -0.00000000000E+00 -0.45593999997E+02  0.45594000000E+02  0.51100000000E-03 0. -1.
    9900012    2    1    2    0    0  0.38463761472E+02  0.14693165419E+02  0.18269194382E+02  0.46142317410E+02  0.99999967987E+01 0.  0.
         12    1    1    2    0    0 -0.38463761472E+02 -0.14693165419E+02 -0.18269194382E+02  0.45045682590E+02  0.00000000000E+00 0. -1.
         11    1    3    3    0    0  0.44350071712E+01  0.11047717827E+00  0.11605131993E+01  0.45856607988E+01  0.51100000000E-03 0. -1.
        -11    1    3    3    0    0  0.33755623007E+02  0.14893623327E+02  0.17629975717E+02  0.40891052132E+02  0.51100000000E-03 0.  1.
         12    1    3    3    0    0  0.27313129360E+00 -0.31093508541E+00 -0.52129453460E+00  0.66560447917E+00  0.00000000000E+00 0. -1.
</event>
<event>
 7    1  0.2472338E-008  0.4614232E+02  0.7816164E-02  0.1320468E+00
        -11   -1    0    0    0    0  0.00000000000E+00  0.00000000000E+00  0.45593999997E+02  0.45594000000E+02  0.51100000000E-03 0. -1.
         11   -1    0    0    0    0 -0.00000000000E+00 -0.00000000000E+00 -0.45593999997E+02  0.45594000000E+02  0.51100000000E-03 0.  1.
    9900012    2    1    2    0    0 -0.22680164553E+02  0.38833971250E+02  0.25780420648E+01  0.46142317764E+02  0.10000000030E+02 0.  0.
         12    1    1    2    0    0  0.22680164553E+02 -0.38833971250E+02 -0.25780420648E+01  0.45045682236E+02  0.00000000000E+00 0. -1.
         11    1    3    3    0    0 -0.11034285427E+01  0.11313279449E+01  0.40744919740E+00  0.16320148827E+01  0.51100000000E-03 0.  1.
        -11    1    3    3    0    0 -0.13956706656E+02  0.18156232128E+02  0.47037978250E+01  0.23378711256E+02  0.51100000000E-03 0. -1.
         12    1    3    3    0    0 -0.76200293541E+01  0.19546411177E+02 -0.25332049576E+01  0.21131591625E+02  0.00000000000E+00 0. -1.
</event>
<event>
 7    1  0.2472338E-008  0.4614232E+02  0.7816164E-02  0.1320468E+00
        -11   -1    0    0    0    0  0.00000000000E+00  0.00000000000E+00  0.45593999997E+02  0.45594000000E+02  0.51100000000E-03 0.  1.
         11   -1    0    0    0    0 -0.00000000000E+00 -0.00000000000E+00 -0.45593999997E+02  0.45594000000E+02  0.51100000000E-03 0. -1.
    9900012    2    1    2    0    0  0.29644419265E+02 -0.26424023934E+02  0.21262474082E+02  0.46142318314E+02  0.10000005041E+02 0.  0.
         12    1    1    2    0    0 -0.29644419265E+02  0.26424023934E+02 -0.21262474082E+02  0.45045681686E+02  0.00000000000E+00 0. -1.
         11    1    3    3    0    0  0.16834034333E+02 -0.16166982573E+02  0.12811438288E+02  0.26624969272E+02  0.51100000000E-03 0. -1.
        -11    1    3    3    0    0  0.40025898128E+01 -0.67204373318E+01  0.55555051787E+01  0.95941983089E+01  0.51100000000E-03 0.  1.
         12    1    3    3    0    0  0.88077951198E+01 -0.35366040292E+01  0.28955306156E+01  0.99231507334E+01  0.00000000000E+00 0. -1.
</event>
<event>
 7    1  0.2472338E-008  0.4614232E+02  0.7816164E-02  0.1320468E+00
        -11   -1    0    0    0    0  0.00000000000E+00  0.00000000000E+00  0.45593999997E+02  0.45594000000E+02  0.51100000000E-03 0.  1.
         11   -1    0    0    0    0 -0.00000000000E+00 -0.00000000000E+00 -0.45593999997E+02  0.45594000000E+02  0.51100000000E-03 0. -1.
    9900012    2    1    2    0    0  0.11477582983E+02  0.37062509729E+02  0.22885561711E+02  0.46142317928E+02  0.10000001520E+02 0.  0.
         12    1    1    2    0    0 -0.11477582983E+02 -0.37062509729E+02 -0.22885561711E+02  0.45045682072E+02  0.00000000000E+00 0. -1.
         11    1    3    3    0    0  0.22935679979E+01  0.12182393048E+02  0.92406419393E+01  0.15461585244E+02  0.51100000000E-03 0. -1.
        -11    1    3    3    0    0  0.73603037357E+01  0.16540628872E+02  0.12650958065E+02  0.22086493945E+02  0.51100000000E-03 0.  1.
         12    1    3    3    0    0  0.18237112491E+01  0.83394878085E+01  0.99396170716E+00  0.85942387391E+01  0.00000000000E+00 0. -1.
</event>
<event>
 7    1  0.2472338E-008  0.4614232E+02  0.7816164E-02  0.1320468E+00
        -11   -1    0    0    0    0  0.00000000000E+00  0.00000000000E+00  0.45593999997E+02  0.45594000000E+02  0.51100000000E-03 0.  1.
         11   -1    0    0    0    0 -0.00000000000E+00 -0.00000000000E+00 -0.45593999997E+02  0.45594000000E+02  0.51100000000E-03 0. -1.
    9900012    2    1    2    0    0  0.20022507541E+02 -0.99906629583E+00  0.40338746696E+02  0.46142318445E+02  0.10000006237E+02 0.  0.
         12    1    1    2    0    0 -0.20022507541E+02  0.99906629583E+00 -0.40338746696E+02  0.45045681555E+02  0.00000000000E+00 0. -1.
         11    1    3    3    0    0  0.36155697951E+00 -0.11790285561E+01  0.23181034313E+01  0.26257257216E+01  0.51100000000E-03 0. -1.
        -11    1    3    3    0    0  0.11736132188E+02 -0.63522546769E+00  0.14394120954E+02  0.18583084470E+02  0.51100000000E-03 0.  1.
        -12    1    3    3    0    0  0.79248183734E+01  0.81518772800E+00  0.23626522312E+02  0.24933508253E+02  0.00000000000E+00 0.  1.
</event>
<event>
 7    1  0.2472338E-008  0.4614231E+02  0.7816164E-02  0.1320468E+00
        -11   -1    0    0    0    0  0.00000000000E+00  0.00000000000E+00  0.45593999997E+02  0.45594000000E+02  0.51100000000E-03 0.  1.
         11   -1    0    0    0    0 -0.00000000000E+00 -0.00000000000E+00 -0.45593999997E+02  0.45594000000E+02  0.51100000000E-03 0. -1.
    9900012    2    1    2    0    0 -0.28177257677E+02 -0.32344923430E+02  0.13746346456E+02  0.46142312495E+02  0.99999519821E+01 0.  0.
         12    1    1    2    0    0  0.28177257677E+02  0.32344923430E+02 -0.13746346456E+02  0.45045687505E+02  0.00000000000E+00 0. -1.
         11    1    3    3    0    0 -0.86084518527E+00 -0.35453277652E+01  0.12092844010E+01  0.38435364470E+01  0.51100000000E-03 0. -1.
        -11    1    3    3    0    0 -0.84840357197E+01 -0.13402400018E+02  0.70708494627E+01  0.17366637576E+02  0.51100000000E-03 0.  1.
         12    1    3    3    0    0 -0.18832376772E+02 -0.15397195647E+02  0.54662125921E+01  0.24932138472E+02  0.00000000000E+00 0. -1.
</event>
<event>
 7    1  0.2472338E-008  0.4614232E+02  0.7816164E-02  0.1320468E+00
        -11   -1    0    0    0    0  0.00000000000E+00  0.00000000000E+00  0.45593999997E+02  0.45594000000E+02  0.51100000000E-03 0.  1.
         11   -1    0    0    0    0 -0.00000000000E+00 -0.00000000000E+00 -0.45593999997E+02  0.45594000000E+02  0.51100000000E-03 0. -1.
    9900012    2    1    2    0    0  0.23613537480E+02 -0.66841735822E+01  0.37773484188E+02  0.46142318337E+02  0.10000005248E+02 0.  0.
         12    1    1    2    0    0 -0.23613537480E+02  0.66841735822E+01 -0.37773484188E+02  0.45045681663E+02  0.00000000000E+00 0. -1.
         11    1    3    3    0    0  0.99360330941E+01  0.47552106810E+00  0.13223063697E+02  0.16546911728E+02  0.51100000000E-03 0. -1.
        -11    1    3    3    0    0  0.56990170472E+01 -0.16822722363E-01  0.68857729128E+01  0.89382854718E+01  0.51100000000E-03 0.  1.
         12    1    3    3    0    0  0.79784873386E+01 -0.71428719279E+01  0.17664647578E+02  0.20657121137E+02  0.00000000000E+00 0. -1.
</event>
<event>
 7    1  0.2472338E-008  0.4614232E+02  0.7816164E-02  0.1320468E+00
        -11   -1    0    0    0    0  0.00000000000E+00  0.00000000000E+00  0.45593999997E+02  0.45594000000E+02  0.51100000000E-03 0.  1.
         11   -1    0    0    0    0 -0.00000000000E+00 -0.00000000000E+00 -0.45593999997E+02  0.45594000000E+02  0.51100000000E-03 0. -1.
    9900012    2    1    2    0    0 -0.90591481468E+01 -0.31622368096E+02  0.30774520501E+02  0.46142318285E+02  0.10000004777E+02 0.  0.
         12    1    1    2    0    0  0.90591481468E+01  0.31622368096E+02 -0.30774520501E+02  0.45045681715E+02  0.00000000000E+00 0. -1.
         11    1    3    3    0    0 -0.64689600271E+01 -0.15523998478E+02  0.21230889504E+02  0.27084915395E+02  0.51100000000E-03 0. -1.
        -11    1    3    3    0    0 -0.24383777271E+01 -0.90348606339E+01  0.63147742328E+01  0.11289409484E+02  0.51100000000E-03 0.  1.
         12    1    3    3    0    0 -0.15181039261E+00 -0.70635089835E+01  0.32288567642E+01  0.77679934062E+01  0.00000000000E+00 0. -1.
</event>
<event>
 7    1  0.2472338E-008  0.4614232E+02  0.7816164E-02  0.1320468E+00
        -11   -1    0    0    0    0  0.00000000000E+00  0.00000000000E+00  0.45593999997E+02  0.45594000000E+02  0.51100000000E-03 0. -1.
         11   -1    0    0    0    0 -0.00000000000E+00 -0.00000000000E+00 -0.45593999997E+02  0.45594000000E+02  0.51100000000E-03 0.  1.
    9900012    2    1    2    0    0 -0.38232731112E+02  0.48892709921E+01  0.23312371310E+02  0.46142319239E+02  0.10000013478E+02 0.  0.
         12    1    1    2    0    0  0.38232731112E+02 -0.48892709921E+01 -0.23312371310E+02  0.45045680761E+02  0.00000000000E+00 0. -1.
         11    1    3    3    0    0  0.27713380429E+00  0.75068169940E+00  0.10479185249E+00  0.80703640114E+00  0.51100000000E-03 0. -1.
        -11    1    3    3    0    0 -0.26878089643E+02  0.35338156950E+01  0.18229708678E+02  0.32668667481E+02  0.51100000000E-03 0.  1.
        -12    1    3    3    0    0 -0.11631775273E+02  0.60477359768E+00  0.49778707794E+01  0.12666615357E+02  0.00000000000E+00 0.  1.
</event>
<event>
 7    1  0.2472338E-008  0.4614232E+02  0.7816164E-02  0.1320468E+00
        -11   -1    0    0    0    0  0.00000000000E+00  0.00000000000E+00  0.45593999997E+02  0.45594000000E+02  0.51100000000E-03 0.  1.
         11   -1    0    0    0    0 -0.00000000000E+00 -0.00000000000E+00 -0.45593999997E+02  0.45594000000E+02  0.51100000000E-03 0. -1.
    9900012    2    1    2    0    0  0.41681677392E+02  0.17031248807E+02  0.12991329045E+01  0.46142318604E+02  0.10000007690E+02 0.  0.
         12    1    1    2    0    0 -0.41681677392E+02 -0.17031248807E+02 -0.12991329045E+01  0.45045681396E+02  0.00000000000E+00 0. -1.
         11    1    3    3    0    0  0.26952344273E+02  0.90059550256E+01 -0.24566444166E+01  0.28523169351E+02  0.51100000000E-03 0. -1.
        -11    1    3    3    0    0  0.14631261872E+02  0.75217720659E+01  0.30265261876E+01  0.16727544351E+02  0.51100000000E-03 0.  1.
         12    1    3    3    0    0  0.98071245800E-01  0.50352171509E+00  0.72925113351E+00  0.89160490271E+00  0.00000000000E+00 0. -1.
</event>
<event>
 7    1  0.2472338E-008  0.4614232E+02  0.7816164E-02  0.1320468E+00
        -11   -1    0    0    0    0  0.00000000000E+00  0.00000000000E+00  0.45593999997E+02  0.45594000000E+02  0.51100000000E-03 0.  1.
         11   -1    0    0    0    0 -0.00000000000E+00 -0.00000000000E+00 -0.45593999997E+02  0.45594000000E+02  0.51100000000E-03 0. -1.
    9900012    2    1    2    0    0 -0.79833602203E+01 -0.38364752230E+02  0.22215431904E+02  0.46142315759E+02  0.99999817450E+01 0.  0.
         12    1    1    2    0    0  0.79833602203E+01  0.38364752230E+02 -0.22215431904E+02  0.45045684241E+02  0.00000000000E+00 0. -1.
         11    1    3    3    0    0 -0.24015827832E+01 -0.78093434605E+01  0.92823745695E+01  0.12365917801E+02  0.51100000000E-03 0. -1.
        -11    1    3    3    0    0 -0.32453434737E+01 -0.17483562901E+02  0.89826909773E+01  0.19922247951E+02  0.51100000000E-03 0.  1.
         12    1    3    3    0    0 -0.23364339635E+01 -0.13071845868E+02  0.39503663572E+01  0.13854150007E+02  0.00000000000E+00 0. -1.
</event>
<event>
 7    1  0.2472338E-008  0.4614232E+02  0.7816164E-02  0.1320468E+00
        -11   -1    0    0    0    0  0.00000000000E+00  0.00000000000E+00  0.45593999997E+02  0.45594000000E+02  0.51100000000E-03 0. -1.
         11   -1    0    0    0    0 -0.00000000000E+00 -0.00000000000E+00 -0.45593999997E+02  0.45594000000E+02  0.51100000000E-03 0.  1.
    9900012    2    1    2    0    0 -0.43134667731E+02  0.11757173741E+01  0.12927942391E+02  0.46142316899E+02  0.99999921383E+01 0.  0.
         12    1    1    2    0    0  0.43134667731E+02 -0.11757173741E+01 -0.12927942391E+02  0.45045683101E+02  0.00000000000E+00 0. -1.
         11    1    3    3    0    0 -0.18179521772E+02 -0.13059604635E+01  0.56556795501E+01  0.19083690839E+02  0.51100000000E-03 0.  1.
        -11    1    3    3    0    0 -0.24779289218E+02  0.17529847601E+01  0.79144691862E+01  0.26071535292E+02  0.51100000000E-03 0. -1.
         12    1    3    3    0    0 -0.17585674049E+00  0.72869307747E+00 -0.64220634557E+00  0.98709076818E+00  0.00000000000E+00 0. -1.
</event>
<event>
 7    1  0.2472338E-008  0.4614232E+02  0.7816164E-02  0.1320468E+00
        -11   -1    0    0    0    0  0.00000000000E+00  0.00000000000E+00  0.45593999997E+02  0.45594000000E+02  0.51100000000E-03 0.  1.
         11   -1    0    0    0    0 -0.00000000000E+00 -0.00000000000E+00 -0.45593999997E+02  0.45594000000E+02  0.51100000000E-03 0. -1.
    9900012    2    1    2    0    0 -0.26815490076E+02  0.18271902185E+02  0.31243889424E+02  0.46142317146E+02  0.99999943902E+01 0.  0.
         12    1    1    2    0    0  0.26815490076E+02 -0.18271902185E+02 -0.31243889424E+02  0.45045682854E+02  0.00000000000E+00 0. -1.
         11    1    3    3    0    0 -0.15700338203E+02  0.64051656129E+01  0.15053944076E+02  0.22674831834E+02  0.51100000000E-03 0. -1.
        -11    1    3    3    0    0 -0.99052722587E+00  0.30666827935E+01  0.14398059392E+01  0.35296924717E+01  0.51100000000E-03 0.  1.
         12    1    3    3    0    0 -0.10124624647E+02  0.88000537788E+01  0.14750139409E+02  0.19937792840E+02  0.00000000000E+00 0. -1.
</event>
<event>
 7    1  0.2472338E-008  0.4614231E+02  0.7816164E-02  0.1320468E+00
        -11   -1    0    0    0    0  0.00000000000E+00  0.00000000000E+00  0.45593999997E+02  0.45594000000E+02  0.51100000000E-03 0.  1.
         11   -1    0    0    0    0 -0.00000000000E+00 -0.00000000000E+00 -0.45593999997E+02  0.45594000000E+02  0.51100000000E-03 0. -1.
    9900012    2    1    2    0    0  0.13084556478E+02 -0.69607958630E+01  0.42537695409E+02  0.46142313991E+02  0.99999656230E+01 0.  0.
         12    1    1    2    0    0 -0.13084556478E+02  0.69607958630E+01 -0.42537695409E+02  0.45045686009E+02  0.00000000000E+00 0. -1.
         11    1    3    3    0    0  0.23662341929E+01  0.17783140773E+01  0.60848243044E+01  0.67665761128E+01  0.51100000000E-03 0. -1.
        -11    1    3    3    0    0 -0.14880020279E+00  0.56226465535E+00  0.15421065342E+01  0.16481431573E+01  0.51100000000E-03 0.  1.
        -12    1    3    3    0    0  0.10867122487E+02 -0.93013745957E+01  0.34910764571E+02  0.37727594721E+02  0.00000000000E+00 0.  1.
</event>
<event>
 7    1  0.2472338E-008  0.4614232E+02  0.7816164E-02  0.1320468E+00
        -11   -1    0    0    0    0  0.00000000000E+00  0.00000000000E+00  0.45593999997E+02  0.45594000000E+02  0.51100000000E-03 0.  1.
         11   -1    0    0    0    0 -0.00000000000E+00 -0.00000000000E+00 -0.45593999997E+02  0.45594000000E+02  0.51100000000E-03 0. -1.
    9900012    2    1    2    0    0 -0.28674492562E+02  0.27316063141E+02  0.21464380414E+02  0.46142318123E+02  0.10000003301E+02 0.  0.
         12    1    1    2    0    0  0.28674492562E+02 -0.27316063141E+02 -0.21464380414E+02  0.45045681877E+02  0.00000000000E+00 0. -1.
         11    1    3    3    0    0 -0.15707964400E+02  0.11625671104E+02  0.12212572202E+02  0.23044376629E+02  0.51100000000E-03 0.  1.
        -11    1    3    3    0    0 -0.74171268599E+01  0.66753938513E+01  0.72245637873E+01  0.12319455187E+02  0.51100000000E-03 0. -1.
         12    1    3    3    0    0 -0.55494013029E+01  0.90149981859E+01  0.20272444246E+01  0.10778486307E+02  0.00000000000E+00 0. -1.
</event>
<event>
 7    1  0.2472338E-008  0.4614232E+02  0.7816164E-02  0.1320468E+00
        -11   -1    0    0    0    0  0.00000000000E+00  0.00000000000E+00  0.45593999997E+02  0.45594000000E+02  0.51100000000E-03 0.  1.
         11   -1    0    0    0    0 -0.00000000000E+00 -0.00000000000E+00 -0.45593999997E+02  0.45594000000E+02  0.51100000000E-03 0. -1.
    9900012    2    1    2    0    0 -0.23785017902E+02  0.63295707621E+01  0.37726951728E+02  0.46142318416E+02  0.10000005975E+02 0.  0.
         12    1    1    2    0    0  0.23785017902E+02 -0.63295707621E+01 -0.37726951728E+02  0.45045681584E+02  0.00000000000E+00 0. -1.
         11    1    3    3    0    0 -0.86850889622E+01  0.46233681724E+01  0.16970360219E+02  0.19616305202E+02  0.51100000000E-03 0. -1.
        -11    1    3    3    0    0 -0.14312631225E+02  0.86201183894E+00  0.20917897411E+02  0.25360459565E+02  0.51100000000E-03 0.  1.
         12    1    3    3    0    0 -0.78729771505E+00  0.84419075073E+00 -0.16130590216E+00  0.11655536495E+01  0.00000000000E+00 0. -1.
</event>
<event>
 7    1  0.2472338E-008  0.4614232E+02  0.7816164E-02  0.1320468E+00
        -11   -1    0    0    0    0  0.00000000000E+00  0.00000000000E+00  0.45593999997E+02  0.45594000000E+02  0.51100000000E-03 0.  1.
         11   -1    0    0    0    0 -0.00000000000E+00 -0.00000000000E+00 -0.45593999997E+02  0.45594000000E+02  0.51100000000E-03 0. -1.
    9900012    2    1    2    0    0 -0.22061295807E+02  0.39267308152E+02  0.70089407716E+00  0.46142317469E+02  0.99999973326E+01 0.  0.
         12    1    1    2    0    0  0.22061295807E+02 -0.39267308152E+02 -0.70089407716E+00  0.45045682531E+02  0.00000000000E+00 0. -1.
         11    1    3    3    0    0 -0.68730351887E+01  0.14144384265E+02 -0.29520513899E+01  0.16000525823E+02  0.51100000000E-03 0. -1.
        -11    1    3    3    0    0 -0.58129255656E+01  0.14976398596E+02  0.27391493012E+01  0.16296795933E+02  0.51100000000E-03 0.  1.
         12    1    3    3    0    0 -0.93753350530E+01  0.10146525291E+02  0.91379616590E+00  0.13844995712E+02  0.00000000000E+00 0. -1.
</event>
<event>
 7    1  0.2472338E-008  0.4614231E+02  0.7816164E-02  0.1320468E+00
        -11   -1    0    0    0    0  0.00000000000E+00  0.00000000000E+00  0.45593999997E+02  0.45594000000E+02  0.51100000000E-03 0.  1.
         11   -1    0    0    0    0 -0.00000000000E+00 -0.00000000000E+00 -0.45593999997E+02  0.45594000000E+02  0.51100000000E-03 0. -1.
    9900012    2    1    2    0    0 -0.25545886164E+02  0.29884679251E+02  0.21986983570E+02  0.46142314298E+02  0.99999684217E+01 0.  0.
         12    1    1    2    0    0  0.25545886164E+02 -0.29884679251E+02 -0.21986983570E+02  0.45045685702E+02  0.00000000000E+00 0. -1.
         11    1    3    3    0    0 -0.55489918260E+01  0.84162910561E+01  0.27899579783E+01  0.10459881988E+02  0.51100000000E-03 0. -1.
        -11    1    3    3    0    0 -0.16082492916E+02  0.19054318532E+02  0.13478397515E+02  0.28343973485E+02  0.51100000000E-03 0.  1.
         12    1    3    3    0    0 -0.39144014224E+01  0.24140696621E+01  0.57186280776E+01  0.73384588245E+01  0.00000000000E+00 0. -1.
</event>
<event>
 7    1  0.2472338E-008  0.4614232E+02  0.7816164E-02  0.1320468E+00
        -11   -1    0    0    0    0  0.00000000000E+00  0.00000000000E+00  0.45593999997E+02  0.45594000000E+02  0.51100000000E-03 0. -1.
         11   -1    0    0    0    0 -0.00000000000E+00 -0.00000000000E+00 -0.45593999997E+02  0.45594000000E+02  0.51100000000E-03 0.  1.
    9900012    2    1    2    0    0  0.14968951943E+02  0.23430273743E+02 -0.35441021825E+02  0.46142320097E+02  0.10000021301E+02 0.  0.
         12    1    1    2    0    0 -0.14968951943E+02 -0.23430273743E+02  0.35441021825E+02  0.45045679903E+02  0.00000000000E+00 0. -1.
         11    1    3    3    0    0  0.45015517522E+01  0.92135839312E+01 -0.16338067840E+02  0.19289545305E+02  0.51100000000E-03 0. -1.
        -11    1    3    3    0    0  0.80702991124E+01  0.14006929768E+02 -0.18036916727E+02  0.24220944956E+02  0.51100000000E-03 0.  1.
         12    1    3    3    0    0  0.23971010781E+01  0.20976004419E+00 -0.10660372574E+01  0.26318298366E+01  0.00000000000E+00 0. -1.
</event>
<event>
 7    1  0.2472338E-008  0.4614232E+02  0.7816164E-02  0.1320468E+00
        -11   -1    0    0    0    0  0.00000000000E+00  0.00000000000E+00  0.45593999997E+02  0.45594000000E+02  0.51100000000E-03 0.  1.
         11   -1    0    0    0    0 -0.00000000000E+00 -0.00000000000E+00 -0.45593999997E+02  0.45594000000E+02  0.51100000000E-03 0. -1.
    9900012    2    1    2    0    0 -0.37223715666E+01 -0.38564646832E+02  0.22978805554E+02  0.46142317187E+02  0.99999947683E+01 0.  0.
         12    1    1    2    0    0  0.37223715666E+01  0.38564646832E+02 -0.22978805554E+02  0.45045682813E+02  0.00000000000E+00 0. -1.
         11    1    3    3    0    0 -0.22521920016E+01 -0.13937223067E+02  0.36177602797E+01  0.14574180778E+02  0.51100000000E-03 0. -1.
        -11    1    3    3    0    0 -0.16583261873E+01 -0.19176540050E+02  0.13198230615E+02  0.23338445228E+02  0.51100000000E-03 0.  1.
         12    1    3    3    0    0  0.18814662228E+00 -0.54508837150E+01  0.61628146585E+01  0.82296911814E+01  0.00000000000E+00 0. -1.
</event>
<event>
 7    1  0.2472338E-008  0.4614232E+02  0.7816164E-02  0.1320468E+00
        -11   -1    0    0    0    0  0.00000000000E+00  0.00000000000E+00  0.45593999997E+02  0.45594000000E+02  0.51100000000E-03 0. -1.
         11   -1    0    0    0    0 -0.00000000000E+00 -0.00000000000E+00 -0.45593999997E+02  0.45594000000E+02  0.51100000000E-03 0.  1.
    9900012    2    1    2    0    0  0.52873165246E+01  0.44584920841E+02 -0.36527574847E+01  0.46142317414E+02  0.99999968349E+01 0.  0.
         12    1    1    2    0    0 -0.52873165246E+01 -0.44584920841E+02  0.36527574847E+01  0.45045682586E+02  0.00000000000E+00 0. -1.
         11    1    3    3    0    0  0.50919489446E+00  0.12506115302E+02  0.21723522975E+01  0.12703594537E+02  0.51100000000E-03 0. -1.
        -11    1    3    3    0    0  0.21501404479E+00  0.15516708311E+02 -0.79631067305E+00  0.15538615730E+02  0.51100000000E-03 0.  1.
        -12    1    3    3    0    0  0.45631075853E+01  0.16562097227E+02 -0.50287991091E+01  0.17900107147E+02  0.00000000000E+00 0.  1.
</event>
<event>
 7    1  0.2472338E-008  0.4614232E+02  0.7816164E-02  0.1320468E+00
        -11   -1    0    0    0    0  0.00000000000E+00  0.00000000000E+00  0.45593999997E+02  0.45594000000E+02  0.51100000000E-03 0.  1.
         11   -1    0    0    0    0 -0.00000000000E+00 -0.00000000000E+00 -0.45593999997E+02  0.45594000000E+02  0.51100000000E-03 0. -1.
    9900012    2    1    2    0    0  0.28683431518E+02 -0.34304883754E+02 -0.54359117365E+01  0.46142318415E+02  0.10000005961E+02 0.  0.
         12    1    1    2    0    0 -0.28683431518E+02  0.34304883754E+02  0.54359117365E+01  0.45045681585E+02  0.00000000000E+00 0. -1.
         11    1    3    3    0    0  0.81440702095E+00 -0.31890556246E+01  0.77688487820E+00  0.33818463815E+01  0.51100000000E-03 0. -1.
        -11    1    3    3    0    0  0.23347109943E+02 -0.24866007859E+02 -0.75420969282E+01  0.34932636829E+02  0.51100000000E-03 0.  1.
        -12    1    3    3    0    0  0.45219145547E+01 -0.62498202711E+01  0.13293003136E+01  0.78278352042E+01  0.00000000000E+00 0.  1.
</event>
<event>
 7    1  0.2472338E-008  0.4614232E+02  0.7816164E-02  0.1320468E+00
        -11   -1    0    0    0    0  0.00000000000E+00  0.00000000000E+00  0.45593999997E+02  0.45594000000E+02  0.51100000000E-03 0. -1.
         11   -1    0    0    0    0 -0.00000000000E+00 -0.00000000000E+00 -0.45593999997E+02  0.45594000000E+02  0.51100000000E-03 0.  1.
    9900012    2    1    2    0    0 -0.28057562688E+02 -0.16610383779E+02 -0.31080248311E+02  0.46142317539E+02  0.99999979769E+01 0.  0.
         12    1    1    2    0    0  0.28057562688E+02  0.16610383779E+02  0.31080248311E+02  0.45045682461E+02  0.00000000000E+00 0. -1.
         11    1    3    3    0    0 -0.75141568128E+01 -0.22661548777E+01 -0.94310213352E+01  0.12269562919E+02  0.51100000000E-03 0. -1.
        -11    1    3    3    0    0 -0.10300240103E+02 -0.98883406875E+01 -0.84905313031E+01  0.16612144648E+02  0.51100000000E-03 0.  1.
        -12    1    3    3    0    0 -0.10243165772E+02 -0.44558882140E+01 -0.13158695673E+02  0.17260609972E+02  0.00000000000E+00 0.  1.
</event>
<event>
 7    1  0.2472338E-008  0.4614232E+02  0.7816164E-02  0.1320468E+00
        -11   -1    0    0    0    0  0.00000000000E+00  0.00000000000E+00  0.45593999997E+02  0.45594000000E+02  0.51100000000E-03 0.  1.
         11   -1    0    0    0    0 -0.00000000000E+00 -0.00000000000E+00 -0.45593999997E+02  0.45594000000E+02  0.51100000000E-03 0. -1.
    9900012    2    1    2    0    0  0.43706469146E+02 -0.10694360463E+02  0.21186739302E+01  0.46142316853E+02  0.99999917185E+01 0.  0.
         12    1    1    2    0    0 -0.43706469146E+02  0.10694360463E+02 -0.21186739302E+01  0.45045683147E+02  0.00000000000E+00 0. -1.
         11    1    3    3    0    0  0.10572697707E+01 -0.16656964944E+01  0.89236222024E+00  0.21653347946E+01  0.51100000000E-03 0. -1.
        -11    1    3    3    0    0  0.21433075889E+02 -0.68958154191E+01  0.22644058539E+01  0.22628666476E+02  0.51100000000E-03 0.  1.
         12    1    3    3    0    0  0.21216123487E+02 -0.21328485495E+01 -0.10380941440E+01  0.21348315582E+02  0.00000000000E+00 0. -1.
</event>
<event>
 7    1  0.2472338E-008  0.4614232E+02  0.7816164E-02  0.1320468E+00
        -11   -1    0    0    0    0  0.00000000000E+00  0.00000000000E+00  0.45593999997E+02  0.45594000000E+02  0.51100000000E-03 0.  1.
         11   -1    0    0    0    0 -0.00000000000E+00 -0.00000000000E+00 -0.45593999997E+02  0.45594000000E+02  0.51100000000E-03 0. -1.
    9900012    2    1    2    0    0 -0.84230704782E+01  0.31362437999E+02  0.31217987478E+02  0.46142319012E+02  0.10000011407E+02 0.  0.
         12    1    1    2    0    0  0.84230704782E+01 -0.31362437999E+02 -0.31217987478E+02  0.45045680988E+02  0.00000000000E+00 0. -1.
         11    1    3    3    0    0 -0.45380403359E+01  0.49043662807E+01  0.89628283053E+01  0.11179396683E+02  0.51100000000E-03 0. -1.
        -11    1    3    3    0    0 -0.23309511229E+01  0.17036012802E+02  0.16398351301E+02  0.23760576403E+02  0.51100000000E-03 0.  1.
         12    1    3    3    0    0 -0.15540790193E+01  0.94220589157E+01  0.58568078714E+01  0.11202345926E+02  0.00000000000E+00 0. -1.
</event>
<event>
 7    1  0.2472338E-008  0.4614232E+02  0.7816164E-02  0.1320468E+00
        -11   -1    0    0    0    0  0.00000000000E+00  0.00000000000E+00  0.45593999997E+02  0.45594000000E+02  0.51100000000E-03 0. -1.
         11   -1    0    0    0    0 -0.00000000000E+00 -0.00000000000E+00 -0.45593999997E+02  0.45594000000E+02  0.51100000000E-03 0.  1.
    9900012    2    1    2    0    0  0.37802423857E+02 -0.24494171018E+02  0.35479322216E+00  0.46142317171E+02  0.99999946196E+01 0.  0.
         12    1    1    2    0    0 -0.37802423857E+02  0.24494171018E+02 -0.35479322216E+00  0.45045682829E+02  0.00000000000E+00 0. -1.
         11    1    3    3    0    0  0.65188769044E+01 -0.46082634270E+01 -0.80107440099E+00  0.80233140512E+01  0.51100000000E-03 0.  1.
        -11    1    3    3    0    0  0.13730433585E+02 -0.51950773922E+01 -0.26428082401E+01  0.14916369237E+02  0.51100000000E-03 0. -1.
         12    1    3    3    0    0  0.17553113367E+02 -0.14690830199E+02  0.37986758633E+01  0.23202633883E+02  0.00000000000E+00 0. -1.
</event>
<event>
 7    1  0.2472338E-008  0.4614232E+02  0.7816164E-02  0.1320468E+00
        -11   -1    0    0    0    0  0.00000000000E+00  0.00000000000E+00  0.45593999997E+02  0.45594000000E+02  0.51100000000E-03 0.  1.
         11   -1    0    0    0    0 -0.00000000000E+00 -0.00000000000E+00 -0.45593999997E+02  0.45594000000E+02  0.51100000000E-03 0. -1.
    9900012    2    1    2    0    0 -0.42498654328E+02 -0.96338353306E+01  0.11409080201E+02  0.46142317477E+02  0.99999974132E+01 0.  0.
         12    1    1    2    0    0  0.42498654328E+02  0.96338353306E+01 -0.11409080201E+02  0.45045682523E+02  0.00000000000E+00 0. -1.
         11    1    3    3    0    0 -0.17333404313E+02 -0.84173126777E+01  0.56701823257E+01  0.20086040567E+02  0.51100000000E-03 0. -1.
        -11    1    3    3    0    0 -0.93877355967E+00  0.57023841339E+00  0.49336401096E+00  0.12041079490E+01  0.51100000000E-03 0.  1.
        -12    1    3    3    0    0 -0.24226476456E+02 -0.17867610663E+01  0.52455338644E+01  0.24852168962E+02  0.00000000000E+00 0.  1.
</event>
<event>
 7    1  0.2472338E-008  0.4614232E+02  0.7816164E-02  0.1320468E+00
        -11   -1    0    0    0    0  0.00000000000E+00  0.00000000000E+00  0.45593999997E+02  0.45594000000E+02  0.51100000000E-03 0.  1.
         11   -1    0    0    0    0 -0.00000000000E+00 -0.00000000000E+00 -0.45593999997E+02  0.45594000000E+02  0.51100000000E-03 0. -1.
    9900012    2    1    2    0    0 -0.29238762577E+02  0.33302663158E+02  0.80709863499E+01  0.46142318397E+02  0.10000005797E+02 0.  0.
         12    1    1    2    0    0  0.29238762577E+02 -0.33302663158E+02 -0.80709863499E+01  0.45045681603E+02  0.00000000000E+00 0. -1.
         11    1    3    3    0    0 -0.71362742294E+01  0.12941081543E+02  0.51382425189E+01  0.15646071003E+02  0.51100000000E-03 0. -1.
        -11    1    3    3    0    0 -0.57032990556E+01  0.31054012643E+01 -0.12421673419E+00  0.64951187201E+01  0.51100000000E-03 0.  1.
        -12    1    3    3    0    0 -0.16399189292E+02  0.17256180351E+02  0.30569605652E+01  0.24001128674E+02  0.00000000000E+00 0.  1.
</event>
<event>
 7    1  0.2472338E-008  0.4614232E+02  0.7816164E-02  0.1320468E+00
        -11   -1    0    0    0    0  0.00000000000E+00  0.00000000000E+00  0.45593999997E+02  0.45594000000E+02  0.51100000000E-03 0.  1.
         11   -1    0    0    0    0 -0.00000000000E+00 -0.00000000000E+00 -0.45593999997E+02  0.45594000000E+02  0.51100000000E-03 0. -1.
    9900012    2    1    2    0    0 -0.12832566072E+02 -0.30026056071E+02  0.31030220653E+02  0.46142318865E+02  0.10000010065E+02 0.  0.
         12    1    1    2    0    0  0.12832566072E+02  0.30026056071E+02 -0.31030220653E+02  0.45045681135E+02  0.00000000000E+00 0. -1.
         11    1    3    3    0    0  0.29581460869E+00 -0.88149510584E+00  0.13655871791E-01  0.92990679549E+00  0.51100000000E-03 0. -1.
        -11    1    3    3    0    0 -0.58942901733E+01 -0.18052767079E+02  0.13718008229E+02  0.23427095550E+02  0.51100000000E-03 0.  1.
         12    1    3    3    0    0 -0.72340905074E+01 -0.11091793885E+02  0.17298556552E+02  0.21785316519E+02  0.00000000000E+00 0. -1.
</event>
<event>
 7    1  0.2472338E-008  0.4614232E+02  0.7816164E-02  0.1320468E+00
        -11   -1    0    0    0    0  0.00000000000E+00  0.00000000000E+00  0.45593999997E+02  0.45594000000E+02  0.51100000000E-03 0. -1.
         11   -1    0    0    0    0 -0.00000000000E+00 -0.00000000000E+00 -0.45593999997E+02  0.45594000000E+02  0.51100000000E-03 0.  1.
    9900012    2    1    2    0    0  0.16399109680E+02  0.35165178684E+02 -0.22882155317E+02  0.46142316276E+02  0.99999864577E+01 0.  0.
         12    1    1    2    0    0 -0.16399109680E+02 -0.35165178684E+02  0.22882155317E+02  0.45045683724E+02  0.00000000000E+00 0. -1.
         11    1    3    3    0    0  0.27761324002E+01  0.49343542884E+01 -0.70272386236E+01  0.90242366038E+01  0.51100000000E-03 0. -1.
        -11    1    3    3    0    0  0.30312330284E+00  0.88074681580E-01  0.28328575511E+00  0.42413673082E+00  0.51100000000E-03 0.  1.
        -12    1    3    3    0    0  0.13319853977E+02  0.30142749714E+02 -0.16138202449E+02  0.36693942941E+02  0.00000000000E+00 0.  1.
</event>
<event>
 7    1  0.2472338E-008  0.4614232E+02  0.7816164E-02  0.1320468E+00
        -11   -1    0    0    0    0  0.00000000000E+00  0.00000000000E+00  0.45593999997E+02  0.45594000000E+02  0.51100000000E-03 0.  1.
         11   -1    0    0    0    0 -0.00000000000E+00 -0.00000000000E+00 -0.45593999997E+02  0.45594000000E+02  0.51100000000E-03 0. -1.
    9900012    2    1    2    0    0 -0.21897656121E+02 -0.38526293618E+02 -0.80827458334E+01  0.46142318478E+02  0.10000006542E+02 0.  0.
         12    1    1    2    0    0  0.21897656121E+02  0.38526293618E+02  0.80827458334E+01  0.45045681522E+02  0.00000000000E+00 0. -1.
         11    1    3    3    0    0 -0.39249190152E+00  0.27472583435E+00 -0.30431811659E+00  0.56756845757E+00  0.51100000000E-03 0. -1.
        -11    1    3    3    0    0 -0.60606377720E+01 -0.15248184427E+02 -0.20708587506E+00  0.16409794128E+02  0.51100000000E-03 0.  1.
        -12    1    3    3    0    0 -0.15444526448E+02 -0.23552835025E+02 -0.75713418417E+01  0.29164955892E+02  0.00000000000E+00 0.  1.
</event>
<event>
 7    1  0.2472338E-008  0.4614232E+02  0.7816164E-02  0.1320468E+00
        -11   -1    0    0    0    0  0.00000000000E+00  0.00000000000E+00  0.45593999997E+02  0.45594000000E+02  0.51100000000E-03 0.  1.
         11   -1    0    0    0    0 -0.00000000000E+00 -0.00000000000E+00 -0.45593999997E+02  0.45594000000E+02  0.51100000000E-03 0. -1.
    9900012    2    1    2    0    0  0.29744261905E+02 -0.32516750009E+02 -0.93302142991E+01  0.46142322668E+02  0.10000044747E+02 0.  0.
         12    1    1    2    0    0 -0.29744261905E+02  0.32516750009E+02  0.93302142991E+01  0.45045677332E+02  0.00000000000E+00 0. -1.
         11    1    3    3    0    0  0.11286691175E+02 -0.13249218345E+02 -0.26151677724E+01  0.17600292247E+02  0.51100000000E-03 0. -1.
        -11    1    3    3    0    0  0.18320288215E+02 -0.19380617145E+02 -0.53940773836E+01  0.27209140969E+02  0.51100000000E-03 0.  1.
         12    1    3    3    0    0  0.13728251496E+00  0.11308548114E+00 -0.13209691431E+01  0.13328894523E+01  0.00000000000E+00 0. -1.
</event>
<event>
 7    1  0.2472338E-008  0.4614232E+02  0.7816164E-02  0.1320468E+00
        -11   -1    0    0    0    0  0.00000000000E+00  0.00000000000E+00  0.45593999997E+02  0.45594000000E+02  0.51100000000E-03 0. -1.
         11   -1    0    0    0    0 -0.00000000000E+00 -0.00000000000E+00 -0.45593999997E+02  0.45594000000E+02  0.51100000000E-03 0.  1.
    9900012    2    1    2    0    0  0.36895317148E+02  0.25608058094E+02 -0.34751083023E+01  0.46142318248E+02  0.10000004443E+02 0.  0.
         12    1    1    2    0    0 -0.36895317148E+02 -0.25608058094E+02  0.34751083023E+01  0.45045681752E+02  0.00000000000E+00 0. -1.
         11    1    3    3    0    0  0.68172908213E+01  0.29657357540E+01 -0.30266083479E+01  0.80269172824E+01  0.51100000000E-03 0. -1.
        -11    1    3    3    0    0  0.17924499296E+02  0.14594473889E+02  0.24809265252E+01  0.23247394258E+02  0.51100000000E-03 0.  1.
         12    1    3    3    0    0  0.12153527031E+02  0.80478484504E+01 -0.29294264796E+01  0.14868006708E+02  0.00000000000E+00 0. -1.
</event>
<event>
 7    1  0.2472338E-008  0.4614232E+02  0.7816164E-02  0.1320468E+00
        -11   -1    0    0    0    0  0.00000000000E+00  0.00000000000E+00  0.45593999997E+02  0.45594000000E+02  0.51100000000E-03 0.  1.
         11   -1    0    0    0    0 -0.00000000000E+00 -0.00000000000E+00 -0.45593999997E+02  0.45594000000E+02  0.51100000000E-03 0. -1.
    9900012    2    1    2    0    0 -0.24839668516E+02  0.24171105872E+01  0.37500161638E+02  0.46142315651E+02  0.99999807607E+01 0.  0.
         12    1    1    2    0    0  0.24839668516E+02 -0.24171105872E+01 -0.37500161638E+02  0.45045684349E+02  0.00000000000E+00 0. -1.
         11    1    3    3    0    0 -0.77623447635E+01  0.40515383182E+01  0.12588675574E+02  0.15334396367E+02  0.51100000000E-03 0. -1.
        -11    1    3    3    0    0 -0.56265927218E+01 -0.22639884856E+01  0.12593973282E+02  0.13978281468E+02  0.51100000000E-03 0.  1.
        -12    1    3    3    0    0 -0.11450731031E+02  0.62956075473E+00  0.12317512782E+02  0.16829637816E+02  0.00000000000E+00 0.  1.
</event>
<event>
 7    1  0.2472338E-008  0.4614232E+02  0.7816164E-02  0.1320468E+00
        -11   -1    0    0    0    0  0.00000000000E+00  0.00000000000E+00  0.45593999997E+02  0.45594000000E+02  0.51100000000E-03 0.  1.
         11   -1    0    0    0    0 -0.00000000000E+00 -0.00000000000E+00 -0.45593999997E+02  0.45594000000E+02  0.51100000000E-03 0. -1.
    9900012    2    1    2    0    0  0.59695071473E+01  0.44076707627E+02 -0.71219521598E+01  0.46142319038E+02  0.10000011641E+02 0.  0.
         12    1    1    2    0    0 -0.59695071473E+01 -0.44076707627E+02  0.71219521598E+01  0.45045680962E+02  0.00000000000E+00 0. -1.
         11    1    3    3    0    0  0.30673751268E+01  0.33828682900E+02 -0.74752043234E+01  0.34780271087E+02  0.51100000000E-03 0. -1.
        -11    1    3    3    0    0  0.34757876099E+01  0.93765966401E+01  0.11266530635E+01  0.10063349912E+02  0.51100000000E-03 0.  1.
         12    1    3    3    0    0 -0.57365558942E+00  0.87142808625E+00 -0.77340089986E+00  0.12986980391E+01  0.00000000000E+00 0. -1.
</event>
<event>
 7    1  0.2472338E-008  0.4614232E+02  0.7816164E-02  0.1320468E+00
        -11   -1    0    0    0    0  0.00000000000E+00  0.00000000000E+00  0.45593999997E+02  0.45594000000E+02  0.51100000000E-03 0.  1.
         11   -1    0    0    0    0 -0.00000000000E+00 -0.00000000000E+00 -0.45593999997E+02  0.45594000000E+02  0.51100000000E-03 0. -1.
    9900012    2    1    2    0    0  0.21540798775E+02 -0.95007449676E+01  0.38403688320E+02  0.46142318261E+02  0.10000004554E+02 0.  0.
         12    1    1    2    0    0 -0.21540798775E+02  0.95007449676E+01 -0.38403688320E+02  0.45045681739E+02  0.00000000000E+00 0. -1.
         11    1    3    3    0    0  0.37517212960E+01  0.33501113797E+00  0.33550350865E+01  0.50441952617E+01  0.51100000000E-03 0. -1.
        -11    1    3    3    0    0  0.17974769221E+02 -0.95465377053E+01  0.31309364438E+02  0.37343071814E+02  0.51100000000E-03 0.  1.
        -12    1    3    3    0    0 -0.18569174261E+00 -0.28921840026E+00  0.37392887952E+01  0.37550511848E+01  0.00000000000E+00 0.  1.
</event>
<event>
 7    1  0.2472338E-008  0.4614231E+02  0.7816164E-02  0.1320468E+00
        -11   -1    0    0    0    0  0.00000000000E+00  0.00000000000E+00  0.45593999997E+02  0.45594000000E+02  0.51100000000E-03 0.  1.
         11   -1    0    0    0    0 -0.00000000000E+00 -0.00000000000E+00 -0.45593999997E+02  0.45594000000E+02  0.51100000000E-03 0. -1.
    9900012    2    1    2    0    0  0.11364677524E+02 -0.14606698472E+02  0.41068262756E+02  0.46142314954E+02  0.99999744016E+01 0.  0.
         12    1    1    2    0    0 -0.11364677524E+02  0.14606698472E+02 -0.41068262756E+02  0.45045685046E+02  0.00000000000E+00 0. -1.
         11    1    3    3    0    0  0.42049097869E+01 -0.81072225387E+01  0.19645158487E+02  0.21664269566E+02  0.51100000000E-03 0. -1.
        -11    1    3    3    0    0  0.81144544273E+01 -0.43297337707E+01  0.18882316273E+02  0.21003162459E+02  0.51100000000E-03 0.  1.
         12    1    3    3    0    0 -0.95468668971E+00 -0.21697421625E+01  0.25407879959E+01  0.34748829286E+01  0.00000000000E+00 0. -1.
</event>
<event>
 7    1  0.2472338E-008  0.4614231E+02  0.7816164E-02  0.1320468E+00
        -11   -1    0    0    0    0  0.00000000000E+00  0.00000000000E+00  0.45593999997E+02  0.45594000000E+02  0.51100000000E-03 0.  1.
         11   -1    0    0    0    0 -0.00000000000E+00 -0.00000000000E+00 -0.45593999997E+02  0.45594000000E+02  0.51100000000E-03 0. -1.
    9900012    2    1    2    0    0 -0.42202784514E+02 -0.11665441861E+02 -0.10580936936E+02  0.46142314513E+02  0.99999703825E+01 0.  0.
         12    1    1    2    0    0  0.42202784514E+02  0.11665441861E+02  0.10580936936E+02  0.45045685487E+02  0.00000000000E+00 0. -1.
         11    1    3    3    0    0 -0.22114639364E+02 -0.77003479619E+01 -0.87641212982E+01  0.25003248896E+02  0.51100000000E-03 0. -1.
        -11    1    3    3    0    0 -0.13800570974E+02 -0.12838692537E+01 -0.30539388623E+01  0.14192625631E+02  0.51100000000E-03 0.  1.
        -12    1    3    3    0    0 -0.62875741754E+01 -0.26812246451E+01  0.12371232245E+01  0.69464399862E+01  0.00000000000E+00 0.  1.
</event>
<event>
 7    1  0.2472338E-008  0.4614232E+02  0.7816164E-02  0.1320468E+00
        -11   -1    0    0    0    0  0.00000000000E+00  0.00000000000E+00  0.45593999997E+02  0.45594000000E+02  0.51100000000E-03 0. -1.
         11   -1    0    0    0    0 -0.00000000000E+00 -0.00000000000E+00 -0.45593999997E+02  0.45594000000E+02  0.51100000000E-03 0.  1.
    9900012    2    1    2    0    0 -0.16465749417E+02  0.41642843859E+02  0.48852924694E+01  0.46142318397E+02  0.10000005801E+02 0.  0.
         12    1    1    2    0    0  0.16465749417E+02 -0.41642843859E+02 -0.48852924694E+01  0.45045681603E+02  0.00000000000E+00 0. -1.
         11    1    3    3    0    0 -0.82586391342E+01  0.14947052335E+02  0.45084882759E+01  0.17661991979E+02  0.51100000000E-03 0. -1.
        -11    1    3    3    0    0 -0.72077310197E+01  0.17685764028E+02  0.22290560246E+01  0.19227748873E+02  0.51100000000E-03 0.  1.
        -12    1    3    3    0    0 -0.99937926303E+00  0.90100274957E+01 -0.18522518311E+01  0.92525775453E+01  0.00000000000E+00 0.  1.
</event>
<event>
 7    1  0.2472338E-008  0.4614232E+02  0.7816164E-02  0.1320468E+00
        -11   -1    0    0    0    0  0.00000000000E+00  0.00000000000E+00  0.45593999997E+02  0.45594000000E+02  0.51100000000E-03 0.  1.
         11   -1    0    0    0    0 -0.00000000000E+00 -0.00000000000E+00 -0.45593999997E+02  0.45594000000E+02  0.51100000000E-03 0. -1.
    9900012    2    1    2    0    0  0.29663001058E+02 -0.21024218346E+01  0.33834888356E+02  0.46142317860E+02  0.10000000905E+02 0.  0.
         12    1    1    2    0    0 -0.29663001058E+02  0.21024218346E+01 -0.33834888356E+02  0.45045682140E+02  0.00000000000E+00 0. -1.
         11    1    3    3    0    0  0.51845916290E+01  0.19956287627E+01  0.83095048053E+01  0.99955187403E+01  0.51100000000E-03 0. -1.
        -11    1    3    3    0    0  0.94188967443E+01 -0.28766068560E+01  0.14124834567E+02  0.17219217018E+02  0.51100000000E-03 0.  1.
         12    1    3    3    0    0  0.15059512685E+02 -0.12214437413E+01  0.11400548984E+02  0.18927582103E+02  0.00000000000E+00 0. -1.
</event>
<event>
 7    1  0.2472338E-008  0.4614232E+02  0.7816164E-02  0.1320468E+00
        -11   -1    0    0    0    0  0.00000000000E+00  0.00000000000E+00  0.45593999997E+02  0.45594000000E+02  0.51100000000E-03 0.  1.
         11   -1    0    0    0    0 -0.00000000000E+00 -0.00000000000E+00 -0.45593999997E+02  0.45594000000E+02  0.51100000000E-03 0. -1.
    9900012    2    1    2    0    0 -0.15122995838E+02 -0.14761551311E+02  0.39780712063E+02  0.46142318159E+02  0.10000003628E+02 0.  0.
         12    1    1    2    0    0  0.15122995838E+02  0.14761551311E+02 -0.39780712063E+02  0.45045681841E+02  0.00000000000E+00 0. -1.
         11    1    3    3    0    0 -0.30530748305E+01 -0.13772230654E+01  0.55986449048E+01  0.65240197979E+01  0.51100000000E-03 0. -1.
        -11    1    3    3    0    0 -0.12317979697E+02 -0.96239842159E+01  0.30865687171E+02  0.34598328584E+02  0.51100000000E-03 0.  1.
        -12    1    3    3    0    0  0.24805868940E+00 -0.37603440301E+01  0.33163799875E+01  0.50199697768E+01  0.00000000000E+00 0.  1.
</event>
<event>
 7    1  0.2472338E-008  0.4614232E+02  0.7816164E-02  0.1320468E+00
        -11   -1    0    0    0    0  0.00000000000E+00  0.00000000000E+00  0.45593999997E+02  0.45594000000E+02  0.51100000000E-03 0. -1.
         11   -1    0    0    0    0 -0.00000000000E+00 -0.00000000000E+00 -0.45593999997E+02  0.45594000000E+02  0.51100000000E-03 0.  1.
    9900012    2    1    2    0    0 -0.27721030518E+01 -0.25226371985E+02 -0.37216382852E+02  0.46142317061E+02  0.99999936180E+01 0.  0.
         12    1    1    2    0    0  0.27721030518E+01  0.25226371985E+02  0.37216382852E+02  0.45045682939E+02  0.00000000000E+00 0. -1.
         11    1    3    3    0    0 -0.21307189763E+01 -0.51113466270E+00 -0.51063219934E+01  0.55565948711E+01  0.51100000000E-03 0. -1.
        -11    1    3    3    0    0  0.58096410634E+00 -0.62381464076E+01 -0.71458174536E+01  0.95034045077E+01  0.51100000000E-03 0.  1.
        -12    1    3    3    0    0 -0.12223481818E+01 -0.18477090914E+02 -0.24964243405E+02  0.31082317682E+02  0.00000000000E+00 0.  1.
</event>
<event>
 7    1  0.2472338E-008  0.4614232E+02  0.7816164E-02  0.1320468E+00
        -11   -1    0    0    0    0  0.00000000000E+00  0.00000000000E+00  0.45593999997E+02  0.45594000000E+02  0.51100000000E-03 0. -1.
         11   -1    0    0    0    0 -0.00000000000E+00 -0.00000000000E+00 -0.45593999997E+02  0.45594000000E+02  0.51100000000E-03 0.  1.
    9900012    2    1    2    0    0 -0.29570538230E+02 -0.31605107925E+02 -0.12482532483E+02  0.46142321014E+02  0.10000029660E+02 0.  0.
         12    1    1    2    0    0  0.29570538230E+02  0.31605107925E+02  0.12482532483E+02  0.45045678986E+02  0.00000000000E+00 0. -1.
         11    1    3    3    0    0 -0.18161428023E+02 -0.23369259768E+02 -0.10421069040E+02  0.31377674391E+02  0.51100000000E-03 0. -1.
        -11    1    3    3    0    0 -0.70400511254E+01 -0.72878021473E+01 -0.17522931145E+01  0.10283234482E+02  0.51100000000E-03 0.  1.
         12    1    3    3    0    0 -0.43690590808E+01 -0.94804600965E+00 -0.30917032772E+00  0.44814121412E+01  0.00000000000E+00 0. -1.
</event>
<event>
 7    1  0.2472338E-008  0.4614232E+02  0.7816164E-02  0.1320468E+00
        -11   -1    0    0    0    0  0.00000000000E+00  0.00000000000E+00  0.45593999997E+02  0.45594000000E+02  0.51100000000E-03 0.  1.
         11   -1    0    0    0    0 -0.00000000000E+00 -0.00000000000E+00 -0.45593999997E+02  0.45594000000E+02  0.51100000000E-03 0. -1.
    9900012    2    1    2    0    0  0.19354847298E+02 -0.13993019818E+02  0.38192913932E+02  0.46142318829E+02  0.10000009739E+02 0.  0.
         12    1    1    2    0    0 -0.19354847298E+02  0.13993019818E+02 -0.38192913932E+02  0.45045681171E+02  0.00000000000E+00 0. -1.
         11    1    3    3    0    0  0.93702491419E+01 -0.50607224450E+01  0.10555684335E+02  0.14994497413E+02  0.51100000000E-03 0.  1.
        -11    1    3    3    0    0  0.54941122930E+01 -0.73330200053E+01  0.14294161033E+02  0.16978854266E+02  0.51100000000E-03 0. -1.
        -12    1    3    3    0    0  0.44904858626E+01 -0.15992773683E+01  0.13343068564E+02  0.14168967150E+02  0.00000000000E+00 0.  1.
</event>
<event>
 7    1  0.2472338E-008  0.4614232E+02  0.7816164E-02  0.1320468E+00
        -11   -1    0    0    0    0  0.00000000000E+00  0.00000000000E+00  0.45593999997E+02  0.45594000000E+02  0.51100000000E-03 0.  1.
         11   -1    0    0    0    0 -0.00000000000E+00 -0.00000000000E+00 -0.45593999997E+02  0.45594000000E+02  0.51100000000E-03 0. -1.
    9900012    2    1    2    0    0  0.23598567968E+02  0.34392222170E+02 -0.17011644079E+02  0.46142318851E+02  0.10000009935E+02 0.  0.
         12    1    1    2    0    0 -0.23598567968E+02 -0.34392222170E+02  0.17011644079E+02  0.45045681149E+02  0.00000000000E+00 0. -1.
         11    1    3    3    0    0  0.15353253777E+01  0.72050892980E+00 -0.45432748562E+00  0.17557821216E+01  0.51100000000E-03 0. -1.
        -11    1    3    3    0    0  0.17157352325E+02  0.28353153172E+02 -0.99856107820E+01  0.34611969845E+02  0.51100000000E-03 0.  1.
        -12    1    3    3    0    0  0.49058902655E+01  0.53185600681E+01 -0.65717058114E+01  0.97745668838E+01  0.00000000000E+00 0.  1.
</event>
<event>
 7    1  0.2472338E-008  0.4614232E+02  0.7816164E-02  0.1320468E+00
        -11   -1    0    0    0    0  0.00000000000E+00  0.00000000000E+00  0.45593999997E+02  0.45594000000E+02  0.51100000000E-03 0. -1.
         11   -1    0    0    0    0 -0.00000000000E+00 -0.00000000000E+00 -0.45593999997E+02  0.45594000000E+02  0.51100000000E-03 0.  1.
    9900012    2    1    2    0    0  0.37048625213E+02 -0.10776847500E+02 -0.23245912679E+02  0.46142317316E+02  0.99999959438E+01 0.  0.
         12    1    1    2    0    0 -0.37048625213E+02  0.10776847500E+02  0.23245912679E+02  0.45045682684E+02  0.00000000000E+00 0. -1.
         11    1    3    3    0    0  0.52553024761E+01  0.72703531245E+00 -0.36044654068E+01  0.64139656680E+01  0.51100000000E-03 0. -1.
        -11    1    3    3    0    0  0.14396489659E+02 -0.15428592851E+01 -0.86524390951E+01  0.16867247310E+02  0.51100000000E-03 0.  1.
         12    1    3    3    0    0  0.17396833078E+02 -0.99610235274E+01 -0.10989008177E+02  0.22861104338E+02  0.00000000000E+00 0. -1.
</event>
<event>
 7    1  0.2472338E-008  0.4614232E+02  0.7816164E-02  0.1320468E+00
        -11   -1    0    0    0    0  0.00000000000E+00  0.00000000000E+00  0.45593999997E+02  0.45594000000E+02  0.51100000000E-03 0. -1.
         11   -1    0    0    0    0 -0.00000000000E+00 -0.00000000000E+00 -0.45593999997E+02  0.45594000000E+02  0.51100000000E-03 0.  1.
    9900012    2    1    2    0    0  0.11529042036E+02 -0.13984488144E+02 -0.41238680822E+02  0.46142317468E+02  0.99999973230E+01 0.  0.
         12    1    1    2    0    0 -0.11529042036E+02  0.13984488144E+02  0.41238680822E+02  0.45045682532E+02  0.00000000000E+00 0. -1.
         11    1    3    3    0    0  0.40198562525E+00  0.34126988245E+00 -0.31588219971E+01  0.32025324738E+01  0.51100000000E-03 0. -1.
        -11    1    3    3    0    0  0.76503435316E+01 -0.41889862181E+01 -0.21456910786E+02  0.23161916640E+02  0.51100000000E-03 0.  1.
         12    1    3    3    0    0  0.34767128789E+01 -0.10136771808E+02 -0.16622948039E+02  0.19777868354E+02  0.00000000000E+00 0. -1.
</event>
<event>
 7    1  0.2472338E-008  0.4614232E+02  0.7816164E-02  0.1320468E+00
        -11   -1    0    0    0    0  0.00000000000E+00  0.00000000000E+00  0.45593999997E+02  0.45594000000E+02  0.51100000000E-03 0.  1.
         11   -1    0    0    0    0 -0.00000000000E+00 -0.00000000000E+00 -0.45593999997E+02  0.45594000000E+02  0.51100000000E-03 0. -1.
    9900012    2    1    2    0    0 -0.37543907449E+02 -0.80590655138E+01  0.23550365945E+02  0.46142320300E+02  0.10000023154E+02 0.  0.
         12    1    1    2    0    0  0.37543907449E+02  0.80590655138E+01 -0.23550365945E+02  0.45045679700E+02  0.00000000000E+00 0. -1.
         11    1    3    3    0    0 -0.57634483843E+01 -0.31899001710E+01  0.49715525471E+01  0.82528259020E+01  0.51100000000E-03 0. -1.
        -11    1    3    3    0    0 -0.38221349743E+01 -0.23215775665E+01  0.49864122175E+01  0.66979657526E+01  0.51100000000E-03 0.  1.
        -12    1    3    3    0    0 -0.27958324090E+02 -0.25475877763E+01  0.13592401181E+02  0.31191528646E+02  0.00000000000E+00 0.  1.
</event>
<event>
 7    1  0.2472338E-008  0.4614232E+02  0.7816164E-02  0.1320468E+00
        -11   -1    0    0    0    0  0.00000000000E+00  0.00000000000E+00  0.45593999997E+02  0.45594000000E+02  0.51100000000E-03 0.  1.
         11   -1    0    0    0    0 -0.00000000000E+00 -0.00000000000E+00 -0.45593999997E+02  0.45594000000E+02  0.51100000000E-03 0. -1.
    9900012    2    1    2    0    0 -0.31218093680E+02 -0.27722188367E+02  0.16912255565E+02  0.46142317752E+02  0.99999999207E+01 0.  0.
         12    1    1    2    0    0  0.31218093680E+02  0.27722188367E+02 -0.16912255565E+02  0.45045682248E+02  0.00000000000E+00 0. -1.
         11    1    3    3    0    0 -0.12764567407E+02 -0.11377019693E+02  0.31682258143E+01  0.17389893998E+02  0.51100000000E-03 0. -1.
        -11    1    3    3    0    0 -0.63499031072E+01 -0.92084647997E+01  0.66351897417E+01  0.13005492555E+02  0.51100000000E-03 0.  1.
        -12    1    3    3    0    0 -0.12103623165E+02 -0.71367038746E+01  0.71088400088E+01  0.15746931199E+02  0.00000000000E+00 0.  1.
</event>
<event>
 7    1  0.2472338E-008  0.4614232E+02  0.7816164E-02  0.1320468E+00
        -11   -1    0    0    0    0  0.00000000000E+00  0.00000000000E+00  0.45593999997E+02  0.45594000000E+02  0.51100000000E-03 0.  1.
         11   -1    0    0    0    0 -0.00000000000E+00 -0.00000000000E+00 -0.45593999997E+02  0.45594000000E+02  0.51100000000E-03 0. -1.
    9900012    2    1    2    0    0  0.30692834977E+01  0.34412219302E+02  0.28904879486E+02  0.46142318780E+02  0.10000009290E+02 0.  0.
         12    1    1    2    0    0 -0.30692834977E+01 -0.34412219302E+02 -0.28904879486E+02  0.45045681220E+02  0.00000000000E+00 0. -1.
         11    1    3    3    0    0  0.50297140926E+01  0.10352444082E+02  0.10781071089E+02  0.15770308063E+02  0.51100000000E-03 0. -1.
        -11    1    3    3    0    0 -0.16837195628E+00  0.13707121319E+02  0.11951034204E+02  0.18186278970E+02  0.51100000000E-03 0.  1.
         12    1    3    3    0    0 -0.17920586386E+01  0.10352653901E+02  0.61727741929E+01  0.12185731747E+02  0.00000000000E+00 0. -1.
</event>
<event>
 7    1  0.2472338E-008  0.4614232E+02  0.7816164E-02  0.1320468E+00
        -11   -1    0    0    0    0  0.00000000000E+00  0.00000000000E+00  0.45593999997E+02  0.45594000000E+02  0.51100000000E-03 0. -1.
         11   -1    0    0    0    0 -0.00000000000E+00 -0.00000000000E+00 -0.45593999997E+02  0.45594000000E+02  0.51100000000E-03 0.  1.
    9900012    2    1    2    0    0  0.44092214023E+02 -0.77958911731E+00 -0.91859882012E+01  0.46142317900E+02  0.10000001264E+02 0.  0.
         12    1    1    2    0    0 -0.44092214023E+02  0.77958911731E+00  0.91859882012E+01  0.45045682100E+02  0.00000000000E+00 0. -1.
         11    1    3    3    0    0  0.74941882842E+01  0.21819999012E+01  0.95647101754E+00  0.78637661891E+01  0.51100000000E-03 0. -1.
        -11    1    3    3    0    0  0.12748148298E+02 -0.28367629672E+01 -0.36551869993E+01  0.13561817777E+02  0.51100000000E-03 0.  1.
        -12    1    3    3    0    0  0.23849877441E+02 -0.12482605136E+00 -0.64872722194E+01  0.24716733934E+02  0.00000000000E+00 0.  1.
</event>
<event>
 7    1  0.2472338E-008  0.4614232E+02  0.7816164E-02  0.1320468E+00
        -11   -1    0    0    0    0  0.00000000000E+00  0.00000000000E+00  0.45593999997E+02  0.45594000000E+02  0.51100000000E-03 0. -1.
         11   -1    0    0    0    0 -0.00000000000E+00 -0.00000000000E+00 -0.45593999997E+02  0.45594000000E+02  0.51100000000E-03 0.  1.
    9900012    2    1    2    0    0 -0.33902257228E+02  0.12799849358E+02 -0.26756573989E+02  0.46142318293E+02  0.10000004853E+02 0.  0.
         12    1    1    2    0    0  0.33902257228E+02 -0.12799849358E+02  0.26756573989E+02  0.45045681707E+02  0.00000000000E+00 0. -1.
         11    1    3    3    0    0 -0.11980287129E+02  0.88141212617E+01 -0.12430294507E+02  0.19383710561E+02  0.51100000000E-03 0. -1.
        -11    1    3    3    0    0 -0.12154121446E+02  0.31746615498E+01 -0.99473312596E+01  0.16023437319E+02  0.51100000000E-03 0.  1.
         12    1    3    3    0    0 -0.97678486540E+01  0.81106654633E+00 -0.43789482228E+01  0.10735170414E+02  0.00000000000E+00 0. -1.
</event>
<event>
 7    1  0.2472338E-008  0.4614232E+02  0.7816164E-02  0.1320468E+00
        -11   -1    0    0    0    0  0.00000000000E+00  0.00000000000E+00  0.45593999997E+02  0.45594000000E+02  0.51100000000E-03 0.  1.
         11   -1    0    0    0    0 -0.00000000000E+00 -0.00000000000E+00 -0.45593999997E+02  0.45594000000E+02  0.51100000000E-03 0. -1.
    9900012    2    1    2    0    0 -0.32317746643E+01  0.84249423203E-01  0.44929522907E+02  0.46142317697E+02  0.99999994166E+01 0.  0.
         12    1    1    2    0    0  0.32317746643E+01 -0.84249423203E-01 -0.44929522907E+02  0.45045682303E+02  0.00000000000E+00 0. -1.
         11    1    3    3    0    0 -0.91484799237E+00  0.22083229996E+01  0.46141491260E+01  0.51965382456E+01  0.51100000000E-03 0. -1.
        -11    1    3    3    0    0  0.19148917738E+01  0.59215282268E+00  0.15233700273E+02  0.15364995273E+02  0.51100000000E-03 0.  1.
         12    1    3    3    0    0 -0.42318184457E+01 -0.27162263991E+01  0.25081673508E+02  0.25580784178E+02  0.00000000000E+00 0. -1.
</event>
<event>
 7    1  0.2472338E-008  0.4614232E+02  0.7816164E-02  0.1320468E+00
        -11   -1    0    0    0    0  0.00000000000E+00  0.00000000000E+00  0.45593999997E+02  0.45594000000E+02  0.51100000000E-03 0.  1.
         11   -1    0    0    0    0 -0.00000000000E+00 -0.00000000000E+00 -0.45593999997E+02  0.45594000000E+02  0.51100000000E-03 0. -1.
    9900012    2    1    2    0    0 -0.18703504263E+02  0.29169311869E+02  0.28782698449E+02  0.46142317004E+02  0.99999930918E+01 0.  0.
         12    1    1    2    0    0  0.18703504263E+02 -0.29169311869E+02 -0.28782698449E+02  0.45045682996E+02  0.00000000000E+00 0. -1.
         11    1    3    3    0    0 -0.27513721061E+01  0.16833057714E+01  0.12485299225E+01  0.34586693995E+01  0.51100000000E-03 0. -1.
        -11    1    3    3    0    0 -0.46530968852E+01  0.84663282875E+01  0.13066972129E+02  0.16250408800E+02  0.51100000000E-03 0.  1.
        -12    1    3    3    0    0 -0.11299035271E+02  0.19019677810E+02  0.14467196398E+02  0.26433238804E+02  0.00000000000E+00 0.  1.
</event>
<event>
 7    1  0.2472338E-008  0.4614232E+02  0.7816164E-02  0.1320468E+00
        -11   -1    0    0    0    0  0.00000000000E+00  0.00000000000E+00  0.45593999997E+02  0.45594000000E+02  0.51100000000E-03 0.  1.
         11   -1    0    0    0    0 -0.00000000000E+00 -0.00000000000E+00 -0.45593999997E+02  0.45594000000E+02  0.51100000000E-03 0. -1.
    9900012    2    1    2    0    0 -0.40096416439E+02  0.12371184081E+02  0.16381232330E+02  0.46142316750E+02  0.99999907761E+01 0.  0.
         12    1    1    2    0    0  0.40096416439E+02 -0.12371184081E+02 -0.16381232330E+02  0.45045683250E+02  0.00000000000E+00 0. -1.
         11    1    3    3    0    0 -0.80171139255E+00 -0.83121412376E+00  0.43760450817E+00  0.12349720819E+01  0.51100000000E-03 0. -1.
        -11    1    3    3    0    0 -0.15950055957E+02  0.21593922204E+01  0.49460400721E+01  0.16838366086E+02  0.51100000000E-03 0.  1.
         12    1    3    3    0    0 -0.23344649090E+02  0.11043005984E+02  0.10997587749E+02  0.28068978581E+02  0.00000000000E+00 0. -1.
</event>
<event>
 7    1  0.2472338E-008  0.4614232E+02  0.7816164E-02  0.1320468E+00
        -11   -1    0    0    0    0  0.00000000000E+00  0.00000000000E+00  0.45593999997E+02  0.45594000000E+02  0.51100000000E-03 0.  1.
         11   -1    0    0    0    0 -0.00000000000E+00 -0.00000000000E+00 -0.45593999997E+02  0.45594000000E+02  0.51100000000E-03 0. -1.
    9900012    2    1    2    0    0 -0.43329613598E+02 -0.12078637629E+02  0.24009729559E+01  0.46142316825E+02  0.99999914653E+01 0.  0.
         12    1    1    2    0    0  0.43329613598E+02  0.12078637629E+02 -0.24009729559E+01  0.45045683175E+02  0.00000000000E+00 0. -1.
         11    1    3    3    0    0 -0.48155670468E+01  0.23224022354E+00 -0.17154273945E+01  0.51172563851E+01  0.51100000000E-03 0. -1.
        -11    1    3    3    0    0 -0.22865266144E+02 -0.69887083823E+01  0.51715145192E+01  0.24462358909E+02  0.51100000000E-03 0.  1.
        -12    1    3    3    0    0 -0.15648780408E+02 -0.53221694702E+01 -0.10551141688E+01  0.16562701531E+02  0.00000000000E+00 0.  1.
</event>
<event>
 7    1  0.2472338E-008  0.4614232E+02  0.7816164E-02  0.1320468E+00
        -11   -1    0    0    0    0  0.00000000000E+00  0.00000000000E+00  0.45593999997E+02  0.45594000000E+02  0.51100000000E-03 0.  1.
         11   -1    0    0    0    0 -0.00000000000E+00 -0.00000000000E+00 -0.45593999997E+02  0.45594000000E+02  0.51100000000E-03 0. -1.
    9900012    2    1    2    0    0 -0.14320998497E+02  0.30048120209E+02  0.30350172834E+02  0.46142317443E+02  0.99999970952E+01 0.  0.
         12    1    1    2    0    0  0.14320998497E+02 -0.30048120209E+02 -0.30350172834E+02  0.45045682557E+02  0.00000000000E+00 0. -1.
         11    1    3    3    0    0 -0.19502663789E+01  0.54186995729E+00  0.94721037905E+00  0.22348086636E+01  0.51100000000E-03 0. -1.
        -11    1    3    3    0    0 -0.74475812629E+00  0.20391253892E+01  0.47095317397E+01  0.51857869690E+01  0.51100000000E-03 0.  1.
         12    1    3    3    0    0 -0.11625973992E+02  0.27467124862E+02  0.24693430715E+02  0.38721721810E+02  0.00000000000E+00 0. -1.
</event>
<event>
 7    1  0.2472338E-008  0.4614232E+02  0.7816164E-02  0.1320468E+00
        -11   -1    0    0    0    0  0.00000000000E+00  0.00000000000E+00  0.45593999997E+02  0.45594000000E+02  0.51100000000E-03 0. -1.
         11   -1    0    0    0    0 -0.00000000000E+00 -0.00000000000E+00 -0.45593999997E+02  0.45594000000E+02  0.51100000000E-03 0.  1.
    9900012    2    1    2    0    0  0.39498607112E+02 -0.38502051210E+01 -0.21310779732E+02  0.46142319007E+02  0.10000011363E+02 0.  0.
         12    1    1    2    0    0 -0.39498607112E+02  0.38502051210E+01  0.21310779732E+02  0.45045680993E+02  0.00000000000E+00 0. -1.
         11    1    3    3    0    0  0.12080626821E+02 -0.69416661161E+00 -0.77778345714E+01  0.14384648850E+02  0.51100000000E-03 0. -1.
        -11    1    3    3    0    0  0.25304672420E+02 -0.17372513568E+01 -0.96983518127E+01  0.27155156355E+02  0.51100000000E-03 0.  1.
         12    1    3    3    0    0  0.21133078722E+01 -0.14187871526E+01 -0.38345933483E+01  0.46025138016E+01  0.00000000000E+00 0. -1.
</event>
<event>
 7    1  0.2472338E-008  0.4614232E+02  0.7816164E-02  0.1320468E+00
        -11   -1    0    0    0    0  0.00000000000E+00  0.00000000000E+00  0.45593999997E+02  0.45594000000E+02  0.51100000000E-03 0.  1.
         11   -1    0    0    0    0 -0.00000000000E+00 -0.00000000000E+00 -0.45593999997E+02  0.45594000000E+02  0.51100000000E-03 0. -1.
    9900012    2    1    2    0    0  0.43570930080E+02 -0.52967935552E+00  0.11419573531E+02  0.46142321318E+02  0.10000032434E+02 0.  0.
         12    1    1    2    0    0 -0.43570930080E+02  0.52967935552E+00 -0.11419573531E+02  0.45045678682E+02  0.00000000000E+00 0. -1.
         11    1    3    3    0    0  0.45085850567E+01  0.40562539516E+00  0.64499709769E+00  0.45725149198E+01  0.51100000000E-03 0. -1.
        -11    1    3    3    0    0  0.35441408881E+02 -0.18912526184E+01  0.12247459519E+02  0.37545579832E+02  0.51100000000E-03 0.  1.
         12    1    3    3    0    0  0.36209361422E+01  0.95594786776E+00 -0.14728830860E+01  0.40242265663E+01  0.00000000000E+00 0. -1.
</event>
<event>
 7    1  0.2472338E-008  0.4614232E+02  0.7816164E-02  0.1320468E+00
        -11   -1    0    0    0    0  0.00000000000E+00  0.00000000000E+00  0.45593999997E+02  0.45594000000E+02  0.51100000000E-03 0. -1.
         11   -1    0    0    0    0 -0.00000000000E+00 -0.00000000000E+00 -0.45593999997E+02  0.45594000000E+02  0.51100000000E-03 0.  1.
    9900012    2    1    2    0    0 -0.35520021089E+02 -0.15162812270E+02 -0.23184708058E+02  0.46142318055E+02  0.10000002679E+02 0.  0.
         12    1    1    2    0    0  0.35520021089E+02  0.15162812270E+02  0.23184708058E+02  0.45045681945E+02  0.00000000000E+00 0. -1.
         11    1    3    3    0    0 -0.51550573865E+01 -0.39733535003E+01 -0.24155905344E+01  0.69424226742E+01  0.51100000000E-03 0. -1.
        -11    1    3    3    0    0 -0.29524569448E+02 -0.12169117180E+02 -0.19681166657E+02  0.37511810610E+02  0.51100000000E-03 0.  1.
         12    1    3    3    0    0 -0.84039425519E+00  0.97965840965E+00 -0.10879508666E+01  0.16880847703E+01  0.00000000000E+00 0. -1.
</event>
<event>
 7    1  0.2472338E-008  0.4614231E+02  0.7816164E-02  0.1320468E+00
        -11   -1    0    0    0    0  0.00000000000E+00  0.00000000000E+00  0.45593999997E+02  0.45594000000E+02  0.51100000000E-03 0. -1.
         11   -1    0    0    0    0 -0.00000000000E+00 -0.00000000000E+00 -0.45593999997E+02  0.45594000000E+02  0.51100000000E-03 0.  1.
    9900012    2    1    2    0    0  0.11448483422E+02  0.29849921355E+01 -0.43464192787E+02  0.46142312022E+02  0.99999476700E+01 0.  0.
         12    1    1    2    0    0 -0.11448483422E+02 -0.29849921355E+01  0.43464192787E+02  0.45045687978E+02  0.00000000000E+00 0. -1.
         11    1    3    3    0    0  0.20539183019E+01 -0.12013502297E+01 -0.23336821251E+01  0.33328509249E+01  0.51100000000E-03 0.  1.
        -11    1    3    3    0    0  0.22716968927E+01 -0.29428633376E+00 -0.18922209889E+02  0.19060357776E+02  0.51100000000E-03 0. -1.
        -12    1    3    3    0    0  0.71228682276E+01  0.44806286990E+01 -0.22208300773E+02  0.23749103321E+02  0.00000000000E+00 0.  1.
</event>
<event>
 7    1  0.2472338E-008  0.4614232E+02  0.7816164E-02  0.1320468E+00
        -11   -1    0    0    0    0  0.00000000000E+00  0.00000000000E+00  0.45593999997E+02  0.45594000000E+02  0.51100000000E-03 0.  1.
         11   -1    0    0    0    0 -0.00000000000E+00 -0.00000000000E+00 -0.45593999997E+02  0.45594000000E+02  0.51100000000E-03 0. -1.
    9900012    2    1    2    0    0 -0.14551810178E+02 -0.41288703552E+02  0.10611369583E+02  0.46142318910E+02  0.10000010472E+02 0.  0.
         12    1    1    2    0    0  0.14551810178E+02  0.41288703552E+02 -0.10611369583E+02  0.45045681090E+02  0.00000000000E+00 0. -1.
         11    1    3    3    0    0 -0.48814925990E+01 -0.11582569302E+02  0.35886297542E+01  0.13071463017E+02  0.51100000000E-03 0.  1.
        -11    1    3    3    0    0 -0.22103983920E+01 -0.18953796296E+01 -0.11639116509E+01  0.31357639554E+01  0.51100000000E-03 0. -1.
         12    1    3    3    0    0 -0.74599191875E+01 -0.27810754620E+02  0.81866514800E+01  0.29935091937E+02  0.00000000000E+00 0. -1.
</event>
<event>
 7    1  0.2472338E-008  0.4614231E+02  0.7816164E-02  0.1320468E+00
        -11   -1    0    0    0    0  0.00000000000E+00  0.00000000000E+00  0.45593999997E+02  0.45594000000E+02  0.51100000000E-03 0.  1.
         11   -1    0    0    0    0 -0.00000000000E+00 -0.00000000000E+00 -0.45593999997E+02  0.45594000000E+02  0.51100000000E-03 0. -1.
    9900012    2    1    2    0    0 -0.44768469692E+02  0.36466192337E+01 -0.34060029406E+01  0.46142305794E+02  0.99998908764E+01 0.  0.
         12    1    1    2    0    0  0.44768469692E+02 -0.36466192337E+01  0.34060029406E+01  0.45045694206E+02  0.00000000000E+00 0. -1.
         11    1    3    3    0    0 -0.28628106267E+01  0.14235149475E+01  0.82581055629E+00  0.33021270155E+01  0.51100000000E-03 0. -1.
        -11    1    3    3    0    0 -0.29511949348E+02  0.49716869691E+01 -0.33513054158E+01  0.30114848064E+02  0.51100000000E-03 0.  1.
         12    1    3    3    0    0 -0.12393709718E+02 -0.27485826829E+01 -0.88050808115E+00  0.12725330715E+02  0.00000000000E+00 0. -1.
</event>
<event>
 7    1  0.2472338E-008  0.4614232E+02  0.7816164E-02  0.1320468E+00
        -11   -1    0    0    0    0  0.00000000000E+00  0.00000000000E+00  0.45593999997E+02  0.45594000000E+02  0.51100000000E-03 0.  1.
         11   -1    0    0    0    0 -0.00000000000E+00 -0.00000000000E+00 -0.45593999997E+02  0.45594000000E+02  0.51100000000E-03 0. -1.
    9900012    2    1    2    0    0 -0.37974421111E+02 -0.21916334523E+02 -0.10331062177E+02  0.46142320702E+02  0.10000026821E+02 0.  0.
         12    1    1    2    0    0  0.37974421111E+02  0.21916334523E+02  0.10331062177E+02  0.45045679298E+02  0.00000000000E+00 0. -1.
         11    1    3    3    0    0 -0.32009433796E+01 -0.12927309471E+01 -0.33764871263E+01  0.48288567380E+01  0.51100000000E-03 0. -1.
        -11    1    3    3    0    0 -0.33928835288E+02 -0.19516872272E+02 -0.74332028554E+01  0.39841268457E+02  0.51100000000E-03 0.  1.
        -12    1    3    3    0    0 -0.84464244356E+00 -0.11067313042E+01  0.47862780465E+00  0.14721955076E+01  0.00000000000E+00 0.  1.
</event>
<event>
 7    1  0.2472338E-008  0.4614232E+02  0.7816164E-02  0.1320468E+00
        -11   -1    0    0    0    0  0.00000000000E+00  0.00000000000E+00  0.45593999997E+02  0.45594000000E+02  0.51100000000E-03 0.  1.
         11   -1    0    0    0    0 -0.00000000000E+00 -0.00000000000E+00 -0.45593999997E+02  0.45594000000E+02  0.51100000000E-03 0. -1.
    9900012    2    1    2    0    0 -0.24212249361E+02 -0.96737155681E+01  0.36732813692E+02  0.46142318812E+02  0.10000009579E+02 0.  0.
         12    1    1    2    0    0  0.24212249361E+02  0.96737155681E+01 -0.36732813692E+02  0.45045681188E+02  0.00000000000E+00 0. -1.
         11    1    3    3    0    0 -0.15628010983E+01 -0.29544548712E+01  0.86956567199E+01  0.93158787513E+01  0.51100000000E-03 0. -1.
        -11    1    3    3    0    0 -0.77065343536E+01 -0.11513707953E+01  0.73989748830E+01  0.10745285293E+02  0.51100000000E-03 0.  1.
        -12    1    3    3    0    0 -0.14942913909E+02 -0.55678899016E+01  0.20638182089E+02  0.26081154767E+02  0.00000000000E+00 0.  1.
</event>
<event>
 7    1  0.2472338E-008  0.4614232E+02  0.7816164E-02  0.1320468E+00
        -11   -1    0    0    0    0  0.00000000000E+00  0.00000000000E+00  0.45593999997E+02  0.45594000000E+02  0.51100000000E-03 0.  1.
         11   -1    0    0    0    0 -0.00000000000E+00 -0.00000000000E+00 -0.45593999997E+02  0.45594000000E+02  0.51100000000E-03 0. -1.
    9900012    2    1    2    0    0 -0.42197593152E+02 -0.15314620903E+02  0.37334971775E+01  0.46142317827E+02  0.10000000602E+02 0.  0.
         12    1    1    2    0    0  0.42197593152E+02  0.15314620903E+02 -0.37334971775E+01  0.45045682173E+02  0.00000000000E+00 0. -1.
         11    1    3    3    0    0 -0.25766262446E+02 -0.10553511398E+02 -0.15172207301E+01  0.27885100722E+02  0.51100000000E-03 0. -1.
        -11    1    3    3    0    0 -0.34014743079E+01  0.28741950416E+00  0.18202243735E+01  0.38685726657E+01  0.51100000000E-03 0.  1.
         12    1    3    3    0    0 -0.13029856398E+02 -0.50485290097E+01  0.34304935341E+01  0.14388644439E+02  0.00000000000E+00 0. -1.
</event>
<event>
 7    1  0.2472338E-008  0.4614232E+02  0.7816164E-02  0.1320468E+00
        -11   -1    0    0    0    0  0.00000000000E+00  0.00000000000E+00  0.45593999997E+02  0.45594000000E+02  0.51100000000E-03 0.  1.
         11   -1    0    0    0    0 -0.00000000000E+00 -0.00000000000E+00 -0.45593999997E+02  0.45594000000E+02  0.51100000000E-03 0. -1.
    9900012    2    1    2    0    0 -0.39687421710E+02 -0.14963053784E+02  0.15170006298E+02  0.46142317503E+02  0.99999976507E+01 0.  0.
         12    1    1    2    0    0  0.39687421710E+02  0.14963053784E+02 -0.15170006298E+02  0.45045682497E+02  0.00000000000E+00 0. -1.
         11    1    3    3    0    0 -0.54962311192E+01 -0.67333459241E+00  0.37130494951E+01  0.66669837860E+01  0.51100000000E-03 0. -1.
        -11    1    3    3    0    0 -0.54422930209E+01 -0.35720696805E+01  0.47779161638E+01  0.80750676937E+01  0.51100000000E-03 0.  1.
         12    1    3    3    0    0 -0.28748897570E+02 -0.10717649511E+02  0.66790406388E+01  0.31400266024E+02  0.00000000000E+00 0. -1.
</event>
<event>
 7    1  0.2472338E-008  0.4614232E+02  0.7816164E-02  0.1320468E+00
        -11   -1    0    0    0    0  0.00000000000E+00  0.00000000000E+00  0.45593999997E+02  0.45594000000E+02  0.51100000000E-03 0. -1.
         11   -1    0    0    0    0 -0.00000000000E+00 -0.00000000000E+00 -0.45593999997E+02  0.45594000000E+02  0.51100000000E-03 0.  1.
    9900012    2    1    2    0    0 -0.37074157251E+02  0.14384298436E+02 -0.21159212717E+02  0.46142318074E+02  0.10000002850E+02 0.  0.
         12    1    1    2    0    0  0.37074157251E+02 -0.14384298436E+02  0.21159212717E+02  0.45045681926E+02  0.00000000000E+00 0. -1.
         11    1    3    3    0    0 -0.46093171173E+01  0.45063821163E+01 -0.17793514428E+01  0.66872547345E+01  0.51100000000E-03 0. -1.
        -11    1    3    3    0    0 -0.34968368421E+01  0.18952607022E+01 -0.60293553488E+00  0.40228612392E+01  0.51100000000E-03 0.  1.
        -12    1    3    3    0    0 -0.28968003292E+02  0.79826556180E+01 -0.18776925740E+02  0.35432202100E+02  0.00000000000E+00 0.  1.
</event>
<event>
 7    1  0.2472338E-008  0.4614232E+02  0.7816164E-02  0.1320468E+00
        -11   -1    0    0    0    0  0.00000000000E+00  0.00000000000E+00  0.45593999997E+02  0.45594000000E+02  0.51100000000E-03 0.  1.
         11   -1    0    0    0    0 -0.00000000000E+00 -0.00000000000E+00 -0.45593999997E+02  0.45594000000E+02  0.51100000000E-03 0. -1.
    9900012    2    1    2    0    0 -0.23095166527E+02  0.38669903859E+02 -0.60406528207E+00  0.46142322336E+02  0.10000041716E+02 0.  0.
         12    1    1    2    0    0  0.23095166527E+02 -0.38669903859E+02  0.60406528207E+00  0.45045677664E+02  0.00000000000E+00 0. -1.
         11    1    3    3    0    0 -0.15386294455E+02  0.29266440058E+02 -0.36779050117E+01  0.33268446856E+02  0.51100000000E-03 0. -1.
        -11    1    3    3    0    0 -0.64173737757E+01  0.73702801596E+01  0.12492317911E+01  0.98521214028E+01  0.51100000000E-03 0.  1.
         12    1    3    3    0    0 -0.12914982963E+01  0.20331836416E+01  0.18246079386E+01  0.30217540766E+01  0.00000000000E+00 0. -1.
</event>
<event>
 7    1  0.2472338E-008  0.4614232E+02  0.7816164E-02  0.1320468E+00
        -11   -1    0    0    0    0  0.00000000000E+00  0.00000000000E+00  0.45593999997E+02  0.45594000000E+02  0.51100000000E-03 0. -1.
         11   -1    0    0    0    0 -0.00000000000E+00 -0.00000000000E+00 -0.45593999997E+02  0.45594000000E+02  0.51100000000E-03 0.  1.
    9900012    2    1    2    0    0  0.40648770422E+02  0.18074583997E+02  0.70781585109E+01  0.46142318171E+02  0.10000003738E+02 0.  0.
         12    1    1    2    0    0 -0.40648770422E+02 -0.18074583997E+02 -0.70781585109E+01  0.45045681829E+02  0.00000000000E+00 0. -1.
         11    1    3    3    0    0  0.35856245972E+01  0.44739205323E+00  0.25312693500E+01  0.44118236802E+01  0.51100000000E-03 0. -1.
        -11    1    3    3    0    0  0.14673466751E+02  0.70858183212E+01 -0.11528839098E+01  0.16335500890E+02  0.51100000000E-03 0.  1.
        -12    1    3    3    0    0  0.22389679075E+02  0.10541373623E+02  0.56997730707E+01  0.25394993601E+02  0.00000000000E+00 0.  1.
</event>
<event>
 7    1  0.2472338E-008  0.4614232E+02  0.7816164E-02  0.1320468E+00
        -11   -1    0    0    0    0  0.00000000000E+00  0.00000000000E+00  0.45593999997E+02  0.45594000000E+02  0.51100000000E-03 0. -1.
         11   -1    0    0    0    0 -0.00000000000E+00 -0.00000000000E+00 -0.45593999997E+02  0.45594000000E+02  0.51100000000E-03 0.  1.
    9900012    2    1    2    0    0 -0.40675204179E+02 -0.10545707359E+02 -0.16230503292E+02  0.46142318566E+02  0.10000007343E+02 0.  0.
         12    1    1    2    0    0  0.40675204179E+02  0.10545707359E+02  0.16230503292E+02  0.45045681434E+02  0.00000000000E+00 0. -1.
         11    1    3    3    0    0 -0.97529610034E+01 -0.22238513563E+01 -0.18390485317E+01  0.10170932256E+02  0.51100000000E-03 0. -1.
        -11    1    3    3    0    0 -0.10402604344E+02 -0.66756094290E+01 -0.47778261993E+01  0.13251624875E+02  0.51100000000E-03 0.  1.
        -12    1    3    3    0    0 -0.20519638832E+02 -0.16462465733E+01 -0.96136285612E+01  0.22719761435E+02  0.00000000000E+00 0.  1.
</event>
<event>
 7    1  0.2472338E-008  0.4614232E+02  0.7816164E-02  0.1320468E+00
        -11   -1    0    0    0    0  0.00000000000E+00  0.00000000000E+00  0.45593999997E+02  0.45594000000E+02  0.51100000000E-03 0.  1.
         11   -1    0    0    0    0 -0.00000000000E+00 -0.00000000000E+00 -0.45593999997E+02  0.45594000000E+02  0.51100000000E-03 0. -1.
    9900012    2    1    2    0    0 -0.39416403188E+02 -0.16547850731E+02  0.14199619814E+02  0.46142318665E+02  0.10000008242E+02 0.  0.
         12    1    1    2    0    0  0.39416403188E+02  0.16547850731E+02 -0.14199619814E+02  0.45045681335E+02  0.00000000000E+00 0. -1.
         11    1    3    3    0    0 -0.72114291729E+01 -0.16168186359E+01  0.46853151423E+01  0.87504852129E+01  0.51100000000E-03 0. -1.
        -11    1    3    3    0    0 -0.87955106676E+01 -0.74637605975E+01  0.39973944530E+01  0.12208517225E+02  0.51100000000E-03 0.  1.
        -12    1    3    3    0    0 -0.23409463348E+02 -0.74672714971E+01  0.55169102185E+01  0.25183316227E+02  0.00000000000E+00 0.  1.
</event>
<event>
 7    1  0.2472338E-008  0.4614232E+02  0.7816164E-02  0.1320468E+00
        -11   -1    0    0    0    0  0.00000000000E+00  0.00000000000E+00  0.45593999997E+02  0.45594000000E+02  0.51100000000E-03 0.  1.
         11   -1    0    0    0    0 -0.00000000000E+00 -0.00000000000E+00 -0.45593999997E+02  0.45594000000E+02  0.51100000000E-03 0. -1.
    9900012    2    1    2    0    0 -0.61462767763E+01  0.16944998550E+02  0.41282003267E+02  0.46142317767E+02  0.10000000056E+02 0.  0.
         12    1    1    2    0    0  0.61462767763E+01 -0.16944998550E+02 -0.41282003267E+02  0.45045682233E+02  0.00000000000E+00 0. -1.
         11    1    3    3    0    0 -0.56032788028E+01  0.99518748351E+01  0.16391718714E+02  0.19978112742E+02  0.51100000000E-03 0. -1.
        -11    1    3    3    0    0  0.72863561972E+00 -0.43424583262E-01  0.44458899508E+01  0.45054115546E+01  0.51100000000E-03 0.  1.
        -12    1    3    3    0    0 -0.12716335932E+01  0.70365482981E+01  0.20444394603E+02  0.21658793471E+02  0.00000000000E+00 0.  1.
</event>
<event>
 7    1  0.2472338E-008  0.4614232E+02  0.7816164E-02  0.1320468E+00
        -11   -1    0    0    0    0  0.00000000000E+00  0.00000000000E+00  0.45593999997E+02  0.45594000000E+02  0.51100000000E-03 0.  1.
         11   -1    0    0    0    0 -0.00000000000E+00 -0.00000000000E+00 -0.45593999997E+02  0.45594000000E+02  0.51100000000E-03 0. -1.
    9900012    2    1    2    0    0 -0.42566539260E+02  0.41955269139E+01  0.14128008605E+02  0.46142319432E+02  0.10000015239E+02 0.  0.
         12    1    1    2    0    0  0.42566539260E+02 -0.41955269139E+01 -0.14128008605E+02  0.45045680568E+02  0.00000000000E+00 0. -1.
         11    1    3    3    0    0 -0.60381099946E+00 -0.37781101755E+00 -0.55190397278E+00  0.90106999969E+00  0.51100000000E-03 0. -1.
        -11    1    3    3    0    0 -0.14956251024E+02  0.40927178142E+01  0.29067459457E+01  0.15776214883E+02  0.51100000000E-03 0.  1.
         12    1    3    3    0    0 -0.27006477237E+02  0.48062011721E+00  0.11773166632E+02  0.29465034549E+02  0.00000000000E+00 0. -1.
</event>
<event>
 7    1  0.2472338E-008  0.4614232E+02  0.7816164E-02  0.1320468E+00
        -11   -1    0    0    0    0  0.00000000000E+00  0.00000000000E+00  0.45593999997E+02  0.45594000000E+02  0.51100000000E-03 0.  1.
         11   -1    0    0    0    0 -0.00000000000E+00 -0.00000000000E+00 -0.45593999997E+02  0.45594000000E+02  0.51100000000E-03 0. -1.
    9900012    2    1    2    0    0  0.58008862685E+01 -0.32897019261E+02  0.30220014623E+02  0.46142318281E+02  0.10000004737E+02 0.  0.
         12    1    1    2    0    0 -0.58008862685E+01  0.32897019261E+02 -0.30220014623E+02  0.45045681719E+02  0.00000000000E+00 0. -1.
         11    1    3    3    0    0  0.47519076312E+01 -0.88569532995E+01  0.75082193666E+01  0.12545899976E+02  0.51100000000E-03 0. -1.
        -11    1    3    3    0    0  0.28168273520E+01 -0.69501859234E+01  0.81415070232E+01  0.11069044113E+02  0.51100000000E-03 0.  1.
         12    1    3    3    0    0 -0.17678487147E+01 -0.17089880038E+02  0.14570288234E+02  0.22527374192E+02  0.00000000000E+00 0. -1.
</event>
<event>
 7    1  0.2472338E-008  0.4614232E+02  0.7816164E-02  0.1320468E+00
        -11   -1    0    0    0    0  0.00000000000E+00  0.00000000000E+00  0.45593999997E+02  0.45594000000E+02  0.51100000000E-03 0. -1.
         11   -1    0    0    0    0 -0.00000000000E+00 -0.00000000000E+00 -0.45593999997E+02  0.45594000000E+02  0.51100000000E-03 0.  1.
    9900012    2    1    2    0    0 -0.83442912204E+01 -0.97134216719E+01 -0.43187217426E+02  0.46142317571E+02  0.99999982653E+01 0.  0.
         12    1    1    2    0    0  0.83442912204E+01  0.97134216719E+01  0.43187217426E+02  0.45045682429E+02  0.00000000000E+00 0. -1.
         11    1    3    3    0    0 -0.13663373242E+01 -0.29362329798E+01 -0.15641828011E+02  0.15973575854E+02  0.51100000000E-03 0. -1.
        -11    1    3    3    0    0 -0.79601124529E+01 -0.51800079712E+01 -0.26179695238E+02  0.27849099013E+02  0.51100000000E-03 0.  1.
        -12    1    3    3    0    0  0.98215855671E+00 -0.15971807210E+01 -0.13656941770E+01  0.23196427033E+01  0.00000000000E+00 0.  1.
</event>
<event>
 7    1  0.2472338E-008  0.4614232E+02  0.7816164E-02  0.1320468E+00
        -11   -1    0    0    0    0  0.00000000000E+00  0.00000000000E+00  0.45593999997E+02  0.45594000000E+02  0.51100000000E-03 0.  1.
         11   -1    0    0    0    0 -0.00000000000E+00 -0.00000000000E+00 -0.45593999997E+02  0.45594000000E+02  0.51100000000E-03 0. -1.
    9900012    2    1    2    0    0  0.34728274982E+02 -0.34875080813E+01  0.28476265457E+02  0.46142317740E+02  0.99999998099E+01 0.  0.
         12    1    1    2    0    0 -0.34728274982E+02  0.34875080813E+01 -0.28476265457E+02  0.45045682260E+02  0.00000000000E+00 0. -1.
         11    1    3    3    0    0  0.10122233365E+02 -0.17647190583E+01  0.13209779601E+02  0.16735355360E+02  0.51100000000E-03 0. -1.
        -11    1    3    3    0    0  0.17320769623E+02 -0.66537638468E+00  0.13119235679E+02  0.21738586227E+02  0.51100000000E-03 0.  1.
        -12    1    3    3    0    0  0.72852719941E+01 -0.10574126383E+01  0.21472501773E+01  0.76683761540E+01  0.00000000000E+00 0.  1.
</event>
<event>
 7    1  0.2472338E-008  0.4614232E+02  0.7816164E-02  0.1320468E+00
        -11   -1    0    0    0    0  0.00000000000E+00  0.00000000000E+00  0.45593999997E+02  0.45594000000E+02  0.51100000000E-03 0.  1.
         11   -1    0    0    0    0 -0.00000000000E+00 -0.00000000000E+00 -0.45593999997E+02  0.45594000000E+02  0.51100000000E-03 0. -1.
    9900012    2    1    2    0    0 -0.13052734090E+02  0.52108088323E+01  0.42797044945E+02  0.46142318166E+02  0.10000003690E+02 0.  0.
         12    1    1    2    0    0  0.13052734090E+02 -0.52108088323E+01 -0.42797044945E+02  0.45045681834E+02  0.00000000000E+00 0. -1.
         11    1    3    3    0    0 -0.27092562108E+01  0.17878911578E+00  0.28987600652E+01  0.39717559014E+01  0.51100000000E-03 0. -1.
        -11    1    3    3    0    0 -0.83980043464E+01  0.16397427691E+01  0.18054461821E+02  0.19979460085E+02  0.51100000000E-03 0.  1.
         12    1    3    3    0    0 -0.19454735323E+01  0.33922769474E+01  0.21843823058E+02  0.22191102180E+02  0.00000000000E+00 0. -1.
</event>
<event>
 7    1  0.2472338E-008  0.4614232E+02  0.7816164E-02  0.1320468E+00
        -11   -1    0    0    0    0  0.00000000000E+00  0.00000000000E+00  0.45593999997E+02  0.45594000000E+02  0.51100000000E-03 0. -1.
         11   -1    0    0    0    0 -0.00000000000E+00 -0.00000000000E+00 -0.45593999997E+02  0.45594000000E+02  0.51100000000E-03 0.  1.
    9900012    2    1    2    0    0  0.15404254806E+02 -0.28595905351E+02 -0.31210520378E+02  0.46142318173E+02  0.10000003757E+02 0.  0.
         12    1    1    2    0    0 -0.15404254806E+02  0.28595905351E+02  0.31210520378E+02  0.45045681827E+02  0.00000000000E+00 0. -1.
         11    1    3    3    0    0  0.14949056897E+02 -0.22053756801E+02 -0.20648654244E+02  0.33707705551E+02  0.51100000000E-03 0. -1.
        -11    1    3    3    0    0  0.19567795459E+00 -0.23215395213E+01 -0.39658038015E+01  0.45995038498E+01  0.51100000000E-03 0.  1.
         12    1    3    3    0    0  0.25951995381E+00 -0.42206090286E+01 -0.65960623324E+01  0.78351087722E+01  0.00000000000E+00 0. -1.
</event>
<event>
 7    1  0.2472338E-008  0.4614232E+02  0.7816164E-02  0.1320468E+00
        -11   -1    0    0    0    0  0.00000000000E+00  0.00000000000E+00  0.45593999997E+02  0.45594000000E+02  0.51100000000E-03 0.  1.
         11   -1    0    0    0    0 -0.00000000000E+00 -0.00000000000E+00 -0.45593999997E+02  0.45594000000E+02  0.51100000000E-03 0. -1.
    9900012    2    1    2    0    0  0.33283546984E+02  0.45528093562E+01  0.30009846662E+02  0.46142317970E+02  0.10000001907E+02 0.  0.
         12    1    1    2    0    0 -0.33283546984E+02 -0.45528093562E+01 -0.30009846662E+02  0.45045682030E+02  0.00000000000E+00 0. -1.
         11    1    3    3    0    0  0.94878364671E+01  0.39179839558E+01  0.51416314766E+01  0.11480680015E+02  0.51100000000E-03 0. -1.
        -11    1    3    3    0    0  0.10381000848E+02  0.12861126949E+01  0.13411475110E+02  0.17008437006E+02  0.51100000000E-03 0.  1.
        -12    1    3    3    0    0  0.13414709668E+02 -0.65128729454E+00  0.11456740075E+02  0.17653200950E+02  0.00000000000E+00 0.  1.
</event>
<event>
 7    1  0.2512798E-008  0.4614233E+02  0.7816164E-02  0.1320468E+00
        -11   -1    0    0    0    0  0.00000000000E+00  0.00000000000E+00  0.45593999997E+02  0.45594000000E+02  0.51100000000E-03 0. -1.
         11   -1    0    0    0    0 -0.00000000000E+00 -0.00000000000E+00 -0.45593999997E+02  0.45594000000E+02  0.51100000000E-03 0.  1.
    9900012    2    1    2    0    0 -0.13070699551E+01  0.19253180498E+02 -0.40702810633E+02  0.46142332232E+02  0.10000131960E+02 0.  0.
         12    1    1    2    0    0  0.13070699551E+01 -0.19253180498E+02  0.40702810633E+02  0.45045667768E+02  0.00000000000E+00 0. -1.
         11    1    3    3    0    0 -0.11518939255E+01  0.76370235045E+00 -0.71555613067E+00  0.15563167200E+01  0.51100000000E-03 0. -1.
        -11    1    3    3    0    0 -0.95240917737E+00 -0.30822723282E-01 -0.83490623273E+00  0.12669261857E+01  0.51100000000E-03 0.  1.
        -12    1    3    3    0    0  0.79723314772E+00  0.18520300871E+02 -0.39152348270E+02  0.43319089327E+02  0.00000000000E+00 0.  1.
</event>
<event>
 7    1  0.2472338E-008  0.4614232E+02  0.7816164E-02  0.1320468E+00
        -11   -1    0    0    0    0  0.00000000000E+00  0.00000000000E+00  0.45593999997E+02  0.45594000000E+02  0.51100000000E-03 0.  1.
         11   -1    0    0    0    0 -0.00000000000E+00 -0.00000000000E+00 -0.45593999997E+02  0.45594000000E+02  0.51100000000E-03 0. -1.
    9900012    2    1    2    0    0  0.16742610735E+02  0.32033843547E+02 -0.26881805162E+02  0.46142316573E+02  0.99999891683E+01 0.  0.
         12    1    1    2    0    0 -0.16742610735E+02 -0.32033843547E+02  0.26881805162E+02  0.45045683427E+02  0.00000000000E+00 0. -1.
         11    1    3    3    0    0  0.49370934524E+01  0.84597525262E+01 -0.93309539387E+01  0.13528082134E+02  0.51100000000E-03 0. -1.
        -11    1    3    3    0    0  0.10267467558E+02  0.19545604637E+02 -0.17703282309E+02  0.28299430303E+02  0.51100000000E-03 0.  1.
         12    1    3    3    0    0  0.15380497240E+01  0.40284863839E+01  0.15243108570E+00  0.43148041363E+01  0.00000000000E+00 0. -1.
</event>
<event>
 7    1  0.2472338E-008  0.4614231E+02  0.7816164E-02  0.1320468E+00
        -11   -1    0    0    0    0  0.00000000000E+00  0.00000000000E+00  0.45593999997E+02  0.45594000000E+02  0.51100000000E-03 0.  1.
         11   -1    0    0    0    0 -0.00000000000E+00 -0.00000000000E+00 -0.45593999997E+02  0.45594000000E+02  0.51100000000E-03 0. -1.
    9900012    2    1    2    0    0 -0.31663254535E+02 -0.10889636216E+02  0.30132518472E+02  0.46142306154E+02  0.99998941526E+01 0.  0.
         12    1    1    2    0    0  0.31663254535E+02  0.10889636216E+02 -0.30132518472E+02  0.45045693846E+02  0.00000000000E+00 0. -1.
         11    1    3    3    0    0 -0.60047483485E+01 -0.54553553310E+01  0.57214175156E+01  0.99273623468E+01  0.51100000000E-03 0.  1.
        -11    1    3    3    0    0 -0.99872984899E+01  0.34193162998E+00  0.10285584051E+02  0.14340721317E+02  0.51100000000E-03 0. -1.
        -12    1    3    3    0    0 -0.15671207696E+02 -0.57762125146E+01  0.14125516905E+02  0.21874222489E+02  0.00000000000E+00 0.  1.
</event>
<event>
 7    1  0.2472338E-008  0.4614232E+02  0.7816164E-02  0.1320468E+00
        -11   -1    0    0    0    0  0.00000000000E+00  0.00000000000E+00  0.45593999997E+02  0.45594000000E+02  0.51100000000E-03 0.  1.
         11   -1    0    0    0    0 -0.00000000000E+00 -0.00000000000E+00 -0.45593999997E+02  0.45594000000E+02  0.51100000000E-03 0. -1.
    9900012    2    1    2    0    0 -0.37120596902E+02  0.22011707353E+02  0.12909666300E+02  0.46142318088E+02  0.10000002978E+02 0.  0.
         12    1    1    2    0    0  0.37120596902E+02 -0.22011707353E+02 -0.12909666300E+02  0.45045681912E+02  0.00000000000E+00 0. -1.
         11    1    3    3    0    0 -0.12414638309E+02  0.39672468294E+01  0.49663845846E+01  0.13947303247E+02  0.51100000000E-03 0. -1.
        -11    1    3    3    0    0 -0.11768340007E+02  0.48882096375E+01  0.35215058840E+01  0.13220795132E+02  0.51100000000E-03 0.  1.
         12    1    3    3    0    0 -0.12937618587E+02  0.13156250886E+02  0.44217758316E+01  0.18974219709E+02  0.00000000000E+00 0. -1.
</event>
<event>
 7    1  0.2472338E-008  0.4614232E+02  0.7816164E-02  0.1320468E+00
        -11   -1    0    0    0    0  0.00000000000E+00  0.00000000000E+00  0.45593999997E+02  0.45594000000E+02  0.51100000000E-03 0. -1.
         11   -1    0    0    0    0 -0.00000000000E+00 -0.00000000000E+00 -0.45593999997E+02  0.45594000000E+02  0.51100000000E-03 0.  1.
    9900012    2    1    2    0    0 -0.38265932755E+02 -0.23515240456E+02 -0.34446098104E+01  0.46142317854E+02  0.10000000845E+02 0.  0.
         12    1    1    2    0    0  0.38265932755E+02  0.23515240456E+02  0.34446098104E+01  0.45045682146E+02  0.00000000000E+00 0. -1.
         11    1    3    3    0    0 -0.38248893167E+01 -0.34406199485E+01  0.39053142766E+00  0.51594727417E+01  0.51100000000E-03 0. -1.
        -11    1    3    3    0    0 -0.29524220376E+02 -0.13858350993E+02 -0.49174763118E+01  0.32983557337E+02  0.51100000000E-03 0.  1.
         12    1    3    3    0    0 -0.49168230617E+01 -0.62162695144E+01  0.10823350738E+01  0.79992877750E+01  0.00000000000E+00 0. -1.
</event>
<event>
 7    1  0.2472338E-008  0.4614232E+02  0.7816164E-02  0.1320468E+00
        -11   -1    0    0    0    0  0.00000000000E+00  0.00000000000E+00  0.45593999997E+02  0.45594000000E+02  0.51100000000E-03 0. -1.
         11   -1    0    0    0    0 -0.00000000000E+00 -0.00000000000E+00 -0.45593999997E+02  0.45594000000E+02  0.51100000000E-03 0.  1.
    9900012    2    1    2    0    0 -0.24861915033E+02 -0.37379612909E+02  0.37098978614E+01  0.46142316273E+02  0.99999864298E+01 0.  0.
         12    1    1    2    0    0  0.24861915033E+02  0.37379612909E+02 -0.37098978614E+01  0.45045683727E+02  0.00000000000E+00 0. -1.
         11    1    3    3    0    0 -0.70024128346E+00 -0.37248465992E+01  0.20594471299E+01  0.43134838338E+01  0.51100000000E-03 0. -1.
        -11    1    3    3    0    0 -0.19343456557E+02 -0.28173643413E+02  0.33408777800E+01  0.34337806560E+02  0.51100000000E-03 0.  1.
        -12    1    3    3    0    0 -0.48182171924E+01 -0.54811228964E+01 -0.16904270486E+01  0.74910258793E+01  0.00000000000E+00 0.  1.
</event>
<event>
 7    1  0.2472338E-008  0.4614232E+02  0.7816164E-02  0.1320468E+00
        -11   -1    0    0    0    0  0.00000000000E+00  0.00000000000E+00  0.45593999997E+02  0.45594000000E+02  0.51100000000E-03 0.  1.
         11   -1    0    0    0    0 -0.00000000000E+00 -0.00000000000E+00 -0.45593999997E+02  0.45594000000E+02  0.51100000000E-03 0. -1.
    9900012    2    1    2    0    0 -0.17653860369E+02 -0.22144503715E+02  0.35029639295E+02  0.46142318078E+02  0.10000002886E+02 0.  0.
         12    1    1    2    0    0  0.17653860369E+02  0.22144503715E+02 -0.35029639295E+02  0.45045681922E+02  0.00000000000E+00 0. -1.
         11    1    3    3    0    0 -0.10394416772E+01 -0.39849597411E+01  0.20714974435E+01  0.46099289645E+01  0.51100000000E-03 0. -1.
        -11    1    3    3    0    0 -0.12495137163E+02 -0.95677927053E+01  0.20991887939E+02  0.26236052857E+02  0.51100000000E-03 0.  1.
         12    1    3    3    0    0 -0.41192815288E+01 -0.85917512690E+01  0.11966253912E+02  0.15296336256E+02  0.00000000000E+00 0. -1.
</event>
<event>
 7    1  0.2472338E-008  0.4614232E+02  0.7816164E-02  0.1320468E+00
        -11   -1    0    0    0    0  0.00000000000E+00  0.00000000000E+00  0.45593999997E+02  0.45594000000E+02  0.51100000000E-03 0. -1.
         11   -1    0    0    0    0 -0.00000000000E+00 -0.00000000000E+00 -0.45593999997E+02  0.45594000000E+02  0.51100000000E-03 0.  1.
    9900012    2    1    2    0    0 -0.42870777742E+02 -0.13825709883E+02  0.24414377933E+00  0.46142318252E+02  0.10000004476E+02 0.  0.
         12    1    1    2    0    0  0.42870777742E+02  0.13825709883E+02 -0.24414377933E+00  0.45045681748E+02  0.00000000000E+00 0. -1.
         11    1    3    3    0    0 -0.87638635574E+01 -0.45035166118E+01  0.28306962496E+00  0.98573371150E+01  0.51100000000E-03 0. -1.
        -11    1    3    3    0    0 -0.25102102155E+02 -0.72854595024E+01 -0.36100632636E+01  0.26386095008E+02  0.51100000000E-03 0.  1.
         12    1    3    3    0    0 -0.90048120299E+01 -0.20367337688E+01  0.35711374179E+01  0.98988861291E+01  0.00000000000E+00 0. -1.
</event>
<event>
 7    1  0.2472338E-008  0.4614232E+02  0.7816164E-02  0.1320468E+00
        -11   -1    0    0    0    0  0.00000000000E+00  0.00000000000E+00  0.45593999997E+02  0.45594000000E+02  0.51100000000E-03 0. -1.
         11   -1    0    0    0    0 -0.00000000000E+00 -0.00000000000E+00 -0.45593999997E+02  0.45594000000E+02  0.51100000000E-03 0.  1.
    9900012    2    1    2    0    0  0.21114653782E+01  0.44816606763E+02  0.40158282006E+01  0.46142318698E+02  0.10000008546E+02 0.  0.
         12    1    1    2    0    0 -0.21114653782E+01 -0.44816606763E+02 -0.40158282006E+01  0.45045681302E+02  0.00000000000E+00 0. -1.
         11    1    3    3    0    0  0.75086768633E+00  0.33575404063E+02 -0.44045286242E+00  0.33586687233E+02  0.51100000000E-03 0. -1.
        -11    1    3    3    0    0  0.18802129304E+00  0.88987147906E+01  0.23810999756E+01  0.92136916752E+01  0.51100000000E-03 0.  1.
         12    1    3    3    0    0  0.11725763989E+01  0.23424879095E+01  0.20751810874E+01  0.33419397904E+01  0.00000000000E+00 0. -1.
</event>
<event>
 7    1  0.2472338E-008  0.4614232E+02  0.7816164E-02  0.1320468E+00
        -11   -1    0    0    0    0  0.00000000000E+00  0.00000000000E+00  0.45593999997E+02  0.45594000000E+02  0.51100000000E-03 0.  1.
         11   -1    0    0    0    0 -0.00000000000E+00 -0.00000000000E+00 -0.45593999997E+02  0.45594000000E+02  0.51100000000E-03 0. -1.
    9900012    2    1    2    0    0  0.33931417012E+02 -0.29243522274E+02  0.47527783886E+01  0.46142316990E+02  0.99999929666E+01 0.  0.
         12    1    1    2    0    0 -0.33931417012E+02  0.29243522274E+02 -0.47527783886E+01  0.45045683010E+02  0.00000000000E+00 0. -1.
         11    1    3    3    0    0  0.12347815768E+01 -0.21641401901E+01  0.12423575805E+01  0.27841768844E+01  0.51100000000E-03 0. -1.
        -11    1    3    3    0    0  0.99652541184E+01 -0.13349481440E+02  0.12148092530E+01  0.16703014882E+02  0.51100000000E-03 0.  1.
        -12    1    3    3    0    0  0.22731381317E+02 -0.13729900644E+02  0.22956115550E+01  0.26655125223E+02  0.00000000000E+00 0.  1.
</event>
<event>
 7    1  0.2472338E-008  0.4614232E+02  0.7816164E-02  0.1320468E+00
        -11   -1    0    0    0    0  0.00000000000E+00  0.00000000000E+00  0.45593999997E+02  0.45594000000E+02  0.51100000000E-03 0. -1.
         11   -1    0    0    0    0 -0.00000000000E+00 -0.00000000000E+00 -0.45593999997E+02  0.45594000000E+02  0.51100000000E-03 0.  1.
    9900012    2    1    2    0    0 -0.35914214939E+01  0.21134464011E+02 -0.39617540940E+02  0.46142318437E+02  0.10000006159E+02 0.  0.
         12    1    1    2    0    0  0.35914214939E+01 -0.21134464011E+02  0.39617540940E+02  0.45045681563E+02  0.00000000000E+00 0. -1.
         11    1    3    3    0    0  0.52666482318E-01 -0.49282704935E+00 -0.75768561662E+00  0.90539494900E+00  0.51100000000E-03 0. -1.
        -11    1    3    3    0    0 -0.10893565131E+01  0.19504994710E+02 -0.35453458477E+02  0.40479368010E+02  0.51100000000E-03 0.  1.
        -12    1    3    3    0    0 -0.25547314631E+01  0.21222963503E+01 -0.34063968468E+01  0.47575554779E+01  0.00000000000E+00 0.  1.
</event>
<event>
 7    1  0.2472338E-008  0.4614232E+02  0.7816164E-02  0.1320468E+00
        -11   -1    0    0    0    0  0.00000000000E+00  0.00000000000E+00  0.45593999997E+02  0.45594000000E+02  0.51100000000E-03 0.  1.
         11   -1    0    0    0    0 -0.00000000000E+00 -0.00000000000E+00 -0.45593999997E+02  0.45594000000E+02  0.51100000000E-03 0. -1.
    9900012    2    1    2    0    0  0.16828791360E+02 -0.41491647834E+02  0.49344050319E+01  0.46142318613E+02  0.10000007769E+02 0.  0.
         12    1    1    2    0    0 -0.16828791360E+02  0.41491647834E+02 -0.49344050319E+01  0.45045681387E+02  0.00000000000E+00 0. -1.
         11    1    3    3    0    0  0.14312866718E+01 -0.71406814932E+01  0.25485832875E+01  0.77157754476E+01  0.51100000000E-03 0. -1.
        -11    1    3    3    0    0  0.59049210618E+01 -0.20175314874E+02 -0.94958861146E+00  0.21043125761E+02  0.51100000000E-03 0.  1.
        -12    1    3    3    0    0  0.94925836264E+01 -0.14175651466E+02  0.33354103559E+01  0.17383417404E+02  0.00000000000E+00 0.  1.
</event>
<event>
 7    1  0.2472338E-008  0.4614232E+02  0.7816164E-02  0.1320468E+00
        -11   -1    0    0    0    0  0.00000000000E+00  0.00000000000E+00  0.45593999997E+02  0.45594000000E+02  0.51100000000E-03 0.  1.
         11   -1    0    0    0    0 -0.00000000000E+00 -0.00000000000E+00 -0.45593999997E+02  0.45594000000E+02  0.51100000000E-03 0. -1.
    9900012    2    1    2    0    0  0.23591008653E+02 -0.35026287761E+02  0.15675998111E+02  0.46142318294E+02  0.10000004863E+02 0.  0.
         12    1    1    2    0    0 -0.23591008653E+02  0.35026287761E+02 -0.15675998111E+02  0.45045681706E+02  0.00000000000E+00 0. -1.
         11    1    3    3    0    0  0.48088508848E+01 -0.12147031784E+02  0.75501444191E+01  0.15089072503E+02  0.51100000000E-03 0. -1.
        -11    1    3    3    0    0  0.72110015423E+01 -0.11124531268E+02  0.54925080764E+01  0.14349961129E+02  0.51100000000E-03 0.  1.
         12    1    3    3    0    0  0.11571156226E+02 -0.11754724709E+02  0.26333456149E+01  0.16703284662E+02  0.00000000000E+00 0. -1.
</event>
<event>
 7    1  0.2472338E-008  0.4614232E+02  0.7816164E-02  0.1320468E+00
        -11   -1    0    0    0    0  0.00000000000E+00  0.00000000000E+00  0.45593999997E+02  0.45594000000E+02  0.51100000000E-03 0. -1.
         11   -1    0    0    0    0 -0.00000000000E+00 -0.00000000000E+00 -0.45593999997E+02  0.45594000000E+02  0.51100000000E-03 0.  1.
    9900012    2    1    2    0    0 -0.10049517587E+02  0.27856931922E+02  0.33942774579E+02  0.46142318676E+02  0.10000008344E+02 0.  0.
         12    1    1    2    0    0  0.10049517587E+02 -0.27856931922E+02 -0.33942774579E+02  0.45045681324E+02  0.00000000000E+00 0. -1.
         11    1    3    3    0    0 -0.27558655784E+01  0.97723049706E+01  0.13378081744E+02  0.16794815001E+02  0.51100000000E-03 0. -1.
        -11    1    3    3    0    0 -0.71339894040E+01  0.15803103189E+02  0.20764446659E+02  0.27051693487E+02  0.51100000000E-03 0.  1.
         12    1    3    3    0    0 -0.15966260447E+00  0.22815237627E+01 -0.19975382422E+00  0.22958101875E+01  0.00000000000E+00 0. -1.
</event>
<event>
 7    1  0.2472338E-008  0.4614232E+02  0.7816164E-02  0.1320468E+00
        -11   -1    0    0    0    0  0.00000000000E+00  0.00000000000E+00  0.45593999997E+02  0.45594000000E+02  0.51100000000E-03 0.  1.
         11   -1    0    0    0    0 -0.00000000000E+00 -0.00000000000E+00 -0.45593999997E+02  0.45594000000E+02  0.51100000000E-03 0. -1.
    9900012    2    1    2    0    0 -0.14899810425E+02 -0.16866545356E+02  0.39020876210E+02  0.46142317819E+02  0.10000000528E+02 0.  0.
         12    1    1    2    0    0  0.14899810425E+02  0.16866545356E+02 -0.39020876210E+02  0.45045682181E+02  0.00000000000E+00 0. -1.
         11    1    3    3    0    0  0.91446315327E+00 -0.13861426007E+01  0.95241841645E+00  0.19143498294E+01  0.51100000000E-03 0. -1.
        -11    1    3    3    0    0 -0.29510223356E-01 -0.57878790811E-01  0.16057020466E+01  0.16070159089E+01  0.51100000000E-03 0.  1.
         12    1    3    3    0    0 -0.15784763355E+02 -0.15422523964E+02  0.36462755747E+02  0.42620952081E+02  0.00000000000E+00 0. -1.
</event>
<event>
 7    1  0.2472338E-008  0.4614232E+02  0.7816164E-02  0.1320468E+00
        -11   -1    0    0    0    0  0.00000000000E+00  0.00000000000E+00  0.45593999997E+02  0.45594000000E+02  0.51100000000E-03 0. -1.
         11   -1    0    0    0    0 -0.00000000000E+00 -0.00000000000E+00 -0.45593999997E+02  0.45594000000E+02  0.51100000000E-03 0.  1.
    9900012    2    1    2    0    0 -0.34081015151E+02 -0.22166236021E+02 -0.19397316537E+02  0.46142317611E+02  0.99999986279E+01 0.  0.
         12    1    1    2    0    0  0.34081015151E+02  0.22166236021E+02  0.19397316537E+02  0.45045682389E+02  0.00000000000E+00 0. -1.
         11    1    3    3    0    0 -0.21208326340E+01  0.25275366865E+00 -0.32223069954E+01  0.38658864588E+01  0.51100000000E-03 0. -1.
        -11    1    3    3    0    0 -0.11707452043E+02 -0.75680488597E+01 -0.60976803025E+01  0.15215830645E+02  0.51100000000E-03 0.  1.
         12    1    3    3    0    0 -0.20252730474E+02 -0.14850940830E+02 -0.10077329239E+02  0.27060600507E+02  0.00000000000E+00 0. -1.
</event>
<event>
 7    1  0.2472338E-008  0.4614232E+02  0.7816164E-02  0.1320468E+00
        -11   -1    0    0    0    0  0.00000000000E+00  0.00000000000E+00  0.45593999997E+02  0.45594000000E+02  0.51100000000E-03 0.  1.
         11   -1    0    0    0    0 -0.00000000000E+00 -0.00000000000E+00 -0.45593999997E+02  0.45594000000E+02  0.51100000000E-03 0. -1.
    9900012    2    1    2    0    0 -0.87329763804E+01  0.22340082093E+02  0.38128326505E+02  0.46142318448E+02  0.10000006267E+02 0.  0.
         12    1    1    2    0    0  0.87329763804E+01 -0.22340082093E+02 -0.38128326505E+02  0.45045681552E+02  0.00000000000E+00 0. -1.
         11    1    3    3    0    0 -0.55413463861E+00 -0.72835315011E+00  0.24953440491E+01  0.26578761622E+01  0.51100000000E-03 0. -1.
        -11    1    3    3    0    0 -0.15159012890E+01  0.68889624627E+01  0.70635233691E+01  0.99824407425E+01  0.51100000000E-03 0.  1.
        -12    1    3    3    0    0 -0.66629404528E+01  0.16179472780E+02  0.28569459087E+02  0.33502001544E+02  0.00000000000E+00 0.  1.
</event>
<event>
 7    1  0.2472338E-008  0.4614232E+02  0.7816164E-02  0.1320468E+00
        -11   -1    0    0    0    0  0.00000000000E+00  0.00000000000E+00  0.45593999997E+02  0.45594000000E+02  0.51100000000E-03 0.  1.
         11   -1    0    0    0    0 -0.00000000000E+00 -0.00000000000E+00 -0.45593999997E+02  0.45594000000E+02  0.51100000000E-03 0. -1.
    9900012    2    1    2    0    0  0.66328464583E+01 -0.26543055685E+02  0.35785263209E+02  0.46142317408E+02  0.99999967769E+01 0.  0.
         12    1    1    2    0    0 -0.66328464583E+01  0.26543055685E+02 -0.35785263209E+02  0.45045682592E+02  0.00000000000E+00 0. -1.
         11    1    3    3    0    0  0.90278969951E+00 -0.19354949961E+01  0.15841670989E-02  0.21356902613E+01  0.51100000000E-03 0. -1.
        -11    1    3    3    0    0  0.44246545670E+01 -0.10874797120E+02  0.14734467512E+02  0.18839939319E+02  0.51100000000E-03 0.  1.
        -12    1    3    3    0    0  0.13054021917E+01 -0.13732763569E+02  0.21049211531E+02  0.25166687827E+02  0.00000000000E+00 0.  1.
</event>
<event>
 7    1  0.2472338E-008  0.4614232E+02  0.7816164E-02  0.1320468E+00
        -11   -1    0    0    0    0  0.00000000000E+00  0.00000000000E+00  0.45593999997E+02  0.45594000000E+02  0.51100000000E-03 0. -1.
         11   -1    0    0    0    0 -0.00000000000E+00 -0.00000000000E+00 -0.45593999997E+02  0.45594000000E+02  0.51100000000E-03 0.  1.
    9900012    2    1    2    0    0  0.57229841649E+00  0.44224678158E+02 -0.85418850977E+01  0.46142317802E+02  0.10000000377E+02 0.  0.
         12    1    1    2    0    0 -0.57229841649E+00 -0.44224678158E+02  0.85418850977E+01  0.45045682198E+02  0.00000000000E+00 0. -1.
         11    1    3    3    0    0  0.76055205130E+00  0.16529805589E+02 -0.36616116091E+01  0.16947575404E+02  0.51100000000E-03 0. -1.
        -11    1    3    3    0    0  0.24756174063E+01  0.23560274266E+02 -0.28015483790E+01  0.23855059812E+02  0.51100000000E-03 0.  1.
         12    1    3    3    0    0 -0.26638710411E+01  0.41345983023E+01 -0.20787251096E+01  0.53396825866E+01  0.00000000000E+00 0. -1.
</event>
<event>
 7    1  0.2472338E-008  0.4614232E+02  0.7816164E-02  0.1320468E+00
        -11   -1    0    0    0    0  0.00000000000E+00  0.00000000000E+00  0.45593999997E+02  0.45594000000E+02  0.51100000000E-03 0.  1.
         11   -1    0    0    0    0 -0.00000000000E+00 -0.00000000000E+00 -0.45593999997E+02  0.45594000000E+02  0.51100000000E-03 0. -1.
    9900012    2    1    2    0    0  0.30892952808E+02 -0.30522545606E+02 -0.11962992741E+02  0.46142317423E+02  0.99999969165E+01 0.  0.
         12    1    1    2    0    0 -0.30892952808E+02  0.30522545606E+02  0.11962992741E+02  0.45045682577E+02  0.00000000000E+00 0. -1.
         11    1    3    3    0    0  0.10330692157E+02 -0.92297725039E+01 -0.31037224757E+01  0.14196654338E+02  0.51100000000E-03 0. -1.
        -11    1    3    3    0    0  0.19096408267E+02 -0.15178081896E+02 -0.66944913723E+01  0.25295517266E+02  0.51100000000E-03 0.  1.
         12    1    3    3    0    0  0.14658523837E+01 -0.61146912064E+01 -0.21647788932E+01  0.66501458192E+01  0.00000000000E+00 0. -1.
</event>
<event>
 7    1  0.2472338E-008  0.4614232E+02  0.7816164E-02  0.1320468E+00
        -11   -1    0    0    0    0  0.00000000000E+00  0.00000000000E+00  0.45593999997E+02  0.45594000000E+02  0.51100000000E-03 0. -1.
         11   -1    0    0    0    0 -0.00000000000E+00 -0.00000000000E+00 -0.45593999997E+02  0.45594000000E+02  0.51100000000E-03 0.  1.
    9900012    2    1    2    0    0  0.32128838551E+02 -0.19147893207E+02 -0.25103972572E+02  0.46142317412E+02  0.99999968168E+01 0.  0.
         12    1    1    2    0    0 -0.32128838551E+02  0.19147893207E+02  0.25103972572E+02  0.45045682588E+02  0.00000000000E+00 0. -1.
         11    1    3    3    0    0  0.21245909616E+01  0.37890202937E+00 -0.25275676573E+00  0.21728644103E+01  0.51100000000E-03 0.  1.
        -11    1    3    3    0    0  0.68707305782E+01 -0.29629249404E+01 -0.77544024273E+01  0.10775742209E+02  0.51100000000E-03 0. -1.
        -12    1    3    3    0    0  0.23133517011E+02 -0.16563870296E+02 -0.17096813379E+02  0.33193710793E+02  0.00000000000E+00 0.  1.
</event>
<event>
 7    1  0.2472338E-008  0.4614232E+02  0.7816164E-02  0.1320468E+00
        -11   -1    0    0    0    0  0.00000000000E+00  0.00000000000E+00  0.45593999997E+02  0.45594000000E+02  0.51100000000E-03 0. -1.
         11   -1    0    0    0    0 -0.00000000000E+00 -0.00000000000E+00 -0.45593999997E+02  0.45594000000E+02  0.51100000000E-03 0.  1.
    9900012    2    1    2    0    0  0.43183163420E+02 -0.69596582007E+01  0.10765270425E+02  0.46142317715E+02  0.99999995751E+01 0.  0.
         12    1    1    2    0    0 -0.43183163420E+02  0.69596582007E+01 -0.10765270425E+02  0.45045682285E+02  0.00000000000E+00 0. -1.
         11    1    3    3    0    0  0.20738639688E+02 -0.37621804360E+01  0.12295487509E+01  0.21112957352E+02  0.51100000000E-03 0. -1.
        -11    1    3    3    0    0  0.13393386711E+02 -0.71954294578E+00  0.34660404564E+01  0.13853302363E+02  0.51100000000E-03 0.  1.
         12    1    3    3    0    0  0.90511370207E+01 -0.24779348189E+01  0.60696812174E+01  0.11176058000E+02  0.00000000000E+00 0. -1.
</event>
<event>
 7    1  0.2472338E-008  0.4614232E+02  0.7816164E-02  0.1320468E+00
        -11   -1    0    0    0    0  0.00000000000E+00  0.00000000000E+00  0.45593999997E+02  0.45594000000E+02  0.51100000000E-03 0. -1.
         11   -1    0    0    0    0 -0.00000000000E+00 -0.00000000000E+00 -0.45593999997E+02  0.45594000000E+02  0.51100000000E-03 0.  1.
    9900012    2    1    2    0    0 -0.40787304244E+02 -0.12666971663E+02 -0.14319807696E+02  0.46142320395E+02  0.10000024019E+02 0.  0.
         12    1    1    2    0    0  0.40787304244E+02  0.12666971663E+02  0.14319807696E+02  0.45045679605E+02  0.00000000000E+00 0. -1.
         11    1    3    3    0    0 -0.61656608433E+01 -0.13115784173E+00  0.86466856856E+00  0.62273772978E+01  0.51100000000E-03 0. -1.
        -11    1    3    3    0    0 -0.52462875590E+01 -0.28360304238E+01 -0.20430929036E+01  0.63040328830E+01  0.51100000000E-03 0.  1.
         12    1    3    3    0    0 -0.29375355842E+02 -0.96997833972E+01 -0.13141383361E+02  0.33610910214E+02  0.00000000000E+00 0. -1.
</event>
<event>
 7    1  0.2472338E-008  0.4614232E+02  0.7816164E-02  0.1320468E+00
        -11   -1    0    0    0    0  0.00000000000E+00  0.00000000000E+00  0.45593999997E+02  0.45594000000E+02  0.51100000000E-03 0.  1.
         11   -1    0    0    0    0 -0.00000000000E+00 -0.00000000000E+00 -0.45593999997E+02  0.45594000000E+02  0.51100000000E-03 0. -1.
    9900012    2    1    2    0    0 -0.17360784224E+02  0.27147486240E+02  0.31475876984E+02  0.46142315746E+02  0.99999816245E+01 0.  0.
         12    1    1    2    0    0  0.17360784224E+02 -0.27147486240E+02 -0.31475876984E+02  0.45045684254E+02  0.00000000000E+00 0. -1.
         11    1    3    3    0    0 -0.42451421947E+01  0.10599571254E+02  0.94717303802E+01  0.14835289673E+02  0.51100000000E-03 0. -1.
        -11    1    3    3    0    0  0.82211540500E+00  0.95882554266E+00  0.65483414407E+00  0.14226834426E+01  0.51100000000E-03 0.  1.
        -12    1    3    3    0    0 -0.13937757434E+02  0.15589089443E+02  0.21349312460E+02  0.29884342631E+02  0.00000000000E+00 0.  1.
</event>
<event>
 7    1  0.2472338E-008  0.4614232E+02  0.7816164E-02  0.1320468E+00
        -11   -1    0    0    0    0  0.00000000000E+00  0.00000000000E+00  0.45593999997E+02  0.45594000000E+02  0.51100000000E-03 0.  1.
         11   -1    0    0    0    0 -0.00000000000E+00 -0.00000000000E+00 -0.45593999997E+02  0.45594000000E+02  0.51100000000E-03 0. -1.
    9900012    2    1    2    0    0 -0.23794771332E-01  0.40066875694E+02  0.20585393575E+02  0.46142317380E+02  0.99999965218E+01 0.  0.
         12    1    1    2    0    0  0.23794771332E-01 -0.40066875694E+02 -0.20585393575E+02  0.45045682620E+02  0.00000000000E+00 0. -1.
         11    1    3    3    0    0 -0.48667865111E+00  0.22440875653E+01  0.11372367999E+01  0.25624388598E+01  0.51100000000E-03 0. -1.
        -11    1    3    3    0    0  0.33440048258E+01  0.23829710153E+02  0.15955953898E+02  0.28872650022E+02  0.51100000000E-03 0.  1.
         12    1    3    3    0    0 -0.28811209460E+01  0.13993077976E+02  0.34922028774E+01  0.14707228498E+02  0.00000000000E+00 0. -1.
</event>
<event>
 7    1  0.2472338E-008  0.4614232E+02  0.7816164E-02  0.1320468E+00
        -11   -1    0    0    0    0  0.00000000000E+00  0.00000000000E+00  0.45593999997E+02  0.45594000000E+02  0.51100000000E-03 0. -1.
         11   -1    0    0    0    0 -0.00000000000E+00 -0.00000000000E+00 -0.45593999997E+02  0.45594000000E+02  0.51100000000E-03 0.  1.
    9900012    2    1    2    0    0  0.39445075147E+02 -0.21711398231E+02 -0.13471179637E+01  0.46142317706E+02  0.99999995006E+01 0.  0.
         12    1    1    2    0    0 -0.39445075147E+02  0.21711398231E+02  0.13471179637E+01  0.45045682294E+02  0.00000000000E+00 0. -1.
         11    1    3    3    0    0  0.12010367856E+02 -0.71589796066E+01  0.16760886245E+01  0.14082229880E+02  0.51100000000E-03 0. -1.
        -11    1    3    3    0    0  0.10198675581E+02 -0.95031512448E+01 -0.18380595469E+01  0.14060630510E+02  0.51100000000E-03 0.  1.
         12    1    3    3    0    0  0.17236031710E+02 -0.50492673797E+01 -0.11851470413E+01  0.17999457316E+02  0.00000000000E+00 0. -1.
</event>
<event>
 7    1  0.2472338E-008  0.4614232E+02  0.7816164E-02  0.1320468E+00
        -11   -1    0    0    0    0  0.00000000000E+00  0.00000000000E+00  0.45593999997E+02  0.45594000000E+02  0.51100000000E-03 0.  1.
         11   -1    0    0    0    0 -0.00000000000E+00 -0.00000000000E+00 -0.45593999997E+02  0.45594000000E+02  0.51100000000E-03 0. -1.
    9900012    2    1    2    0    0 -0.11472078019E+02 -0.85360116952E+00  0.43551993455E+02  0.46142319375E+02  0.10000014719E+02 0.  0.
         12    1    1    2    0    0  0.11472078019E+02  0.85360116952E+00 -0.43551993455E+02  0.45045680625E+02  0.00000000000E+00 0. -1.
         11    1    3    3    0    0 -0.38549399874E+01  0.20045364567E+00  0.25197708685E+02  0.25491670546E+02  0.51100000000E-03 0.  1.
        -11    1    3    3    0    0 -0.73487020226E+01 -0.26620303607E+01  0.14683715974E+02  0.16634342251E+02  0.51100000000E-03 0. -1.
         12    1    3    3    0    0 -0.26843600926E+00  0.16079755455E+01  0.36705687963E+01  0.40163065787E+01  0.00000000000E+00 0. -1.
</event>
<event>
 7    1  0.2472338E-008  0.4614232E+02  0.7816164E-02  0.1320468E+00
        -11   -1    0    0    0    0  0.00000000000E+00  0.00000000000E+00  0.45593999997E+02  0.45594000000E+02  0.51100000000E-03 0.  1.
         11   -1    0    0    0    0 -0.00000000000E+00 -0.00000000000E+00 -0.45593999997E+02  0.45594000000E+02  0.51100000000E-03 0. -1.
    9900012    2    1    2    0    0  0.37114550507E+02  0.21883501905E+02  0.13142906094E+02  0.46142317681E+02  0.99999992708E+01 0.  0.
         12    1    1    2    0    0 -0.37114550507E+02 -0.21883501905E+02 -0.13142906094E+02  0.45045682319E+02  0.00000000000E+00 0. -1.
         11    1    3    3    0    0  0.25584174714E+02  0.16119327261E+02  0.10770673520E+02  0.32099690270E+02  0.51100000000E-03 0.  1.
        -11    1    3    3    0    0  0.10127396261E+02  0.48222164705E+01  0.37868251420E+01  0.11838833204E+02  0.51100000000E-03 0. -1.
         12    1    3    3    0    0  0.14029795327E+01  0.94195817402E+00 -0.14145925687E+01  0.22037942068E+01  0.00000000000E+00 0. -1.
</event>
<event>
 7    1  0.2472338E-008  0.4614232E+02  0.7816164E-02  0.1320468E+00
        -11   -1    0    0    0    0  0.00000000000E+00  0.00000000000E+00  0.45593999997E+02  0.45594000000E+02  0.51100000000E-03 0. -1.
         11   -1    0    0    0    0 -0.00000000000E+00 -0.00000000000E+00 -0.45593999997E+02  0.45594000000E+02  0.51100000000E-03 0.  1.
    9900012    2    1    2    0    0 -0.33504273827E+02  0.96243358650E+01 -0.28529796855E+02  0.46142317476E+02  0.99999973996E+01 0.  0.
         12    1    1    2    0    0  0.33504273827E+02 -0.96243358650E+01  0.28529796855E+02  0.45045682524E+02  0.00000000000E+00 0. -1.
         11    1    3    3    0    0 -0.26921901754E+02  0.84440666247E+01 -0.26570031246E+02  0.38756388066E+02  0.51100000000E-03 0. -1.
        -11    1    3    3    0    0 -0.65109896395E+01  0.71132547396E+00 -0.21215359319E+01  0.68847574385E+01  0.51100000000E-03 0.  1.
         12    1    3    3    0    0 -0.71382433177E-01  0.46894376639E+00  0.16177032341E+00  0.50117197182E+00  0.00000000000E+00 0. -1.
</event>
<event>
 7    1  0.2472338E-008  0.4614232E+02  0.7816164E-02  0.1320468E+00
        -11   -1    0    0    0    0  0.00000000000E+00  0.00000000000E+00  0.45593999997E+02  0.45594000000E+02  0.51100000000E-03 0.  1.
         11   -1    0    0    0    0 -0.00000000000E+00 -0.00000000000E+00 -0.45593999997E+02  0.45594000000E+02  0.51100000000E-03 0. -1.
    9900012    2    1    2    0    0 -0.91490619013E+01 -0.38710425421E+02  0.21140271638E+02  0.46142318133E+02  0.10000003391E+02 0.  0.
         12    1    1    2    0    0  0.91490619013E+01  0.38710425421E+02 -0.21140271638E+02  0.45045681867E+02  0.00000000000E+00 0. -1.
         11    1    3    3    0    0 -0.63960316889E+00 -0.15134483979E+02  0.84644525370E+01  0.17352482662E+02  0.51100000000E-03 0. -1.
        -11    1    3    3    0    0 -0.35940180565E+01 -0.17307328739E+02  0.70165150529E+01  0.19018203848E+02  0.51100000000E-03 0.  1.
         12    1    3    3    0    0 -0.49154406759E+01 -0.62686127027E+01  0.56593040482E+01  0.97716316225E+01  0.00000000000E+00 0. -1.
</event>
<event>
 7    1  0.2472338E-008  0.4614231E+02  0.7816164E-02  0.1320468E+00
        -11   -1    0    0    0    0  0.00000000000E+00  0.00000000000E+00  0.45593999997E+02  0.45594000000E+02  0.51100000000E-03 0.  1.
         11   -1    0    0    0    0 -0.00000000000E+00 -0.00000000000E+00 -0.45593999997E+02  0.45594000000E+02  0.51100000000E-03 0. -1.
    9900012    2    1    2    0    0  0.37030337424E+01  0.43933907642E+02  0.92310925079E+01  0.46142314652E+02  0.99999716441E+01 0.  0.
         12    1    1    2    0    0 -0.37030337424E+01 -0.43933907642E+02 -0.92310925079E+01  0.45045685348E+02  0.00000000000E+00 0. -1.
         11    1    3    3    0    0  0.19383738188E+01  0.21990254680E+02  0.92447742562E+01  0.23933124436E+02  0.51100000000E-03 0.  1.
        -11    1    3    3    0    0  0.63857221785E+00  0.19925477367E+01  0.72022271110E+00  0.22128583269E+01  0.51100000000E-03 0. -1.
        -12    1    3    3    0    0  0.11260877057E+01  0.19951105226E+02 -0.73390445944E+00  0.19996331889E+02  0.00000000000E+00 0.  1.
</event>
<event>
 7    1  0.2472338E-008  0.4614232E+02  0.7816164E-02  0.1320468E+00
        -11   -1    0    0    0    0  0.00000000000E+00  0.00000000000E+00  0.45593999997E+02  0.45594000000E+02  0.51100000000E-03 0.  1.
         11   -1    0    0    0    0 -0.00000000000E+00 -0.00000000000E+00 -0.45593999997E+02  0.45594000000E+02  0.51100000000E-03 0. -1.
    9900012    2    1    2    0    0  0.26369812346E+02  0.10185280072E+02  0.35071449544E+02  0.46142317561E+02  0.99999981709E+01 0.  0.
         12    1    1    2    0    0 -0.26369812346E+02 -0.10185280072E+02 -0.35071449544E+02  0.45045682439E+02  0.00000000000E+00 0. -1.
         11    1    3    3    0    0  0.25460796997E+01 -0.42881313710E-01  0.40198567624E+01  0.47585301613E+01  0.51100000000E-03 0. -1.
        -11    1    3    3    0    0  0.12668900812E+02  0.77718115932E+01  0.11710955374E+02  0.18922171632E+02  0.51100000000E-03 0.  1.
        -12    1    3    3    0    0  0.11154831834E+02  0.24563497929E+01  0.19340637408E+02  0.22461615768E+02  0.00000000000E+00 0.  1.
</event>
<event>
 7    1  0.2472338E-008  0.4614232E+02  0.7816164E-02  0.1320468E+00
        -11   -1    0    0    0    0  0.00000000000E+00  0.00000000000E+00  0.45593999997E+02  0.45594000000E+02  0.51100000000E-03 0.  1.
         11   -1    0    0    0    0 -0.00000000000E+00 -0.00000000000E+00 -0.45593999997E+02  0.45594000000E+02  0.51100000000E-03 0. -1.
    9900012    2    1    2    0    0  0.37456624777E+01 -0.34327492012E+02  0.28925886841E+02  0.46142316247E+02  0.99999861968E+01 0.  0.
         12    1    1    2    0    0 -0.37456624777E+01  0.34327492012E+02 -0.28925886841E+02  0.45045683753E+02  0.00000000000E+00 0. -1.
         11    1    3    3    0    0 -0.13216672432E+01 -0.86532709741E+01  0.50611964685E+01  0.10111459480E+02  0.51100000000E-03 0. -1.
        -11    1    3    3    0    0 -0.57339999497E+00 -0.17499722106E+01  0.10509319136E+00  0.18445148772E+01  0.51100000000E-03 0.  1.
        -12    1    3    3    0    0  0.56407297159E+01 -0.23924248827E+02  0.23759597181E+02  0.34186341891E+02  0.00000000000E+00 0.  1.
</event>
<event>
 7    1  0.2472338E-008  0.4614232E+02  0.7816164E-02  0.1320468E+00
        -11   -1    0    0    0    0  0.00000000000E+00  0.00000000000E+00  0.45593999997E+02  0.45594000000E+02  0.51100000000E-03 0. -1.
         11   -1    0    0    0    0 -0.00000000000E+00 -0.00000000000E+00 -0.45593999997E+02  0.45594000000E+02  0.51100000000E-03 0.  1.
    9900012    2    1    2    0    0 -0.12569544813E+02  0.36649608738E+02 -0.22976646226E+02  0.46142317086E+02  0.99999938395E+01 0.  0.
         12    1    1    2    0    0  0.12569544813E+02 -0.36649608738E+02  0.22976646226E+02  0.45045682914E+02  0.00000000000E+00 0. -1.
         11    1    3    3    0    0 -0.29394748673E+01  0.18466971045E+02 -0.12072109536E+02  0.22257703407E+02  0.51100000000E-03 0. -1.
        -11    1    3    3    0    0 -0.43206953852E+01  0.13037874555E+02 -0.58514877516E+01  0.14929651392E+02  0.51100000000E-03 0.  1.
         12    1    3    3    0    0 -0.53093745607E+01  0.51447631385E+01 -0.50530489383E+01  0.89549622864E+01  0.00000000000E+00 0. -1.
</event>
<event>
 7    1  0.2472338E-008  0.4614232E+02  0.7816164E-02  0.1320468E+00
        -11   -1    0    0    0    0  0.00000000000E+00  0.00000000000E+00  0.45593999997E+02  0.45594000000E+02  0.51100000000E-03 0. -1.
         11   -1    0    0    0    0 -0.00000000000E+00 -0.00000000000E+00 -0.45593999997E+02  0.45594000000E+02  0.51100000000E-03 0.  1.
    9900012    2    1    2    0    0  0.11682606994E+02  0.13165972598E+02 -0.41464290186E+02  0.46142317618E+02  0.99999986970E+01 0.  0.
         12    1    1    2    0    0 -0.11682606994E+02 -0.13165972598E+02  0.41464290186E+02  0.45045682382E+02  0.00000000000E+00 0. -1.
         11    1    3    3    0    0  0.34105291888E+01  0.56809248750E+01 -0.82544858494E+01  0.10584949394E+02  0.51100000000E-03 0. -1.
        -11    1    3    3    0    0  0.86380098875E+01  0.61785752790E+01 -0.23955288628E+02  0.26203928347E+02  0.51100000000E-03 0.  1.
        -12    1    3    3    0    0 -0.36593208189E+00  0.13064724437E+01 -0.92545157087E+01  0.93534398773E+01  0.00000000000E+00 0.  1.
</event>
<event>
 7    1  0.2472338E-008  0.4614232E+02  0.7816164E-02  0.1320468E+00
        -11   -1    0    0    0    0  0.00000000000E+00  0.00000000000E+00  0.45593999997E+02  0.45594000000E+02  0.51100000000E-03 0.  1.
         11   -1    0    0    0    0 -0.00000000000E+00 -0.00000000000E+00 -0.45593999997E+02  0.45594000000E+02  0.51100000000E-03 0. -1.
    9900012    2    1    2    0    0 -0.97801826952E+01  0.31520459849E+02  0.30658150536E+02  0.46142317000E+02  0.99999930591E+01 0.  0.
         12    1    1    2    0    0  0.97801826952E+01 -0.31520459849E+02 -0.30658150536E+02  0.45045683000E+02  0.00000000000E+00 0. -1.
         11    1    3    3    0    0 -0.36939894107E+01  0.38773265565E+01  0.76686215723E+01  0.93534472828E+01  0.51100000000E-03 0. -1.
        -11    1    3    3    0    0 -0.72421712250E-01  0.51523174468E+00 -0.23857906225E+00  0.57238875355E+00  0.51100000000E-03 0.  1.
        -12    1    3    3    0    0 -0.60137715723E+01  0.27127901548E+02  0.23228108026E+02  0.36216480964E+02  0.00000000000E+00 0.  1.
</event>
<event>
 7    1  0.2472338E-008  0.4614232E+02  0.7816164E-02  0.1320468E+00
        -11   -1    0    0    0    0  0.00000000000E+00  0.00000000000E+00  0.45593999997E+02  0.45594000000E+02  0.51100000000E-03 0.  1.
         11   -1    0    0    0    0 -0.00000000000E+00 -0.00000000000E+00 -0.45593999997E+02  0.45594000000E+02  0.51100000000E-03 0. -1.
    9900012    2    1    2    0    0  0.20952939650E+02 -0.12164085196E+02  0.37975292362E+02  0.46142317870E+02  0.10000000989E+02 0.  0.
         12    1    1    2    0    0 -0.20952939650E+02  0.12164085196E+02 -0.37975292362E+02  0.45045682130E+02  0.00000000000E+00 0. -1.
         11    1    3    3    0    0  0.63766552613E+00  0.30662962332E-01 -0.18890339953E+00  0.66576444479E+00  0.51100000000E-03 0. -1.
        -11    1    3    3    0    0  0.64853021429E+01 -0.18171596180E+01  0.62943779140E+01  0.92184817919E+01  0.51100000000E-03 0.  1.
        -12    1    3    3    0    0  0.13829971981E+02 -0.10377588541E+02  0.31869817847E+02  0.36258071633E+02  0.00000000000E+00 0.  1.
</event>
<event>
 7    1  0.2472338E-008  0.4614232E+02  0.7816164E-02  0.1320468E+00
        -11   -1    0    0    0    0  0.00000000000E+00  0.00000000000E+00  0.45593999997E+02  0.45594000000E+02  0.51100000000E-03 0.  1.
         11   -1    0    0    0    0 -0.00000000000E+00 -0.00000000000E+00 -0.45593999997E+02  0.45594000000E+02  0.51100000000E-03 0. -1.
    9900012    2    1    2    0    0 -0.41773815113E+02 -0.16323067795E+02  0.41975342430E+01  0.46142318020E+02  0.10000002360E+02 0.  0.
         12    1    1    2    0    0  0.41773815113E+02  0.16323067795E+02 -0.41975342430E+01  0.45045681980E+02  0.00000000000E+00 0. -1.
         11    1    3    3    0    0 -0.81646724119E+01 -0.49919073385E+00  0.25438961392E+01  0.85663571494E+01  0.51100000000E-03 0. -1.
        -11    1    3    3    0    0 -0.18900323673E+02 -0.10368011283E+02  0.32736282791E+01  0.21804461362E+02  0.51100000000E-03 0.  1.
         12    1    3    3    0    0 -0.14708819028E+02 -0.54558657779E+01 -0.16199901753E+01  0.15771499509E+02  0.00000000000E+00 0. -1.
</event>
<event>
 7    1  0.2472338E-008  0.4614232E+02  0.7816164E-02  0.1320468E+00
        -11   -1    0    0    0    0  0.00000000000E+00  0.00000000000E+00  0.45593999997E+02  0.45594000000E+02  0.51100000000E-03 0.  1.
         11   -1    0    0    0    0 -0.00000000000E+00 -0.00000000000E+00 -0.45593999997E+02  0.45594000000E+02  0.51100000000E-03 0. -1.
    9900012    2    1    2    0    0 -0.30723726948E+02  0.46529240273E+01  0.32611598618E+02  0.46142318032E+02  0.10000002466E+02 0.  0.
         12    1    1    2    0    0  0.30723726948E+02 -0.46529240273E+01 -0.32611598618E+02  0.45045681968E+02  0.00000000000E+00 0. -1.
         11    1    3    3    0    0 -0.28549818232E+01  0.24009223952E+01  0.51070419396E+01  0.63243361069E+01  0.51100000000E-03 0. -1.
        -11    1    3    3    0    0 -0.24877219886E+02  0.40805695762E+01  0.23141115115E+02  0.34220437261E+02  0.51100000000E-03 0.  1.
         12    1    3    3    0    0 -0.29915252383E+01 -0.18285679441E+01  0.43634415638E+01  0.55975446633E+01  0.00000000000E+00 0. -1.
</event>
<event>
 7    1  0.2472338E-008  0.4614232E+02  0.7816164E-02  0.1320468E+00
        -11   -1    0    0    0    0  0.00000000000E+00  0.00000000000E+00  0.45593999997E+02  0.45594000000E+02  0.51100000000E-03 0.  1.
         11   -1    0    0    0    0 -0.00000000000E+00 -0.00000000000E+00 -0.45593999997E+02  0.45594000000E+02  0.51100000000E-03 0. -1.
    9900012    2    1    2    0    0  0.32059585953E+02 -0.29336255598E+02 -0.11860873812E+02  0.46142320168E+02  0.10000021945E+02 0.  0.
         12    1    1    2    0    0 -0.32059585953E+02  0.29336255598E+02  0.11860873812E+02  0.45045679832E+02  0.00000000000E+00 0. -1.
         11    1    3    3    0    0  0.89835406084E+01 -0.42330217507E+01 -0.41328199220E+01  0.10756517828E+02  0.51100000000E-03 0. -1.
        -11    1    3    3    0    0  0.15432981896E+02 -0.15048313913E+02 -0.72673178602E+01  0.22747364484E+02  0.51100000000E-03 0.  1.
        -12    1    3    3    0    0  0.76430634488E+01 -0.10054919934E+02 -0.46073603022E+00  0.12638437856E+02  0.00000000000E+00 0.  1.
</event>
<event>
 7    1  0.2472338E-008  0.4614232E+02  0.7816164E-02  0.1320468E+00
        -11   -1    0    0    0    0  0.00000000000E+00  0.00000000000E+00  0.45593999997E+02  0.45594000000E+02  0.51100000000E-03 0. -1.
         11   -1    0    0    0    0 -0.00000000000E+00 -0.00000000000E+00 -0.45593999997E+02  0.45594000000E+02  0.51100000000E-03 0.  1.
    9900012    2    1    2    0    0 -0.30410516003E+02  0.22789820478E+02 -0.24185492804E+02  0.46142318041E+02  0.10000002550E+02 0.  0.
         12    1    1    2    0    0  0.30410516003E+02 -0.22789820478E+02  0.24185492804E+02  0.45045681959E+02  0.00000000000E+00 0. -1.
         11    1    3    3    0    0 -0.80176074538E+00  0.55352440757E+00 -0.14608754122E+01  0.17559518199E+01  0.51100000000E-03 0. -1.
        -11    1    3    3    0    0 -0.91675987993E+01  0.11152729325E+02 -0.12029733012E+02  0.18792091840E+02  0.51100000000E-03 0.  1.
         12    1    3    3    0    0 -0.20441156459E+02  0.11083566746E+02 -0.10694884380E+02  0.25594274381E+02  0.00000000000E+00 0. -1.
</event>
<event>
 7    1  0.2472338E-008  0.4614232E+02  0.7816164E-02  0.1320468E+00
        -11   -1    0    0    0    0  0.00000000000E+00  0.00000000000E+00  0.45593999997E+02  0.45594000000E+02  0.51100000000E-03 0.  1.
         11   -1    0    0    0    0 -0.00000000000E+00 -0.00000000000E+00 -0.45593999997E+02  0.45594000000E+02  0.51100000000E-03 0. -1.
    9900012    2    1    2    0    0 -0.19030394586E+02 -0.40715050189E+02 -0.30401038893E+01  0.46142318058E+02  0.10000002703E+02 0.  0.
         12    1    1    2    0    0  0.19030394586E+02  0.40715050189E+02  0.30401038893E+01  0.45045681942E+02  0.00000000000E+00 0. -1.
         11    1    3    3    0    0 -0.18569824692E+02 -0.41096158134E+02 -0.24318425684E+01  0.45162445250E+02  0.51100000000E-03 0.  1.
        -11    1    3    3    0    0 -0.22093348777E+00  0.20662798064E-01 -0.47939766303E+00  0.52826218650E+00  0.51100000000E-03 0. -1.
        -12    1    3    3    0    0 -0.23963640619E+00  0.36044514624E+00 -0.12886365787E+00  0.45161062094E+00  0.00000000000E+00 0.  1.
</event>
<event>
 7    1  0.2472338E-008  0.4614232E+02  0.7816164E-02  0.1320468E+00
        -11   -1    0    0    0    0  0.00000000000E+00  0.00000000000E+00  0.45593999997E+02  0.45594000000E+02  0.51100000000E-03 0.  1.
         11   -1    0    0    0    0 -0.00000000000E+00 -0.00000000000E+00 -0.45593999997E+02  0.45594000000E+02  0.51100000000E-03 0. -1.
    9900012    2    1    2    0    0  0.24591590860E+01 -0.24908740809E+02  0.37451577510E+02  0.46142317742E+02  0.99999998217E+01 0.  0.
         12    1    1    2    0    0 -0.24591590860E+01  0.24908740809E+02 -0.37451577510E+02  0.45045682258E+02  0.00000000000E+00 0. -1.
         11    1    3    3    0    0  0.69793144202E+00 -0.94363281606E+01  0.14524931070E+02  0.17335080625E+02  0.51100000000E-03 0. -1.
        -11    1    3    3    0    0 -0.30047922294E+01 -0.82832010608E+01  0.11936267708E+02  0.14836262441E+02  0.51100000000E-03 0.  1.
         12    1    3    3    0    0  0.47660198733E+01 -0.71892115879E+01  0.10990378733E+02  0.13970974675E+02  0.00000000000E+00 0. -1.
</event>
<event>
 7    1  0.2472338E-008  0.4614232E+02  0.7816164E-02  0.1320468E+00
        -11   -1    0    0    0    0  0.00000000000E+00  0.00000000000E+00  0.45593999997E+02  0.45594000000E+02  0.51100000000E-03 0.  1.
         11   -1    0    0    0    0 -0.00000000000E+00 -0.00000000000E+00 -0.45593999997E+02  0.45594000000E+02  0.51100000000E-03 0. -1.
    9900012    2    1    2    0    0 -0.10481513154E+02 -0.43296727439E+02  0.66816727819E+01  0.46142317897E+02  0.10000001239E+02 0.  0.
         12    1    1    2    0    0  0.10481513154E+02  0.43296727439E+02 -0.66816727819E+01  0.45045682103E+02  0.00000000000E+00 0. -1.
         11    1    3    3    0    0 -0.22098127721E+01 -0.10773262522E+02  0.13704545405E+01  0.11082626213E+02  0.51100000000E-03 0. -1.
        -11    1    3    3    0    0 -0.61361493828E+01 -0.31820567264E+02  0.49646584730E+01  0.32784884692E+02  0.51100000000E-03 0.  1.
         12    1    3    3    0    0 -0.21355509989E+01 -0.70289765331E+00  0.34655976829E+00  0.22748069924E+01  0.00000000000E+00 0. -1.
</event>
<event>
 7    1  0.2472338E-008  0.4614232E+02  0.7816164E-02  0.1320468E+00
        -11   -1    0    0    0    0  0.00000000000E+00  0.00000000000E+00  0.45593999997E+02  0.45594000000E+02  0.51100000000E-03 0. -1.
         11   -1    0    0    0    0 -0.00000000000E+00 -0.00000000000E+00 -0.45593999997E+02  0.45594000000E+02  0.51100000000E-03 0.  1.
    9900012    2    1    2    0    0  0.30046288422E+02  0.31506974633E+02  0.11560481275E+02  0.46142316236E+02  0.99999860917E+01 0.  0.
         12    1    1    2    0    0 -0.30046288422E+02 -0.31506974633E+02 -0.11560481275E+02  0.45045683764E+02  0.00000000000E+00 0. -1.
         11    1    3    3    0    0  0.19072206220E+00  0.17086009049E+01  0.13108667406E+01  0.21619583322E+01  0.51100000000E-03 0. -1.
        -11    1    3    3    0    0  0.13802726398E+02  0.18297230099E+02  0.70189572065E+01  0.23970182432E+02  0.51100000000E-03 0.  1.
        -12    1    3    3    0    0  0.16052839962E+02  0.11501143629E+02  0.32306573282E+01  0.20010175471E+02  0.00000000000E+00 0.  1.
</event>
<event>
 7    1  0.2472338E-008  0.4614232E+02  0.7816164E-02  0.1320468E+00
        -11   -1    0    0    0    0  0.00000000000E+00  0.00000000000E+00  0.45593999997E+02  0.45594000000E+02  0.51100000000E-03 0.  1.
         11   -1    0    0    0    0 -0.00000000000E+00 -0.00000000000E+00 -0.45593999997E+02  0.45594000000E+02  0.51100000000E-03 0. -1.
    9900012    2    1    2    0    0 -0.23529029511E+02 -0.30757680702E+02  0.23010068659E+02  0.46142318613E+02  0.10000007768E+02 0.  0.
         12    1    1    2    0    0  0.23529029511E+02  0.30757680702E+02 -0.23010068659E+02  0.45045681387E+02  0.00000000000E+00 0. -1.
         11    1    3    3    0    0  0.63611846572E+00 -0.18790819692E+01  0.97547975741E+00  0.22106914682E+01  0.51100000000E-03 0. -1.
        -11    1    3    3    0    0 -0.10043996984E+02 -0.13406919164E+02  0.70412794710E+01  0.18171597996E+02  0.51100000000E-03 0.  1.
        -12    1    3    3    0    0 -0.14121150993E+02 -0.15471679569E+02  0.14993309431E+02  0.25760029149E+02  0.00000000000E+00 0.  1.
</event>
<event>
 7    1  0.2472338E-008  0.4614232E+02  0.7816164E-02  0.1320468E+00
        -11   -1    0    0    0    0  0.00000000000E+00  0.00000000000E+00  0.45593999997E+02  0.45594000000E+02  0.51100000000E-03 0.  1.
         11   -1    0    0    0    0 -0.00000000000E+00 -0.00000000000E+00 -0.45593999997E+02  0.45594000000E+02  0.51100000000E-03 0. -1.
    9900012    2    1    2    0    0  0.10208152281E+02 -0.17621092128E+02  0.40179648788E+02  0.46142318325E+02  0.10000005147E+02 0.  0.
         12    1    1    2    0    0 -0.10208152281E+02  0.17621092128E+02 -0.40179648788E+02  0.45045681675E+02  0.00000000000E+00 0. -1.
         11    1    3    3    0    0  0.40925058216E+00 -0.32411870295E+01  0.54211746193E+01  0.63294481523E+01  0.51100000000E-03 0. -1.
        -11    1    3    3    0    0  0.54062864625E+01 -0.12014424377E+02  0.30608300379E+02  0.33323300839E+02  0.51100000000E-03 0.  1.
         12    1    3    3    0    0  0.43926152367E+01 -0.23654807216E+01  0.41501737894E+01  0.64895693343E+01  0.00000000000E+00 0. -1.
</event>
<event>
 7    1  0.2472338E-008  0.4614232E+02  0.7816164E-02  0.1320468E+00
        -11   -1    0    0    0    0  0.00000000000E+00  0.00000000000E+00  0.45593999997E+02  0.45594000000E+02  0.51100000000E-03 0.  1.
         11   -1    0    0    0    0 -0.00000000000E+00 -0.00000000000E+00 -0.45593999997E+02  0.45594000000E+02  0.51100000000E-03 0. -1.
    9900012    2    1    2    0    0 -0.29702681798E+02  0.10171563647E+02  0.32301754547E+02  0.46142319188E+02  0.10000013011E+02 0.  0.
         12    1    1    2    0    0  0.29702681798E+02 -0.10171563647E+02 -0.32301754547E+02  0.45045680812E+02  0.00000000000E+00 0. -1.
         11    1    3    3    0    0 -0.81067151636E+01  0.50028133170E+01  0.11710201184E+02  0.15095555103E+02  0.51100000000E-03 0. -1.
        -11    1    3    3    0    0 -0.17708666731E+02  0.62533223381E+01  0.18980508647E+02  0.26701322559E+02  0.51100000000E-03 0.  1.
        -12    1    3    3    0    0 -0.38872999032E+01 -0.10845720080E+01  0.16110447156E+01  0.43454415257E+01  0.00000000000E+00 0.  1.
</event>
<event>
 7    1  0.2472338E-008  0.4614231E+02  0.7816164E-02  0.1320468E+00
        -11   -1    0    0    0    0  0.00000000000E+00  0.00000000000E+00  0.45593999997E+02  0.45594000000E+02  0.51100000000E-03 0.  1.
         11   -1    0    0    0    0 -0.00000000000E+00 -0.00000000000E+00 -0.45593999997E+02  0.45594000000E+02  0.51100000000E-03 0. -1.
    9900012    2    1    2    0    0 -0.16598842958E+02 -0.25287233014E+02  0.33378861481E+02  0.46142310586E+02  0.99999345692E+01 0.  0.
         12    1    1    2    0    0  0.16598842958E+02  0.25287233014E+02 -0.33378861481E+02  0.45045689414E+02  0.00000000000E+00 0. -1.
         11    1    3    3    0    0  0.66439435504E+00 -0.16270093212E+01  0.13748250136E+01  0.22313052838E+01  0.51100000000E-03 0. -1.
        -11    1    3    3    0    0 -0.13017796249E+02 -0.21793349929E+02  0.26188077852E+02  0.36472298284E+02  0.51100000000E-03 0.  1.
        -12    1    3    3    0    0 -0.42454410642E+01 -0.18668737638E+01  0.58159586151E+01  0.74387070175E+01  0.00000000000E+00 0.  1.
</event>
<event>
 7    1  0.2472338E-008  0.4614232E+02  0.7816164E-02  0.1320468E+00
        -11   -1    0    0    0    0  0.00000000000E+00  0.00000000000E+00  0.45593999997E+02  0.45594000000E+02  0.51100000000E-03 0.  1.
         11   -1    0    0    0    0 -0.00000000000E+00 -0.00000000000E+00 -0.45593999997E+02  0.45594000000E+02  0.51100000000E-03 0. -1.
    9900012    2    1    2    0    0 -0.36403140476E+02 -0.20932648119E+02 -0.16301815283E+02  0.46142316796E+02  0.99999911951E+01 0.  0.
         12    1    1    2    0    0  0.36403140476E+02  0.20932648119E+02  0.16301815283E+02  0.45045683204E+02  0.00000000000E+00 0. -1.
         11    1    3    3    0    0 -0.52468665043E+01 -0.41866082895E+01 -0.13601414574E+01  0.68488891165E+01  0.51100000000E-03 0. -1.
        -11    1    3    3    0    0 -0.24705700738E+02 -0.14788267690E+02 -0.86306424281E+01  0.30059150009E+02  0.51100000000E-03 0.  1.
         12    1    3    3    0    0 -0.64505732337E+01 -0.19577721393E+01 -0.63110313977E+01  0.92342776705E+01  0.00000000000E+00 0. -1.
</event>
<event>
 7    1  0.2472338E-008  0.4614232E+02  0.7816164E-02  0.1320468E+00
        -11   -1    0    0    0    0  0.00000000000E+00  0.00000000000E+00  0.45593999997E+02  0.45594000000E+02  0.51100000000E-03 0.  1.
         11   -1    0    0    0    0 -0.00000000000E+00 -0.00000000000E+00 -0.45593999997E+02  0.45594000000E+02  0.51100000000E-03 0. -1.
    9900012    2    1    2    0    0 -0.26227732680E+02  0.14751867385E+02  0.33520174836E+02  0.46142315701E+02  0.99999812137E+01 0.  0.
         12    1    1    2    0    0  0.26227732680E+02 -0.14751867385E+02 -0.33520174836E+02  0.45045684299E+02  0.00000000000E+00 0. -1.
         11    1    3    3    0    0 -0.55586630195E+00  0.32148226700E+01  0.28767081915E+01  0.43496577366E+01  0.51100000000E-03 0. -1.
        -11    1    3    3    0    0 -0.14944886893E+02  0.46135644818E+01  0.16310000277E+02  0.22597582409E+02  0.51100000000E-03 0.  1.
        -12    1    3    3    0    0 -0.10726979485E+02  0.69234802336E+01  0.14333466368E+02  0.19195075555E+02  0.00000000000E+00 0.  1.
</event>
<event>
 7    1  0.2472338E-008  0.4614232E+02  0.7816164E-02  0.1320468E+00
        -11   -1    0    0    0    0  0.00000000000E+00  0.00000000000E+00  0.45593999997E+02  0.45594000000E+02  0.51100000000E-03 0. -1.
         11   -1    0    0    0    0 -0.00000000000E+00 -0.00000000000E+00 -0.45593999997E+02  0.45594000000E+02  0.51100000000E-03 0.  1.
    9900012    2    1    2    0    0  0.34386248484E+02  0.88138090076E+01 -0.27731140791E+02  0.46142317814E+02  0.10000000487E+02 0.  0.
         12    1    1    2    0    0 -0.34386248484E+02 -0.88138090076E+01  0.27731140791E+02  0.45045682186E+02  0.00000000000E+00 0. -1.
         11    1    3    3    0    0  0.63804282507E+01 -0.39355718600E+00 -0.33653884733E+01  0.72243056247E+01  0.51100000000E-03 0. -1.
        -11    1    3    3    0    0  0.15738544275E+02  0.67135798263E+01 -0.98239453465E+01  0.19730277048E+02  0.51100000000E-03 0.  1.
        -12    1    3    3    0    0  0.12267275958E+02  0.24937863673E+01 -0.14541806971E+02  0.19187735141E+02  0.00000000000E+00 0.  1.
</event>
<event>
 7    1  0.2472338E-008  0.4614232E+02  0.7816164E-02  0.1320468E+00
        -11   -1    0    0    0    0  0.00000000000E+00  0.00000000000E+00  0.45593999997E+02  0.45594000000E+02  0.51100000000E-03 0. -1.
         11   -1    0    0    0    0 -0.00000000000E+00 -0.00000000000E+00 -0.45593999997E+02  0.45594000000E+02  0.51100000000E-03 0.  1.
    9900012    2    1    2    0    0  0.39136014706E+02 -0.60428639211E+01 -0.21470201515E+02  0.46142318691E+02  0.10000008483E+02 0.  0.
         12    1    1    2    0    0 -0.39136014706E+02  0.60428639211E+01  0.21470201515E+02  0.45045681309E+02  0.00000000000E+00 0. -1.
         11    1    3    3    0    0  0.65771852931E+01  0.19858870302E+01 -0.47005366916E+01  0.83245515872E+01  0.51100000000E-03 0. -1.
        -11    1    3    3    0    0  0.12951012257E+02 -0.22189276789E+01 -0.90688045205E+01  0.15965449390E+02  0.51100000000E-03 0.  1.
         12    1    3    3    0    0  0.19607817156E+02 -0.58098232724E+01 -0.77008603030E+01  0.21852317714E+02  0.00000000000E+00 0. -1.
</event>
<event>
 7    1  0.2472338E-008  0.4614232E+02  0.7816164E-02  0.1320468E+00
        -11   -1    0    0    0    0  0.00000000000E+00  0.00000000000E+00  0.45593999997E+02  0.45594000000E+02  0.51100000000E-03 0.  1.
         11   -1    0    0    0    0 -0.00000000000E+00 -0.00000000000E+00 -0.45593999997E+02  0.45594000000E+02  0.51100000000E-03 0. -1.
    9900012    2    1    2    0    0 -0.30519274857E+02 -0.31791230083E+00  0.33129838900E+02  0.46142318392E+02  0.10000005749E+02 0.  0.
         12    1    1    2    0    0  0.30519274857E+02  0.31791230083E+00 -0.33129838900E+02  0.45045681608E+02  0.00000000000E+00 0. -1.
         11    1    3    3    0    0 -0.79974602849E+01 -0.19426179047E+01  0.59192517657E+01  0.10137587339E+02  0.51100000000E-03 0. -1.
        -11    1    3    3    0    0 -0.16116846132E+02 -0.60337342976E+00  0.14938133401E+02  0.21983280431E+02  0.51100000000E-03 0.  1.
        -12    1    3    3    0    0 -0.64049684401E+01  0.22280790337E+01  0.12272453733E+02  0.14021450621E+02  0.00000000000E+00 0.  1.
</event>
<event>
 7    1  0.2472338E-008  0.4614232E+02  0.7816164E-02  0.1320468E+00
        -11   -1    0    0    0    0  0.00000000000E+00  0.00000000000E+00  0.45593999997E+02  0.45594000000E+02  0.51100000000E-03 0.  1.
         11   -1    0    0    0    0 -0.00000000000E+00 -0.00000000000E+00 -0.45593999997E+02  0.45594000000E+02  0.51100000000E-03 0. -1.
    9900012    2    1    2    0    0  0.28780981973E+01  0.34989940475E+02  0.28222936197E+02  0.46142317507E+02  0.99999976819E+01 0.  0.
         12    1    1    2    0    0 -0.28780981973E+01 -0.34989940475E+02 -0.28222936197E+02  0.45045682493E+02  0.00000000000E+00 0. -1.
         11    1    3    3    0    0  0.18006896806E+01  0.58191554213E+01  0.63397925414E+01  0.87919294169E+01  0.51100000000E-03 0. -1.
        -11    1    3    3    0    0 -0.14963144285E+01  0.17880964486E+01  0.22369273302E+00  0.23422818956E+01  0.51100000000E-03 0.  1.
        -12    1    3    3    0    0  0.25737229452E+01  0.27382688605E+02  0.21659450922E+02  0.35008106194E+02  0.00000000000E+00 0.  1.
</event>
<event>
 7    1  0.2472338E-008  0.4614232E+02  0.7816164E-02  0.1320468E+00
        -11   -1    0    0    0    0  0.00000000000E+00  0.00000000000E+00  0.45593999997E+02  0.45594000000E+02  0.51100000000E-03 0.  1.
         11   -1    0    0    0    0 -0.00000000000E+00 -0.00000000000E+00 -0.45593999997E+02  0.45594000000E+02  0.51100000000E-03 0. -1.
    9900012    2    1    2    0    0 -0.31957471143E+02  0.10280512408E+01  0.31729741427E+02  0.46142319383E+02  0.10000014791E+02 0.  0.
         12    1    1    2    0    0  0.31957471143E+02 -0.10280512408E+01 -0.31729741427E+02  0.45045680617E+02  0.00000000000E+00 0. -1.
         11    1    3    3    0    0 -0.14300937310E+01 -0.16303438219E+01  0.10463934584E+01  0.24079303537E+01  0.51100000000E-03 0. -1.
        -11    1    3    3    0    0 -0.45411300061E+00 -0.25982398362E+00 -0.17039739385E+00  0.55023872341E+00  0.51100000000E-03 0.  1.
         12    1    3    3    0    0 -0.30073264411E+02  0.29182190463E+01  0.30853745363E+02  0.43184150306E+02  0.00000000000E+00 0. -1.
</event>
<event>
 7    1  0.2472338E-008  0.4614232E+02  0.7816164E-02  0.1320468E+00
        -11   -1    0    0    0    0  0.00000000000E+00  0.00000000000E+00  0.45593999997E+02  0.45594000000E+02  0.51100000000E-03 0.  1.
         11   -1    0    0    0    0 -0.00000000000E+00 -0.00000000000E+00 -0.45593999997E+02  0.45594000000E+02  0.51100000000E-03 0. -1.
    9900012    2    1    2    0    0  0.42848215745E+02  0.60905490062E+01  0.12491955438E+02  0.46142319515E+02  0.10000015993E+02 0.  0.
         12    1    1    2    0    0 -0.42848215745E+02 -0.60905490062E+01 -0.12491955438E+02  0.45045680485E+02  0.00000000000E+00 0. -1.
         11    1    3    3    0    0  0.55680696427E+01  0.27164833570E+01  0.10394735349E+01  0.62819731666E+01  0.51100000000E-03 0. -1.
        -11    1    3    3    0    0  0.24229435494E+02  0.97759745658E+00  0.10882682116E+02  0.26579202611E+02  0.51100000000E-03 0.  1.
         12    1    3    3    0    0  0.13050710608E+02  0.23964681926E+01  0.56979978659E+00  0.13281143737E+02  0.00000000000E+00 0. -1.
</event>
<event>
 7    1  0.2472338E-008  0.4614232E+02  0.7816164E-02  0.1320468E+00
        -11   -1    0    0    0    0  0.00000000000E+00  0.00000000000E+00  0.45593999997E+02  0.45594000000E+02  0.51100000000E-03 0.  1.
         11   -1    0    0    0    0 -0.00000000000E+00 -0.00000000000E+00 -0.45593999997E+02  0.45594000000E+02  0.51100000000E-03 0. -1.
    9900012    2    1    2    0    0  0.26604488589E+02 -0.31937662096E+02  0.17358005366E+02  0.46142318481E+02  0.10000006563E+02 0.  0.
         12    1    1    2    0    0 -0.26604488589E+02  0.31937662096E+02 -0.17358005366E+02  0.45045681519E+02  0.00000000000E+00 0. -1.
         11    1    3    3    0    0 -0.99574310394E-01 -0.78784839837E+00 -0.86345572347E+00  0.11731053617E+01  0.51100000000E-03 0. -1.
        -11    1    3    3    0    0  0.21062036740E+01 -0.28564984472E+01  0.85049829134E+00  0.36495239279E+01  0.51100000000E-03 0.  1.
         12    1    3    3    0    0  0.24597859225E+02 -0.28293315251E+02  0.17370962798E+02  0.41319689191E+02  0.00000000000E+00 0. -1.
</event>
<event>
 7    1  0.2472338E-008  0.4614232E+02  0.7816164E-02  0.1320468E+00
        -11   -1    0    0    0    0  0.00000000000E+00  0.00000000000E+00  0.45593999997E+02  0.45594000000E+02  0.51100000000E-03 0.  1.
         11   -1    0    0    0    0 -0.00000000000E+00 -0.00000000000E+00 -0.45593999997E+02  0.45594000000E+02  0.51100000000E-03 0. -1.
    9900012    2    1    2    0    0 -0.17785850095E+02  0.39730829178E+02  0.11586120419E+02  0.46142318330E+02  0.10000005190E+02 0.  0.
         12    1    1    2    0    0  0.17785850095E+02 -0.39730829178E+02 -0.11586120419E+02  0.45045681670E+02  0.00000000000E+00 0. -1.
         11    1    3    3    0    0 -0.32602223976E+01  0.94876052365E+01  0.30218067539E+01  0.10477357469E+02  0.51100000000E-03 0. -1.
        -11    1    3    3    0    0 -0.13663466650E+02  0.21811437044E+02  0.87580613318E+01  0.27186995887E+02  0.51100000000E-03 0.  1.
         12    1    3    3    0    0 -0.86216104680E+00  0.84317868969E+01 -0.19374766685E+00  0.84779649742E+01  0.00000000000E+00 0. -1.
</event>
<event>
 7    1  0.2472338E-008  0.4614232E+02  0.7816164E-02  0.1320468E+00
        -11   -1    0    0    0    0  0.00000000000E+00  0.00000000000E+00  0.45593999997E+02  0.45594000000E+02  0.51100000000E-03 0. -1.
         11   -1    0    0    0    0 -0.00000000000E+00 -0.00000000000E+00 -0.45593999997E+02  0.45594000000E+02  0.51100000000E-03 0.  1.
    9900012    2    1    2    0    0  0.33445165101E+02  0.12875251515E+02 -0.27290336583E+02  0.46142316067E+02  0.99999845499E+01 0.  0.
         12    1    1    2    0    0 -0.33445165101E+02 -0.12875251515E+02  0.27290336583E+02  0.45045683933E+02  0.00000000000E+00 0. -1.
         11    1    3    3    0    0  0.67096733687E+01 -0.35723345761E+00 -0.30990828703E+01  0.73994356107E+01  0.51100000000E-03 0. -1.
        -11    1    3    3    0    0  0.77378622304E+01  0.59219397973E+01 -0.59995015913E+01  0.11442810077E+02  0.51100000000E-03 0.  1.
        -12    1    3    3    0    0  0.18997629502E+02  0.73105451751E+01 -0.18191752121E+02  0.27300070379E+02  0.00000000000E+00 0.  1.
</event>
<event>
 7    1  0.2472338E-008  0.4614232E+02  0.7816164E-02  0.1320468E+00
        -11   -1    0    0    0    0  0.00000000000E+00  0.00000000000E+00  0.45593999997E+02  0.45594000000E+02  0.51100000000E-03 0. -1.
         11   -1    0    0    0    0 -0.00000000000E+00 -0.00000000000E+00 -0.45593999997E+02  0.45594000000E+02  0.51100000000E-03 0.  1.
    9900012    2    1    2    0    0 -0.42880266634E+02  0.13415273312E+02  0.32290492218E+01  0.46142316705E+02  0.99999903703E+01 0.  0.
         12    1    1    2    0    0  0.42880266634E+02 -0.13415273312E+02 -0.32290492218E+01  0.45045683295E+02  0.00000000000E+00 0. -1.
         11    1    3    3    0    0 -0.27256355742E+01  0.53252007660E-01 -0.15753323099E+01  0.31485865412E+01  0.51100000000E-03 0. -1.
        -11    1    3    3    0    0 -0.17481970471E+02  0.47144521827E+01 -0.66677055835E+00  0.18118772977E+02  0.51100000000E-03 0.  1.
        -12    1    3    3    0    0 -0.22672660588E+02  0.86475691218E+01  0.54711520901E+01  0.24874957187E+02  0.00000000000E+00 0.  1.
</event>
<event>
 7    1  0.2472338E-008  0.4614232E+02  0.7816164E-02  0.1320468E+00
        -11   -1    0    0    0    0  0.00000000000E+00  0.00000000000E+00  0.45593999997E+02  0.45594000000E+02  0.51100000000E-03 0.  1.
         11   -1    0    0    0    0 -0.00000000000E+00 -0.00000000000E+00 -0.45593999997E+02  0.45594000000E+02  0.51100000000E-03 0. -1.
    9900012    2    1    2    0    0 -0.34906983540E+02 -0.10209113689E+02  0.26577997433E+02  0.46142318190E+02  0.10000003910E+02 0.  0.
         12    1    1    2    0    0  0.34906983540E+02  0.10209113689E+02 -0.26577997433E+02  0.45045681810E+02  0.00000000000E+00 0. -1.
         11    1    3    3    0    0 -0.48824307027E+01 -0.22694512121E+01  0.11522167244E+01  0.55060096269E+01  0.51100000000E-03 0. -1.
        -11    1    3    3    0    0 -0.15886048152E+02 -0.15926291524E+01  0.10426242750E+02  0.19068548231E+02  0.51100000000E-03 0.  1.
         12    1    3    3    0    0 -0.14138504686E+02 -0.63470333244E+01  0.14999537958E+02  0.21567760332E+02  0.00000000000E+00 0. -1.
</event>
<event>
 7    1  0.2472338E-008  0.4614232E+02  0.7816164E-02  0.1320468E+00
        -11   -1    0    0    0    0  0.00000000000E+00  0.00000000000E+00  0.45593999997E+02  0.45594000000E+02  0.51100000000E-03 0.  1.
         11   -1    0    0    0    0 -0.00000000000E+00 -0.00000000000E+00 -0.45593999997E+02  0.45594000000E+02  0.51100000000E-03 0. -1.
    9900012    2    1    2    0    0  0.27173424674E+02  0.25546526012E+02  0.25260512385E+02  0.46142317791E+02  0.10000000271E+02 0.  0.
         12    1    1    2    0    0 -0.27173424674E+02 -0.25546526012E+02 -0.25260512385E+02  0.45045682209E+02  0.00000000000E+00 0. -1.
         11    1    3    3    0    0  0.20721882928E+02  0.19717046741E+02  0.23572802578E+02  0.37065285456E+02  0.51100000000E-03 0. -1.
        -11    1    3    3    0    0  0.31017661345E+01  0.27883534672E+01  0.18203447759E+01  0.45507717560E+01  0.51100000000E-03 0.  1.
         12    1    3    3    0    0  0.33497756110E+01  0.30411258034E+01 -0.13263496883E+00  0.45262605793E+01  0.00000000000E+00 0. -1.
</event>
<event>
 7    1  0.2472338E-008  0.4614232E+02  0.7816164E-02  0.1320468E+00
        -11   -1    0    0    0    0  0.00000000000E+00  0.00000000000E+00  0.45593999997E+02  0.45594000000E+02  0.51100000000E-03 0. -1.
         11   -1    0    0    0    0 -0.00000000000E+00 -0.00000000000E+00 -0.45593999997E+02  0.45594000000E+02  0.51100000000E-03 0.  1.
    9900012    2    1    2    0    0  0.29088708648E+02  0.13239942730E+02 -0.31743730335E+02  0.46142317966E+02  0.10000001870E+02 0.  0.
         12    1    1    2    0    0 -0.29088708648E+02 -0.13239942730E+02  0.31743730335E+02  0.45045682034E+02  0.00000000000E+00 0. -1.
         11    1    3    3    0    0 -0.65554466347E-01 -0.54500949111E+00 -0.20300003628E+01  0.21029109509E+01  0.51100000000E-03 0. -1.
        -11    1    3    3    0    0  0.96672284393E+01  0.33854101771E+01 -0.11588129584E+02  0.15466126059E+02  0.51100000000E-03 0.  1.
        -12    1    3    3    0    0  0.19487034675E+02  0.10399542044E+02 -0.18125600389E+02  0.28573280956E+02  0.00000000000E+00 0.  1.
</event>
<event>
 7    1  0.2472338E-008  0.4614232E+02  0.7816164E-02  0.1320468E+00
        -11   -1    0    0    0    0  0.00000000000E+00  0.00000000000E+00  0.45593999997E+02  0.45594000000E+02  0.51100000000E-03 0.  1.
         11   -1    0    0    0    0 -0.00000000000E+00 -0.00000000000E+00 -0.45593999997E+02  0.45594000000E+02  0.51100000000E-03 0. -1.
    9900012    2    1    2    0    0  0.17040564077E+02 -0.49866820308E+01  0.41398860340E+02  0.46142318085E+02  0.10000002951E+02 0.  0.
         12    1    1    2    0    0 -0.17040564077E+02  0.49866820308E+01 -0.41398860340E+02  0.45045681915E+02  0.00000000000E+00 0. -1.
         11    1    3    3    0    0  0.95564007192E+01 -0.98116245424E+00  0.22980107476E+02  0.24907284363E+02  0.51100000000E-03 0.  1.
        -11    1    3    3    0    0  0.41549292137E+01  0.91931289890E+00  0.10529359680E+02  0.11356759596E+02  0.51100000000E-03 0. -1.
         12    1    3    3    0    0  0.33292341439E+01 -0.49248324755E+01  0.78893931842E+01  0.98782741262E+01  0.00000000000E+00 0. -1.
</event>
<event>
 7    1  0.2472338E-008  0.4614232E+02  0.7816164E-02  0.1320468E+00
        -11   -1    0    0    0    0  0.00000000000E+00  0.00000000000E+00  0.45593999997E+02  0.45594000000E+02  0.51100000000E-03 0. -1.
         11   -1    0    0    0    0 -0.00000000000E+00 -0.00000000000E+00 -0.45593999997E+02  0.45594000000E+02  0.51100000000E-03 0.  1.
    9900012    2    1    2    0    0 -0.14121830261E+02 -0.13425536107E+02 -0.40613330158E+02  0.46142315455E+02  0.99999789679E+01 0.  0.
         12    1    1    2    0    0  0.14121830261E+02  0.13425536107E+02  0.40613330158E+02  0.45045684545E+02  0.00000000000E+00 0. -1.
         11    1    3    3    0    0 -0.51467757714E+01 -0.33659689145E+01 -0.59171331336E+01  0.85341380558E+01  0.51100000000E-03 0. -1.
        -11    1    3    3    0    0 -0.29259508289E+01 -0.70397368777E+01 -0.15904839762E+02  0.17637545512E+02  0.51100000000E-03 0.  1.
        -12    1    3    3    0    0 -0.60491036608E+01 -0.30198303145E+01 -0.18791357261E+02  0.19970631887E+02  0.00000000000E+00 0.  1.
</event>
<event>
 7    1  0.2472338E-008  0.4614232E+02  0.7816164E-02  0.1320468E+00
        -11   -1    0    0    0    0  0.00000000000E+00  0.00000000000E+00  0.45593999997E+02  0.45594000000E+02  0.51100000000E-03 0. -1.
         11   -1    0    0    0    0 -0.00000000000E+00 -0.00000000000E+00 -0.45593999997E+02  0.45594000000E+02  0.51100000000E-03 0.  1.
    9900012    2    1    2    0    0 -0.15505256443E+02 -0.38217909118E+02 -0.18113304693E+02  0.46142319168E+02  0.10000012828E+02 0.  0.
         12    1    1    2    0    0  0.15505256443E+02  0.38217909118E+02  0.18113304693E+02  0.45045680832E+02  0.00000000000E+00 0. -1.
         11    1    3    3    0    0 -0.68182151668E+00 -0.73678918811E+01 -0.49972410132E+01  0.89287809558E+01  0.51100000000E-03 0. -1.
        -11    1    3    3    0    0 -0.84982390310E+00 -0.76311188167E+01 -0.37146903342E+01  0.85296599933E+01  0.51100000000E-03 0.  1.
         12    1    3    3    0    0 -0.13973611023E+02 -0.23218898420E+02 -0.94013733460E+01  0.28683878219E+02  0.00000000000E+00 0. -1.
</event>
<event>
 7    1  0.2472338E-008  0.4614232E+02  0.7816164E-02  0.1320468E+00
        -11   -1    0    0    0    0  0.00000000000E+00  0.00000000000E+00  0.45593999997E+02  0.45594000000E+02  0.51100000000E-03 0. -1.
         11   -1    0    0    0    0 -0.00000000000E+00 -0.00000000000E+00 -0.45593999997E+02  0.45594000000E+02  0.51100000000E-03 0.  1.
    9900012    2    1    2    0    0 -0.35882835743E+02 -0.62910508294E+01 -0.26494493499E+02  0.46142318661E+02  0.10000008208E+02 0.  0.
         12    1    1    2    0    0  0.35882835743E+02  0.62910508294E+01  0.26494493499E+02  0.45045681339E+02  0.00000000000E+00 0. -1.
         11    1    3    3    0    0 -0.22234879861E+02 -0.39445112284E+01 -0.13120204037E+02  0.26116829928E+02  0.51100000000E-03 0. -1.
        -11    1    3    3    0    0 -0.51128727924E+01 -0.17985919983E+01 -0.19622667399E+01  0.57642772650E+01  0.51100000000E-03 0.  1.
        -12    1    3    3    0    0 -0.85350830897E+01 -0.54794760276E+00 -0.11412022722E+02  0.14261211468E+02  0.00000000000E+00 0.  1.
</event>
<event>
 7    1  0.2472338E-008  0.4614232E+02  0.7816164E-02  0.1320468E+00
        -11   -1    0    0    0    0  0.00000000000E+00  0.00000000000E+00  0.45593999997E+02  0.45594000000E+02  0.51100000000E-03 0.  1.
         11   -1    0    0    0    0 -0.00000000000E+00 -0.00000000000E+00 -0.45593999997E+02  0.45594000000E+02  0.51100000000E-03 0. -1.
    9900012    2    1    2    0    0  0.40014115620E+02 -0.13077780911E+02  0.16029837925E+02  0.46142317562E+02  0.99999981875E+01 0.  0.
         12    1    1    2    0    0 -0.40014115620E+02  0.13077780911E+02 -0.16029837925E+02  0.45045682438E+02  0.00000000000E+00 0. -1.
         11    1    3    3    0    0  0.33959424293E+01 -0.17695914378E+01  0.33171523380E+01  0.50662983267E+01  0.51100000000E-03 0. -1.
        -11    1    3    3    0    0  0.34614912858E+02 -0.11909327986E+02  0.13226107449E+02  0.38922412615E+02  0.51100000000E-03 0.  1.
        -12    1    3    3    0    0  0.20032603323E+01  0.60113851203E+00 -0.51342186224E+00  0.21536066210E+01  0.00000000000E+00 0.  1.
</event>
<event>
 7    1  0.2472338E-008  0.4614232E+02  0.7816164E-02  0.1320468E+00
        -11   -1    0    0    0    0  0.00000000000E+00  0.00000000000E+00  0.45593999997E+02  0.45594000000E+02  0.51100000000E-03 0.  1.
         11   -1    0    0    0    0 -0.00000000000E+00 -0.00000000000E+00 -0.45593999997E+02  0.45594000000E+02  0.51100000000E-03 0. -1.
    9900012    2    1    2    0    0  0.25548444367E+02 -0.13892947079E+02  0.34400240470E+02  0.46142317271E+02  0.99999955342E+01 0.  0.
         12    1    1    2    0    0 -0.25548444367E+02  0.13892947079E+02 -0.34400240470E+02  0.45045682729E+02  0.00000000000E+00 0. -1.
         11    1    3    3    0    0  0.62325706637E+01 -0.16971174598E+01  0.67834466196E+01  0.93669788647E+01  0.51100000000E-03 0. -1.
        -11    1    3    3    0    0  0.11791064256E+02 -0.28475793401E+01  0.11814347527E+02  0.16932711304E+02  0.51100000000E-03 0.  1.
        -12    1    3    3    0    0  0.75248094475E+01 -0.93482502795E+01  0.15802446324E+02  0.19842627102E+02  0.00000000000E+00 0.  1.
</event>
<event>
 7    1  0.2472338E-008  0.4614231E+02  0.7816164E-02  0.1320468E+00
        -11   -1    0    0    0    0  0.00000000000E+00  0.00000000000E+00  0.45593999997E+02  0.45594000000E+02  0.51100000000E-03 0.  1.
         11   -1    0    0    0    0 -0.00000000000E+00 -0.00000000000E+00 -0.45593999997E+02  0.45594000000E+02  0.51100000000E-03 0. -1.
    9900012    2    1    2    0    0  0.48385905281E+01  0.83397111955E+01  0.44001719157E+02  0.46142311750E+02  0.99999451859E+01 0.  0.
         12    1    1    2    0    0 -0.48385905281E+01 -0.83397111955E+01 -0.44001719157E+02  0.45045688250E+02  0.00000000000E+00 0. -1.
         11    1    3    3    0    0 -0.13346522837E+01 -0.15441423357E+00  0.20805560102E+01  0.24766618758E+01  0.51100000000E-03 0. -1.
        -11    1    3    3    0    0  0.42320340509E+00  0.47067952692E+01  0.10746354740E+02  0.11739555498E+02  0.51100000000E-03 0.  1.
         12    1    3    3    0    0  0.57500394067E+01  0.37873301599E+01  0.31174808407E+02  0.31926094376E+02  0.00000000000E+00 0. -1.
</event>
<event>
 7    1  0.2472338E-008  0.4614232E+02  0.7816164E-02  0.1320468E+00
        -11   -1    0    0    0    0  0.00000000000E+00  0.00000000000E+00  0.45593999997E+02  0.45594000000E+02  0.51100000000E-03 0. -1.
         11   -1    0    0    0    0 -0.00000000000E+00 -0.00000000000E+00 -0.45593999997E+02  0.45594000000E+02  0.51100000000E-03 0.  1.
    9900012    2    1    2    0    0 -0.37144766344E+02 -0.36361667431E-01 -0.25482905644E+02  0.46142317976E+02  0.10000001961E+02 0.  0.
         12    1    1    2    0    0  0.37144766344E+02  0.36361667431E-01  0.25482905644E+02  0.45045682024E+02  0.00000000000E+00 0. -1.
         11    1    3    3    0    0 -0.12322790641E+01 -0.12791413528E+01 -0.12204182991E+01  0.21550256096E+01  0.51100000000E-03 0. -1.
        -11    1    3    3    0    0 -0.16674008857E+02  0.41405366043E+01 -0.12580328265E+02  0.21293925759E+02  0.51100000000E-03 0.  1.
        -12    1    3    3    0    0 -0.19238478423E+02 -0.28977569189E+01 -0.11682159080E+02  0.22693366607E+02  0.00000000000E+00 0.  1.
</event>
<event>
 7    1  0.2472338E-008  0.4614232E+02  0.7816164E-02  0.1320468E+00
        -11   -1    0    0    0    0  0.00000000000E+00  0.00000000000E+00  0.45593999997E+02  0.45594000000E+02  0.51100000000E-03 0.  1.
         11   -1    0    0    0    0 -0.00000000000E+00 -0.00000000000E+00 -0.45593999997E+02  0.45594000000E+02  0.51100000000E-03 0. -1.
    9900012    2    1    2    0    0 -0.33552679293E+02 -0.30029027880E+02  0.12604824793E+01  0.46142316309E+02  0.99999867588E+01 0.  0.
         12    1    1    2    0    0  0.33552679293E+02  0.30029027880E+02 -0.12604824793E+01  0.45045683691E+02  0.00000000000E+00 0. -1.
         11    1    3    3    0    0 -0.84694362425E+01 -0.55503229420E+01 -0.59438551030E+00  0.10143506762E+02  0.51100000000E-03 0. -1.
        -11    1    3    3    0    0 -0.15527808267E+02 -0.11306877704E+02 -0.18888727298E+01  0.19300936595E+02  0.51100000000E-03 0.  1.
        -12    1    3    3    0    0 -0.95554347832E+01 -0.13171827234E+02  0.37437407193E+01  0.16697872953E+02  0.00000000000E+00 0.  1.
</event>
<event>
 7    1  0.2472338E-008  0.4614232E+02  0.7816164E-02  0.1320468E+00
        -11   -1    0    0    0    0  0.00000000000E+00  0.00000000000E+00  0.45593999997E+02  0.45594000000E+02  0.51100000000E-03 0.  1.
         11   -1    0    0    0    0 -0.00000000000E+00 -0.00000000000E+00 -0.45593999997E+02  0.45594000000E+02  0.51100000000E-03 0. -1.
    9900012    2    1    2    0    0 -0.40767128578E+02 -0.96528453546E+00  0.19136951857E+02  0.46142317931E+02  0.10000001548E+02 0.  0.
         12    1    1    2    0    0  0.40767128578E+02  0.96528453546E+00 -0.19136951857E+02  0.45045682069E+02  0.00000000000E+00 0. -1.
         11    1    3    3    0    0 -0.90683859999E+01  0.76726877824E+00  0.83806140404E+01  0.12371702307E+02  0.51100000000E-03 0.  1.
        -11    1    3    3    0    0 -0.21851738119E+02 -0.87249229408E+00  0.93599019239E+01  0.23787968932E+02  0.51100000000E-03 0. -1.
        -12    1    3    3    0    0 -0.98470044592E+01 -0.86006101962E+00  0.13964358925E+01  0.99826466921E+01  0.00000000000E+00 0.  1.
</event>
<event>
 7    1  0.2472338E-008  0.4614232E+02  0.7816164E-02  0.1320468E+00
        -11   -1    0    0    0    0  0.00000000000E+00  0.00000000000E+00  0.45593999997E+02  0.45594000000E+02  0.51100000000E-03 0.  1.
         11   -1    0    0    0    0 -0.00000000000E+00 -0.00000000000E+00 -0.45593999997E+02  0.45594000000E+02  0.51100000000E-03 0. -1.
    9900012    2    1    2    0    0 -0.21678939645E+02  0.38972634055E+02  0.63459355237E+01  0.46142317333E+02  0.99999960936E+01 0.  0.
         12    1    1    2    0    0  0.21678939645E+02 -0.38972634055E+02 -0.63459355237E+01  0.45045682667E+02  0.00000000000E+00 0. -1.
         11    1    3    3    0    0  0.28456739426E+00  0.12230647747E+01 -0.93550242469E+00  0.15658962586E+01  0.51100000000E-03 0. -1.
        -11    1    3    3    0    0 -0.39423086100E+01  0.94266738799E+01  0.34685912252E+01  0.10790509857E+02  0.51100000000E-03 0.  1.
         12    1    3    3    0    0 -0.18021198429E+02  0.28322895400E+02  0.38128467231E+01  0.33785911218E+02  0.00000000000E+00 0. -1.
</event>
<event>
 7    1  0.2472338E-008  0.4614232E+02  0.7816164E-02  0.1320468E+00
        -11   -1    0    0    0    0  0.00000000000E+00  0.00000000000E+00  0.45593999997E+02  0.45594000000E+02  0.51100000000E-03 0. -1.
         11   -1    0    0    0    0 -0.00000000000E+00 -0.00000000000E+00 -0.45593999997E+02  0.45594000000E+02  0.51100000000E-03 0.  1.
    9900012    2    1    2    0    0 -0.19233265551E+01 -0.30562423937E+02 -0.33035625260E+02  0.46142317873E+02  0.10000001019E+02 0.  0.
         12    1    1    2    0    0  0.19233265551E+01  0.30562423937E+02  0.33035625260E+02  0.45045682127E+02  0.00000000000E+00 0. -1.
         11    1    3    3    0    0  0.63551482365E+00 -0.14653029888E+02 -0.14892852568E+02  0.20902445355E+02  0.51100000000E-03 0. -1.
        -11    1    3    3    0    0 -0.23350637817E+01 -0.16035447340E+02 -0.18628596244E+02  0.24690336015E+02  0.51100000000E-03 0.  1.
         12    1    3    3    0    0 -0.22377759701E+00  0.12605329061E+00  0.48582355071E+00  0.54953650236E+00  0.00000000000E+00 0. -1.
</event>
<event>
 7    1  0.2472338E-008  0.4614232E+02  0.7816164E-02  0.1320468E+00
        -11   -1    0    0    0    0  0.00000000000E+00  0.00000000000E+00  0.45593999997E+02  0.45594000000E+02  0.51100000000E-03 0.  1.
         11   -1    0    0    0    0 -0.00000000000E+00 -0.00000000000E+00 -0.45593999997E+02  0.45594000000E+02  0.51100000000E-03 0. -1.
    9900012    2    1    2    0    0  0.13926034768E+02 -0.41323157376E+02 -0.11294943337E+02  0.46142317356E+02  0.99999963024E+01 0.  0.
         12    1    1    2    0    0 -0.13926034768E+02  0.41323157376E+02  0.11294943337E+02  0.45045682644E+02  0.00000000000E+00 0. -1.
         11    1    3    3    0    0  0.80828715037E+00 -0.12575212775E+02 -0.52519506846E+01  0.13651823714E+02  0.51100000000E-03 0. -1.
        -11    1    3    3    0    0  0.37500637912E+00 -0.36657977842E+01 -0.15624011996E+01  0.40024743533E+01  0.51100000000E-03 0.  1.
        -12    1    3    3    0    0  0.12742741238E+02 -0.25082146817E+02 -0.44805914532E+01  0.28488019289E+02  0.00000000000E+00 0.  1.
</event>
<event>
 7    1  0.2472338E-008  0.4614232E+02  0.7816164E-02  0.1320468E+00
        -11   -1    0    0    0    0  0.00000000000E+00  0.00000000000E+00  0.45593999997E+02  0.45594000000E+02  0.51100000000E-03 0.  1.
         11   -1    0    0    0    0 -0.00000000000E+00 -0.00000000000E+00 -0.45593999997E+02  0.45594000000E+02  0.51100000000E-03 0. -1.
    9900012    2    1    2    0    0 -0.48277585374E+01 -0.30380586130E+02  0.32906325052E+02  0.46142317693E+02  0.99999993744E+01 0.  0.
         12    1    1    2    0    0  0.48277585374E+01  0.30380586130E+02 -0.32906325052E+02  0.45045682307E+02  0.00000000000E+00 0. -1.
         11    1    3    3    0    0 -0.28409498718E+01 -0.11003915953E+02  0.11905790504E+02  0.16459192273E+02  0.51100000000E-03 0. -1.
        -11    1    3    3    0    0 -0.62387604715E+00 -0.16288637351E+02  0.12514643615E+02  0.20550553111E+02  0.51100000000E-03 0.  1.
         12    1    3    3    0    0 -0.13629326185E+01 -0.30880328258E+01  0.84858909329E+01  0.91325723091E+01  0.00000000000E+00 0. -1.
</event>
<event>
 7    1  0.2472338E-008  0.4614232E+02  0.7816164E-02  0.1320468E+00
        -11   -1    0    0    0    0  0.00000000000E+00  0.00000000000E+00  0.45593999997E+02  0.45594000000E+02  0.51100000000E-03 0. -1.
         11   -1    0    0    0    0 -0.00000000000E+00 -0.00000000000E+00 -0.45593999997E+02  0.45594000000E+02  0.51100000000E-03 0.  1.
    9900012    2    1    2    0    0  0.21867612741E+02 -0.27664804764E+02 -0.28028192159E+02  0.46142318017E+02  0.10000002335E+02 0.  0.
         12    1    1    2    0    0 -0.21867612741E+02  0.27664804764E+02  0.28028192159E+02  0.45045681983E+02  0.00000000000E+00 0. -1.
         11    1    3    3    0    0  0.62625095681E+01 -0.47318416748E+01 -0.81035905765E+01  0.11281734451E+02  0.51100000000E-03 0. -1.
        -11    1    3    3    0    0  0.13210166439E+02 -0.14835058385E+02 -0.16193401904E+02  0.25628377243E+02  0.51100000000E-03 0.  1.
         12    1    3    3    0    0  0.23949367336E+01 -0.80979047038E+01 -0.37311996783E+01  0.92322063230E+01  0.00000000000E+00 0. -1.
</event>
<event>
 7    1  0.2472338E-008  0.4614232E+02  0.7816164E-02  0.1320468E+00
        -11   -1    0    0    0    0  0.00000000000E+00  0.00000000000E+00  0.45593999997E+02  0.45594000000E+02  0.51100000000E-03 0.  1.
         11   -1    0    0    0    0 -0.00000000000E+00 -0.00000000000E+00 -0.45593999997E+02  0.45594000000E+02  0.51100000000E-03 0. -1.
    9900012    2    1    2    0    0 -0.72233961993E+01 -0.25591173470E+02  0.36359701781E+02  0.46142317345E+02  0.99999962083E+01 0.  0.
         12    1    1    2    0    0  0.72233961993E+01  0.25591173470E+02 -0.36359701781E+02  0.45045682655E+02  0.00000000000E+00 0. -1.
         11    1    3    3    0    0 -0.76839322294E+00 -0.12680552906E+01  0.15611368610E+00  0.14908937283E+01  0.51100000000E-03 0. -1.
        -11    1    3    3    0    0 -0.18432304450E+01 -0.18616676703E+01  0.73068907105E+01  0.77623422434E+01  0.51100000000E-03 0.  1.
        -12    1    3    3    0    0 -0.46117725313E+01 -0.22461450510E+02  0.28896697384E+02  0.36889081374E+02  0.00000000000E+00 0.  1.
</event>
<event>
 7    1  0.2635554E-008  0.4614232E+02  0.7816164E-02  0.1320468E+00
        -11   -1    0    0    0    0  0.00000000000E+00  0.00000000000E+00  0.45593999997E+02  0.45594000000E+02  0.51100000000E-03 0. -1.
         11   -1    0    0    0    0 -0.00000000000E+00 -0.00000000000E+00 -0.45593999997E+02  0.45594000000E+02  0.51100000000E-03 0.  1.
    9900012    2    1    2    0    0  0.21431603493E+02  0.11946139517E+02 -0.37776839649E+02  0.46142317726E+02  0.99999996835E+01 0.  0.
         12    1    1    2    0    0 -0.21431603493E+02 -0.11946139517E+02  0.37776839649E+02  0.45045682274E+02  0.00000000000E+00 0. -1.
         11    1    3    3    0    0  0.45064451410E+00  0.15946526198E+01 -0.57883152773E+00  0.17552901910E+01  0.51100000000E-03 0. -1.
        -11    1    3    3    0    0  0.41414478676E+01  0.28958553595E+01 -0.40878574563E+01  0.64998575021E+01  0.51100000000E-03 0.  1.
        -12    1    3    3    0    0  0.16839511111E+02  0.74556315381E+01 -0.33110150665E+02  0.37887170033E+02  0.00000000000E+00 0.  1.
</event>
<event>
 7    1  0.2472338E-008  0.4614232E+02  0.7816164E-02  0.1320468E+00
        -11   -1    0    0    0    0  0.00000000000E+00  0.00000000000E+00  0.45593999997E+02  0.45594000000E+02  0.51100000000E-03 0.  1.
         11   -1    0    0    0    0 -0.00000000000E+00 -0.00000000000E+00 -0.45593999997E+02  0.45594000000E+02  0.51100000000E-03 0. -1.
    9900012    2    1    2    0    0  0.23303315495E+02  0.33704458340E+02  0.18710383196E+02  0.46142318027E+02  0.10000002427E+02 0.  0.
         12    1    1    2    0    0 -0.23303315495E+02 -0.33704458340E+02 -0.18710383196E+02  0.45045681973E+02  0.00000000000E+00 0. -1.
         11    1    3    3    0    0  0.22021083729E+02  0.28735038128E+02  0.15653018178E+02  0.39441697773E+02  0.51100000000E-03 0. -1.
        -11    1    3    3    0    0  0.20331067472E+01  0.27400562744E+01  0.26340612677E+01  0.43104188260E+01  0.51100000000E-03 0.  1.
         12    1    3    3    0    0 -0.75087498193E+00  0.22293639377E+01  0.42330375009E+00  0.23902014287E+01  0.00000000000E+00 0. -1.
</event>
<event>
 7    1  0.2472338E-008  0.4614232E+02  0.7816164E-02  0.1320468E+00
        -11   -1    0    0    0    0  0.00000000000E+00  0.00000000000E+00  0.45593999997E+02  0.45594000000E+02  0.51100000000E-03 0.  1.
         11   -1    0    0    0    0 -0.00000000000E+00 -0.00000000000E+00 -0.45593999997E+02  0.45594000000E+02  0.51100000000E-03 0. -1.
    9900012    2    1    2    0    0  0.28614362446E+02 -0.24896158886E+02  0.24300473400E+02  0.46142317932E+02  0.10000001557E+02 0.  0.
         12    1    1    2    0    0 -0.28614362446E+02  0.24896158886E+02 -0.24300473400E+02  0.45045682068E+02  0.00000000000E+00 0. -1.
         11    1    3    3    0    0  0.27126475300E+02 -0.22329029310E+02  0.21009937095E+02  0.40937130690E+02  0.51100000000E-03 0. -1.
        -11    1    3    3    0    0  0.16838112293E+01 -0.81685567541E+00  0.28159994704E+01  0.33811723897E+01  0.51100000000E-03 0.  1.
         12    1    3    3    0    0 -0.19592408283E+00 -0.17502739008E+01  0.47453683550E+00  0.18240148525E+01  0.00000000000E+00 0. -1.
</event>
<event>
 7    1  0.2472338E-008  0.4614232E+02  0.7816164E-02  0.1320468E+00
        -11   -1    0    0    0    0  0.00000000000E+00  0.00000000000E+00  0.45593999997E+02  0.45594000000E+02  0.51100000000E-03 0. -1.
         11   -1    0    0    0    0 -0.00000000000E+00 -0.00000000000E+00 -0.45593999997E+02  0.45594000000E+02  0.51100000000E-03 0.  1.
    9900012    2    1    2    0    0 -0.32235474666E+02 -0.31454435878E+02  0.77851649174E+00  0.46142318173E+02  0.10000003755E+02 0.  0.
         12    1    1    2    0    0  0.32235474666E+02  0.31454435878E+02 -0.77851649174E+00  0.45045681827E+02  0.00000000000E+00 0. -1.
         11    1    3    3    0    0 -0.20401245753E+02 -0.18351160232E+02 -0.80577822688E+00  0.27452234680E+02  0.51100000000E-03 0. -1.
        -11    1    3    3    0    0 -0.52397407967E+01 -0.26940674601E+01 -0.13028102823E+01  0.60340863425E+01  0.51100000000E-03 0.  1.
         12    1    3    3    0    0 -0.65944881161E+01 -0.10409208186E+02  0.28871050009E+01  0.12655997150E+02  0.00000000000E+00 0. -1.
</event>
<event>
 7    1  0.2472338E-008  0.4614232E+02  0.7816164E-02  0.1320468E+00
        -11   -1    0    0    0    0  0.00000000000E+00  0.00000000000E+00  0.45593999997E+02  0.45594000000E+02  0.51100000000E-03 0. -1.
         11   -1    0    0    0    0 -0.00000000000E+00 -0.00000000000E+00 -0.45593999997E+02  0.45594000000E+02  0.51100000000E-03 0.  1.
    9900012    2    1    2    0    0 -0.42189484719E+01 -0.43010156012E+02  0.12705925353E+02  0.46142316683E+02  0.99999901722E+01 0.  0.
         12    1    1    2    0    0  0.42189484719E+01  0.43010156012E+02 -0.12705925353E+02  0.45045683317E+02  0.00000000000E+00 0. -1.
         11    1    3    3    0    0 -0.36838578937E+01 -0.34340535614E+02  0.61238661899E+01  0.35076273072E+02  0.51100000000E-03 0. -1.
        -11    1    3    3    0    0 -0.61535938341E+00 -0.33038381368E+01  0.15182999490E+01  0.36877159057E+01  0.51100000000E-03 0.  1.
         12    1    3    3    0    0  0.80268805214E-01 -0.53657822615E+01  0.50637592142E+01  0.73783277061E+01  0.00000000000E+00 0. -1.
</event>
<event>
 7    1  0.2472338E-008  0.4614232E+02  0.7816164E-02  0.1320468E+00
        -11   -1    0    0    0    0  0.00000000000E+00  0.00000000000E+00  0.45593999997E+02  0.45594000000E+02  0.51100000000E-03 0.  1.
         11   -1    0    0    0    0 -0.00000000000E+00 -0.00000000000E+00 -0.45593999997E+02  0.45594000000E+02  0.51100000000E-03 0. -1.
    9900012    2    1    2    0    0 -0.15766402997E+02 -0.18326040442E+02  0.38009080546E+02  0.46142318456E+02  0.10000006341E+02 0.  0.
         12    1    1    2    0    0  0.15766402997E+02  0.18326040442E+02 -0.38009080546E+02  0.45045681544E+02  0.00000000000E+00 0. -1.
         11    1    3    3    0    0 -0.11489200249E+01 -0.48577357362E+01  0.74306126254E+01  0.89516265537E+01  0.51100000000E-03 0. -1.
        -11    1    3    3    0    0 -0.75092644113E+01 -0.11600371395E+02  0.19886636931E+02  0.24216440639E+02  0.51100000000E-03 0.  1.
         12    1    3    3    0    0 -0.71082185606E+01 -0.18679333112E+01  0.10691830989E+02  0.12974251264E+02  0.00000000000E+00 0. -1.
</event>
<event>
 7    1  0.2472338E-008  0.4614232E+02  0.7816164E-02  0.1320468E+00
        -11   -1    0    0    0    0  0.00000000000E+00  0.00000000000E+00  0.45593999997E+02  0.45594000000E+02  0.51100000000E-03 0.  1.
         11   -1    0    0    0    0 -0.00000000000E+00 -0.00000000000E+00 -0.45593999997E+02  0.45594000000E+02  0.51100000000E-03 0. -1.
    9900012    2    1    2    0    0 -0.21031169559E+02  0.43920453468E+01  0.39591834547E+02  0.46142317431E+02  0.99999969871E+01 0.  0.
         12    1    1    2    0    0  0.21031169559E+02 -0.43920453468E+01 -0.39591834547E+02  0.45045682569E+02  0.00000000000E+00 0. -1.
         11    1    3    3    0    0 -0.29182329868E+01 -0.62000593357E+00  0.66008820839E+01  0.72437652965E+01  0.51100000000E-03 0. -1.
        -11    1    3    3    0    0 -0.10792637626E+02 -0.12418024214E+01  0.19538964339E+02  0.22356078097E+02  0.51100000000E-03 0.  1.
        -12    1    3    3    0    0 -0.73202989463E+01  0.62538537017E+01  0.13451988124E+02  0.16542474037E+02  0.00000000000E+00 0.  1.
</event>
<event>
 7    1  0.2472338E-008  0.4614232E+02  0.7816164E-02  0.1320468E+00
        -11   -1    0    0    0    0  0.00000000000E+00  0.00000000000E+00  0.45593999997E+02  0.45594000000E+02  0.51100000000E-03 0.  1.
         11   -1    0    0    0    0 -0.00000000000E+00 -0.00000000000E+00 -0.45593999997E+02  0.45594000000E+02  0.51100000000E-03 0. -1.
    9900012    2    1    2    0    0  0.13549262511E+02 -0.16933637310E+01  0.42926256568E+02  0.46142317651E+02  0.99999989996E+01 0.  0.
         12    1    1    2    0    0 -0.13549262511E+02  0.16933637310E+01 -0.42926256568E+02  0.45045682349E+02  0.00000000000E+00 0. -1.
         11    1    3    3    0    0  0.15722501016E+00  0.19819979712E+01  0.11183985202E+02  0.11359338049E+02  0.51100000000E-03 0. -1.
        -11    1    3    3    0    0  0.72341084562E+01 -0.18631322121E+01  0.13283172950E+02  0.15239628299E+02  0.51100000000E-03 0.  1.
        -12    1    3    3    0    0  0.61579290447E+01 -0.18122294901E+01  0.18459098416E+02  0.19543351303E+02  0.00000000000E+00 0.  1.
</event>
<event>
 7    1  0.2472338E-008  0.4614231E+02  0.7816164E-02  0.1320468E+00
        -11   -1    0    0    0    0  0.00000000000E+00  0.00000000000E+00  0.45593999997E+02  0.45594000000E+02  0.51100000000E-03 0.  1.
         11   -1    0    0    0    0 -0.00000000000E+00 -0.00000000000E+00 -0.45593999997E+02  0.45594000000E+02  0.51100000000E-03 0. -1.
    9900012    2    1    2    0    0 -0.25526066244E+02  0.32124973212E+02  0.18588174837E+02  0.46142309800E+02  0.99999274081E+01 0.  0.
         12    1    1    2    0    0  0.25526066244E+02 -0.32124973212E+02 -0.18588174837E+02  0.45045690200E+02  0.00000000000E+00 0. -1.
         11    1    3    3    0    0 -0.26612614215E+01  0.83073910675E+01  0.39188138982E+01  0.95630623407E+01  0.51100000000E-03 0. -1.
        -11    1    3    3    0    0 -0.43016915500E+01  0.81128117670E+01  0.44426154771E+01  0.10200936109E+02  0.51100000000E-03 0.  1.
         12    1    3    3    0    0 -0.18563113273E+02  0.15704770378E+02  0.10226745462E+02  0.26378311351E+02  0.00000000000E+00 0. -1.
</event>
<event>
 7    1  0.2472338E-008  0.4614232E+02  0.7816164E-02  0.1320468E+00
        -11   -1    0    0    0    0  0.00000000000E+00  0.00000000000E+00  0.45593999997E+02  0.45594000000E+02  0.51100000000E-03 0.  1.
         11   -1    0    0    0    0 -0.00000000000E+00 -0.00000000000E+00 -0.45593999997E+02  0.45594000000E+02  0.51100000000E-03 0. -1.
    9900012    2    1    2    0    0  0.41653447347E+02 -0.11987800282E+02  0.12263619065E+02  0.46142318918E+02  0.10000010551E+02 0.  0.
         12    1    1    2    0    0 -0.41653447347E+02  0.11987800282E+02 -0.12263619065E+02  0.45045681082E+02  0.00000000000E+00 0. -1.
         11    1    3    3    0    0  0.16940989174E+02 -0.51868906081E+01  0.92122574200E+01  0.19969142080E+02  0.51100000000E-03 0. -1.
        -11    1    3    3    0    0  0.79161761668E+01 -0.16299260817E+01 -0.98304575114E+00  0.81417985326E+01  0.51100000000E-03 0.  1.
        -12    1    3    3    0    0  0.16796282006E+02 -0.51709835927E+01  0.40344073966E+01  0.18031378305E+02  0.00000000000E+00 0.  1.
</event>
<event>
 7    1  0.2472338E-008  0.4614232E+02  0.7816164E-02  0.1320468E+00
        -11   -1    0    0    0    0  0.00000000000E+00  0.00000000000E+00  0.45593999997E+02  0.45594000000E+02  0.51100000000E-03 0.  1.
         11   -1    0    0    0    0 -0.00000000000E+00 -0.00000000000E+00 -0.45593999997E+02  0.45594000000E+02  0.51100000000E-03 0. -1.
    9900012    2    1    2    0    0  0.61970786475E+00  0.12135089998E+02  0.43375903875E+02  0.46142317809E+02  0.10000000436E+02 0.  0.
         12    1    1    2    0    0 -0.61970786475E+00 -0.12135089998E+02 -0.43375903875E+02  0.45045682191E+02  0.00000000000E+00 0. -1.
         11    1    3    3    0    0  0.27722632576E+01  0.39174741729E+01  0.12083659349E+02  0.13001802605E+02  0.51100000000E-03 0. -1.
        -11    1    3    3    0    0 -0.30693930728E+01  0.27000053837E+01  0.61574224645E+01  0.73908764416E+01  0.51100000000E-03 0.  1.
        -12    1    3    3    0    0  0.91683768003E+00  0.55176104410E+01  0.25134822061E+02  0.25749638762E+02  0.00000000000E+00 0.  1.
</event>
<event>
 7    1  0.2472338E-008  0.4614232E+02  0.7816164E-02  0.1320468E+00
        -11   -1    0    0    0    0  0.00000000000E+00  0.00000000000E+00  0.45593999997E+02  0.45594000000E+02  0.51100000000E-03 0. -1.
         11   -1    0    0    0    0 -0.00000000000E+00 -0.00000000000E+00 -0.45593999997E+02  0.45594000000E+02  0.51100000000E-03 0.  1.
    9900012    2    1    2    0    0  0.37989951518E+02 -0.16067309310E+02 -0.18102999670E+02  0.46142318277E+02  0.10000004706E+02 0.  0.
         12    1    1    2    0    0 -0.37989951518E+02  0.16067309310E+02  0.18102999670E+02  0.45045681723E+02  0.00000000000E+00 0. -1.
         11    1    3    3    0    0 -0.20583818226E-01  0.51891995172E+00  0.24096907577E+00  0.57251023263E+00  0.51100000000E-03 0. -1.
        -11    1    3    3    0    0  0.12054680847E+02 -0.40027035022E+01 -0.37562259628E+01  0.13245610570E+02  0.51100000000E-03 0.  1.
         12    1    3    3    0    0  0.25955854490E+02 -0.12583525760E+02 -0.14587742783E+02  0.32324197474E+02  0.00000000000E+00 0. -1.
</event>
<event>
 7    1  0.2472338E-008  0.4614232E+02  0.7816164E-02  0.1320468E+00
        -11   -1    0    0    0    0  0.00000000000E+00  0.00000000000E+00  0.45593999997E+02  0.45594000000E+02  0.51100000000E-03 0. -1.
         11   -1    0    0    0    0 -0.00000000000E+00 -0.00000000000E+00 -0.45593999997E+02  0.45594000000E+02  0.51100000000E-03 0.  1.
    9900012    2    1    2    0    0  0.44842713319E+02 -0.42622122973E+01 -0.27943679368E+00  0.46142317894E+02  0.10000001210E+02 0.  0.
         12    1    1    2    0    0 -0.44842713319E+02  0.42622122973E+01  0.27943679368E+00  0.45045682106E+02  0.00000000000E+00 0. -1.
         11    1    3    3    0    0  0.17016390975E+02  0.17197455967E+01  0.16780707552E+01  0.17185197364E+02  0.51100000000E-03 0. -1.
        -11    1    3    3    0    0  0.40617710060E+01  0.83195673312E+00 -0.68469600408E+00  0.42022547032E+01  0.51100000000E-03 0.  1.
        -12    1    3    3    0    0  0.23764551338E+02 -0.68139146271E+01 -0.12728115448E+01  0.24754865827E+02  0.00000000000E+00 0.  1.
</event>
<event>
 7    1  0.2472338E-008  0.4614232E+02  0.7816164E-02  0.1320468E+00
        -11   -1    0    0    0    0  0.00000000000E+00  0.00000000000E+00  0.45593999997E+02  0.45594000000E+02  0.51100000000E-03 0.  1.
         11   -1    0    0    0    0 -0.00000000000E+00 -0.00000000000E+00 -0.45593999997E+02  0.45594000000E+02  0.51100000000E-03 0. -1.
    9900012    2    1    2    0    0  0.39344537316E+01  0.44499059324E+02 -0.57850910347E+01  0.46142317796E+02  0.10000000321E+02 0.  0.
         12    1    1    2    0    0 -0.39344537316E+01 -0.44499059324E+02  0.57850910347E+01  0.45045682204E+02  0.00000000000E+00 0. -1.
         11    1    3    3    0    0  0.11150231542E+01  0.12301128337E+02 -0.24858978227E+01  0.12599235026E+02  0.51100000000E-03 0. -1.
        -11    1    3    3    0    0  0.48843654302E+00  0.21092011008E+02 -0.58874826317E+01  0.21903742844E+02  0.51100000000E-03 0.  1.
         12    1    3    3    0    0  0.23309940344E+01  0.11105919979E+02  0.25882894197E+01  0.11639339925E+02  0.00000000000E+00 0. -1.
</event>
<event>
 7    1  0.2472338E-008  0.4614232E+02  0.7816164E-02  0.1320468E+00
        -11   -1    0    0    0    0  0.00000000000E+00  0.00000000000E+00  0.45593999997E+02  0.45594000000E+02  0.51100000000E-03 0.  1.
         11   -1    0    0    0    0 -0.00000000000E+00 -0.00000000000E+00 -0.45593999997E+02  0.45594000000E+02  0.51100000000E-03 0. -1.
    9900012    2    1    2    0    0  0.74777778285E+01 -0.97882380906E+01  0.43328821351E+02  0.46142317345E+02  0.99999962101E+01 0.  0.
         12    1    1    2    0    0 -0.74777778285E+01  0.97882380906E+01 -0.43328821351E+02  0.45045682655E+02  0.00000000000E+00 0. -1.
         11    1    3    3    0    0  0.59283204172E+01 -0.41447177946E+01  0.18982217484E+02  0.20313745332E+02  0.51100000000E-03 0. -1.
        -11    1    3    3    0    0  0.34885164412E+01 -0.46170370363E+01  0.12421236166E+02  0.13703061195E+02  0.51100000000E-03 0.  1.
         12    1    3    3    0    0 -0.19390590298E+01 -0.10264832597E+01  0.11925367701E+02  0.12125510819E+02  0.00000000000E+00 0. -1.
</event>
<event>
 7    1  0.2472338E-008  0.4614232E+02  0.7816164E-02  0.1320468E+00
        -11   -1    0    0    0    0  0.00000000000E+00  0.00000000000E+00  0.45593999997E+02  0.45594000000E+02  0.51100000000E-03 0.  1.
         11   -1    0    0    0    0 -0.00000000000E+00 -0.00000000000E+00 -0.45593999997E+02  0.45594000000E+02  0.51100000000E-03 0. -1.
    9900012    2    1    2    0    0 -0.21540527052E+02 -0.34568987446E+01  0.39410265415E+02  0.46142317913E+02  0.10000001384E+02 0.  0.
         12    1    1    2    0    0  0.21540527052E+02  0.34568987446E+01 -0.39410265415E+02  0.45045682087E+02  0.00000000000E+00 0. -1.
         11    1    3    3    0    0 -0.35048513977E+01  0.53530208989E+00  0.93946005389E+01  0.10041366998E+02  0.51100000000E-03 0. -1.
        -11    1    3    3    0    0 -0.10346985962E+02  0.13700173574E+01  0.12972417251E+02  0.16649945215E+02  0.51100000000E-03 0.  1.
        -12    1    3    3    0    0 -0.76886896919E+01 -0.53622181919E+01  0.17043247625E+02  0.19451005700E+02  0.00000000000E+00 0.  1.
</event>
<event>
 7    1  0.2472338E-008  0.4614232E+02  0.7816164E-02  0.1320468E+00
        -11   -1    0    0    0    0  0.00000000000E+00  0.00000000000E+00  0.45593999997E+02  0.45594000000E+02  0.51100000000E-03 0.  1.
         11   -1    0    0    0    0 -0.00000000000E+00 -0.00000000000E+00 -0.45593999997E+02  0.45594000000E+02  0.51100000000E-03 0. -1.
    9900012    2    1    2    0    0  0.54838287377E+00  0.19904638042E+02  0.40405665943E+02  0.46142321188E+02  0.10000031249E+02 0.  0.
         12    1    1    2    0    0 -0.54838287377E+00 -0.19904638042E+02 -0.40405665943E+02  0.45045678812E+02  0.00000000000E+00 0. -1.
         11    1    3    3    0    0 -0.17139515492E+01  0.34960096647E+01  0.79912065604E+01  0.88892685886E+01  0.51100000000E-03 0. -1.
        -11    1    3    3    0    0 -0.20411742740E+01  0.72397888580E+01  0.89192020456E+01  0.11667609032E+02  0.51100000000E-03 0.  1.
        -12    1    3    3    0    0  0.43035086969E+01  0.91688395190E+01  0.23495257337E+02  0.25585443568E+02  0.00000000000E+00 0.  1.
</event>
<event>
 7    1  0.2472338E-008  0.4614232E+02  0.7816164E-02  0.1320468E+00
        -11   -1    0    0    0    0  0.00000000000E+00  0.00000000000E+00  0.45593999997E+02  0.45594000000E+02  0.51100000000E-03 0.  1.
         11   -1    0    0    0    0 -0.00000000000E+00 -0.00000000000E+00 -0.45593999997E+02  0.45594000000E+02  0.51100000000E-03 0. -1.
    9900012    2    1    2    0    0 -0.13864385606E+02 -0.41398235399E+02  0.11094070383E+02  0.46142317854E+02  0.10000000843E+02 0.  0.
         12    1    1    2    0    0  0.13864385606E+02  0.41398235399E+02 -0.11094070383E+02  0.45045682146E+02  0.00000000000E+00 0. -1.
         11    1    3    3    0    0 -0.11410384189E+02 -0.29310825597E+02  0.77770865623E+01  0.32400685798E+02  0.51100000000E-03 0. -1.
        -11    1    3    3    0    0 -0.32320754889E+01 -0.12014469176E+02  0.35280114421E+01  0.12932155526E+02  0.51100000000E-03 0.  1.
         12    1    3    3    0    0  0.77807407145E+00 -0.72940625915E-01 -0.21102762129E+00  0.80947652994E+00  0.00000000000E+00 0. -1.
</event>
<event>
 7    1  0.2472338E-008  0.4614232E+02  0.7816164E-02  0.1320468E+00
        -11   -1    0    0    0    0  0.00000000000E+00  0.00000000000E+00  0.45593999997E+02  0.45594000000E+02  0.51100000000E-03 0.  1.
         11   -1    0    0    0    0 -0.00000000000E+00 -0.00000000000E+00 -0.45593999997E+02  0.45594000000E+02  0.51100000000E-03 0. -1.
    9900012    2    1    2    0    0  0.24629621044E+01 -0.14331336966E+02  0.42634026274E+02  0.46142316546E+02  0.99999889175E+01 0.  0.
         12    1    1    2    0    0 -0.24629621044E+01  0.14331336966E+02 -0.42634026274E+02  0.45045683454E+02  0.00000000000E+00 0. -1.
         11    1    3    3    0    0 -0.20376596380E+01 -0.43527521028E+01  0.57293394978E+01  0.74782243221E+01  0.51100000000E-03 0. -1.
        -11    1    3    3    0    0 -0.54326711087E+00 -0.17522567603E+01  0.47200808544E+01  0.50640602723E+01  0.51100000000E-03 0.  1.
        -12    1    3    3    0    0  0.50438888533E+01 -0.82263281027E+01  0.32184605921E+02  0.33600031951E+02  0.00000000000E+00 0.  1.
</event>
<event>
 7    1  0.2472338E-008  0.4614232E+02  0.7816164E-02  0.1320468E+00
        -11   -1    0    0    0    0  0.00000000000E+00  0.00000000000E+00  0.45593999997E+02  0.45594000000E+02  0.51100000000E-03 0.  1.
         11   -1    0    0    0    0 -0.00000000000E+00 -0.00000000000E+00 -0.45593999997E+02  0.45594000000E+02  0.51100000000E-03 0. -1.
    9900012    2    1    2    0    0  0.30749504445E+00  0.25457835478E+02  0.37160699347E+02  0.46142317450E+02  0.99999971628E+01 0.  0.
         12    1    1    2    0    0 -0.30749504445E+00 -0.25457835478E+02 -0.37160699347E+02  0.45045682550E+02  0.00000000000E+00 0. -1.
         11    1    3    3    0    0 -0.10137831146E+01  0.57249826274E+01  0.29068757713E+01  0.65002391724E+01  0.51100000000E-03 0. -1.
        -11    1    3    3    0    0 -0.67073248465E+00  0.38100470278E+01  0.57177950136E+01  0.69035875093E+01  0.51100000000E-03 0.  1.
         12    1    3    3    0    0  0.19920106437E+01  0.15922805823E+02  0.28536028562E+02  0.32738490768E+02  0.00000000000E+00 0. -1.
</event>
<event>
 7    1  0.2472338E-008  0.4614232E+02  0.7816164E-02  0.1320468E+00
        -11   -1    0    0    0    0  0.00000000000E+00  0.00000000000E+00  0.45593999997E+02  0.45594000000E+02  0.51100000000E-03 0.  1.
         11   -1    0    0    0    0 -0.00000000000E+00 -0.00000000000E+00 -0.45593999997E+02  0.45594000000E+02  0.51100000000E-03 0. -1.
    9900012    2    1    2    0    0 -0.15178744257E+02  0.34924377890E+01  0.42267270257E+02  0.46142317255E+02  0.99999953859E+01 0.  0.
         12    1    1    2    0    0  0.15178744257E+02 -0.34924377890E+01 -0.42267270257E+02  0.45045682745E+02  0.00000000000E+00 0. -1.
         11    1    3    3    0    0 -0.25215302074E+01 -0.14935627196E+01  0.95189687609E+01  0.99599001359E+01  0.51100000000E-03 0.  1.
        -11    1    3    3    0    0 -0.65166334204E+01 -0.56183214305E+00  0.19440433358E+02  0.20511280211E+02  0.51100000000E-03 0. -1.
        -12    1    3    3    0    0 -0.61405806297E+01  0.55478326517E+01  0.13307868138E+02  0.15671136908E+02  0.00000000000E+00 0.  1.
</event>
<event>
 7    1  0.2472338E-008  0.4614232E+02  0.7816164E-02  0.1320468E+00
        -11   -1    0    0    0    0  0.00000000000E+00  0.00000000000E+00  0.45593999997E+02  0.45594000000E+02  0.51100000000E-03 0.  1.
         11   -1    0    0    0    0 -0.00000000000E+00 -0.00000000000E+00 -0.45593999997E+02  0.45594000000E+02  0.51100000000E-03 0. -1.
    9900012    2    1    2    0    0  0.75464958891E+01 -0.20319492754E+01  0.44362540883E+02  0.46142318169E+02  0.10000003718E+02 0.  0.
         12    1    1    2    0    0 -0.75464958891E+01  0.20319492754E+01 -0.44362540883E+02  0.45045681831E+02  0.00000000000E+00 0. -1.
         11    1    3    3    0    0  0.14476695683E+01 -0.15605423404E+01  0.28651284563E+02  0.28730247945E+02  0.51100000000E-03 0. -1.
        -11    1    3    3    0    0  0.49691473346E+01 -0.11221072526E+01  0.15166417333E+02  0.15999117629E+02  0.51100000000E-03 0.  1.
         12    1    3    3    0    0  0.11296789862E+01  0.65070031756E+00  0.54483898613E+00  0.14129525951E+01  0.00000000000E+00 0. -1.
</event>
<event>
 7    1  0.2472338E-008  0.4614232E+02  0.7816164E-02  0.1320468E+00
        -11   -1    0    0    0    0  0.00000000000E+00  0.00000000000E+00  0.45593999997E+02  0.45594000000E+02  0.51100000000E-03 0.  1.
         11   -1    0    0    0    0 -0.00000000000E+00 -0.00000000000E+00 -0.45593999997E+02  0.45594000000E+02  0.51100000000E-03 0. -1.
    9900012    2    1    2    0    0 -0.63128727846E+01 -0.16167635232E+02  0.41567640923E+02  0.46142316925E+02  0.99999923779E+01 0.  0.
         12    1    1    2    0    0  0.63128727846E+01  0.16167635232E+02 -0.41567640923E+02  0.45045683075E+02  0.00000000000E+00 0. -1.
         11    1    3    3    0    0 -0.28571491812E+01 -0.13182868775E+02  0.23930708083E+02  0.27470531851E+02  0.51100000000E-03 0. -1.
        -11    1    3    3    0    0  0.80149092063E-01  0.80158303483E+00  0.12648632855E+01  0.14996128270E+01  0.51100000000E-03 0.  1.
         12    1    3    3    0    0 -0.35358726955E+01 -0.37863494922E+01  0.16372069554E+02  0.17172172247E+02  0.00000000000E+00 0. -1.
</event>
<event>
 7    1  0.2472338E-008  0.4614232E+02  0.7816164E-02  0.1320468E+00
        -11   -1    0    0    0    0  0.00000000000E+00  0.00000000000E+00  0.45593999997E+02  0.45594000000E+02  0.51100000000E-03 0.  1.
         11   -1    0    0    0    0 -0.00000000000E+00 -0.00000000000E+00 -0.45593999997E+02  0.45594000000E+02  0.51100000000E-03 0. -1.
    9900012    2    1    2    0    0 -0.26500204866E+02 -0.24162354524E+00  0.36425187288E+02  0.46142317534E+02  0.99999979291E+01 0.  0.
         12    1    1    2    0    0  0.26500204866E+02  0.24162354524E+00 -0.36425187288E+02  0.45045682466E+02  0.00000000000E+00 0. -1.
         11    1    3    3    0    0 -0.35020165796E+01 -0.69098037863E+00  0.26551134001E+01  0.44487303173E+01  0.51100000000E-03 0. -1.
        -11    1    3    3    0    0 -0.10341657379E+02 -0.77519136312E-01  0.83498530115E+01  0.13291949900E+02  0.51100000000E-03 0.  1.
        -12    1    3    3    0    0 -0.12656530907E+02  0.52687596970E+00  0.25420220876E+02  0.28401637317E+02  0.00000000000E+00 0.  1.
</event>
<event>
 7    1  0.2472338E-008  0.4614232E+02  0.7816164E-02  0.1320468E+00
        -11   -1    0    0    0    0  0.00000000000E+00  0.00000000000E+00  0.45593999997E+02  0.45594000000E+02  0.51100000000E-03 0.  1.
         11   -1    0    0    0    0 -0.00000000000E+00 -0.00000000000E+00 -0.45593999997E+02  0.45594000000E+02  0.51100000000E-03 0. -1.
    9900012    2    1    2    0    0  0.68680943063E+01 -0.26250564357E+02  0.35956231640E+02  0.46142318273E+02  0.10000004670E+02 0.  0.
         12    1    1    2    0    0 -0.68680943063E+01  0.26250564357E+02 -0.35956231640E+02  0.45045681727E+02  0.00000000000E+00 0. -1.
         11    1    3    3    0    0  0.32071707516E+01 -0.33981160441E+01  0.71739881533E+01  0.85614977174E+01  0.51100000000E-03 0. -1.
        -11    1    3    3    0    0  0.54965703335E+00 -0.33184706920E+01  0.10628436339E+01  0.35276064746E+01  0.51100000000E-03 0.  1.
        -12    1    3    3    0    0  0.31112665214E+01 -0.19533977621E+02  0.27719399853E+02  0.34053214081E+02  0.00000000000E+00 0.  1.
</event>
<event>
 7    1  0.2472338E-008  0.4614231E+02  0.7816164E-02  0.1320468E+00
        -11   -1    0    0    0    0  0.00000000000E+00  0.00000000000E+00  0.45593999997E+02  0.45594000000E+02  0.51100000000E-03 0.  1.
         11   -1    0    0    0    0 -0.00000000000E+00 -0.00000000000E+00 -0.45593999997E+02  0.45594000000E+02  0.51100000000E-03 0. -1.
    9900012    2    1    2    0    0  0.18112491099E+02  0.19199622765E+02  0.36502413948E+02  0.46142311282E+02  0.99999409136E+01 0.  0.
         12    1    1    2    0    0 -0.18112491099E+02 -0.19199622765E+02 -0.36502413948E+02  0.45045688718E+02  0.00000000000E+00 0. -1.
         11    1    3    3    0    0  0.36760071521E+01  0.37689514534E+00  0.37953477230E+01  0.52971448094E+01  0.51100000000E-03 0. -1.
        -11    1    3    3    0    0  0.13806287431E+02  0.15794534476E+02  0.30608303046E+02  0.37107264890E+02  0.51100000000E-03 0.  1.
         12    1    3    3    0    0  0.63019651516E+00  0.30281931432E+01  0.20987631786E+01  0.37379015824E+01  0.00000000000E+00 0. -1.
</event>
<event>
 7    1  0.2472338E-008  0.4614232E+02  0.7816164E-02  0.1320468E+00
        -11   -1    0    0    0    0  0.00000000000E+00  0.00000000000E+00  0.45593999997E+02  0.45594000000E+02  0.51100000000E-03 0. -1.
         11   -1    0    0    0    0 -0.00000000000E+00 -0.00000000000E+00 -0.45593999997E+02  0.45594000000E+02  0.51100000000E-03 0.  1.
    9900012    2    1    2    0    0 -0.10966823065E+02 -0.12615200676E+01 -0.43672083964E+02  0.46142316980E+02  0.99999928727E+01 0.  0.
         12    1    1    2    0    0  0.10966823065E+02  0.12615200676E+01  0.43672083964E+02  0.45045683020E+02  0.00000000000E+00 0. -1.
         11    1    3    3    0    0 -0.12408998727E+00 -0.99370698667E+00 -0.12494732452E+02  0.12534799209E+02  0.51100000000E-03 0. -1.
        -11    1    3    3    0    0 -0.74841047862E+01 -0.24152397597E+01 -0.25390271808E+02  0.26580276716E+02  0.51100000000E-03 0.  1.
        -12    1    3    3    0    0 -0.33586282912E+01  0.21474266788E+01 -0.57870797044E+01  0.70272410550E+01  0.00000000000E+00 0.  1.
</event>
<event>
 7    1  0.2472338E-008  0.4614232E+02  0.7816164E-02  0.1320468E+00
        -11   -1    0    0    0    0  0.00000000000E+00  0.00000000000E+00  0.45593999997E+02  0.45594000000E+02  0.51100000000E-03 0. -1.
         11   -1    0    0    0    0 -0.00000000000E+00 -0.00000000000E+00 -0.45593999997E+02  0.45594000000E+02  0.51100000000E-03 0.  1.
    9900012    2    1    2    0    0 -0.25972811837E+02  0.28844267497E+02 -0.22859007765E+02  0.46142323646E+02  0.10000053665E+02 0.  0.
         12    1    1    2    0    0  0.25972811837E+02 -0.28844267497E+02  0.22859007765E+02  0.45045676354E+02  0.00000000000E+00 0. -1.
         11    1    3    3    0    0 -0.20121470294E+01  0.60188611896E+01 -0.16263941467E+01  0.65513803026E+01  0.51100000000E-03 0. -1.
        -11    1    3    3    0    0 -0.68637265907E+01  0.95743965301E+01 -0.77974307596E+01  0.14127269316E+02  0.51100000000E-03 0.  1.
         12    1    3    3    0    0 -0.17096938217E+02  0.13251009777E+02 -0.13435182859E+02  0.25463674027E+02  0.00000000000E+00 0. -1.
</event>
<event>
 7    1  0.2472338E-008  0.4614232E+02  0.7816164E-02  0.1320468E+00
        -11   -1    0    0    0    0  0.00000000000E+00  0.00000000000E+00  0.45593999997E+02  0.45594000000E+02  0.51100000000E-03 0.  1.
         11   -1    0    0    0    0 -0.00000000000E+00 -0.00000000000E+00 -0.45593999997E+02  0.45594000000E+02  0.51100000000E-03 0. -1.
    9900012    2    1    2    0    0 -0.44191751543E+02  0.86812979105E+01  0.91519186656E+00  0.46142318586E+02  0.10000007525E+02 0.  0.
         12    1    1    2    0    0  0.44191751543E+02 -0.86812979105E+01 -0.91519186656E+00  0.45045681414E+02  0.00000000000E+00 0. -1.
         11    1    3    3    0    0 -0.93674293812E+01  0.60876016688E+00  0.69247807736E+00  0.94126961229E+01  0.51100000000E-03 0. -1.
        -11    1    3    3    0    0 -0.29006817904E+02  0.90877780732E+01  0.22641538468E+01  0.30481298990E+02  0.51100000000E-03 0.  1.
         12    1    3    3    0    0 -0.58175042583E+01 -0.10152403296E+01 -0.20414400576E+01  0.62483234736E+01  0.00000000000E+00 0. -1.
</event>
<event>
 7    1  0.2472338E-008  0.4614232E+02  0.7816164E-02  0.1320468E+00
        -11   -1    0    0    0    0  0.00000000000E+00  0.00000000000E+00  0.45593999997E+02  0.45594000000E+02  0.51100000000E-03 0. -1.
         11   -1    0    0    0    0 -0.00000000000E+00 -0.00000000000E+00 -0.45593999997E+02  0.45594000000E+02  0.51100000000E-03 0.  1.
    9900012    2    1    2    0    0  0.35138591134E+02  0.30989013794E+01 -0.28014096517E+02  0.46142318960E+02  0.10000010932E+02 0.  0.
         12    1    1    2    0    0 -0.35138591134E+02 -0.30989013794E+01  0.28014096517E+02  0.45045681040E+02  0.00000000000E+00 0. -1.
         11    1    3    3    0    0 -0.44304373887E-01  0.16484077448E+00 -0.99277348219E+00  0.10073404621E+01  0.51100000000E-03 0. -1.
        -11    1    3    3    0    0  0.35362818859E+02  0.30803385608E+01 -0.25775890300E+02  0.43868142932E+02  0.51100000000E-03 0.  1.
        -12    1    3    3    0    0 -0.17992335075E+00 -0.14627795597E+00 -0.12454327351E+01  0.12668355656E+01  0.00000000000E+00 0.  1.
</event>
<event>
 7    1  0.2472338E-008  0.4614232E+02  0.7816164E-02  0.1320468E+00
        -11   -1    0    0    0    0  0.00000000000E+00  0.00000000000E+00  0.45593999997E+02  0.45594000000E+02  0.51100000000E-03 0.  1.
         11   -1    0    0    0    0 -0.00000000000E+00 -0.00000000000E+00 -0.45593999997E+02  0.45594000000E+02  0.51100000000E-03 0. -1.
    9900012    2    1    2    0    0  0.28083857463E+02 -0.18707658758E+02  0.29840139749E+02  0.46142317783E+02  0.10000000198E+02 0.  0.
         12    1    1    2    0    0 -0.28083857463E+02  0.18707658758E+02 -0.29840139749E+02  0.45045682217E+02  0.00000000000E+00 0. -1.
         11    1    3    3    0    0  0.11965264377E+02 -0.65720101727E+01  0.15254183333E+02  0.20470685839E+02  0.51100000000E-03 0. -1.
        -11    1    3    3    0    0  0.15763083774E+02 -0.93928455062E+01  0.12400176482E+02  0.22146438400E+02  0.51100000000E-03 0.  1.
         12    1    3    3    0    0  0.35550931231E+00 -0.27428030786E+01  0.21857799344E+01  0.35251935438E+01  0.00000000000E+00 0. -1.
</event>
<event>
 7    1  0.2472338E-008  0.4614232E+02  0.7816164E-02  0.1320468E+00
        -11   -1    0    0    0    0  0.00000000000E+00  0.00000000000E+00  0.45593999997E+02  0.45594000000E+02  0.51100000000E-03 0.  1.
         11   -1    0    0    0    0 -0.00000000000E+00 -0.00000000000E+00 -0.45593999997E+02  0.45594000000E+02  0.51100000000E-03 0. -1.
    9900012    2    1    2    0    0 -0.64496847456E+01 -0.41060000010E+02  0.17366387062E+02  0.46142318368E+02  0.10000005531E+02 0.  0.
         12    1    1    2    0    0  0.64496847456E+01  0.41060000010E+02 -0.17366387062E+02  0.45045681632E+02  0.00000000000E+00 0. -1.
         11    1    3    3    0    0 -0.36160089582E+01 -0.14110282288E+02  0.41646099112E+01  0.15149903069E+02  0.51100000000E-03 0. -1.
        -11    1    3    3    0    0  0.37080327991E+00 -0.49166426936E+01 -0.32373864186E+00  0.49412222595E+01  0.51100000000E-03 0.  1.
        -12    1    3    3    0    0 -0.32044790673E+01 -0.22033075029E+02  0.13525515792E+02  0.26051193039E+02  0.00000000000E+00 0.  1.
</event>
<event>
 7    1  0.2472338E-008  0.4614232E+02  0.7816164E-02  0.1320468E+00
        -11   -1    0    0    0    0  0.00000000000E+00  0.00000000000E+00  0.45593999997E+02  0.45594000000E+02  0.51100000000E-03 0.  1.
         11   -1    0    0    0    0 -0.00000000000E+00 -0.00000000000E+00 -0.45593999997E+02  0.45594000000E+02  0.51100000000E-03 0. -1.
    9900012    2    1    2    0    0  0.41025705430E+02 -0.18579861655E+02 -0.89090340761E+00  0.46142317920E+02  0.10000001446E+02 0.  0.
         12    1    1    2    0    0 -0.41025705430E+02  0.18579861655E+02  0.89090340761E+00  0.45045682080E+02  0.00000000000E+00 0. -1.
         11    1    3    3    0    0  0.18009237233E+02 -0.11918307012E+02  0.93244903357E+00  0.21615923048E+02  0.51100000000E-03 0. -1.
        -11    1    3    3    0    0  0.14320985609E+02 -0.43596282003E+01 -0.35069808388E+01  0.15375171600E+02  0.51100000000E-03 0.  1.
         12    1    3    3    0    0  0.86954825885E+01 -0.23019264429E+01  0.16836283976E+01  0.91512232721E+01  0.00000000000E+00 0. -1.
</event>
<event>
 7    1  0.2472338E-008  0.4614232E+02  0.7816164E-02  0.1320468E+00
        -11   -1    0    0    0    0  0.00000000000E+00  0.00000000000E+00  0.45593999997E+02  0.45594000000E+02  0.51100000000E-03 0. -1.
         11   -1    0    0    0    0 -0.00000000000E+00 -0.00000000000E+00 -0.45593999997E+02  0.45594000000E+02  0.51100000000E-03 0.  1.
    9900012    2    1    2    0    0 -0.96036609057E+01  0.40187239888E+01 -0.43826168856E+02  0.46142317389E+02  0.99999966110E+01 0.  0.
         12    1    1    2    0    0  0.96036609057E+01 -0.40187239888E+01  0.43826168856E+02  0.45045682611E+02  0.00000000000E+00 0. -1.
         11    1    3    3    0    0 -0.32723867736E+01  0.57306408672E+01 -0.20991775825E+02  0.22004622525E+02  0.51100000000E-03 0. -1.
        -11    1    3    3    0    0 -0.14873284042E+00  0.71627487754E+00 -0.59330004474E+01  0.59779315594E+01  0.51100000000E-03 0.  1.
        -12    1    3    3    0    0 -0.61825412916E+01 -0.24281917559E+01 -0.16901392583E+02  0.18159763305E+02  0.00000000000E+00 0.  1.
</event>
<event>
 7    1  0.2472338E-008  0.4614232E+02  0.7816164E-02  0.1320468E+00
        -11   -1    0    0    0    0  0.00000000000E+00  0.00000000000E+00  0.45593999997E+02  0.45594000000E+02  0.51100000000E-03 0.  1.
         11   -1    0    0    0    0 -0.00000000000E+00 -0.00000000000E+00 -0.45593999997E+02  0.45594000000E+02  0.51100000000E-03 0. -1.
    9900012    2    1    2    0    0 -0.22049937612E+02 -0.70359798468E+01  0.38644646938E+02  0.46142317654E+02  0.99999990210E+01 0.  0.
         12    1    1    2    0    0  0.22049937612E+02  0.70359798468E+01 -0.38644646938E+02  0.45045682346E+02  0.00000000000E+00 0. -1.
         11    1    3    3    0    0 -0.37748983751E+01 -0.18544280936E+01  0.58311645916E+01  0.71896621654E+01  0.51100000000E-03 0. -1.
        -11    1    3    3    0    0 -0.19048294824E+02 -0.45261487471E+01  0.32403815597E+02  0.37859355828E+02  0.51100000000E-03 0.  1.
         12    1    3    3    0    0  0.77325558681E+00 -0.65540300615E+00  0.40966674909E+00  0.10932996608E+01  0.00000000000E+00 0. -1.
</event>
<event>
 7    1  0.2472338E-008  0.4614232E+02  0.7816164E-02  0.1320468E+00
        -11   -1    0    0    0    0  0.00000000000E+00  0.00000000000E+00  0.45593999997E+02  0.45594000000E+02  0.51100000000E-03 0.  1.
         11   -1    0    0    0    0 -0.00000000000E+00 -0.00000000000E+00 -0.45593999997E+02  0.45594000000E+02  0.51100000000E-03 0. -1.
    9900012    2    1    2    0    0 -0.16423030566E+02 -0.30529348240E+02  0.28763804513E+02  0.46142317776E+02  0.10000000137E+02 0.  0.
         12    1    1    2    0    0  0.16423030566E+02  0.30529348240E+02 -0.28763804513E+02  0.45045682224E+02  0.00000000000E+00 0. -1.
         11    1    3    3    0    0  0.25982914891E+00  0.25567444047E+00  0.14936307616E+01  0.15374699084E+01  0.51100000000E-03 0. -1.
        -11    1    3    3    0    0 -0.75293303622E+01 -0.16120907996E+02  0.11350865480E+02  0.21104896061E+02  0.51100000000E-03 0.  1.
        -12    1    3    3    0    0 -0.91535293532E+01 -0.14664114684E+02  0.15919308271E+02  0.23499951807E+02  0.00000000000E+00 0.  1.
</event>
<event>
 7    1  0.2472338E-008  0.4614232E+02  0.7816164E-02  0.1320468E+00
        -11   -1    0    0    0    0  0.00000000000E+00  0.00000000000E+00  0.45593999997E+02  0.45594000000E+02  0.51100000000E-03 0.  1.
         11   -1    0    0    0    0 -0.00000000000E+00 -0.00000000000E+00 -0.45593999997E+02  0.45594000000E+02  0.51100000000E-03 0. -1.
    9900012    2    1    2    0    0  0.31812625129E+02  0.27398012100E+02  0.16322353770E+02  0.46142318551E+02  0.10000007203E+02 0.  0.
         12    1    1    2    0    0 -0.31812625129E+02 -0.27398012100E+02 -0.16322353770E+02  0.45045681449E+02  0.00000000000E+00 0. -1.
         11    1    3    3    0    0  0.14320493022E+02  0.15295813931E+02  0.62674534845E+01  0.21870514801E+02  0.51100000000E-03 0. -1.
        -11    1    3    3    0    0  0.14718315522E+02  0.11219425453E+02  0.63625937919E+01  0.19570051592E+02  0.51100000000E-03 0.  1.
         12    1    3    3    0    0  0.27738165847E+01  0.88277271591E+00  0.36923064932E+01  0.47017521578E+01  0.00000000000E+00 0. -1.
</event>
<event>
 7    1  0.2472338E-008  0.4614232E+02  0.7816164E-02  0.1320468E+00
        -11   -1    0    0    0    0  0.00000000000E+00  0.00000000000E+00  0.45593999997E+02  0.45594000000E+02  0.51100000000E-03 0.  1.
         11   -1    0    0    0    0 -0.00000000000E+00 -0.00000000000E+00 -0.45593999997E+02  0.45594000000E+02  0.51100000000E-03 0. -1.
    9900012    2    1    2    0    0 -0.28056381624E+02  0.15046827703E+02  0.31867632605E+02  0.46142316726E+02  0.99999905612E+01 0.  0.
         12    1    1    2    0    0  0.28056381624E+02 -0.15046827703E+02 -0.31867632605E+02  0.45045683274E+02  0.00000000000E+00 0. -1.
         11    1    3    3    0    0 -0.46953129200E+01  0.37253190298E+00  0.22777636861E+01  0.52319165806E+01  0.51100000000E-03 0. -1.
        -11    1    3    3    0    0 -0.32598753045E+01  0.39945552865E+01  0.32354526842E+01  0.60869872080E+01  0.51100000000E-03 0.  1.
        -12    1    3    3    0    0 -0.20101193399E+02  0.10679740514E+02  0.26354416235E+02  0.34823412937E+02  0.00000000000E+00 0.  1.
</event>
<event>
 7    1  0.2472338E-008  0.4614232E+02  0.7816164E-02  0.1320468E+00
        -11   -1    0    0    0    0  0.00000000000E+00  0.00000000000E+00  0.45593999997E+02  0.45594000000E+02  0.51100000000E-03 0.  1.
         11   -1    0    0    0    0 -0.00000000000E+00 -0.00000000000E+00 -0.45593999997E+02  0.45594000000E+02  0.51100000000E-03 0. -1.
    9900012    2    1    2    0    0  0.19591553321E+02 -0.40388522040E+02  0.37485696241E+01  0.46142318206E+02  0.10000004054E+02 0.  0.
         12    1    1    2    0    0 -0.19591553321E+02  0.40388522040E+02 -0.37485696241E+01  0.45045681794E+02  0.00000000000E+00 0. -1.
         11    1    3    3    0    0  0.92745829221E+01 -0.19620418733E+02  0.62764579466E+00  0.21711118330E+02  0.51100000000E-03 0.  1.
        -11    1    3    3    0    0  0.59884593003E+01 -0.99377826297E+01  0.49699648309E+01  0.12622270757E+02  0.51100000000E-03 0. -1.
         12    1    3    3    0    0  0.43285110983E+01 -0.10830320677E+02 -0.18490410015E+01  0.11808929118E+02  0.00000000000E+00 0. -1.
</event>
<event>
 7    1  0.2472338E-008  0.4614232E+02  0.7816164E-02  0.1320468E+00
        -11   -1    0    0    0    0  0.00000000000E+00  0.00000000000E+00  0.45593999997E+02  0.45594000000E+02  0.51100000000E-03 0.  1.
         11   -1    0    0    0    0 -0.00000000000E+00 -0.00000000000E+00 -0.45593999997E+02  0.45594000000E+02  0.51100000000E-03 0. -1.
    9900012    2    1    2    0    0 -0.34459530391E+02 -0.13117022062E+02  0.25876592758E+02  0.46142317018E+02  0.99999932279E+01 0.  0.
         12    1    1    2    0    0  0.34459530391E+02  0.13117022062E+02 -0.25876592758E+02  0.45045682982E+02  0.00000000000E+00 0. -1.
         11    1    3    3    0    0 -0.15090385288E+02 -0.55624087285E+01  0.13401601841E+02  0.20934733128E+02  0.51100000000E-03 0. -1.
        -11    1    3    3    0    0 -0.42210599385E+01 -0.19301774200E+01  0.64842849003E+01  0.79742637784E+01  0.51100000000E-03 0.  1.
        -12    1    3    3    0    0 -0.15148085165E+02 -0.56244359137E+01  0.59907060166E+01  0.17233320112E+02  0.00000000000E+00 0.  1.
</event>
<event>
 7    1  0.2472338E-008  0.4614232E+02  0.7816164E-02  0.1320468E+00
        -11   -1    0    0    0    0  0.00000000000E+00  0.00000000000E+00  0.45593999997E+02  0.45594000000E+02  0.51100000000E-03 0.  1.
         11   -1    0    0    0    0 -0.00000000000E+00 -0.00000000000E+00 -0.45593999997E+02  0.45594000000E+02  0.51100000000E-03 0. -1.
    9900012    2    1    2    0    0 -0.67992572895E+01 -0.39364137973E+02  0.20817018202E+02  0.46142317577E+02  0.99999983255E+01 0.  0.
         12    1    1    2    0    0  0.67992572895E+01  0.39364137973E+02 -0.20817018202E+02  0.45045682423E+02  0.00000000000E+00 0. -1.
         11    1    3    3    0    0 -0.10415011377E+01 -0.18732898041E+02  0.13994518750E+02  0.23406254484E+02  0.51100000000E-03 0. -1.
        -11    1    3    3    0    0 -0.15803389341E+01 -0.26260940868E+01  0.95005201958E-01  0.30664095533E+01  0.51100000000E-03 0.  1.
        -12    1    3    3    0    0 -0.41774172177E+01 -0.18005145845E+02  0.67274942507E+01  0.19669653541E+02  0.00000000000E+00 0.  1.
</event>
<event>
 7    1  0.2472338E-008  0.4614232E+02  0.7816164E-02  0.1320468E+00
        -11   -1    0    0    0    0  0.00000000000E+00  0.00000000000E+00  0.45593999997E+02  0.45594000000E+02  0.51100000000E-03 0. -1.
         11   -1    0    0    0    0 -0.00000000000E+00 -0.00000000000E+00 -0.45593999997E+02  0.45594000000E+02  0.51100000000E-03 0.  1.
    9900012    2    1    2    0    0 -0.18512019361E+02  0.40885710235E+02 -0.38441188756E+01  0.46142318607E+02  0.10000007715E+02 0.  0.
         12    1    1    2    0    0  0.18512019361E+02 -0.40885710235E+02  0.38441188756E+01  0.45045681393E+02  0.00000000000E+00 0. -1.
         11    1    3    3    0    0 -0.96394016871E+01  0.20341922780E+02 -0.81966019646E+00  0.22525179919E+02  0.51100000000E-03 0.  1.
        -11    1    3    3    0    0 -0.48317003178E+01  0.72843283240E+01 -0.42155572129E+01  0.97045190488E+01  0.51100000000E-03 0. -1.
         12    1    3    3    0    0 -0.40409173557E+01  0.13259459130E+02  0.11910985338E+01  0.13912619639E+02  0.00000000000E+00 0. -1.
</event>
<event>
 7    1  0.2472338E-008  0.4614232E+02  0.7816164E-02  0.1320468E+00
        -11   -1    0    0    0    0  0.00000000000E+00  0.00000000000E+00  0.45593999997E+02  0.45594000000E+02  0.51100000000E-03 0. -1.
         11   -1    0    0    0    0 -0.00000000000E+00 -0.00000000000E+00 -0.45593999997E+02  0.45594000000E+02  0.51100000000E-03 0.  1.
    9900012    2    1    2    0    0 -0.28758662131E+02 -0.34150278908E+02 -0.59842525023E+01  0.46142317908E+02  0.10000001344E+02 0.  0.
         12    1    1    2    0    0  0.28758662131E+02  0.34150278908E+02  0.59842525023E+01  0.45045682092E+02  0.00000000000E+00 0. -1.
         11    1    3    3    0    0 -0.13340408483E+02 -0.11978957711E+02 -0.46203486327E+01  0.18515116745E+02  0.51100000000E-03 0. -1.
        -11    1    3    3    0    0 -0.11600225104E+02 -0.13627882895E+02  0.11630891125E+01  0.17934246323E+02  0.51100000000E-03 0.  1.
         12    1    3    3    0    0 -0.38180285443E+01 -0.85434383024E+01 -0.25269929822E+01  0.96929548396E+01  0.00000000000E+00 0. -1.
</event>
<event>
 7    1  0.2472338E-008  0.4614232E+02  0.7816164E-02  0.1320468E+00
        -11   -1    0    0    0    0  0.00000000000E+00  0.00000000000E+00  0.45593999997E+02  0.45594000000E+02  0.51100000000E-03 0.  1.
         11   -1    0    0    0    0 -0.00000000000E+00 -0.00000000000E+00 -0.45593999997E+02  0.45594000000E+02  0.51100000000E-03 0. -1.
    9900012    2    1    2    0    0 -0.29939378774E+02  0.29143147963E+02  0.16835206902E+02  0.46142315790E+02  0.99999820214E+01 0.  0.
         12    1    1    2    0    0  0.29939378774E+02 -0.29143147963E+02 -0.16835206902E+02  0.45045684210E+02  0.00000000000E+00 0. -1.
         11    1    3    3    0    0 -0.51090272720E+01  0.34523760292E+01  0.22412690115E+01  0.65608190766E+01  0.51100000000E-03 0. -1.
        -11    1    3    3    0    0 -0.19835566543E+02  0.21121977351E+02  0.15314993747E+02  0.32774024181E+02  0.51100000000E-03 0.  1.
         12    1    3    3    0    0 -0.49947849591E+01  0.45687945822E+01 -0.72105585602E+00  0.68074725317E+01  0.00000000000E+00 0. -1.
</event>
<event>
 7    1  0.2472338E-008  0.4614232E+02  0.7816164E-02  0.1320468E+00
        -11   -1    0    0    0    0  0.00000000000E+00  0.00000000000E+00  0.45593999997E+02  0.45594000000E+02  0.51100000000E-03 0.  1.
         11   -1    0    0    0    0 -0.00000000000E+00 -0.00000000000E+00 -0.45593999997E+02  0.45594000000E+02  0.51100000000E-03 0. -1.
    9900012    2    1    2    0    0  0.98705608862E+00  0.29656442270E+02  0.33891511310E+02  0.46142318890E+02  0.10000010290E+02 0.  0.
         12    1    1    2    0    0 -0.98705608862E+00 -0.29656442270E+02 -0.33891511310E+02  0.45045681110E+02  0.00000000000E+00 0. -1.
         11    1    3    3    0    0 -0.14193400221E+00  0.13844672670E+02  0.95149308852E+01  0.16799673110E+02  0.51100000000E-03 0. -1.
        -11    1    3    3    0    0  0.24678573617E+01  0.79276099021E+01  0.11479689287E+02  0.14167589248E+02  0.51100000000E-03 0.  1.
        -12    1    3    3    0    0 -0.13388672709E+01  0.78841596982E+01  0.12896891137E+02  0.15175056531E+02  0.00000000000E+00 0.  1.
</event>
<event>
 7    1  0.2472338E-008  0.4614232E+02  0.7816164E-02  0.1320468E+00
        -11   -1    0    0    0    0  0.00000000000E+00  0.00000000000E+00  0.45593999997E+02  0.45594000000E+02  0.51100000000E-03 0.  1.
         11   -1    0    0    0    0 -0.00000000000E+00 -0.00000000000E+00 -0.45593999997E+02  0.45594000000E+02  0.51100000000E-03 0. -1.
    9900012    2    1    2    0    0  0.11962194526E+02 -0.38459409717E+02  0.20171592078E+02  0.46142318513E+02  0.10000006855E+02 0.  0.
         12    1    1    2    0    0 -0.11962194526E+02  0.38459409717E+02 -0.20171592078E+02  0.45045681487E+02  0.00000000000E+00 0. -1.
         11    1    3    3    0    0  0.22909090066E+01 -0.87200742032E+01  0.78767670594E+01  0.11972109996E+02  0.51100000000E-03 0. -1.
        -11    1    3    3    0    0  0.57786632926E+01 -0.15006948764E+02  0.95014949217E+01  0.18678326120E+02  0.51100000000E-03 0.  1.
         12    1    3    3    0    0  0.38926222267E+01 -0.14732386750E+02  0.27933300972E+01  0.15491882396E+02  0.00000000000E+00 0. -1.
</event>
<event>
 7    1  0.2472338E-008  0.4614232E+02  0.7816164E-02  0.1320468E+00
        -11   -1    0    0    0    0  0.00000000000E+00  0.00000000000E+00  0.45593999997E+02  0.45594000000E+02  0.51100000000E-03 0. -1.
         11   -1    0    0    0    0 -0.00000000000E+00 -0.00000000000E+00 -0.45593999997E+02  0.45594000000E+02  0.51100000000E-03 0.  1.
    9900012    2    1    2    0    0  0.24365850486E+02 -0.37597941808E+02  0.46705093619E+01  0.46142317013E+02  0.99999931764E+01 0.  0.
         12    1    1    2    0    0 -0.24365850486E+02  0.37597941808E+02 -0.46705093619E+01  0.45045682987E+02  0.00000000000E+00 0. -1.
         11    1    3    3    0    0  0.30365372588E+01 -0.17576368449E+01 -0.14137937128E+01  0.37826787765E+01  0.51100000000E-03 0. -1.
        -11    1    3    3    0    0  0.16802754811E+02 -0.24735805199E+02  0.36707469940E+01  0.30127512540E+02  0.51100000000E-03 0.  1.
         12    1    3    3    0    0  0.45265584160E+01 -0.11104499764E+02  0.24135560807E+01  0.12232125696E+02  0.00000000000E+00 0. -1.
</event>
<event>
 7    1  0.2472338E-008  0.4614232E+02  0.7816164E-02  0.1320468E+00
        -11   -1    0    0    0    0  0.00000000000E+00  0.00000000000E+00  0.45593999997E+02  0.45594000000E+02  0.51100000000E-03 0.  1.
         11   -1    0    0    0    0 -0.00000000000E+00 -0.00000000000E+00 -0.45593999997E+02  0.45594000000E+02  0.51100000000E-03 0. -1.
    9900012    2    1    2    0    0 -0.25722134156E+02  0.34155301245E+02  0.14173942761E+02  0.46142318275E+02  0.10000004683E+02 0.  0.
         12    1    1    2    0    0  0.25722134156E+02 -0.34155301245E+02 -0.14173942761E+02  0.45045681725E+02  0.00000000000E+00 0. -1.
         11    1    3    3    0    0 -0.20331255350E+02  0.25489604074E+02  0.11420625748E+02  0.34547222070E+02  0.51100000000E-03 0. -1.
        -11    1    3    3    0    0 -0.62660076926E+01  0.71939929701E+01  0.21485736510E+01  0.97792001847E+01  0.51100000000E-03 0.  1.
         12    1    3    3    0    0  0.87512888662E+00  0.14717042008E+01  0.60474336240E+00  0.18158960204E+01  0.00000000000E+00 0. -1.
</event>
<event>
 7    1  0.2472338E-008  0.4614232E+02  0.7816164E-02  0.1320468E+00
        -11   -1    0    0    0    0  0.00000000000E+00  0.00000000000E+00  0.45593999997E+02  0.45594000000E+02  0.51100000000E-03 0.  1.
         11   -1    0    0    0    0 -0.00000000000E+00 -0.00000000000E+00 -0.45593999997E+02  0.45594000000E+02  0.51100000000E-03 0. -1.
    9900012    2    1    2    0    0  0.10067608466E+02 -0.40569615364E+02  0.16788778025E+02  0.46142317648E+02  0.99999989682E+01 0.  0.
         12    1    1    2    0    0 -0.10067608466E+02  0.40569615364E+02 -0.16788778025E+02  0.45045682352E+02  0.00000000000E+00 0. -1.
         11    1    3    3    0    0  0.43758782246E+01 -0.67291108385E+01  0.16016341836E+01  0.81850152860E+01  0.51100000000E-03 0. -1.
        -11    1    3    3    0    0  0.31325906013E+01 -0.24713329632E+02  0.13484126417E+02  0.28326373769E+02  0.51100000000E-03 0.  1.
         12    1    3    3    0    0  0.25591396400E+01 -0.91271748929E+01  0.17030174249E+01  0.96309285934E+01  0.00000000000E+00 0. -1.
</event>
<event>
 7    1  0.2472338E-008  0.4614233E+02  0.7816164E-02  0.1320468E+00
        -11   -1    0    0    0    0  0.00000000000E+00  0.00000000000E+00  0.45593999997E+02  0.45594000000E+02  0.51100000000E-03 0.  1.
         11   -1    0    0    0    0 -0.00000000000E+00 -0.00000000000E+00 -0.45593999997E+02  0.45594000000E+02  0.51100000000E-03 0. -1.
    9900012    2    1    2    0    0 -0.25311192435E+02  0.70066128182E+01  0.36597312458E+02  0.46142330232E+02  0.10000113721E+02 0.  0.
         12    1    1    2    0    0  0.25311192435E+02 -0.70066128182E+01 -0.36597312458E+02  0.45045669768E+02  0.00000000000E+00 0. -1.
         11    1    3    3    0    0 -0.15573895797E+02  0.54613102332E+01  0.25725996527E+02  0.30564669757E+02  0.51100000000E-03 0. -1.
        -11    1    3    3    0    0 -0.10217204062E+02  0.14068687212E+01  0.10982405919E+02  0.15065980834E+02  0.51100000000E-03 0.  1.
        -12    1    3    3    0    0  0.47990742402E+00  0.13843386384E+00 -0.11108998833E+00  0.51167964177E+00  0.00000000000E+00 0.  1.
</event>
<event>
 7    1  0.2472338E-008  0.4614232E+02  0.7816164E-02  0.1320468E+00
        -11   -1    0    0    0    0  0.00000000000E+00  0.00000000000E+00  0.45593999997E+02  0.45594000000E+02  0.51100000000E-03 0.  1.
         11   -1    0    0    0    0 -0.00000000000E+00 -0.00000000000E+00 -0.45593999997E+02  0.45594000000E+02  0.51100000000E-03 0. -1.
    9900012    2    1    2    0    0  0.11899638311E+02  0.34949922351E+02  0.25807269024E+02  0.46142316536E+02  0.99999888247E+01 0.  0.
         12    1    1    2    0    0 -0.11899638311E+02 -0.34949922351E+02 -0.25807269024E+02  0.45045683464E+02  0.00000000000E+00 0. -1.
         11    1    3    3    0    0 -0.11864536685E+01  0.21580042978E+01  0.15959204252E+01  0.29345556941E+01  0.51100000000E-03 0. -1.
        -11    1    3    3    0    0  0.12046435828E+02  0.26138452109E+02  0.21601345790E+02  0.35985461440E+02  0.51100000000E-03 0.  1.
        -12    1    3    3    0    0  0.10396561511E+01  0.66534659444E+01  0.26100028083E+01  0.72222994015E+01  0.00000000000E+00 0.  1.
</event>
<event>
 7    1  0.2472338E-008  0.4614232E+02  0.7816164E-02  0.1320468E+00
        -11   -1    0    0    0    0  0.00000000000E+00  0.00000000000E+00  0.45593999997E+02  0.45594000000E+02  0.51100000000E-03 0.  1.
         11   -1    0    0    0    0 -0.00000000000E+00 -0.00000000000E+00 -0.45593999997E+02  0.45594000000E+02  0.51100000000E-03 0. -1.
    9900012    2    1    2    0    0  0.55963243256E+01  0.34383174617E+02  0.28558570241E+02  0.46142317888E+02  0.10000001157E+02 0.  0.
         12    1    1    2    0    0 -0.55963243256E+01 -0.34383174617E+02 -0.28558570241E+02  0.45045682112E+02  0.00000000000E+00 0. -1.
         11    1    3    3    0    0 -0.53363969306E+00  0.87513070262E+01  0.32352918326E+01  0.93454405724E+01  0.51100000000E-03 0. -1.
        -11    1    3    3    0    0  0.27770824254E+01  0.44971340555E+01  0.45707654258E+01  0.69877248336E+01  0.51100000000E-03 0.  1.
         12    1    3    3    0    0  0.33528815932E+01  0.21134733535E+02  0.20752512983E+02  0.29809152482E+02  0.00000000000E+00 0. -1.
</event>
<event>
 7    1  0.2472338E-008  0.4614232E+02  0.7816164E-02  0.1320468E+00
        -11   -1    0    0    0    0  0.00000000000E+00  0.00000000000E+00  0.45593999997E+02  0.45594000000E+02  0.51100000000E-03 0.  1.
         11   -1    0    0    0    0 -0.00000000000E+00 -0.00000000000E+00 -0.45593999997E+02  0.45594000000E+02  0.51100000000E-03 0. -1.
    9900012    2    1    2    0    0 -0.17422083595E+02 -0.39698461436E+02  0.12231789779E+02  0.46142317428E+02  0.99999969655E+01 0.  0.
         12    1    1    2    0    0  0.17422083595E+02  0.39698461436E+02 -0.12231789779E+02  0.45045682572E+02  0.00000000000E+00 0. -1.
         11    1    3    3    0    0 -0.60612395955E+01 -0.16278523223E+02  0.62682827488E+01  0.18466735299E+02  0.51100000000E-03 0. -1.
        -11    1    3    3    0    0 -0.11050432729E+02 -0.23809475746E+02  0.51922650879E+01  0.26757481492E+02  0.51100000000E-03 0.  1.
         12    1    3    3    0    0 -0.31041127103E+00  0.38953753256E+00  0.77124194235E+00  0.91810063724E+00  0.00000000000E+00 0. -1.
</event>
<event>
 7    1  0.2472338E-008  0.4614231E+02  0.7816164E-02  0.1320468E+00
        -11   -1    0    0    0    0  0.00000000000E+00  0.00000000000E+00  0.45593999997E+02  0.45594000000E+02  0.51100000000E-03 0.  1.
         11   -1    0    0    0    0 -0.00000000000E+00 -0.00000000000E+00 -0.45593999997E+02  0.45594000000E+02  0.51100000000E-03 0. -1.
    9900012    2    1    2    0    0  0.44744945801E+02  0.42844058006E+01 -0.29407721985E+01  0.46142307099E+02  0.99999027755E+01 0.  0.
         12    1    1    2    0    0 -0.44744945801E+02 -0.42844058006E+01  0.29407721985E+01  0.45045692901E+02  0.00000000000E+00 0. -1.
         11    1    3    3    0    0  0.80228775374E+01 -0.18203594538E+01  0.10276717362E+01  0.82907407377E+01  0.51100000000E-03 0. -1.
        -11    1    3    3    0    0  0.93231505231E+01  0.40280707081E+01 -0.14458775377E+01  0.10258511170E+02  0.51100000000E-03 0.  1.
        -12    1    3    3    0    0  0.27398917740E+02  0.20766945464E+01 -0.25225663970E+01  0.27593055192E+02  0.00000000000E+00 0.  1.
</event>
<event>
 7    1  0.2472338E-008  0.4614232E+02  0.7816164E-02  0.1320468E+00
        -11   -1    0    0    0    0  0.00000000000E+00  0.00000000000E+00  0.45593999997E+02  0.45594000000E+02  0.51100000000E-03 0.  1.
         11   -1    0    0    0    0 -0.00000000000E+00 -0.00000000000E+00 -0.45593999997E+02  0.45594000000E+02  0.51100000000E-03 0. -1.
    9900012    2    1    2    0    0  0.64853500865E+01 -0.34842802776E+01  0.44439999067E+02  0.46142317722E+02  0.99999996408E+01 0.  0.
         12    1    1    2    0    0 -0.64853500865E+01  0.34842802776E+01 -0.44439999067E+02  0.45045682278E+02  0.00000000000E+00 0. -1.
         11    1    3    3    0    0 -0.15340722383E+01  0.74791578934E+00  0.67636908932E+01  0.69756913937E+01  0.51100000000E-03 0. -1.
        -11    1    3    3    0    0  0.85891893183E+01 -0.44803346588E+01  0.37004131916E+02  0.38251187576E+02  0.51100000000E-03 0.  1.
        -12    1    3    3    0    0 -0.56976699357E+00  0.24813859183E+00  0.67217625799E+00  0.91543875247E+00  0.00000000000E+00 0.  1.
</event>
<event>
 7    1  0.2472338E-008  0.4614232E+02  0.7816164E-02  0.1320468E+00
        -11   -1    0    0    0    0  0.00000000000E+00  0.00000000000E+00  0.45593999997E+02  0.45594000000E+02  0.51100000000E-03 0.  1.
         11   -1    0    0    0    0 -0.00000000000E+00 -0.00000000000E+00 -0.45593999997E+02  0.45594000000E+02  0.51100000000E-03 0. -1.
    9900012    2    1    2    0    0 -0.13560591310E+02  0.28079804810E+01  0.42864193212E+02  0.46142318179E+02  0.10000003808E+02 0.  0.
         12    1    1    2    0    0  0.13560591310E+02 -0.28079804810E+01 -0.42864193212E+02  0.45045681821E+02  0.00000000000E+00 0. -1.
         11    1    3    3    0    0 -0.87309496889E+01  0.11721553717E+00  0.23646231602E+02  0.25206893723E+02  0.51100000000E-03 0. -1.
        -11    1    3    3    0    0 -0.29587003228E+01  0.36224230514E+01  0.17813534555E+02  0.18417325267E+02  0.51100000000E-03 0.  1.
         12    1    3    3    0    0 -0.18709412986E+01 -0.93165810757E+00  0.14044270543E+01  0.25180991885E+01  0.00000000000E+00 0. -1.
</event>
<event>
 7    1  0.2472338E-008  0.4614232E+02  0.7816164E-02  0.1320468E+00
        -11   -1    0    0    0    0  0.00000000000E+00  0.00000000000E+00  0.45593999997E+02  0.45594000000E+02  0.51100000000E-03 0. -1.
         11   -1    0    0    0    0 -0.00000000000E+00 -0.00000000000E+00 -0.45593999997E+02  0.45594000000E+02  0.51100000000E-03 0.  1.
    9900012    2    1    2    0    0  0.37896155753E+02 -0.16678239646E+02 -0.17743471131E+02  0.46142322446E+02  0.10000042720E+02 0.  0.
         12    1    1    2    0    0 -0.37896155753E+02  0.16678239646E+02  0.17743471131E+02  0.45045677554E+02  0.00000000000E+00 0. -1.
         11    1    3    3    0    0 -0.32379740354E+00 -0.37421957437E+00  0.50430037557E+00  0.70654382617E+00  0.51100000000E-03 0. -1.
        -11    1    3    3    0    0  0.11797530547E+02 -0.42986907380E+01 -0.46953880944E+01  0.13405489125E+02  0.51100000000E-03 0.  1.
        -12    1    3    3    0    0  0.26422422609E+02 -0.12005329333E+02 -0.13552383412E+02  0.32030289494E+02  0.00000000000E+00 0.  1.
</event>
<event>
 7    1  0.2472338E-008  0.4614230E+02  0.7816164E-02  0.1320468E+00
        -11   -1    0    0    0    0  0.00000000000E+00  0.00000000000E+00  0.45593999997E+02  0.45594000000E+02  0.51100000000E-03 0.  1.
         11   -1    0    0    0    0 -0.00000000000E+00 -0.00000000000E+00 -0.45593999997E+02  0.45594000000E+02  0.51100000000E-03 0. -1.
    9900012    2    1    2    0    0  0.25458467724E+02  0.18104032729E+02  0.32453432301E+02  0.46142302669E+02  0.99998623776E+01 0.  0.
         12    1    1    2    0    0 -0.25458467724E+02 -0.18104032729E+02 -0.32453432301E+02  0.45045697331E+02  0.00000000000E+00 0. -1.
         11    1    3    3    0    0  0.12328518509E+02  0.60879173676E+01  0.95221424137E+01  0.16725020266E+02  0.51100000000E-03 0. -1.
        -11    1    3    3    0    0  0.11801416380E+02  0.10073998576E+02  0.16897406762E+02  0.22940820200E+02  0.51100000000E-03 0.  1.
        -12    1    3    3    0    0  0.13285328356E+01  0.19421167850E+01  0.60338831252E+01  0.64764622033E+01  0.00000000000E+00 0.  1.
</event>
<event>
 7    1  0.2472338E-008  0.4614232E+02  0.7816164E-02  0.1320468E+00
        -11   -1    0    0    0    0  0.00000000000E+00  0.00000000000E+00  0.45593999997E+02  0.45594000000E+02  0.51100000000E-03 0.  1.
         11   -1    0    0    0    0 -0.00000000000E+00 -0.00000000000E+00 -0.45593999997E+02  0.45594000000E+02  0.51100000000E-03 0. -1.
    9900012    2    1    2    0    0  0.33318102725E+01  0.31326660556E+02  0.32197091992E+02  0.46142319252E+02  0.10000013596E+02 0.  0.
         12    1    1    2    0    0 -0.33318102725E+01 -0.31326660556E+02 -0.32197091992E+02  0.45045680748E+02  0.00000000000E+00 0. -1.
         11    1    3    3    0    0 -0.70730721344E+00  0.17949953667E+02  0.22718753806E+02  0.28962784654E+02  0.51100000000E-03 0. -1.
        -11    1    3    3    0    0  0.61101388403E+00  0.27781855105E+01  0.35882401032E+01  0.45789867871E+01  0.51100000000E-03 0.  1.
         12    1    3    3    0    0  0.34281036019E+01  0.10598521378E+02  0.58900980827E+01  0.12600547811E+02  0.00000000000E+00 0. -1.
</event>
<event>
 7    1  0.2472338E-008  0.4614232E+02  0.7816164E-02  0.1320468E+00
        -11   -1    0    0    0    0  0.00000000000E+00  0.00000000000E+00  0.45593999997E+02  0.45594000000E+02  0.51100000000E-03 0.  1.
         11   -1    0    0    0    0 -0.00000000000E+00 -0.00000000000E+00 -0.45593999997E+02  0.45594000000E+02  0.51100000000E-03 0. -1.
    9900012    2    1    2    0    0 -0.26305014998E+02  0.21916989983E+02  0.29271228255E+02  0.46142322432E+02  0.10000042595E+02 0.  0.
         12    1    1    2    0    0  0.26305014998E+02 -0.21916989983E+02 -0.29271228255E+02  0.45045677568E+02  0.00000000000E+00 0. -1.
         11    1    3    3    0    0 -0.12594602604E+02  0.74526443584E+01  0.15458871292E+02  0.21287146934E+02  0.51100000000E-03 0. -1.
        -11    1    3    3    0    0 -0.38498943983E+01  0.12892261307E+01  0.16067983585E+01  0.43664163934E+01  0.51100000000E-03 0.  1.
        -12    1    3    3    0    0 -0.98605179961E+01  0.13175119494E+02  0.12205558604E+02  0.20488759105E+02  0.00000000000E+00 0.  1.
</event>
<event>
 7    1  0.2472338E-008  0.4614233E+02  0.7816164E-02  0.1320468E+00
        -11   -1    0    0    0    0  0.00000000000E+00  0.00000000000E+00  0.45593999997E+02  0.45594000000E+02  0.51100000000E-03 0. -1.
         11   -1    0    0    0    0 -0.00000000000E+00 -0.00000000000E+00 -0.45593999997E+02  0.45594000000E+02  0.51100000000E-03 0.  1.
    9900012    2    1    2    0    0 -0.43520713845E+02  0.11041352974E+02 -0.36261229261E+01  0.46142325662E+02  0.10000072045E+02 0.  0.
         12    1    1    2    0    0  0.43520713845E+02 -0.11041352974E+02  0.36261229261E+01  0.45045674338E+02  0.00000000000E+00 0. -1.
         11    1    3    3    0    0 -0.17999273238E+02  0.74731183896E+00 -0.24147597330E+01  0.18175900993E+02  0.51100000000E-03 0. -1.
        -11    1    3    3    0    0 -0.25223006160E+02  0.99294972512E+01 -0.18530451256E+01  0.27170364957E+02  0.51100000000E-03 0.  1.
        -12    1    3    3    0    0 -0.29843444796E+00  0.36454388343E+00  0.64168193245E+00  0.79605971202E+00  0.00000000000E+00 0.  1.
</event>
<event>
 7    1  0.2472338E-008  0.4614232E+02  0.7816164E-02  0.1320468E+00
        -11   -1    0    0    0    0  0.00000000000E+00  0.00000000000E+00  0.45593999997E+02  0.45594000000E+02  0.51100000000E-03 0.  1.
         11   -1    0    0    0    0 -0.00000000000E+00 -0.00000000000E+00 -0.45593999997E+02  0.45594000000E+02  0.51100000000E-03 0. -1.
    9900012    2    1    2    0    0  0.10442906763E+02  0.36595436473E+02  0.24100480592E+02  0.46142318330E+02  0.10000005187E+02 0.  0.
         12    1    1    2    0    0 -0.10442906763E+02 -0.36595436473E+02 -0.24100480592E+02  0.45045681670E+02  0.00000000000E+00 0. -1.
         11    1    3    3    0    0  0.26860085744E+01  0.95787302653E+01  0.53995092321E+01  0.11319073097E+02  0.51100000000E-03 0. -1.
        -11    1    3    3    0    0  0.83362617499E+01  0.16345888221E+02  0.14312291003E+02  0.23270646654E+02  0.51100000000E-03 0.  1.
         12    1    3    3    0    0 -0.57936356106E+00  0.10670817987E+02  0.43886803571E+01  0.11552598579E+02  0.00000000000E+00 0. -1.
</event>
<event>
 7    1  0.2472338E-008  0.4614232E+02  0.7816164E-02  0.1320468E+00
        -11   -1    0    0    0    0  0.00000000000E+00  0.00000000000E+00  0.45593999997E+02  0.45594000000E+02  0.51100000000E-03 0.  1.
         11   -1    0    0    0    0 -0.00000000000E+00 -0.00000000000E+00 -0.45593999997E+02  0.45594000000E+02  0.51100000000E-03 0. -1.
    9900012    2    1    2    0    0 -0.69874739123E+01  0.27830471111E+02  0.34723959808E+02  0.46142319867E+02  0.10000019203E+02 0.  0.
         12    1    1    2    0    0  0.69874739123E+01 -0.27830471111E+02 -0.34723959808E+02  0.45045680133E+02  0.00000000000E+00 0. -1.
         11    1    3    3    0    0 -0.15702162160E+00  0.14441969442E+00  0.84424144432E-01  0.22943525246E+00  0.51100000000E-03 0. -1.
        -11    1    3    3    0    0 -0.53843077829E+01  0.19036036140E+02  0.16485167689E+02  0.25751159124E+02  0.51100000000E-03 0.  1.
        -12    1    3    3    0    0 -0.14461445079E+01  0.86500152763E+01  0.18154367975E+02  0.20161725491E+02  0.00000000000E+00 0.  1.
</event>
<event>
 7    1  0.2472338E-008  0.4614231E+02  0.7816164E-02  0.1320468E+00
        -11   -1    0    0    0    0  0.00000000000E+00  0.00000000000E+00  0.45593999997E+02  0.45594000000E+02  0.51100000000E-03 0.  1.
         11   -1    0    0    0    0 -0.00000000000E+00 -0.00000000000E+00 -0.45593999997E+02  0.45594000000E+02  0.51100000000E-03 0. -1.
    9900012    2    1    2    0    0  0.32261495140E+01 -0.41283133533E+02  0.17731576913E+02  0.46142312362E+02  0.99999507657E+01 0.  0.
         12    1    1    2    0    0 -0.32261495140E+01  0.41283133533E+02 -0.17731576913E+02  0.45045687638E+02  0.00000000000E+00 0. -1.
         11    1    3    3    0    0  0.12706907249E+01 -0.18484175120E+02  0.46899491886E+01  0.19112169119E+02  0.51100000000E-03 0. -1.
        -11    1    3    3    0    0 -0.15331766012E+01 -0.11612698215E+02  0.45815292934E+01  0.12577591234E+02  0.51100000000E-03 0.  1.
        -12    1    3    3    0    0  0.34886353903E+01 -0.11186260197E+02  0.84600984314E+01  0.14452552008E+02  0.00000000000E+00 0.  1.
</event>
<event>
 7    1  0.2472338E-008  0.4614232E+02  0.7816164E-02  0.1320468E+00
        -11   -1    0    0    0    0  0.00000000000E+00  0.00000000000E+00  0.45593999997E+02  0.45594000000E+02  0.51100000000E-03 0.  1.
         11   -1    0    0    0    0 -0.00000000000E+00 -0.00000000000E+00 -0.45593999997E+02  0.45594000000E+02  0.51100000000E-03 0. -1.
    9900012    2    1    2    0    0  0.28330802076E+02  0.34836657331E+02  0.35897804695E+01  0.46142316921E+02  0.99999923371E+01 0.  0.
         12    1    1    2    0    0 -0.28330802076E+02 -0.34836657331E+02 -0.35897804695E+01  0.45045683079E+02  0.00000000000E+00 0. -1.
         11    1    3    3    0    0  0.44331303124E+01  0.46561218055E+01  0.22898566730E+01  0.68246288162E+01  0.51100000000E-03 0. -1.
        -11    1    3    3    0    0  0.11672851589E+01  0.44202678042E+00  0.14151015087E+01  0.18869167597E+01  0.51100000000E-03 0.  1.
        -12    1    3    3    0    0  0.22730386605E+02  0.29738508745E+02 -0.11517771231E+00  0.37430771345E+02  0.00000000000E+00 0.  1.
</event>
<event>
 7    1  0.2472338E-008  0.4614232E+02  0.7816164E-02  0.1320468E+00
        -11   -1    0    0    0    0  0.00000000000E+00  0.00000000000E+00  0.45593999997E+02  0.45594000000E+02  0.51100000000E-03 0.  1.
         11   -1    0    0    0    0 -0.00000000000E+00 -0.00000000000E+00 -0.45593999997E+02  0.45594000000E+02  0.51100000000E-03 0. -1.
    9900012    2    1    2    0    0  0.19103519899E+02 -0.25900216651E+02  0.31517420357E+02  0.46142317842E+02  0.10000000742E+02 0.  0.
         12    1    1    2    0    0 -0.19103519899E+02  0.25900216651E+02 -0.31517420357E+02  0.45045682158E+02  0.00000000000E+00 0. -1.
         11    1    3    3    0    0  0.81467146368E+00 -0.52429897244E+00  0.11524826195E+00  0.97563386024E+00  0.51100000000E-03 0. -1.
        -11    1    3    3    0    0  0.16773932466E+01 -0.86203022242E+01  0.70776478136E+01  0.11279022891E+02  0.51100000000E-03 0.  1.
         12    1    3    3    0    0  0.16611455188E+02 -0.16755615454E+02  0.24324524281E+02  0.33887661091E+02  0.00000000000E+00 0. -1.
</event>
<event>
 7    1  0.2472338E-008  0.4614232E+02  0.7816164E-02  0.1320468E+00
        -11   -1    0    0    0    0  0.00000000000E+00  0.00000000000E+00  0.45593999997E+02  0.45594000000E+02  0.51100000000E-03 0.  1.
         11   -1    0    0    0    0 -0.00000000000E+00 -0.00000000000E+00 -0.45593999997E+02  0.45594000000E+02  0.51100000000E-03 0. -1.
    9900012    2    1    2    0    0  0.11208639823E+02 -0.34461636883E+02 -0.26755847573E+02  0.46142318713E+02  0.10000008676E+02 0.  0.
         12    1    1    2    0    0 -0.11208639823E+02  0.34461636883E+02  0.26755847573E+02  0.45045681287E+02  0.00000000000E+00 0. -1.
         11    1    3    3    0    0 -0.57694549479E+00 -0.32693800720E+01 -0.71650217527E+00  0.33963344635E+01  0.51100000000E-03 0. -1.
        -11    1    3    3    0    0  0.10855610014E+02 -0.27290605069E+02 -0.25080721866E+02  0.38622066275E+02  0.51100000000E-03 0.  1.
        -12    1    3    3    0    0  0.92997530405E+00 -0.39016517419E+01 -0.95862353199E+00  0.41239179741E+01  0.00000000000E+00 0.  1.
</event>
<event>
 7    1  0.2472338E-008  0.4614232E+02  0.7816164E-02  0.1320468E+00
        -11   -1    0    0    0    0  0.00000000000E+00  0.00000000000E+00  0.45593999997E+02  0.45594000000E+02  0.51100000000E-03 0. -1.
         11   -1    0    0    0    0 -0.00000000000E+00 -0.00000000000E+00 -0.45593999997E+02  0.45594000000E+02  0.51100000000E-03 0.  1.
    9900012    2    1    2    0    0 -0.42860075729E+02  0.11625974000E+02  0.75474551475E+01  0.46142318274E+02  0.10000004674E+02 0.  0.
         12    1    1    2    0    0  0.42860075729E+02 -0.11625974000E+02 -0.75474551475E+01  0.45045681726E+02  0.00000000000E+00 0. -1.
         11    1    3    3    0    0 -0.18974291225E+02  0.64406148726E+01  0.77449921192E+01  0.21482321816E+02  0.51100000000E-03 0. -1.
        -11    1    3    3    0    0 -0.84610286606E+01  0.28412663820E+01  0.11543354310E+01  0.89996828387E+01  0.51100000000E-03 0.  1.
         12    1    3    3    0    0 -0.15424755844E+02  0.23440927458E+01 -0.13518724027E+01  0.15660313619E+02  0.00000000000E+00 0. -1.
</event>
<event>
 7    1  0.2472338E-008  0.4614232E+02  0.7816164E-02  0.1320468E+00
        -11   -1    0    0    0    0  0.00000000000E+00  0.00000000000E+00  0.45593999997E+02  0.45594000000E+02  0.51100000000E-03 0.  1.
         11   -1    0    0    0    0 -0.00000000000E+00 -0.00000000000E+00 -0.45593999997E+02  0.45594000000E+02  0.51100000000E-03 0. -1.
    9900012    2    1    2    0    0  0.20983837636E+02 -0.39164279731E+02  0.74129097993E+01  0.46142317849E+02  0.10000000797E+02 0.  0.
         12    1    1    2    0    0 -0.20983837636E+02  0.39164279731E+02 -0.74129097993E+01  0.45045682151E+02  0.00000000000E+00 0. -1.
         11    1    3    3    0    0  0.77960200219E+01 -0.17321627866E+02  0.39084109608E+01  0.19393101779E+02  0.51100000000E-03 0.  1.
        -11    1    3    3    0    0 -0.74495105961E+00 -0.29549552200E+01  0.34147567647E+00  0.30664830559E+01  0.51100000000E-03 0. -1.
        -12    1    3    3    0    0  0.13932768673E+02 -0.18887696645E+02  0.31630231620E+01  0.23682733014E+02  0.00000000000E+00 0.  1.
</event>
<event>
 7    1  0.2472338E-008  0.4614232E+02  0.7816164E-02  0.1320468E+00
        -11   -1    0    0    0    0  0.00000000000E+00  0.00000000000E+00  0.45593999997E+02  0.45594000000E+02  0.51100000000E-03 0.  1.
         11   -1    0    0    0    0 -0.00000000000E+00 -0.00000000000E+00 -0.45593999997E+02  0.45594000000E+02  0.51100000000E-03 0. -1.
    9900012    2    1    2    0    0  0.28712524114E+02 -0.23459139904E+02  0.25580718778E+02  0.46142318084E+02  0.10000002943E+02 0.  0.
         12    1    1    2    0    0 -0.28712524114E+02  0.23459139904E+02 -0.25580718778E+02  0.45045681916E+02  0.00000000000E+00 0. -1.
         11    1    3    3    0    0  0.71736802158E+01 -0.56923719271E+01  0.81482424971E+01  0.12258003184E+02  0.51100000000E-03 0.  1.
        -11    1    3    3    0    0  0.11019996847E+02 -0.54873995446E+01  0.42529546671E+01  0.13024573234E+02  0.51100000000E-03 0. -1.
         12    1    3    3    0    0  0.10518847052E+02 -0.12279368433E+02  0.13179521614E+02  0.20859741666E+02  0.00000000000E+00 0. -1.
</event>
<event>
 7    1  0.2472338E-008  0.4614232E+02  0.7816164E-02  0.1320468E+00
        -11   -1    0    0    0    0  0.00000000000E+00  0.00000000000E+00  0.45593999997E+02  0.45594000000E+02  0.51100000000E-03 0.  1.
         11   -1    0    0    0    0 -0.00000000000E+00 -0.00000000000E+00 -0.45593999997E+02  0.45594000000E+02  0.51100000000E-03 0. -1.
    9900012    2    1    2    0    0 -0.11830635581E+02 -0.57006952309E+01  0.43088880472E+02  0.46142317802E+02  0.10000000371E+02 0.  0.
         12    1    1    2    0    0  0.11830635581E+02  0.57006952309E+01 -0.43088880472E+02  0.45045682198E+02  0.00000000000E+00 0. -1.
         11    1    3    3    0    0  0.16168066891E+01 -0.64115562048E+00  0.57850916617E+01  0.60408964728E+01  0.51100000000E-03 0. -1.
        -11    1    3    3    0    0 -0.25763473846E+00 -0.38123424868E+00  0.32597930476E+00  0.56389536182E+00  0.51100000000E-03 0.  1.
        -12    1    3    3    0    0 -0.13189807532E+02 -0.46783053618E+01  0.36977809506E+02  0.39537525967E+02  0.00000000000E+00 0.  1.
</event>
<event>
 7    1  0.2472338E-008  0.4614232E+02  0.7816164E-02  0.1320468E+00
        -11   -1    0    0    0    0  0.00000000000E+00  0.00000000000E+00  0.45593999997E+02  0.45594000000E+02  0.51100000000E-03 0.  1.
         11   -1    0    0    0    0 -0.00000000000E+00 -0.00000000000E+00 -0.45593999997E+02  0.45594000000E+02  0.51100000000E-03 0. -1.
    9900012    2    1    2    0    0 -0.17674634160E+02  0.16012319317E+02  0.38214218278E+02  0.46142317175E+02  0.99999946516E+01 0.  0.
         12    1    1    2    0    0  0.17674634160E+02 -0.16012319317E+02 -0.38214218278E+02  0.45045682825E+02  0.00000000000E+00 0. -1.
         11    1    3    3    0    0 -0.86661521065E+01  0.11843689764E+02  0.23410637893E+02  0.27630293997E+02  0.51100000000E-03 0. -1.
        -11    1    3    3    0    0 -0.89185762213E+01  0.42512155392E+01  0.11315457721E+02  0.15021764845E+02  0.51100000000E-03 0.  1.
        -12    1    3    3    0    0 -0.89905832308E-01 -0.82585985754E-01  0.34881226643E+01  0.34902583322E+01  0.00000000000E+00 0.  1.
</event>
<event>
 7    1  0.2472338E-008  0.4614232E+02  0.7816164E-02  0.1320468E+00
        -11   -1    0    0    0    0  0.00000000000E+00  0.00000000000E+00  0.45593999997E+02  0.45594000000E+02  0.51100000000E-03 0.  1.
         11   -1    0    0    0    0 -0.00000000000E+00 -0.00000000000E+00 -0.45593999997E+02  0.45594000000E+02  0.51100000000E-03 0. -1.
    9900012    2    1    2    0    0  0.28236975829E+02  0.28934470073E+02  0.19864114941E+02  0.46142318467E+02  0.10000006439E+02 0.  0.
         12    1    1    2    0    0 -0.28236975829E+02 -0.28934470073E+02 -0.19864114941E+02  0.45045681533E+02  0.00000000000E+00 0. -1.
         11    1    3    3    0    0  0.19785234125E+01  0.23406107641E+00  0.31934553941E+01  0.37639735781E+01  0.51100000000E-03 0. -1.
        -11    1    3    3    0    0  0.57208349607E+01  0.76450796545E+01  0.41419471095E+01  0.10408214145E+02  0.51100000000E-03 0.  1.
         12    1    3    3    0    0  0.20537617456E+02  0.21055329342E+02  0.12528712437E+02  0.31970130744E+02  0.00000000000E+00 0. -1.
</event>
<event>
 7    1  0.2472338E-008  0.4614231E+02  0.7816164E-02  0.1320468E+00
        -11   -1    0    0    0    0  0.00000000000E+00  0.00000000000E+00  0.45593999997E+02  0.45594000000E+02  0.51100000000E-03 0.  1.
         11   -1    0    0    0    0 -0.00000000000E+00 -0.00000000000E+00 -0.45593999997E+02  0.45594000000E+02  0.51100000000E-03 0. -1.
    9900012    2    1    2    0    0  0.16609179102E+01 -0.35253239063E+02  0.27992219311E+02  0.46142313695E+02  0.99999629246E+01 0.  0.
         12    1    1    2    0    0 -0.16609179102E+01  0.35253239063E+02 -0.27992219311E+02  0.45045686305E+02  0.00000000000E+00 0. -1.
         11    1    3    3    0    0 -0.10468203466E+01 -0.11001793018E+02  0.14211404387E+02  0.18002758048E+02  0.51100000000E-03 0. -1.
        -11    1    3    3    0    0  0.15568843684E+01 -0.60543310807E+01  0.27535814659E+01  0.68308875647E+01  0.51100000000E-03 0.  1.
         12    1    3    3    0    0  0.11508538883E+01 -0.18197114964E+02  0.11027233458E+02  0.21308668082E+02  0.00000000000E+00 0. -1.
</event>
<event>
 7    1  0.2472338E-008  0.4614230E+02  0.7816164E-02  0.1320468E+00
        -11   -1    0    0    0    0  0.00000000000E+00  0.00000000000E+00  0.45593999997E+02  0.45594000000E+02  0.51100000000E-03 0.  1.
         11   -1    0    0    0    0 -0.00000000000E+00 -0.00000000000E+00 -0.45593999997E+02  0.45594000000E+02  0.51100000000E-03 0. -1.
    9900012    2    1    2    0    0  0.32275776769E+02  0.20601500842E+02  0.23726927331E+02  0.46142304494E+02  0.99998790221E+01 0.  0.
         12    1    1    2    0    0 -0.32275776769E+02 -0.20601500842E+02 -0.23726927331E+02  0.45045695506E+02  0.00000000000E+00 0. -1.
         11    1    3    3    0    0  0.69509951490E+01  0.15882614273E+01  0.34964894481E+01  0.79413063563E+01  0.51100000000E-03 0. -1.
        -11    1    3    3    0    0  0.10682649093E+02  0.39652830821E+01  0.76467192998E+01  0.13722783168E+02  0.51100000000E-03 0.  1.
         12    1    3    3    0    0  0.14642132528E+02  0.15047956332E+02  0.12583718583E+02  0.24478214970E+02  0.00000000000E+00 0. -1.
</event>
<event>
 7    1  0.2472338E-008  0.4614232E+02  0.7816164E-02  0.1320468E+00
        -11   -1    0    0    0    0  0.00000000000E+00  0.00000000000E+00  0.45593999997E+02  0.45594000000E+02  0.51100000000E-03 0.  1.
         11   -1    0    0    0    0 -0.00000000000E+00 -0.00000000000E+00 -0.45593999997E+02  0.45594000000E+02  0.51100000000E-03 0. -1.
    9900012    2    1    2    0    0  0.28176712611E+02 -0.23192226915E+02  0.26406567271E+02  0.46142319653E+02  0.10000017254E+02 0.  0.
         12    1    1    2    0    0 -0.28176712611E+02  0.23192226915E+02 -0.26406567271E+02  0.45045680347E+02  0.00000000000E+00 0. -1.
         11    1    3    3    0    0  0.13874958552E+02 -0.17014124207E+02  0.16657993292E+02  0.27558730706E+02  0.51100000000E-03 0. -1.
        -11    1    3    3    0    0  0.79479731204E+01 -0.44650401099E+01  0.45014931191E+01  0.10167118592E+02  0.51100000000E-03 0.  1.
        -12    1    3    3    0    0  0.63537809384E+01 -0.17130625981E+01  0.52470808600E+01  0.84164703546E+01  0.00000000000E+00 0.  1.
</event>
<event>
 7    1  0.2472338E-008  0.4614232E+02  0.7816164E-02  0.1320468E+00
        -11   -1    0    0    0    0  0.00000000000E+00  0.00000000000E+00  0.45593999997E+02  0.45594000000E+02  0.51100000000E-03 0.  1.
         11   -1    0    0    0    0 -0.00000000000E+00 -0.00000000000E+00 -0.45593999997E+02  0.45594000000E+02  0.51100000000E-03 0. -1.
    9900012    2    1    2    0    0 -0.15344748549E+02  0.22989150528E+02  0.35568962482E+02  0.46142318274E+02  0.10000004681E+02 0.  0.
         12    1    1    2    0    0  0.15344748549E+02 -0.22989150528E+02 -0.35568962482E+02  0.45045681726E+02  0.00000000000E+00 0. -1.
         11    1    3    3    0    0 -0.62910091164E+01  0.16547036535E+02  0.19070881870E+02  0.26020756126E+02  0.51100000000E-03 0.  1.
        -11    1    3    3    0    0 -0.24754169817E+01  0.33604584683E+01  0.49039841954E+01  0.64396763584E+01  0.51100000000E-03 0. -1.
         12    1    3    3    0    0 -0.65783224513E+01  0.30816555242E+01  0.11594096417E+02  0.13681885790E+02  0.00000000000E+00 0. -1.
</event>
<event>
 7    1  0.2472338E-008  0.4614233E+02  0.7816164E-02  0.1320468E+00
        -11   -1    0    0    0    0  0.00000000000E+00  0.00000000000E+00  0.45593999997E+02  0.45594000000E+02  0.51100000000E-03 0. -1.
         11   -1    0    0    0    0 -0.00000000000E+00 -0.00000000000E+00 -0.45593999997E+02  0.45594000000E+02  0.51100000000E-03 0.  1.
    9900012    2    1    2    0    0 -0.29524068051E+02 -0.22203711422E+02 -0.25776684006E+02  0.46142325030E+02  0.10000066280E+02 0.  0.
         12    1    1    2    0    0  0.29524068051E+02  0.22203711422E+02  0.25776684006E+02  0.45045674970E+02  0.00000000000E+00 0. -1.
         11    1    3    3    0    0 -0.20208405392E+01  0.75608780994E-01 -0.18265793066E+01  0.27250514485E+01  0.51100000000E-03 0. -1.
        -11    1    3    3    0    0 -0.26997007247E+01 -0.45548042428E+01 -0.13386877287E+01  0.54613835966E+01  0.51100000000E-03 0.  1.
        -12    1    3    3    0    0 -0.24803526787E+02 -0.17724515960E+02 -0.22611416971E+02  0.37955889985E+02  0.00000000000E+00 0.  1.
</event>
<event>
 7    1  0.2472338E-008  0.4614232E+02  0.7816164E-02  0.1320468E+00
        -11   -1    0    0    0    0  0.00000000000E+00  0.00000000000E+00  0.45593999997E+02  0.45594000000E+02  0.51100000000E-03 0.  1.
         11   -1    0    0    0    0 -0.00000000000E+00 -0.00000000000E+00 -0.45593999997E+02  0.45594000000E+02  0.51100000000E-03 0. -1.
    9900012    2    1    2    0    0  0.30166059491E+02 -0.33334981712E+02 -0.28109334838E+01  0.46142317654E+02  0.99999990272E+01 0.  0.
         12    1    1    2    0    0 -0.30166059491E+02  0.33334981712E+02  0.28109334838E+01  0.45045682346E+02  0.00000000000E+00 0. -1.
         11    1    3    3    0    0  0.35921471222E+00  0.97824042563E-01 -0.10226718123E+01  0.10883302117E+01  0.51100000000E-03 0. -1.
        -11    1    3    3    0    0  0.36837932653E+01 -0.54739553398E+01  0.10674800107E+01  0.66838636819E+01  0.51100000000E-03 0.  1.
        -12    1    3    3    0    0  0.26123051513E+02 -0.27958850414E+02 -0.28557416822E+01  0.38370123761E+02  0.00000000000E+00 0.  1.
</event>
<event>
 7    1  0.2472338E-008  0.4614232E+02  0.7816164E-02  0.1320468E+00
        -11   -1    0    0    0    0  0.00000000000E+00  0.00000000000E+00  0.45593999997E+02  0.45594000000E+02  0.51100000000E-03 0. -1.
         11   -1    0    0    0    0 -0.00000000000E+00 -0.00000000000E+00 -0.45593999997E+02  0.45594000000E+02  0.51100000000E-03 0.  1.
    9900012    2    1    2    0    0 -0.23965675273E+02  0.96922410029E-01 -0.38141192258E+02  0.46142317275E+02  0.99999955695E+01 0.  0.
         12    1    1    2    0    0  0.23965675273E+02 -0.96922410029E-01  0.38141192258E+02  0.45045682725E+02  0.00000000000E+00 0. -1.
         11    1    3    3    0    0 -0.14818599012E+02  0.15361819219E+01 -0.21553426047E+02  0.26201162307E+02  0.51100000000E-03 0. -1.
        -11    1    3    3    0    0 -0.64518723887E+01  0.18022870179E+01 -0.11740280339E+02  0.13516992214E+02  0.51100000000E-03 0.  1.
         12    1    3    3    0    0 -0.26952038727E+01 -0.32415465298E+01 -0.48474858715E+01  0.64241627544E+01  0.00000000000E+00 0. -1.
</event>
<event>
 7    1  0.2472338E-008  0.4614232E+02  0.7816164E-02  0.1320468E+00
        -11   -1    0    0    0    0  0.00000000000E+00  0.00000000000E+00  0.45593999997E+02  0.45594000000E+02  0.51100000000E-03 0. -1.
         11   -1    0    0    0    0 -0.00000000000E+00 -0.00000000000E+00 -0.45593999997E+02  0.45594000000E+02  0.51100000000E-03 0.  1.
    9900012    2    1    2    0    0 -0.40494482966E+02 -0.14743939303E+02  0.13112078693E+02  0.46142317582E+02  0.99999983686E+01 0.  0.
         12    1    1    2    0    0  0.40494482966E+02  0.14743939303E+02 -0.13112078693E+02  0.45045682418E+02  0.00000000000E+00 0. -1.
         11    1    3    3    0    0 -0.27289211261E+02 -0.10560381835E+02  0.10356322182E+02  0.31039911810E+02  0.51100000000E-03 0. -1.
        -11    1    3    3    0    0 -0.81732506031E+01 -0.25583719119E+01  0.43142352677E+01  0.95895734246E+01  0.51100000000E-03 0.  1.
         12    1    3    3    0    0 -0.50320211017E+01 -0.16251855560E+01 -0.15584787571E+01  0.55128323479E+01  0.00000000000E+00 0. -1.
</event>
<event>
 7    1  0.2472338E-008  0.4614232E+02  0.7816164E-02  0.1320468E+00
        -11   -1    0    0    0    0  0.00000000000E+00  0.00000000000E+00  0.45593999997E+02  0.45594000000E+02  0.51100000000E-03 0. -1.
         11   -1    0    0    0    0 -0.00000000000E+00 -0.00000000000E+00 -0.45593999997E+02  0.45594000000E+02  0.51100000000E-03 0.  1.
    9900012    2    1    2    0    0 -0.38346231481E+02  0.14265745705E+02  0.18845907967E+02  0.46142320780E+02  0.10000027526E+02 0.  0.
         12    1    1    2    0    0  0.38346231481E+02 -0.14265745705E+02 -0.18845907967E+02  0.45045679220E+02  0.00000000000E+00 0. -1.
         11    1    3    3    0    0 -0.90989375833E+01  0.39534112187E+00  0.35688506585E+01  0.97818022384E+01  0.51100000000E-03 0. -1.
        -11    1    3    3    0    0 -0.28490407853E+02  0.13143335020E+02  0.15863532316E+02  0.35158245873E+02  0.51100000000E-03 0.  1.
        -12    1    3    3    0    0 -0.75688604522E+00  0.72706956315E+00 -0.58647500740E+00  0.12022726685E+01  0.00000000000E+00 0.  1.
</event>
<event>
 7    1  0.2472338E-008  0.4614232E+02  0.7816164E-02  0.1320468E+00
        -11   -1    0    0    0    0  0.00000000000E+00  0.00000000000E+00  0.45593999997E+02  0.45594000000E+02  0.51100000000E-03 0.  1.
         11   -1    0    0    0    0 -0.00000000000E+00 -0.00000000000E+00 -0.45593999997E+02  0.45594000000E+02  0.51100000000E-03 0. -1.
    9900012    2    1    2    0    0 -0.21847505201E+02 -0.14171007962E+02  0.36755716517E+02  0.46142316002E+02  0.99999839622E+01 0.  0.
         12    1    1    2    0    0  0.21847505201E+02  0.14171007962E+02 -0.36755716517E+02  0.45045683998E+02  0.00000000000E+00 0. -1.
         11    1    3    3    0    0 -0.10376910104E+00 -0.27910551900E+01  0.19955966886E+01  0.34326612861E+01  0.51100000000E-03 0. -1.
        -11    1    3    3    0    0 -0.90564679535E+01 -0.57367358222E+01  0.12432048606E+02  0.16416016036E+02  0.51100000000E-03 0.  1.
        -12    1    3    3    0    0 -0.12687268146E+02 -0.56432169498E+01  0.22328071222E+02  0.26293638680E+02  0.00000000000E+00 0.  1.
</event>
<event>
 7    1  0.2472338E-008  0.4614232E+02  0.7816164E-02  0.1320468E+00
        -11   -1    0    0    0    0  0.00000000000E+00  0.00000000000E+00  0.45593999997E+02  0.45594000000E+02  0.51100000000E-03 0. -1.
         11   -1    0    0    0    0 -0.00000000000E+00 -0.00000000000E+00 -0.45593999997E+02  0.45594000000E+02  0.51100000000E-03 0.  1.
    9900012    2    1    2    0    0 -0.93492186624E+01  0.37302073290E+02 -0.23457641659E+02  0.46142317481E+02  0.99999974495E+01 0.  0.
         12    1    1    2    0    0  0.93492186624E+01 -0.37302073290E+02  0.23457641659E+02  0.45045682519E+02  0.00000000000E+00 0. -1.
         11    1    3    3    0    0  0.36137750090E+00  0.49668193502E+01 -0.60953492223E+00  0.50171128389E+01  0.51100000000E-03 0. -1.
        -11    1    3    3    0    0  0.63619401630E+00  0.20741738970E+01 -0.19855386937E+01  0.29409699670E+01  0.51100000000E-03 0.  1.
        -12    1    3    3    0    0 -0.10346790180E+02  0.30261080043E+02 -0.20862568043E+02  0.38184234676E+02  0.00000000000E+00 0.  1.
</event>
<event>
 7    1  0.2472338E-008  0.4614232E+02  0.7816164E-02  0.1320468E+00
        -11   -1    0    0    0    0  0.00000000000E+00  0.00000000000E+00  0.45593999997E+02  0.45594000000E+02  0.51100000000E-03 0.  1.
         11   -1    0    0    0    0 -0.00000000000E+00 -0.00000000000E+00 -0.45593999997E+02  0.45594000000E+02  0.51100000000E-03 0. -1.
    9900012    2    1    2    0    0  0.11157518378E+02 -0.11844939509E+02  0.42003819178E+02  0.46142316147E+02  0.99999852775E+01 0.  0.
         12    1    1    2    0    0 -0.11157518378E+02  0.11844939509E+02 -0.42003819178E+02  0.45045683853E+02  0.00000000000E+00 0. -1.
         11    1    3    3    0    0  0.12567117368E+01 -0.25456504488E+01  0.14920545608E+02  0.15188230381E+02  0.51100000000E-03 0. -1.
        -11    1    3    3    0    0 -0.79114643452E+00 -0.14302529415E+01  0.40749348063E+01  0.43905159257E+01  0.51100000000E-03 0.  1.
        -12    1    3    3    0    0  0.10691953075E+02 -0.78690361186E+01  0.23008338763E+02  0.26563569840E+02  0.00000000000E+00 0.  1.
</event>
<event>
 7    1  0.2472338E-008  0.4614232E+02  0.7816164E-02  0.1320468E+00
        -11   -1    0    0    0    0  0.00000000000E+00  0.00000000000E+00  0.45593999997E+02  0.45594000000E+02  0.51100000000E-03 0. -1.
         11   -1    0    0    0    0 -0.00000000000E+00 -0.00000000000E+00 -0.45593999997E+02  0.45594000000E+02  0.51100000000E-03 0.  1.
    9900012    2    1    2    0    0  0.30060105377E+02  0.33459984345E+02  0.24357769599E+01  0.46142317665E+02  0.99999991193E+01 0.  0.
         12    1    1    2    0    0 -0.30060105377E+02 -0.33459984345E+02 -0.24357769599E+01  0.45045682335E+02  0.00000000000E+00 0. -1.
         11    1    3    3    0    0  0.42468180008E+01  0.95964046757E+01 -0.82134286278E-01  0.10494436247E+02  0.51100000000E-03 0. -1.
        -11    1    3    3    0    0  0.16292537418E+02  0.17547311470E+02  0.34158320378E+01  0.24187245071E+02  0.51100000000E-03 0.  1.
        -12    1    3    3    0    0  0.95207499579E+01  0.63162682002E+01 -0.89792079158E+00  0.11460636347E+02  0.00000000000E+00 0.  1.
</event>
<event>
 7    1  0.2472338E-008  0.4614232E+02  0.7816164E-02  0.1320468E+00
        -11   -1    0    0    0    0  0.00000000000E+00  0.00000000000E+00  0.45593999997E+02  0.45594000000E+02  0.51100000000E-03 0. -1.
         11   -1    0    0    0    0 -0.00000000000E+00 -0.00000000000E+00 -0.45593999997E+02  0.45594000000E+02  0.51100000000E-03 0.  1.
    9900012    2    1    2    0    0 -0.16794806550E+02  0.29761028464E+02 -0.29348405197E+02  0.46142320630E+02  0.10000026165E+02 0.  0.
         12    1    1    2    0    0  0.16794806550E+02 -0.29761028464E+02  0.29348405197E+02  0.45045679370E+02  0.00000000000E+00 0. -1.
         11    1    3    3    0    0 -0.97897626364E+01  0.12340736046E+02 -0.18925886568E+02  0.24623614708E+02  0.51100000000E-03 0.  1.
        -11    1    3    3    0    0 -0.49607575071E+01  0.12328947299E+02 -0.80802219738E+01  0.15553200441E+02  0.51100000000E-03 0. -1.
        -12    1    3    3    0    0 -0.20442864063E+01  0.50913451197E+01 -0.23422966546E+01  0.59655054821E+01  0.00000000000E+00 0.  1.
</event>
<event>
 7    1  0.2472338E-008  0.4614231E+02  0.7816164E-02  0.1320468E+00
        -11   -1    0    0    0    0  0.00000000000E+00  0.00000000000E+00  0.45593999997E+02  0.45594000000E+02  0.51100000000E-03 0.  1.
         11   -1    0    0    0    0 -0.00000000000E+00 -0.00000000000E+00 -0.45593999997E+02  0.45594000000E+02  0.51100000000E-03 0. -1.
    9900012    2    1    2    0    0 -0.36356600973E+02 -0.25035199740E+02 -0.89749894568E+01  0.46142311015E+02  0.99999384869E+01 0.  0.
         12    1    1    2    0    0  0.36356600973E+02  0.25035199740E+02  0.89749894568E+01  0.45045688985E+02  0.00000000000E+00 0. -1.
         11    1    3    3    0    0 -0.73561925067E+00 -0.26197588300E+00 -0.42730204761E+00  0.89014287968E+00  0.51100000000E-03 0. -1.
        -11    1    3    3    0    0 -0.36155285852E+02 -0.23679928622E+02 -0.83620781281E+01  0.44021222898E+02  0.51100000000E-03 0.  1.
        -12    1    3    3    0    0  0.53430412907E+00 -0.10932952347E+01 -0.18560928110E+00  0.12309452375E+01  0.00000000000E+00 0.  1.
</event>
<event>
 7    1  0.2472338E-008  0.4614232E+02  0.7816164E-02  0.1320468E+00
        -11   -1    0    0    0    0  0.00000000000E+00  0.00000000000E+00  0.45593999997E+02  0.45594000000E+02  0.51100000000E-03 0.  1.
         11   -1    0    0    0    0 -0.00000000000E+00 -0.00000000000E+00 -0.45593999997E+02  0.45594000000E+02  0.51100000000E-03 0. -1.
    9900012    2    1    2    0    0 -0.24432630460E+02 -0.19614582179E+01  0.37793024161E+02  0.46142318467E+02  0.10000006434E+02 0.  0.
         12    1    1    2    0    0  0.24432630460E+02  0.19614582179E+01 -0.37793024161E+02  0.45045681533E+02  0.00000000000E+00 0. -1.
         11    1    3    3    0    0 -0.15496420828E+02 -0.34139807232E+01  0.30524754018E+02  0.34402833182E+02  0.51100000000E-03 0. -1.
        -11    1    3    3    0    0 -0.63921724554E+01  0.14189809604E+01  0.60647145009E+01  0.89249166889E+01  0.51100000000E-03 0.  1.
         12    1    3    3    0    0 -0.25440371774E+01  0.33541544882E-01  0.12035556425E+01  0.28145685957E+01  0.00000000000E+00 0. -1.
</event>
<event>
 7    1  0.2472338E-008  0.4614232E+02  0.7816164E-02  0.1320468E+00
        -11   -1    0    0    0    0  0.00000000000E+00  0.00000000000E+00  0.45593999997E+02  0.45594000000E+02  0.51100000000E-03 0. -1.
         11   -1    0    0    0    0 -0.00000000000E+00 -0.00000000000E+00 -0.45593999997E+02  0.45594000000E+02  0.51100000000E-03 0.  1.
    9900012    2    1    2    0    0  0.44858616516E+02 -0.40156627309E+01 -0.83210493080E+00  0.46142318503E+02  0.10000006769E+02 0.  0.
         12    1    1    2    0    0 -0.44858616516E+02  0.40156627309E+01  0.83210493080E+00  0.45045681497E+02  0.00000000000E+00 0. -1.
         11    1    3    3    0    0  0.45484698013E+01  0.69291945189E+00 -0.23291208167E+01  0.51568904332E+01  0.51100000000E-03 0. -1.
        -11    1    3    3    0    0  0.31347597285E+02 -0.56773338589E+01  0.64870040728E-01  0.31857623635E+02  0.51100000000E-03 0.  1.
         12    1    3    3    0    0  0.89625494292E+01  0.96875167612E+00  0.14321458452E+01  0.91278044349E+01  0.00000000000E+00 0. -1.
</event>
<event>
 7    1  0.2472338E-008  0.4614232E+02  0.7816164E-02  0.1320468E+00
        -11   -1    0    0    0    0  0.00000000000E+00  0.00000000000E+00  0.45593999997E+02  0.45594000000E+02  0.51100000000E-03 0.  1.
         11   -1    0    0    0    0 -0.00000000000E+00 -0.00000000000E+00 -0.45593999997E+02  0.45594000000E+02  0.51100000000E-03 0. -1.
    9900012    2    1    2    0    0 -0.32278513017E+01  0.43515706217E+02  0.11183821374E+02  0.46142316832E+02  0.99999915238E+01 0.  0.
         12    1    1    2    0    0  0.32278513017E+01 -0.43515706217E+02 -0.11183821374E+02  0.45045683168E+02  0.00000000000E+00 0. -1.
         11    1    3    3    0    0 -0.47612775432E+01  0.34870328847E+02  0.77668917809E+01  0.36040729820E+02  0.51100000000E-03 0.  1.
        -11    1    3    3    0    0  0.11033237432E+01  0.78116055037E+01  0.15898844811E+01  0.80477473092E+01  0.51100000000E-03 0. -1.
        -12    1    3    3    0    0  0.43010249826E+00  0.83377186617E+00  0.18270451116E+01  0.20538397025E+01  0.00000000000E+00 0.  1.
</event>
<event>
 7    1  0.2472338E-008  0.4614232E+02  0.7816164E-02  0.1320468E+00
        -11   -1    0    0    0    0  0.00000000000E+00  0.00000000000E+00  0.45593999997E+02  0.45594000000E+02  0.51100000000E-03 0. -1.
         11   -1    0    0    0    0 -0.00000000000E+00 -0.00000000000E+00 -0.45593999997E+02  0.45594000000E+02  0.51100000000E-03 0.  1.
    9900012    2    1    2    0    0 -0.21215432936E+02 -0.27195827073E+02 -0.28972502194E+02  0.46142317763E+02  0.10000000014E+02 0.  0.
         12    1    1    2    0    0  0.21215432936E+02  0.27195827073E+02  0.28972502194E+02  0.45045682237E+02  0.00000000000E+00 0. -1.
         11    1    3    3    0    0 -0.77290850268E+01 -0.85602212916E+01 -0.15383416191E+02  0.19226690767E+02  0.51100000000E-03 0. -1.
        -11    1    3    3    0    0 -0.42155516630E+01 -0.70030000765E+01 -0.64708074369E+01  0.10425173142E+02  0.51100000000E-03 0.  1.
         12    1    3    3    0    0 -0.92707962466E+01 -0.11632605705E+02 -0.71182785660E+01  0.16490453853E+02  0.00000000000E+00 0. -1.
</event>
<event>
 7    1  0.2472338E-008  0.4614232E+02  0.7816164E-02  0.1320468E+00
        -11   -1    0    0    0    0  0.00000000000E+00  0.00000000000E+00  0.45593999997E+02  0.45594000000E+02  0.51100000000E-03 0. -1.
         11   -1    0    0    0    0 -0.00000000000E+00 -0.00000000000E+00 -0.45593999997E+02  0.45594000000E+02  0.51100000000E-03 0.  1.
    9900012    2    1    2    0    0 -0.21374191418E+02 -0.34439723167E+02 -0.19651025684E+02  0.46142318730E+02  0.10000008840E+02 0.  0.
         12    1    1    2    0    0  0.21374191418E+02  0.34439723167E+02  0.19651025684E+02  0.45045681270E+02  0.00000000000E+00 0. -1.
         11    1    3    3    0    0 -0.90655067968E+01 -0.18880649294E+02 -0.66914968016E+01  0.21987234045E+02  0.51100000000E-03 0. -1.
        -11    1    3    3    0    0 -0.50656466948E+01 -0.99082197290E+01 -0.80875717508E+01  0.13756540689E+02  0.51100000000E-03 0.  1.
         12    1    3    3    0    0 -0.72430379260E+01 -0.56508541442E+01 -0.48719571320E+01  0.10398543997E+02  0.00000000000E+00 0. -1.
</event>
<event>
 7    1  0.2472338E-008  0.4614232E+02  0.7816164E-02  0.1320468E+00
        -11   -1    0    0    0    0  0.00000000000E+00  0.00000000000E+00  0.45593999997E+02  0.45594000000E+02  0.51100000000E-03 0.  1.
         11   -1    0    0    0    0 -0.00000000000E+00 -0.00000000000E+00 -0.45593999997E+02  0.45594000000E+02  0.51100000000E-03 0. -1.
    9900012    2    1    2    0    0  0.12705710188E+02  0.35422519568E+02  0.24757296734E+02  0.46142315351E+02  0.99999780266E+01 0.  0.
         12    1    1    2    0    0 -0.12705710188E+02 -0.35422519568E+02 -0.24757296734E+02  0.45045684649E+02  0.00000000000E+00 0. -1.
         11    1    3    3    0    0  0.50558754065E+01  0.10484171484E+02  0.43188653014E+01  0.12415004051E+02  0.51100000000E-03 0. -1.
        -11    1    3    3    0    0  0.58758612986E+00  0.12376796308E+02  0.86866434333E+01  0.15132353376E+02  0.51100000000E-03 0.  1.
        -12    1    3    3    0    0  0.70622486515E+01  0.12561551776E+02  0.11751787999E+02  0.18594957924E+02  0.00000000000E+00 0.  1.
</event>
<event>
 7    1  0.2472338E-008  0.4614232E+02  0.7816164E-02  0.1320468E+00
        -11   -1    0    0    0    0  0.00000000000E+00  0.00000000000E+00  0.45593999997E+02  0.45594000000E+02  0.51100000000E-03 0.  1.
         11   -1    0    0    0    0 -0.00000000000E+00 -0.00000000000E+00 -0.45593999997E+02  0.45594000000E+02  0.51100000000E-03 0. -1.
    9900012    2    1    2    0    0  0.12716949041E+02  0.15309473946E+02  0.40410552447E+02  0.46142317249E+02  0.99999953335E+01 0.  0.
         12    1    1    2    0    0 -0.12716949041E+02 -0.15309473946E+02 -0.40410552447E+02  0.45045682751E+02  0.00000000000E+00 0. -1.
         11    1    3    3    0    0  0.55029750126E+01  0.95004681922E+01  0.26170426930E+02  0.28380149327E+02  0.51100000000E-03 0. -1.
        -11    1    3    3    0    0  0.18845234223E+00  0.23161806605E+01  0.57503090221E+01  0.62021174810E+01  0.51100000000E-03 0.  1.
        -12    1    3    3    0    0  0.70255216861E+01  0.34928250934E+01  0.84898164949E+01  0.11560050442E+02  0.00000000000E+00 0.  1.
</event>
<event>
 7    1  0.2472338E-008  0.4614232E+02  0.7816164E-02  0.1320468E+00
        -11   -1    0    0    0    0  0.00000000000E+00  0.00000000000E+00  0.45593999997E+02  0.45594000000E+02  0.51100000000E-03 0. -1.
         11   -1    0    0    0    0 -0.00000000000E+00 -0.00000000000E+00 -0.45593999997E+02  0.45594000000E+02  0.51100000000E-03 0.  1.
    9900012    2    1    2    0    0  0.38755492152E+02 -0.15296653390E+02 -0.17121265366E+02  0.46142317581E+02  0.99999983552E+01 0.  0.
         12    1    1    2    0    0 -0.38755492152E+02  0.15296653390E+02  0.17121265366E+02  0.45045682419E+02  0.00000000000E+00 0. -1.
         11    1    3    3    0    0  0.12216516490E+02 -0.61159746886E+01 -0.47061268084E+01  0.14449776861E+02  0.51100000000E-03 0. -1.
        -11    1    3    3    0    0  0.22487684422E+02 -0.10100296356E+02 -0.87688028764E+01  0.26164935339E+02  0.51100000000E-03 0.  1.
         12    1    3    3    0    0  0.40512912397E+01  0.91961765490E+00 -0.36463356808E+01  0.55276053800E+01  0.00000000000E+00 0. -1.
</event>
<event>
 7    1  0.2472338E-008  0.4614232E+02  0.7816164E-02  0.1320468E+00
        -11   -1    0    0    0    0  0.00000000000E+00  0.00000000000E+00  0.45593999997E+02  0.45594000000E+02  0.51100000000E-03 0.  1.
         11   -1    0    0    0    0 -0.00000000000E+00 -0.00000000000E+00 -0.45593999997E+02  0.45594000000E+02  0.51100000000E-03 0. -1.
    9900012    2    1    2    0    0  0.11385320322E+02  0.35942044227E+02  0.24650700835E+02  0.46142321920E+02  0.10000037922E+02 0.  0.
         12    1    1    2    0    0 -0.11385320322E+02 -0.35942044227E+02 -0.24650700835E+02  0.45045678080E+02  0.00000000000E+00 0. -1.
         11    1    3    3    0    0  0.12275973321E+01  0.29615609701E+00  0.15686635914E+01  0.20138046995E+01  0.51100000000E-03 0. -1.
        -11    1    3    3    0    0  0.32255476083E+01  0.11499359760E+02  0.40492124270E+01  0.12610929934E+02  0.51100000000E-03 0.  1.
        -12    1    3    3    0    0  0.69321753819E+01  0.24146528370E+02  0.19032824817E+02  0.31517587286E+02  0.00000000000E+00 0.  1.
</event>
<event>
 7    1  0.2472338E-008  0.4614232E+02  0.7816164E-02  0.1320468E+00
        -11   -1    0    0    0    0  0.00000000000E+00  0.00000000000E+00  0.45593999997E+02  0.45594000000E+02  0.51100000000E-03 0. -1.
         11   -1    0    0    0    0 -0.00000000000E+00 -0.00000000000E+00 -0.45593999997E+02  0.45594000000E+02  0.51100000000E-03 0.  1.
    9900012    2    1    2    0    0  0.23123143500E+01 -0.41977391546E+02 -0.16176073224E+02  0.46142317147E+02  0.99999944036E+01 0.  0.
         12    1    1    2    0    0 -0.23123143500E+01  0.41977391546E+02  0.16176073224E+02  0.45045682853E+02  0.00000000000E+00 0. -1.
         11    1    3    3    0    0  0.16286661155E+01 -0.86537518435E+01 -0.70576116490E+01  0.11284939377E+02  0.51100000000E-03 0. -1.
        -11    1    3    3    0    0 -0.11033894679E-01 -0.30912885177E+02 -0.94539240794E+01  0.32326201022E+02  0.51100000000E-03 0.  1.
        -12    1    3    3    0    0  0.69468212926E+00 -0.24107545257E+01  0.33546250404E+00  0.25311767492E+01  0.00000000000E+00 0.  1.
</event>
<event>
 7    1  0.2472338E-008  0.4614232E+02  0.7816164E-02  0.1320468E+00
        -11   -1    0    0    0    0  0.00000000000E+00  0.00000000000E+00  0.45593999997E+02  0.45594000000E+02  0.51100000000E-03 0.  1.
         11   -1    0    0    0    0 -0.00000000000E+00 -0.00000000000E+00 -0.45593999997E+02  0.45594000000E+02  0.51100000000E-03 0. -1.
    9900012    2    1    2    0    0  0.33805066504E+02 -0.41774112324E+01  0.29476768861E+02  0.46142321090E+02  0.10000030359E+02 0.  0.
         12    1    1    2    0    0 -0.33805066504E+02  0.41774112324E+01 -0.29476768861E+02  0.45045678910E+02  0.00000000000E+00 0. -1.
         11    1    3    3    0    0  0.11833542534E+02 -0.24447537134E+01  0.50540689287E+01  0.13097830455E+02  0.51100000000E-03 0. -1.
        -11    1    3    3    0    0  0.13207762679E+02 -0.14647323792E+01  0.12491330781E+02  0.18237976337E+02  0.51100000000E-03 0.  1.
         12    1    3    3    0    0  0.87637612901E+01 -0.26792513975E+00  0.11931369152E+02  0.14806514298E+02  0.00000000000E+00 0. -1.
</event>
<event>
 7    1  0.2472338E-008  0.4614232E+02  0.7816164E-02  0.1320468E+00
        -11   -1    0    0    0    0  0.00000000000E+00  0.00000000000E+00  0.45593999997E+02  0.45594000000E+02  0.51100000000E-03 0.  1.
         11   -1    0    0    0    0 -0.00000000000E+00 -0.00000000000E+00 -0.45593999997E+02  0.45594000000E+02  0.51100000000E-03 0. -1.
    9900012    2    1    2    0    0 -0.43367857466E+02 -0.10537808997E+02  0.61071331614E+01  0.46142317020E+02  0.99999932425E+01 0.  0.
         12    1    1    2    0    0  0.43367857466E+02  0.10537808997E+02 -0.61071331614E+01  0.45045682980E+02  0.00000000000E+00 0. -1.
         11    1    3    3    0    0 -0.15194473125E+02  0.79124764714E+00  0.15435963166E+01  0.15293161094E+02  0.51100000000E-03 0.  1.
        -11    1    3    3    0    0 -0.52025391567E+00 -0.15965272869E+00  0.51986322474E+00  0.75260292593E+00  0.51100000000E-03 0. -1.
        -12    1    3    3    0    0 -0.27653130426E+02 -0.11169403916E+02  0.40436736200E+01  0.30096553001E+02  0.00000000000E+00 0.  1.
</event>
<event>
 7    1  0.2472338E-008  0.4614232E+02  0.7816164E-02  0.1320468E+00
        -11   -1    0    0    0    0  0.00000000000E+00  0.00000000000E+00  0.45593999997E+02  0.45594000000E+02  0.51100000000E-03 0.  1.
         11   -1    0    0    0    0 -0.00000000000E+00 -0.00000000000E+00 -0.45593999997E+02  0.45594000000E+02  0.51100000000E-03 0. -1.
    9900012    2    1    2    0    0  0.44137213536E+02  0.89322892499E+01  0.11109544093E+01  0.46142316192E+02  0.99999856961E+01 0.  0.
         12    1    1    2    0    0 -0.44137213536E+02 -0.89322892499E+01 -0.11109544093E+01  0.45045683808E+02  0.00000000000E+00 0. -1.
         11    1    3    3    0    0  0.18296726146E+02  0.42923306904E+01 -0.30743437386E+01  0.19043263378E+02  0.51100000000E-03 0. -1.
        -11    1    3    3    0    0  0.23494434338E+02  0.42607099548E+01  0.21573764749E+01  0.23974911214E+02  0.51100000000E-03 0.  1.
         12    1    3    3    0    0  0.23460530523E+01  0.37924860476E+00  0.20279216730E+01  0.31241416006E+01  0.00000000000E+00 0. -1.
</event>
<event>
 7    1  0.2472338E-008  0.4614232E+02  0.7816164E-02  0.1320468E+00
        -11   -1    0    0    0    0  0.00000000000E+00  0.00000000000E+00  0.45593999997E+02  0.45594000000E+02  0.51100000000E-03 0.  1.
         11   -1    0    0    0    0 -0.00000000000E+00 -0.00000000000E+00 -0.45593999997E+02  0.45594000000E+02  0.51100000000E-03 0. -1.
    9900012    2    1    2    0    0  0.70140825547E+01 -0.34698634500E+02  0.27855359293E+02  0.46142316172E+02  0.99999855059E+01 0.  0.
         12    1    1    2    0    0 -0.70140825547E+01  0.34698634500E+02 -0.27855359293E+02  0.45045683828E+02  0.00000000000E+00 0. -1.
         11    1    3    3    0    0  0.69391712882E+01 -0.15951471331E+02  0.13648228713E+02  0.22110533305E+02  0.51100000000E-03 0. -1.
        -11    1    3    3    0    0 -0.23394002119E+00  0.23974350244E+00  0.53996850305E+00  0.63542987488E+00  0.51100000000E-03 0.  1.
        -12    1    3    3    0    0  0.30885128771E+00 -0.18986906671E+02  0.13667162077E+02  0.23396352991E+02  0.00000000000E+00 0.  1.
</event>
<event>
 7    1  0.2472338E-008  0.4614232E+02  0.7816164E-02  0.1320468E+00
        -11   -1    0    0    0    0  0.00000000000E+00  0.00000000000E+00  0.45593999997E+02  0.45594000000E+02  0.51100000000E-03 0. -1.
         11   -1    0    0    0    0 -0.00000000000E+00 -0.00000000000E+00 -0.45593999997E+02  0.45594000000E+02  0.51100000000E-03 0.  1.
    9900012    2    1    2    0    0 -0.14526212419E+02  0.25786846464E+02 -0.33957931574E+02  0.46142318580E+02  0.10000007466E+02 0.  0.
         12    1    1    2    0    0  0.14526212419E+02 -0.25786846464E+02  0.33957931574E+02  0.45045681420E+02  0.00000000000E+00 0. -1.
         11    1    3    3    0    0 -0.28037898500E+01  0.63723125418E+00 -0.52439929878E+01  0.59805320759E+01  0.51100000000E-03 0. -1.
        -11    1    3    3    0    0 -0.70924688445E+01  0.10167856828E+02 -0.12447017740E+02  0.17567489225E+02  0.51100000000E-03 0.  1.
         12    1    3    3    0    0 -0.46299537248E+01  0.14981758382E+02 -0.16266920846E+02  0.22594297279E+02  0.00000000000E+00 0. -1.
</event>
<event>
 7    1  0.2472338E-008  0.4614232E+02  0.7816164E-02  0.1320468E+00
        -11   -1    0    0    0    0  0.00000000000E+00  0.00000000000E+00  0.45593999997E+02  0.45594000000E+02  0.51100000000E-03 0.  1.
         11   -1    0    0    0    0 -0.00000000000E+00 -0.00000000000E+00 -0.45593999997E+02  0.45594000000E+02  0.51100000000E-03 0. -1.
    9900012    2    1    2    0    0 -0.13960136537E+02  0.42347766376E+02 -0.63949040678E+01  0.46142317330E+02  0.99999960645E+01 0.  0.
         12    1    1    2    0    0  0.13960136537E+02 -0.42347766376E+02  0.63949040678E+01  0.45045682670E+02  0.00000000000E+00 0. -1.
         11    1    3    3    0    0 -0.59864327913E+01  0.11278010289E+02 -0.21912682075E+01  0.12955020272E+02  0.51100000000E-03 0. -1.
        -11    1    3    3    0    0 -0.43800629301E+01  0.51870614910E+01 -0.85505696949E+00  0.68426369819E+01  0.51100000000E-03 0.  1.
        -12    1    3    3    0    0 -0.35936408160E+01  0.25882694597E+02 -0.33485788908E+01  0.26344660076E+02  0.00000000000E+00 0.  1.
</event>
<event>
 7    1  0.2472338E-008  0.4614232E+02  0.7816164E-02  0.1320468E+00
        -11   -1    0    0    0    0  0.00000000000E+00  0.00000000000E+00  0.45593999997E+02  0.45594000000E+02  0.51100000000E-03 0. -1.
         11   -1    0    0    0    0 -0.00000000000E+00 -0.00000000000E+00 -0.45593999997E+02  0.45594000000E+02  0.51100000000E-03 0.  1.
    9900012    2    1    2    0    0  0.20495114334E+02 -0.38329498796E+02  0.11828494886E+02  0.46142317846E+02  0.10000000770E+02 0.  0.
         12    1    1    2    0    0 -0.20495114334E+02  0.38329498796E+02 -0.11828494886E+02  0.45045682154E+02  0.00000000000E+00 0. -1.
         11    1    3    3    0    0  0.61923351044E+01 -0.16457969491E+02  0.67755287254E+01  0.18844563237E+02  0.51100000000E-03 0. -1.
        -11    1    3    3    0    0 -0.20881280741E+00 -0.28957965781E+01  0.98120243342E+00  0.30646368605E+01  0.51100000000E-03 0.  1.
        -12    1    3    3    0    0  0.14511592037E+02 -0.18975732727E+02  0.40717637274E+01  0.24233117749E+02  0.00000000000E+00 0.  1.
</event>
<event>
 7    1  0.2472338E-008  0.4614232E+02  0.7816164E-02  0.1320468E+00
        -11   -1    0    0    0    0  0.00000000000E+00  0.00000000000E+00  0.45593999997E+02  0.45594000000E+02  0.51100000000E-03 0.  1.
         11   -1    0    0    0    0 -0.00000000000E+00 -0.00000000000E+00 -0.45593999997E+02  0.45594000000E+02  0.51100000000E-03 0. -1.
    9900012    2    1    2    0    0  0.19591525640E+02 -0.26124083698E+02  0.31029306736E+02  0.46142317604E+02  0.99999985717E+01 0.  0.
         12    1    1    2    0    0 -0.19591525640E+02  0.26124083698E+02 -0.31029306736E+02  0.45045682396E+02  0.00000000000E+00 0. -1.
         11    1    3    3    0    0  0.49338201115E+01 -0.88992889594E+01  0.67880378688E+01  0.12231818477E+02  0.51100000000E-03 0. -1.
        -11    1    3    3    0    0  0.32262310895E+01 -0.85247164903E+01  0.71550727239E+01  0.11587684162E+02  0.51100000000E-03 0.  1.
         12    1    3    3    0    0  0.11431474439E+02 -0.87000782486E+01  0.17086196143E+02  0.22322814966E+02  0.00000000000E+00 0. -1.
</event>
<event>
 7    1  0.2472338E-008  0.4614232E+02  0.7816164E-02  0.1320468E+00
        -11   -1    0    0    0    0  0.00000000000E+00  0.00000000000E+00  0.45593999997E+02  0.45594000000E+02  0.51100000000E-03 0. -1.
         11   -1    0    0    0    0 -0.00000000000E+00 -0.00000000000E+00 -0.45593999997E+02  0.45594000000E+02  0.51100000000E-03 0.  1.
    9900012    2    1    2    0    0  0.31274321091E+02 -0.22581490986E+02 -0.23261698410E+02  0.46142317546E+02  0.99999980373E+01 0.  0.
         12    1    1    2    0    0 -0.31274321091E+02  0.22581490986E+02  0.23261698410E+02  0.45045682454E+02  0.00000000000E+00 0. -1.
         11    1    3    3    0    0  0.13744905088E+00 -0.47327337741E+00 -0.48738607882E+00  0.69312724827E+00  0.51100000000E-03 0. -1.
        -11    1    3    3    0    0  0.95838476328E+01 -0.44050060626E+01 -0.21601761001E+01  0.10766641765E+02  0.51100000000E-03 0.  1.
        -12    1    3    3    0    0  0.21553024407E+02 -0.17703211546E+02 -0.20614136231E+02  0.34682548532E+02  0.00000000000E+00 0.  1.
</event>
<event>
 7    1  0.2472338E-008  0.4614231E+02  0.7816164E-02  0.1320468E+00
        -11   -1    0    0    0    0  0.00000000000E+00  0.00000000000E+00  0.45593999997E+02  0.45594000000E+02  0.51100000000E-03 0. -1.
         11   -1    0    0    0    0 -0.00000000000E+00 -0.00000000000E+00 -0.45593999997E+02  0.45594000000E+02  0.51100000000E-03 0.  1.
    9900012    2    1    2    0    0 -0.15014259017E+02  0.31110904277E+02 -0.28910161563E+02  0.46142314520E+02  0.99999704455E+01 0.  0.
         12    1    1    2    0    0  0.15014259017E+02 -0.31110904277E+02  0.28910161563E+02  0.45045685480E+02  0.00000000000E+00 0. -1.
         11    1    3    3    0    0 -0.67607524835E+01  0.11437197067E+02 -0.80264937653E+01  0.15522301805E+02  0.51100000000E-03 0. -1.
        -11    1    3    3    0    0 -0.10092180742E+01 -0.36711378832E+00 -0.82012169524E+00  0.13512562714E+01  0.51100000000E-03 0.  1.
        -12    1    3    3    0    0 -0.72442884590E+01  0.20040820999E+02 -0.20063546102E+02  0.29268756444E+02  0.00000000000E+00 0.  1.
</event>
<event>
 7    1  0.2472338E-008  0.4614232E+02  0.7816164E-02  0.1320468E+00
        -11   -1    0    0    0    0  0.00000000000E+00  0.00000000000E+00  0.45593999997E+02  0.45594000000E+02  0.51100000000E-03 0.  1.
         11   -1    0    0    0    0 -0.00000000000E+00 -0.00000000000E+00 -0.45593999997E+02  0.45594000000E+02  0.51100000000E-03 0. -1.
    9900012    2    1    2    0    0  0.37568585932E+02  0.20725976384E+02  0.13716735955E+02  0.46142316619E+02  0.99999895854E+01 0.  0.
         12    1    1    2    0    0 -0.37568585932E+02 -0.20725976384E+02 -0.13716735955E+02  0.45045683381E+02  0.00000000000E+00 0. -1.
         11    1    3    3    0    0  0.10892516155E+02  0.58389374534E+01  0.37334522965E-01  0.12358862929E+02  0.51100000000E-03 0. -1.
        -11    1    3    3    0    0  0.71245111154E+01  0.63042111303E+01  0.36010899685E+01  0.10172000090E+02  0.51100000000E-03 0.  1.
        -12    1    3    3    0    0  0.19551558662E+02  0.85828278001E+01  0.10078311463E+02  0.23611453600E+02  0.00000000000E+00 0.  1.
</event>
<event>
 7    1  0.2472338E-008  0.4614232E+02  0.7816164E-02  0.1320468E+00
        -11   -1    0    0    0    0  0.00000000000E+00  0.00000000000E+00  0.45593999997E+02  0.45594000000E+02  0.51100000000E-03 0. -1.
         11   -1    0    0    0    0 -0.00000000000E+00 -0.00000000000E+00 -0.45593999997E+02  0.45594000000E+02  0.51100000000E-03 0.  1.
    9900012    2    1    2    0    0  0.44765067647E+02  0.48841610830E+01 -0.11606614857E+01  0.46142318231E+02  0.10000004287E+02 0.  0.
         12    1    1    2    0    0 -0.44765067647E+02 -0.48841610830E+01  0.11606614857E+01  0.45045681769E+02  0.00000000000E+00 0. -1.
         11    1    3    3    0    0  0.12976391426E+02  0.18027565306E+01  0.21333268892E+01  0.13273573348E+02  0.51100000000E-03 0. -1.
        -11    1    3    3    0    0  0.11000028624E+02  0.42988180147E+01 -0.22183514480E+01  0.12016719579E+02  0.51100000000E-03 0.  1.
        -12    1    3    3    0    0  0.20788647598E+02 -0.12174134623E+01 -0.10756369269E+01  0.20852025304E+02  0.00000000000E+00 0.  1.
</event>
<event>
 7    1  0.2472338E-008  0.4614232E+02  0.7816164E-02  0.1320468E+00
        -11   -1    0    0    0    0  0.00000000000E+00  0.00000000000E+00  0.45593999997E+02  0.45594000000E+02  0.51100000000E-03 0. -1.
         11   -1    0    0    0    0 -0.00000000000E+00 -0.00000000000E+00 -0.45593999997E+02  0.45594000000E+02  0.51100000000E-03 0.  1.
    9900012    2    1    2    0    0 -0.45011902292E+02  0.17218266642E+01  0.27828525678E+00  0.46142317879E+02  0.10000001078E+02 0.  0.
         12    1    1    2    0    0  0.45011902292E+02 -0.17218266642E+01 -0.27828525678E+00  0.45045682121E+02  0.00000000000E+00 0. -1.
         11    1    3    3    0    0  0.53537296017E-01 -0.33200980818E+00  0.23583495995E+00  0.41074949087E+00  0.51100000000E-03 0. -1.
        -11    1    3    3    0    0 -0.22509935968E+02 -0.14720375372E+01 -0.27786249793E+01  0.22728503445E+02  0.51100000000E-03 0.  1.
        -12    1    3    3    0    0 -0.22555503620E+02  0.35258740096E+01  0.28210752761E+01  0.23003064944E+02  0.00000000000E+00 0.  1.
</event>
<event>
 7    1  0.2472338E-008  0.4614232E+02  0.7816164E-02  0.1320468E+00
        -11   -1    0    0    0    0  0.00000000000E+00  0.00000000000E+00  0.45593999997E+02  0.45594000000E+02  0.51100000000E-03 0.  1.
         11   -1    0    0    0    0 -0.00000000000E+00 -0.00000000000E+00 -0.45593999997E+02  0.45594000000E+02  0.51100000000E-03 0. -1.
    9900012    2    1    2    0    0 -0.77617039491E+01 -0.18563453690E+02  0.40302203796E+02  0.46142317722E+02  0.99999996456E+01 0.  0.
         12    1    1    2    0    0  0.77617039491E+01  0.18563453690E+02 -0.40302203796E+02  0.45045682278E+02  0.00000000000E+00 0. -1.
         11    1    3    3    0    0 -0.80490244411E+00 -0.38959804373E+01  0.48928639651E+01  0.63060803638E+01  0.51100000000E-03 0. -1.
        -11    1    3    3    0    0 -0.10665611986E+01  0.10003951175E+01  0.37358309427E+01  0.40118295421E+01  0.51100000000E-03 0.  1.
        -12    1    3    3    0    0 -0.58902403064E+01 -0.15667868370E+02  0.31673508888E+02  0.35824407816E+02  0.00000000000E+00 0.  1.
</event>
<event>
 7    1  0.2472338E-008  0.4614232E+02  0.7816164E-02  0.1320468E+00
        -11   -1    0    0    0    0  0.00000000000E+00  0.00000000000E+00  0.45593999997E+02  0.45594000000E+02  0.51100000000E-03 0.  1.
         11   -1    0    0    0    0 -0.00000000000E+00 -0.00000000000E+00 -0.45593999997E+02  0.45594000000E+02  0.51100000000E-03 0. -1.
    9900012    2    1    2    0    0 -0.81947347410E+01  0.56225400992E+01  0.43935713705E+02  0.46142316818E+02  0.99999913959E+01 0.  0.
         12    1    1    2    0    0  0.81947347410E+01 -0.56225400992E+01 -0.43935713705E+02  0.45045683182E+02  0.00000000000E+00 0. -1.
         11    1    3    3    0    0 -0.32615120743E+01  0.17315479358E+01  0.31947541496E+01  0.48828448268E+01  0.51100000000E-03 0. -1.
        -11    1    3    3    0    0 -0.22103792835E+01  0.28472577644E+01  0.22454585287E+02  0.22742054745E+02  0.51100000000E-03 0.  1.
         12    1    3    3    0    0 -0.27228433832E+01  0.10437343990E+01  0.18286374268E+02  0.18517417245E+02  0.00000000000E+00 0. -1.
</event>
<event>
 7    1  0.2472338E-008  0.4614232E+02  0.7816164E-02  0.1320468E+00
        -11   -1    0    0    0    0  0.00000000000E+00  0.00000000000E+00  0.45593999997E+02  0.45594000000E+02  0.51100000000E-03 0.  1.
         11   -1    0    0    0    0 -0.00000000000E+00 -0.00000000000E+00 -0.45593999997E+02  0.45594000000E+02  0.51100000000E-03 0. -1.
    9900012    2    1    2    0    0  0.16642181158E+02 -0.39409899174E+01  0.41672773093E+02  0.46142316384E+02  0.99999874400E+01 0.  0.
         12    1    1    2    0    0 -0.16642181158E+02  0.39409899174E+01 -0.41672773093E+02  0.45045683616E+02  0.00000000000E+00 0. -1.
         11    1    3    3    0    0  0.15536633794E+02 -0.47802628784E+01  0.37107988210E+02  0.40512228921E+02  0.51100000000E-03 0.  1.
        -11    1    3    3    0    0  0.10834392800E+00 -0.94645187259E+00  0.26969137685E+01  0.28602191681E+01  0.51100000000E-03 0. -1.
        -12    1    3    3    0    0  0.99720343559E+00  0.17857248336E+01  0.18678711140E+01  0.27698682950E+01  0.00000000000E+00 0.  1.
</event>
<event>
 7    1  0.2472338E-008  0.4614232E+02  0.7816164E-02  0.1320468E+00
        -11   -1    0    0    0    0  0.00000000000E+00  0.00000000000E+00  0.45593999997E+02  0.45594000000E+02  0.51100000000E-03 0.  1.
         11   -1    0    0    0    0 -0.00000000000E+00 -0.00000000000E+00 -0.45593999997E+02  0.45594000000E+02  0.51100000000E-03 0. -1.
    9900012    2    1    2    0    0  0.42344742830E+02 -0.34131431869E+00  0.15359679020E+02  0.46142317849E+02  0.10000000804E+02 0.  0.
         12    1    1    2    0    0 -0.42344742830E+02  0.34131431869E+00 -0.15359679020E+02  0.45045682151E+02  0.00000000000E+00 0. -1.
         11    1    3    3    0    0  0.84159919085E+01  0.19903073446E+01  0.26671477290E+01  0.90500784748E+01  0.51100000000E-03 0. -1.
        -11    1    3    3    0    0  0.13676265065E+02  0.15381790227E+01  0.21333503722E+01  0.13926859119E+02  0.51100000000E-03 0.  1.
        -12    1    3    3    0    0  0.20252485857E+02 -0.38698006860E+01  0.10559180919E+02  0.23165380256E+02  0.00000000000E+00 0.  1.
</event>
<event>
 7    1  0.2472338E-008  0.4614232E+02  0.7816164E-02  0.1320468E+00
        -11   -1    0    0    0    0  0.00000000000E+00  0.00000000000E+00  0.45593999997E+02  0.45594000000E+02  0.51100000000E-03 0. -1.
         11   -1    0    0    0    0 -0.00000000000E+00 -0.00000000000E+00 -0.45593999997E+02  0.45594000000E+02  0.51100000000E-03 0.  1.
    9900012    2    1    2    0    0 -0.38699701817E+02  0.55037756859E+01 -0.22386491884E+02  0.46142317783E+02  0.10000000204E+02 0.  0.
         12    1    1    2    0    0  0.38699701817E+02 -0.55037756859E+01  0.22386491884E+02  0.45045682217E+02  0.00000000000E+00 0. -1.
         11    1    3    3    0    0 -0.70332245684E+01  0.31468031254E+01 -0.57702019219E+01  0.96262063254E+01  0.51100000000E-03 0. -1.
        -11    1    3    3    0    0 -0.26314337142E+02  0.16379571586E+01 -0.16523366698E+02  0.31115091036E+02  0.51100000000E-03 0.  1.
         12    1    3    3    0    0 -0.53521401061E+01  0.71901540186E+00 -0.92923263360E-01  0.54010204217E+01  0.00000000000E+00 0. -1.
</event>
<event>
 7    1  0.2472338E-008  0.4614232E+02  0.7816164E-02  0.1320468E+00
        -11   -1    0    0    0    0  0.00000000000E+00  0.00000000000E+00  0.45593999997E+02  0.45594000000E+02  0.51100000000E-03 0.  1.
         11   -1    0    0    0    0 -0.00000000000E+00 -0.00000000000E+00 -0.45593999997E+02  0.45594000000E+02  0.51100000000E-03 0. -1.
    9900012    2    1    2    0    0  0.17883414450E+02  0.36692319864E+01  0.41180500812E+02  0.46142318488E+02  0.10000006627E+02 0.  0.
         12    1    1    2    0    0 -0.17883414450E+02 -0.36692319864E+01 -0.41180500812E+02  0.45045681512E+02  0.00000000000E+00 0. -1.
         11    1    3    3    0    0  0.53460917108E+01 -0.10322472724E+01  0.16902500869E+02  0.17757836774E+02  0.51100000000E-03 0.  1.
        -11    1    3    3    0    0  0.21318344166E+00 -0.90422149054E+00  0.59085897203E+00  0.11009896774E+01  0.51100000000E-03 0. -1.
        -12    1    3    3    0    0  0.12324139297E+02  0.56057007493E+01  0.23687140971E+02  0.27283492036E+02  0.00000000000E+00 0.  1.
</event>
<event>
 7    1  0.2472338E-008  0.4614232E+02  0.7816164E-02  0.1320468E+00
        -11   -1    0    0    0    0  0.00000000000E+00  0.00000000000E+00  0.45593999997E+02  0.45594000000E+02  0.51100000000E-03 0.  1.
         11   -1    0    0    0    0 -0.00000000000E+00 -0.00000000000E+00 -0.45593999997E+02  0.45594000000E+02  0.51100000000E-03 0. -1.
    9900012    2    1    2    0    0  0.53952830378E+01  0.40234995011E+02  0.19523050494E+02  0.46142318707E+02  0.10000008623E+02 0.  0.
         12    1    1    2    0    0 -0.53952830378E+01 -0.40234995011E+02 -0.19523050494E+02  0.45045681293E+02  0.00000000000E+00 0. -1.
         11    1    3    3    0    0  0.18880504629E+01  0.80070370853E+01  0.45198343425E+01  0.93864945630E+01  0.51100000000E-03 0. -1.
        -11    1    3    3    0    0  0.48306588127E+01  0.26188884381E+02  0.89262780928E+01  0.28086854052E+02  0.51100000000E-03 0.  1.
         12    1    3    3    0    0 -0.13234262378E+01  0.60390735443E+01  0.60769380587E+01  0.86689700916E+01  0.00000000000E+00 0. -1.
</event>
<event>
 7    1  0.2472338E-008  0.4614232E+02  0.7816164E-02  0.1320468E+00
        -11   -1    0    0    0    0  0.00000000000E+00  0.00000000000E+00  0.45593999997E+02  0.45594000000E+02  0.51100000000E-03 0. -1.
         11   -1    0    0    0    0 -0.00000000000E+00 -0.00000000000E+00 -0.45593999997E+02  0.45594000000E+02  0.51100000000E-03 0.  1.
    9900012    2    1    2    0    0  0.21341356398E+02  0.38399617117E+02 -0.99563747107E+01  0.46142317799E+02  0.10000000342E+02 0.  0.
         12    1    1    2    0    0 -0.21341356398E+02 -0.38399617117E+02  0.99563747107E+01  0.45045682201E+02  0.00000000000E+00 0. -1.
         11    1    3    3    0    0  0.32127076389E+01  0.14376184994E+01 -0.15972533131E+01  0.38651592116E+01  0.51100000000E-03 0. -1.
        -11    1    3    3    0    0  0.88719251719E+01  0.23289826481E+02 -0.54600924198E+01  0.25513519617E+02  0.51100000000E-03 0.  1.
         12    1    3    3    0    0  0.92567235868E+01  0.13672172136E+02 -0.28990289777E+01  0.16763638970E+02  0.00000000000E+00 0. -1.
</event>
<event>
 7    1  0.2472338E-008  0.4614232E+02  0.7816164E-02  0.1320468E+00
        -11   -1    0    0    0    0  0.00000000000E+00  0.00000000000E+00  0.45593999997E+02  0.45594000000E+02  0.51100000000E-03 0.  1.
         11   -1    0    0    0    0 -0.00000000000E+00 -0.00000000000E+00 -0.45593999997E+02  0.45594000000E+02  0.51100000000E-03 0. -1.
    9900012    2    1    2    0    0 -0.31891698240E+02  0.29238029039E+02 -0.12536773413E+02  0.46142318228E+02  0.10000004259E+02 0.  0.
         12    1    1    2    0    0  0.31891698240E+02 -0.29238029039E+02  0.12536773413E+02  0.45045681772E+02  0.00000000000E+00 0. -1.
         11    1    3    3    0    0 -0.37297335210E+01  0.11898687813E+01 -0.23290125058E+01  0.45553264831E+01  0.51100000000E-03 0. -1.
        -11    1    3    3    0    0 -0.10897230480E+02  0.12255950372E+02 -0.74978110776E+01  0.18032612757E+02  0.51100000000E-03 0.  1.
         12    1    3    3    0    0 -0.17264734239E+02  0.15792209886E+02 -0.27099498295E+01  0.23554378988E+02  0.00000000000E+00 0. -1.
</event>
<event>
 7    1  0.2472338E-008  0.4614232E+02  0.7816164E-02  0.1320468E+00
        -11   -1    0    0    0    0  0.00000000000E+00  0.00000000000E+00  0.45593999997E+02  0.45594000000E+02  0.51100000000E-03 0.  1.
         11   -1    0    0    0    0 -0.00000000000E+00 -0.00000000000E+00 -0.45593999997E+02  0.45594000000E+02  0.51100000000E-03 0. -1.
    9900012    2    1    2    0    0 -0.69056652526E+01 -0.43578089531E+02  0.90760890453E+01  0.46142317720E+02  0.99999996249E+01 0.  0.
         12    1    1    2    0    0  0.69056652526E+01  0.43578089531E+02 -0.90760890453E+01  0.45045682280E+02  0.00000000000E+00 0. -1.
         11    1    3    3    0    0 -0.35632814312E+01 -0.20530976578E+02  0.42818380782E+01  0.21273272230E+02  0.51100000000E-03 0. -1.
        -11    1    3    3    0    0 -0.18085481131E+01 -0.22450518382E+02  0.35398416087E+01  0.22799717120E+02  0.51100000000E-03 0.  1.
         12    1    3    3    0    0 -0.15338357082E+01 -0.59659457098E+00  0.12544093584E+01  0.20693283694E+01  0.00000000000E+00 0. -1.
</event>
<event>
 7    1  0.2472338E-008  0.4614232E+02  0.7816164E-02  0.1320468E+00
        -11   -1    0    0    0    0  0.00000000000E+00  0.00000000000E+00  0.45593999997E+02  0.45594000000E+02  0.51100000000E-03 0.  1.
         11   -1    0    0    0    0 -0.00000000000E+00 -0.00000000000E+00 -0.45593999997E+02  0.45594000000E+02  0.51100000000E-03 0. -1.
    9900012    2    1    2    0    0  0.35473793807E+02  0.27325197793E+02 -0.49047894992E+01  0.46142318281E+02  0.10000004742E+02 0.  0.
         12    1    1    2    0    0 -0.35473793807E+02 -0.27325197793E+02  0.49047894992E+01  0.45045681719E+02  0.00000000000E+00 0. -1.
         11    1    3    3    0    0  0.57183671142E+01  0.79561974713E+01  0.27423674361E+00  0.98018369048E+01  0.51100000000E-03 0. -1.
        -11    1    3    3    0    0  0.27681334129E+01  0.32065380624E+01  0.82502198270E+00  0.43156819241E+01  0.51100000000E-03 0.  1.
        -12    1    3    3    0    0  0.26987293280E+02  0.16162462260E+02 -0.60040482255E+01  0.32024799452E+02  0.00000000000E+00 0.  1.
</event>
<event>
 7    1  0.2472338E-008  0.4614232E+02  0.7816164E-02  0.1320468E+00
        -11   -1    0    0    0    0  0.00000000000E+00  0.00000000000E+00  0.45593999997E+02  0.45594000000E+02  0.51100000000E-03 0.  1.
         11   -1    0    0    0    0 -0.00000000000E+00 -0.00000000000E+00 -0.45593999997E+02  0.45594000000E+02  0.51100000000E-03 0. -1.
    9900012    2    1    2    0    0 -0.10521932848E+02  0.43324681013E+02 -0.64322936110E+01  0.46142318111E+02  0.10000003194E+02 0.  0.
         12    1    1    2    0    0  0.10521932848E+02 -0.43324681013E+02  0.64322936110E+01  0.45045681889E+02  0.00000000000E+00 0. -1.
         11    1    3    3    0    0 -0.34112414717E+01  0.29676859189E+02 -0.64102725502E+01  0.30552317983E+02  0.51100000000E-03 0. -1.
        -11    1    3    3    0    0 -0.27280565346E+01  0.79254703512E+01  0.37023604625E-01  0.83819295960E+01  0.51100000000E-03 0.  1.
         12    1    3    3    0    0 -0.43826348412E+01  0.57223514722E+01 -0.59044665449E-01  0.72080705320E+01  0.00000000000E+00 0. -1.
</event>
<event>
 7    1  0.2472338E-008  0.4614232E+02  0.7816164E-02  0.1320468E+00
        -11   -1    0    0    0    0  0.00000000000E+00  0.00000000000E+00  0.45593999997E+02  0.45594000000E+02  0.51100000000E-03 0. -1.
         11   -1    0    0    0    0 -0.00000000000E+00 -0.00000000000E+00 -0.45593999997E+02  0.45594000000E+02  0.51100000000E-03 0.  1.
    9900012    2    1    2    0    0  0.22389554331E+02  0.29198157829E+02 -0.25986322697E+02  0.46142317287E+02  0.99999956763E+01 0.  0.
         12    1    1    2    0    0 -0.22389554331E+02 -0.29198157829E+02  0.25986322697E+02  0.45045682713E+02  0.00000000000E+00 0. -1.
         11    1    3    3    0    0  0.31769866893E+01  0.50788223278E+01 -0.21004086684E+01  0.63481806446E+01  0.51100000000E-03 0. -1.
        -11    1    3    3    0    0  0.18444541613E+02  0.22624812813E+02 -0.19519169974E+02  0.35115256895E+02  0.51100000000E-03 0.  1.
         12    1    3    3    0    0  0.76802602955E+00  0.14945226890E+01 -0.43667440543E+01  0.46788797469E+01  0.00000000000E+00 0. -1.
</event>
<event>
 7    1  0.2472338E-008  0.4614232E+02  0.7816164E-02  0.1320468E+00
        -11   -1    0    0    0    0  0.00000000000E+00  0.00000000000E+00  0.45593999997E+02  0.45594000000E+02  0.51100000000E-03 0. -1.
         11   -1    0    0    0    0 -0.00000000000E+00 -0.00000000000E+00 -0.45593999997E+02  0.45594000000E+02  0.51100000000E-03 0.  1.
    9900012    2    1    2    0    0  0.78716206818E+01  0.44350492451E+02 -0.42998090679E+00  0.46142317894E+02  0.10000001214E+02 0.  0.
         12    1    1    2    0    0 -0.78716206818E+01 -0.44350492451E+02  0.42998090679E+00  0.45045682106E+02  0.00000000000E+00 0. -1.
         11    1    3    3    0    0 -0.99046369140E+00  0.29188673662E+01 -0.35073407961E+00  0.31022281800E+01  0.51100000000E-03 0.  1.
        -11    1    3    3    0    0  0.29523729181E+01  0.96485972457E+01 -0.31406658350E+01  0.10567673197E+02  0.51100000000E-03 0. -1.
         12    1    3    3    0    0  0.59097114551E+01  0.31783027839E+02  0.30614190079E+01  0.32472416517E+02  0.00000000000E+00 0. -1.
</event>
<event>
 7    1  0.2472338E-008  0.4614232E+02  0.7816164E-02  0.1320468E+00
        -11   -1    0    0    0    0  0.00000000000E+00  0.00000000000E+00  0.45593999997E+02  0.45594000000E+02  0.51100000000E-03 0.  1.
         11   -1    0    0    0    0 -0.00000000000E+00 -0.00000000000E+00 -0.45593999997E+02  0.45594000000E+02  0.51100000000E-03 0. -1.
    9900012    2    1    2    0    0 -0.37741655040E+02  0.24513580588E+02 -0.19404729570E+01  0.46142316592E+02  0.99999893394E+01 0.  0.
         12    1    1    2    0    0  0.37741655040E+02 -0.24513580588E+02  0.19404729570E+01  0.45045683408E+02  0.00000000000E+00 0. -1.
         11    1    3    3    0    0 -0.76272114091E+01  0.41634905094E+01  0.85884727299E+00  0.87319314015E+01  0.51100000000E-03 0.  1.
        -11    1    3    3    0    0 -0.14154836058E+02  0.13334547892E+02 -0.42870484435E+01  0.19913521435E+02  0.51100000000E-03 0. -1.
         12    1    3    3    0    0 -0.15959607573E+02  0.70155421858E+01  0.14877282135E+01  0.17496863755E+02  0.00000000000E+00 0. -1.
</event>
<event>
 7    1  0.2472338E-008  0.4614232E+02  0.7816164E-02  0.1320468E+00
        -11   -1    0    0    0    0  0.00000000000E+00  0.00000000000E+00  0.45593999997E+02  0.45594000000E+02  0.51100000000E-03 0.  1.
         11   -1    0    0    0    0 -0.00000000000E+00 -0.00000000000E+00 -0.45593999997E+02  0.45594000000E+02  0.51100000000E-03 0. -1.
    9900012    2    1    2    0    0 -0.13112792677E+02 -0.83887448754E+01  0.42270524040E+02  0.46142316799E+02  0.99999912297E+01 0.  0.
         12    1    1    2    0    0  0.13112792677E+02  0.83887448754E+01 -0.42270524040E+02  0.45045683201E+02  0.00000000000E+00 0. -1.
         11    1    3    3    0    0 -0.27006463169E+01 -0.13068274563E+01  0.55246801303E+01  0.62867622297E+01  0.51100000000E-03 0. -1.
        -11    1    3    3    0    0 -0.97272528427E+01 -0.83972389711E+01  0.25940947859E+02  0.28949366941E+02  0.51100000000E-03 0.  1.
         12    1    3    3    0    0 -0.68489351709E+00  0.13153215520E+01  0.10804896051E+02  0.10906187629E+02  0.00000000000E+00 0. -1.
</event>
<event>
 7    1  0.2472338E-008  0.4614232E+02  0.7816164E-02  0.1320468E+00
        -11   -1    0    0    0    0  0.00000000000E+00  0.00000000000E+00  0.45593999997E+02  0.45594000000E+02  0.51100000000E-03 0.  1.
         11   -1    0    0    0    0 -0.00000000000E+00 -0.00000000000E+00 -0.45593999997E+02  0.45594000000E+02  0.51100000000E-03 0. -1.
    9900012    2    1    2    0    0  0.10292681374E+02 -0.47888047330E+01  0.43591760131E+02  0.46142317721E+02  0.99999996333E+01 0.  0.
         12    1    1    2    0    0 -0.10292681374E+02  0.47888047330E+01 -0.43591760131E+02  0.45045682279E+02  0.00000000000E+00 0. -1.
         11    1    3    3    0    0 -0.31781470010E+00 -0.58337188336E+00  0.46856653929E+01  0.47325246299E+01  0.51100000000E-03 0. -1.
        -11    1    3    3    0    0  0.78934090189E+01 -0.11587840003E+01  0.13526418409E+02  0.15703906569E+02  0.51100000000E-03 0.  1.
        -12    1    3    3    0    0  0.27170870554E+01 -0.30466488493E+01  0.25379676330E+02  0.25705886522E+02  0.00000000000E+00 0.  1.
</event>
<event>
 7    1  0.2472338E-008  0.4614232E+02  0.7816164E-02  0.1320468E+00
        -11   -1    0    0    0    0  0.00000000000E+00  0.00000000000E+00  0.45593999997E+02  0.45594000000E+02  0.51100000000E-03 0.  1.
         11   -1    0    0    0    0 -0.00000000000E+00 -0.00000000000E+00 -0.45593999997E+02  0.45594000000E+02  0.51100000000E-03 0. -1.
    9900012    2    1    2    0    0  0.98124359115E+01  0.24474584989E+02  0.36521558834E+02  0.46142317981E+02  0.10000002005E+02 0.  0.
         12    1    1    2    0    0 -0.98124359115E+01 -0.24474584989E+02 -0.36521558834E+02  0.45045682019E+02  0.00000000000E+00 0. -1.
         11    1    3    3    0    0  0.26866197563E+01  0.44485493424E+01  0.48551241044E+01  0.71119439886E+01  0.51100000000E-03 0. -1.
        -11    1    3    3    0    0  0.87498712431E+01  0.14539000151E+02  0.21815353234E+02  0.27637879969E+02  0.51100000000E-03 0.  1.
         12    1    3    3    0    0 -0.16240550879E+01  0.54870354954E+01  0.98510814949E+01  0.11392494024E+02  0.00000000000E+00 0. -1.
</event>
<event>
 7    1  0.2472338E-008  0.4614232E+02  0.7816164E-02  0.1320468E+00
        -11   -1    0    0    0    0  0.00000000000E+00  0.00000000000E+00  0.45593999997E+02  0.45594000000E+02  0.51100000000E-03 0.  1.
         11   -1    0    0    0    0 -0.00000000000E+00 -0.00000000000E+00 -0.45593999997E+02  0.45594000000E+02  0.51100000000E-03 0. -1.
    9900012    2    1    2    0    0 -0.26167442352E+02  0.28002371149E+02  0.23669507959E+02  0.46142318340E+02  0.10000005276E+02 0.  0.
         12    1    1    2    0    0  0.26167442352E+02 -0.28002371149E+02 -0.23669507959E+02  0.45045681660E+02  0.00000000000E+00 0. -1.
         11    1    3    3    0    0 -0.20538595120E+02  0.19281490191E+02  0.14291838201E+02  0.31589023298E+02  0.51100000000E-03 0. -1.
        -11    1    3    3    0    0 -0.51687797687E+01  0.48052861122E+01  0.70472942862E+01  0.99735357790E+01  0.51100000000E-03 0.  1.
        -12    1    3    3    0    0 -0.46006746347E+00  0.39155948450E+01  0.23303754721E+01  0.45797592625E+01  0.00000000000E+00 0.  1.
</event>
<event>
 7    1  0.2472338E-008  0.4614232E+02  0.7816164E-02  0.1320468E+00
        -11   -1    0    0    0    0  0.00000000000E+00  0.00000000000E+00  0.45593999997E+02  0.45594000000E+02  0.51100000000E-03 0.  1.
         11   -1    0    0    0    0 -0.00000000000E+00 -0.00000000000E+00 -0.45593999997E+02  0.45594000000E+02  0.51100000000E-03 0. -1.
    9900012    2    1    2    0    0 -0.30328257933E+02  0.32283483815E+02 -0.81906612239E+01  0.46142317768E+02  0.10000000059E+02 0.  0.
         12    1    1    2    0    0  0.30328257933E+02 -0.32283483815E+02  0.81906612239E+01  0.45045682232E+02  0.00000000000E+00 0. -1.
         11    1    3    3    0    0 -0.59444797538E+01  0.97556275361E+01 -0.34730701499E+01  0.11940323475E+02  0.51100000000E-03 0. -1.
        -11    1    3    3    0    0 -0.38674418112E+01  0.74715141841E+00 -0.86841622837E+00  0.40335453898E+01  0.51100000000E-03 0.  1.
        -12    1    3    3    0    0 -0.20516336369E+02  0.21780704860E+02 -0.38491748456E+01  0.30168448903E+02  0.00000000000E+00 0.  1.
</event>
<event>
 7    1  0.2472338E-008  0.4614232E+02  0.7816164E-02  0.1320468E+00
        -11   -1    0    0    0    0  0.00000000000E+00  0.00000000000E+00  0.45593999997E+02  0.45594000000E+02  0.51100000000E-03 0.  1.
         11   -1    0    0    0    0 -0.00000000000E+00 -0.00000000000E+00 -0.45593999997E+02  0.45594000000E+02  0.51100000000E-03 0. -1.
    9900012    2    1    2    0    0  0.32989584038E+01 -0.39394151752E+02  0.21594702038E+02  0.46142317910E+02  0.10000001360E+02 0.  0.
         12    1    1    2    0    0 -0.32989584038E+01  0.39394151752E+02 -0.21594702038E+02  0.45045682090E+02  0.00000000000E+00 0. -1.
         11    1    3    3    0    0  0.15748952622E+01 -0.13755829082E+02  0.86477293446E+01  0.16324409695E+02  0.51100000000E-03 0.  1.
        -11    1    3    3    0    0 -0.14313144795E+01 -0.17106681325E+02  0.11357894378E+02  0.20583706470E+02  0.51100000000E-03 0. -1.
         12    1    3    3    0    0  0.31553776211E+01 -0.85316413453E+01  0.15890783161E+01  0.92342017452E+01  0.00000000000E+00 0. -1.
</event>
<event>
 7    1  0.2472338E-008  0.4614232E+02  0.7816164E-02  0.1320468E+00
        -11   -1    0    0    0    0  0.00000000000E+00  0.00000000000E+00  0.45593999997E+02  0.45594000000E+02  0.51100000000E-03 0. -1.
         11   -1    0    0    0    0 -0.00000000000E+00 -0.00000000000E+00 -0.45593999997E+02  0.45594000000E+02  0.51100000000E-03 0.  1.
    9900012    2    1    2    0    0  0.34785299864E+01 -0.34902669107E+02 -0.28263351150E+02  0.46142317633E+02  0.99999988327E+01 0.  0.
         12    1    1    2    0    0 -0.34785299864E+01  0.34902669107E+02  0.28263351150E+02  0.45045682367E+02  0.00000000000E+00 0. -1.
         11    1    3    3    0    0  0.22541492569E-01  0.21088491109E-01  0.26629173546E+00  0.26807534919E+00  0.51100000000E-03 0. -1.
        -11    1    3    3    0    0 -0.14961977863E+01 -0.21170381158E+02 -0.15353296984E+02  0.26194414953E+02  0.51100000000E-03 0.  1.
        -12    1    3    3    0    0  0.49521862801E+01 -0.13753376441E+02 -0.13176345901E+02  0.19679827331E+02  0.00000000000E+00 0.  1.
</event>
<event>
 7    1  0.2472338E-008  0.4614231E+02  0.7816164E-02  0.1320468E+00
        -11   -1    0    0    0    0  0.00000000000E+00  0.00000000000E+00  0.45593999997E+02  0.45594000000E+02  0.51100000000E-03 0. -1.
         11   -1    0    0    0    0 -0.00000000000E+00 -0.00000000000E+00 -0.45593999997E+02  0.45594000000E+02  0.51100000000E-03 0.  1.
    9900012    2    1    2    0    0  0.68953202797E-01 -0.39128290170E+02  0.22317838379E+02  0.46142314790E+02  0.99999729070E+01 0.  0.
         12    1    1    2    0    0 -0.68953202797E-01  0.39128290170E+02 -0.22317838379E+02  0.45045685210E+02  0.00000000000E+00 0. -1.
         11    1    3    3    0    0 -0.10371610419E+01 -0.42047670055E+01  0.29351326540E+01  0.52317083783E+01  0.51100000000E-03 0. -1.
        -11    1    3    3    0    0  0.12878529924E+00 -0.19312120826E+02  0.15578764336E+02  0.24812748637E+02  0.51100000000E-03 0.  1.
        -12    1    3    3    0    0  0.97732894546E+00 -0.15611402338E+02  0.38039413887E+01  0.16097857774E+02  0.00000000000E+00 0.  1.
</event>
<event>
 7    1  0.2472338E-008  0.4614232E+02  0.7816164E-02  0.1320468E+00
        -11   -1    0    0    0    0  0.00000000000E+00  0.00000000000E+00  0.45593999997E+02  0.45594000000E+02  0.51100000000E-03 0. -1.
         11   -1    0    0    0    0 -0.00000000000E+00 -0.00000000000E+00 -0.45593999997E+02  0.45594000000E+02  0.51100000000E-03 0.  1.
    9900012    2    1    2    0    0  0.35451018665E+02  0.17227424211E+02 -0.21807213686E+02  0.46142318320E+02  0.10000005093E+02 0.  0.
         12    1    1    2    0    0 -0.35451018665E+02 -0.17227424211E+02  0.21807213686E+02  0.45045681680E+02  0.00000000000E+00 0. -1.
         11    1    3    3    0    0  0.19889432439E+02  0.10770257420E+02 -0.82359700524E+01  0.24071127323E+02  0.51100000000E-03 0. -1.
        -11    1    3    3    0    0  0.12359301358E+02  0.60565617414E+01 -0.88886669485E+01  0.16384220170E+02  0.51100000000E-03 0.  1.
         12    1    3    3    0    0  0.32022848682E+01  0.40060504987E+00 -0.46825766848E+01  0.56869708274E+01  0.00000000000E+00 0. -1.
</event>
<event>
 7    1  0.2472338E-008  0.4614232E+02  0.7816164E-02  0.1320468E+00
        -11   -1    0    0    0    0  0.00000000000E+00  0.00000000000E+00  0.45593999997E+02  0.45594000000E+02  0.51100000000E-03 0.  1.
         11   -1    0    0    0    0 -0.00000000000E+00 -0.00000000000E+00 -0.45593999997E+02  0.45594000000E+02  0.51100000000E-03 0. -1.
    9900012    2    1    2    0    0  0.40179399916E+02 -0.16823751701E+02 -0.11475658385E+02  0.46142317252E+02  0.99999953570E+01 0.  0.
         12    1    1    2    0    0 -0.40179399916E+02  0.16823751701E+02  0.11475658385E+02  0.45045682748E+02  0.00000000000E+00 0. -1.
         11    1    3    3    0    0  0.78405631869E+01 -0.48905310079E+01 -0.56587553003E+01  0.10835738851E+02  0.51100000000E-03 0. -1.
        -11    1    3    3    0    0  0.97282605609E+01 -0.40820656344E+01  0.46774348492E+00  0.10560354995E+02  0.51100000000E-03 0.  1.
         12    1    3    3    0    0  0.22610576168E+02 -0.78511550587E+01 -0.62846465694E+01  0.24746223407E+02  0.00000000000E+00 0. -1.
</event>
<event>
 7    1  0.2472338E-008  0.4614232E+02  0.7816164E-02  0.1320468E+00
        -11   -1    0    0    0    0  0.00000000000E+00  0.00000000000E+00  0.45593999997E+02  0.45594000000E+02  0.51100000000E-03 0. -1.
         11   -1    0    0    0    0 -0.00000000000E+00 -0.00000000000E+00 -0.45593999997E+02  0.45594000000E+02  0.51100000000E-03 0.  1.
    9900012    2    1    2    0    0 -0.19739079233E+02 -0.10836296898E+02 -0.39013546500E+02  0.46142318854E+02  0.10000009962E+02 0.  0.
         12    1    1    2    0    0  0.19739079233E+02  0.10836296898E+02  0.39013546500E+02  0.45045681146E+02  0.00000000000E+00 0. -1.
         11    1    3    3    0    0 -0.79679486887E+01 -0.20289502834E+01 -0.10720147590E+02  0.13510233535E+02  0.51100000000E-03 0. -1.
        -11    1    3    3    0    0 -0.87780822500E+01 -0.90712017353E+01 -0.25819568079E+02  0.28740068284E+02  0.51100000000E-03 0.  1.
        -12    1    3    3    0    0 -0.29930482943E+01  0.26385512046E+00 -0.24738308301E+01  0.38920170340E+01  0.00000000000E+00 0.  1.
</event>
<event>
 7    1  0.2472338E-008  0.4614232E+02  0.7816164E-02  0.1320468E+00
        -11   -1    0    0    0    0  0.00000000000E+00  0.00000000000E+00  0.45593999997E+02  0.45594000000E+02  0.51100000000E-03 0. -1.
         11   -1    0    0    0    0 -0.00000000000E+00 -0.00000000000E+00 -0.45593999997E+02  0.45594000000E+02  0.51100000000E-03 0.  1.
    9900012    2    1    2    0    0 -0.30192748610E+02  0.49815636614E+01 -0.33055942408E+02  0.46142319035E+02  0.10000011616E+02 0.  0.
         12    1    1    2    0    0  0.30192748610E+02 -0.49815636614E+01  0.33055942408E+02  0.45045680965E+02  0.00000000000E+00 0. -1.
         11    1    3    3    0    0 -0.26603905930E+02  0.40207135868E+01 -0.24625997379E+02  0.36474288145E+02  0.51100000000E-03 0. -1.
        -11    1    3    3    0    0 -0.35566846583E+01 -0.87538354021E-02 -0.76009952979E+01  0.83919730796E+01  0.51100000000E-03 0.  1.
         12    1    3    3    0    0 -0.32158021742E-01  0.96960390997E+00 -0.82894973073E+00  0.12760578109E+01  0.00000000000E+00 0. -1.
</event>
<event>
 7    1  0.2472338E-008  0.4614232E+02  0.7816164E-02  0.1320468E+00
        -11   -1    0    0    0    0  0.00000000000E+00  0.00000000000E+00  0.45593999997E+02  0.45594000000E+02  0.51100000000E-03 0.  1.
         11   -1    0    0    0    0 -0.00000000000E+00 -0.00000000000E+00 -0.45593999997E+02  0.45594000000E+02  0.51100000000E-03 0. -1.
    9900012    2    1    2    0    0  0.66534635139E+01 -0.13479151004E+02  0.42463600771E+02  0.46142317866E+02  0.10000000956E+02 0.  0.
         12    1    1    2    0    0 -0.66534635139E+01  0.13479151004E+02 -0.42463600771E+02  0.45045682134E+02  0.00000000000E+00 0. -1.
         11    1    3    3    0    0  0.24081135323E+01 -0.33560406005E+01  0.58660081467E+01  0.71744038870E+01  0.51100000000E-03 0.  1.
        -11    1    3    3    0    0  0.36542041094E+00 -0.62224888349E+01  0.98218096670E+01  0.11632748806E+02  0.51100000000E-03 0. -1.
        -12    1    3    3    0    0  0.38799295708E+01 -0.39006215685E+01  0.26775782957E+02  0.27335165173E+02  0.00000000000E+00 0.  1.
</event>
<event>
 7    1  0.2472338E-008  0.4614232E+02  0.7816164E-02  0.1320468E+00
        -11   -1    0    0    0    0  0.00000000000E+00  0.00000000000E+00  0.45593999997E+02  0.45594000000E+02  0.51100000000E-03 0.  1.
         11   -1    0    0    0    0 -0.00000000000E+00 -0.00000000000E+00 -0.45593999997E+02  0.45594000000E+02  0.51100000000E-03 0. -1.
    9900012    2    1    2    0    0 -0.30861251126E+02 -0.12313087871E+02  0.30415202073E+02  0.46142317953E+02  0.10000001745E+02 0.  0.
         12    1    1    2    0    0  0.30861251126E+02  0.12313087871E+02 -0.30415202073E+02  0.45045682047E+02  0.00000000000E+00 0. -1.
         11    1    3    3    0    0  0.31062130829E+00  0.21700275392E-01 -0.36528481703E+00  0.47998933091E+00  0.51100000000E-03 0. -1.
        -11    1    3    3    0    0 -0.15084083351E+02 -0.56112194311E+01  0.12311489362E+02  0.20262974229E+02  0.51100000000E-03 0.  1.
        -12    1    3    3    0    0 -0.16087789084E+02 -0.67235687156E+01  0.18468997528E+02  0.25399354393E+02  0.00000000000E+00 0.  1.
</event>
<event>
 7    1  0.2472338E-008  0.4614232E+02  0.7816164E-02  0.1320468E+00
        -11   -1    0    0    0    0  0.00000000000E+00  0.00000000000E+00  0.45593999997E+02  0.45594000000E+02  0.51100000000E-03 0.  1.
         11   -1    0    0    0    0 -0.00000000000E+00 -0.00000000000E+00 -0.45593999997E+02  0.45594000000E+02  0.51100000000E-03 0. -1.
    9900012    2    1    2    0    0 -0.24582821090E+02  0.18755689602E+02  0.32757022184E+02  0.46142317770E+02  0.10000000079E+02 0.  0.
         12    1    1    2    0    0  0.24582821090E+02 -0.18755689602E+02 -0.32757022184E+02  0.45045682230E+02  0.00000000000E+00 0. -1.
         11    1    3    3    0    0 -0.25639926167E+01  0.36478877802E+01  0.90248340036E+01  0.10066219372E+02  0.51100000000E-03 0. -1.
        -11    1    3    3    0    0 -0.96753253320E+00  0.23160110728E+01  0.26903343249E+01  0.36793920059E+01  0.51100000000E-03 0.  1.
        -12    1    3    3    0    0 -0.21051295940E+02  0.12791790749E+02  0.21041853856E+02  0.32396706392E+02  0.00000000000E+00 0.  1.
</event>
<event>
 7    1  0.2472338E-008  0.4614232E+02  0.7816164E-02  0.1320468E+00
        -11   -1    0    0    0    0  0.00000000000E+00  0.00000000000E+00  0.45593999997E+02  0.45594000000E+02  0.51100000000E-03 0. -1.
         11   -1    0    0    0    0 -0.00000000000E+00 -0.00000000000E+00 -0.45593999997E+02  0.45594000000E+02  0.51100000000E-03 0.  1.
    9900012    2    1    2    0    0  0.18255498354E+02  0.63312159732E+01 -0.40691104466E+02  0.46142317649E+02  0.99999989755E+01 0.  0.
         12    1    1    2    0    0 -0.18255498354E+02 -0.63312159732E+01  0.40691104466E+02  0.45045682351E+02  0.00000000000E+00 0. -1.
         11    1    3    3    0    0  0.46037923898E+01  0.28097414878E+00 -0.29928005133E+01  0.54982457215E+01  0.51100000000E-03 0. -1.
        -11    1    3    3    0    0  0.44020442786E+01  0.31430814049E+01 -0.11481042157E+02  0.12691386205E+02  0.51100000000E-03 0.  1.
         12    1    3    3    0    0  0.92496616852E+01  0.29071604196E+01 -0.26217261796E+02  0.27952685722E+02  0.00000000000E+00 0. -1.
</event>
<event>
 7    1  0.2472338E-008  0.4614232E+02  0.7816164E-02  0.1320468E+00
        -11   -1    0    0    0    0  0.00000000000E+00  0.00000000000E+00  0.45593999997E+02  0.45594000000E+02  0.51100000000E-03 0.  1.
         11   -1    0    0    0    0 -0.00000000000E+00 -0.00000000000E+00 -0.45593999997E+02  0.45594000000E+02  0.51100000000E-03 0. -1.
    9900012    2    1    2    0    0 -0.72354815553E+01  0.78939497860E+01  0.43754388644E+02  0.46142321382E+02  0.10000033021E+02 0.  0.
         12    1    1    2    0    0  0.72354815553E+01 -0.78939497860E+01 -0.43754388644E+02  0.45045678618E+02  0.00000000000E+00 0. -1.
         11    1    3    3    0    0 -0.10395303945E+01 -0.49798975778E+00  0.43591209887E+00  0.12323298499E+01  0.51100000000E-03 0. -1.
        -11    1    3    3    0    0 -0.69814030181E+01  0.85175376025E+01  0.39322450478E+02  0.40835567178E+02  0.51100000000E-03 0.  1.
         12    1    3    3    0    0  0.78545185728E+00 -0.12559805871E+00  0.39960260664E+01  0.40744243540E+01  0.00000000000E+00 0. -1.
</event>
<event>
 7    1  0.2472338E-008  0.4614230E+02  0.7816164E-02  0.1320468E+00
        -11   -1    0    0    0    0  0.00000000000E+00  0.00000000000E+00  0.45593999997E+02  0.45594000000E+02  0.51100000000E-03 0. -1.
         11   -1    0    0    0    0 -0.00000000000E+00 -0.00000000000E+00 -0.45593999997E+02  0.45594000000E+02  0.51100000000E-03 0.  1.
    9900012    2    1    2    0    0 -0.29358376773E+02 -0.33429425105E+02 -0.70479845699E+01  0.46142302802E+02  0.99998635868E+01 0.  0.
         12    1    1    2    0    0  0.29358376773E+02  0.33429425105E+02  0.70479845699E+01  0.45045697198E+02  0.00000000000E+00 0. -1.
         11    1    3    3    0    0 -0.21176585690E+02 -0.24591183001E+02 -0.24044079428E+01  0.32541592473E+02  0.51100000000E-03 0. -1.
        -11    1    3    3    0    0 -0.78211438874E+01 -0.91155839906E+01 -0.37245395419E+01  0.12575227960E+02  0.51100000000E-03 0.  1.
         12    1    3    3    0    0 -0.36064719626E+00  0.27734188756E+00 -0.91903708517E+00  0.10254823678E+01  0.00000000000E+00 0. -1.
</event>
<event>
 7    1  0.2472338E-008  0.4614232E+02  0.7816164E-02  0.1320468E+00
        -11   -1    0    0    0    0  0.00000000000E+00  0.00000000000E+00  0.45593999997E+02  0.45594000000E+02  0.51100000000E-03 0.  1.
         11   -1    0    0    0    0 -0.00000000000E+00 -0.00000000000E+00 -0.45593999997E+02  0.45594000000E+02  0.51100000000E-03 0. -1.
    9900012    2    1    2    0    0  0.38833980779E+02 -0.93733533633E+01  0.20812869071E+02  0.46142319459E+02  0.10000015487E+02 0.  0.
         12    1    1    2    0    0 -0.38833980779E+02  0.93733533633E+01 -0.20812869071E+02  0.45045680541E+02  0.00000000000E+00 0. -1.
         11    1    3    3    0    0  0.64430218756E+01 -0.10036206112E+01  0.59632749274E+01  0.88363133343E+01  0.51100000000E-03 0. -1.
        -11    1    3    3    0    0  0.92411436582E+01 -0.53590450477E+01  0.65446261824E+01  0.12527977972E+02  0.51100000000E-03 0.  1.
        -12    1    3    3    0    0  0.23149815245E+02 -0.30106877044E+01  0.83049679610E+01  0.24778028153E+02  0.00000000000E+00 0.  1.
</event>
<event>
 7    1  0.2472338E-008  0.4614231E+02  0.7816164E-02  0.1320468E+00
        -11   -1    0    0    0    0  0.00000000000E+00  0.00000000000E+00  0.45593999997E+02  0.45594000000E+02  0.51100000000E-03 0.  1.
         11   -1    0    0    0    0 -0.00000000000E+00 -0.00000000000E+00 -0.45593999997E+02  0.45594000000E+02  0.51100000000E-03 0. -1.
    9900012    2    1    2    0    0 -0.38896735422E+02 -0.75189181925E+01  0.21438834681E+02  0.46142314415E+02  0.99999694913E+01 0.  0.
         12    1    1    2    0    0  0.38896735422E+02  0.75189181925E+01 -0.21438834681E+02  0.45045685585E+02  0.00000000000E+00 0. -1.
         11    1    3    3    0    0 -0.15427535301E+02 -0.59220855499E+01  0.10764754369E+02  0.19722065805E+02  0.51100000000E-03 0. -1.
        -11    1    3    3    0    0 -0.22122627591E+02 -0.13894287442E+01  0.11345841791E+02  0.24901190533E+02  0.51100000000E-03 0.  1.
         12    1    3    3    0    0 -0.13465725305E+01 -0.20740389846E+00 -0.67176147935E+00  0.15190580773E+01  0.00000000000E+00 0. -1.
</event>
<event>
 7    1  0.2472338E-008  0.4614232E+02  0.7816164E-02  0.1320468E+00
        -11   -1    0    0    0    0  0.00000000000E+00  0.00000000000E+00  0.45593999997E+02  0.45594000000E+02  0.51100000000E-03 0. -1.
         11   -1    0    0    0    0 -0.00000000000E+00 -0.00000000000E+00 -0.45593999997E+02  0.45594000000E+02  0.51100000000E-03 0.  1.
    9900012    2    1    2    0    0 -0.36387334710E+02 -0.63056623526E+01 -0.25793678781E+02  0.46142319074E+02  0.10000011973E+02 0.  0.
         12    1    1    2    0    0  0.36387334710E+02  0.63056623526E+01  0.25793678781E+02  0.45045680926E+02  0.00000000000E+00 0. -1.
         11    1    3    3    0    0 -0.10901656227E+01  0.20109065421E+00  0.60665231916E+00  0.12636953088E+01  0.51100000000E-03 0. -1.
        -11    1    3    3    0    0 -0.23520326042E+01  0.70199534850E+00 -0.27596759007E+01  0.36933272504E+01  0.51100000000E-03 0.  1.
        -12    1    3    3    0    0 -0.32945136483E+02 -0.72087483553E+01 -0.23640655199E+02  0.41185296515E+02  0.00000000000E+00 0.  1.
</event>
<event>
 7    1  0.2472338E-008  0.4614232E+02  0.7816164E-02  0.1320468E+00
        -11   -1    0    0    0    0  0.00000000000E+00  0.00000000000E+00  0.45593999997E+02  0.45594000000E+02  0.51100000000E-03 0.  1.
         11   -1    0    0    0    0 -0.00000000000E+00 -0.00000000000E+00 -0.45593999997E+02  0.45594000000E+02  0.51100000000E-03 0. -1.
    9900012    2    1    2    0    0 -0.28605790166E+02 -0.55210441476E+00  0.34792494157E+02  0.46142315412E+02  0.99999785826E+01 0.  0.
         12    1    1    2    0    0  0.28605790166E+02  0.55210441476E+00 -0.34792494157E+02  0.45045684588E+02  0.00000000000E+00 0. -1.
         11    1    3    3    0    0 -0.10187659668E+02  0.16244627649E+01  0.11506176257E+02  0.15453782097E+02  0.51100000000E-03 0. -1.
        -11    1    3    3    0    0 -0.15212785537E+02 -0.53159231753E+00  0.22214921790E+02  0.26929801050E+02  0.51100000000E-03 0.  1.
         12    1    3    3    0    0 -0.32053449610E+01 -0.16449748621E+01  0.10713961090E+01  0.37587322648E+01  0.00000000000E+00 0. -1.
</event>
<event>
 7    1  0.2472338E-008  0.4614232E+02  0.7816164E-02  0.1320468E+00
        -11   -1    0    0    0    0  0.00000000000E+00  0.00000000000E+00  0.45593999997E+02  0.45594000000E+02  0.51100000000E-03 0. -1.
         11   -1    0    0    0    0 -0.00000000000E+00 -0.00000000000E+00 -0.45593999997E+02  0.45594000000E+02  0.51100000000E-03 0.  1.
    9900012    2    1    2    0    0 -0.13374190722E+02  0.26311391093E+02 -0.34028739595E+02  0.46142318773E+02  0.10000009231E+02 0.  0.
         12    1    1    2    0    0  0.13374190722E+02 -0.26311391093E+02  0.34028739595E+02  0.45045681227E+02  0.00000000000E+00 0. -1.
         11    1    3    3    0    0 -0.71295700760E+01  0.17070126036E+02 -0.25946160740E+02  0.31865706171E+02  0.51100000000E-03 0. -1.
        -11    1    3    3    0    0 -0.26095188220E+01  0.40671477956E+01 -0.58106732878E+01  0.75574601549E+01  0.51100000000E-03 0.  1.
         12    1    3    3    0    0 -0.36351018241E+01  0.51741172616E+01 -0.22719055671E+01  0.67191524476E+01  0.00000000000E+00 0. -1.
</event>
<event>
 7    1  0.2472338E-008  0.4614232E+02  0.7816164E-02  0.1320468E+00
        -11   -1    0    0    0    0  0.00000000000E+00  0.00000000000E+00  0.45593999997E+02  0.45594000000E+02  0.51100000000E-03 0.  1.
         11   -1    0    0    0    0 -0.00000000000E+00 -0.00000000000E+00 -0.45593999997E+02  0.45594000000E+02  0.51100000000E-03 0. -1.
    9900012    2    1    2    0    0  0.23344357390E+02  0.26323958616E+02  0.28128342936E+02  0.46142317682E+02  0.99999992816E+01 0.  0.
         12    1    1    2    0    0 -0.23344357390E+02 -0.26323958616E+02 -0.28128342936E+02  0.45045682318E+02  0.00000000000E+00 0. -1.
         11    1    3    3    0    0  0.32637359645E+01  0.60072847107E+01  0.36414250682E+01  0.77459291780E+01  0.51100000000E-03 0. -1.
        -11    1    3    3    0    0  0.14427005650E+02  0.93109905605E+01  0.15098686645E+02  0.22864893963E+02  0.51100000000E-03 0.  1.
         12    1    3    3    0    0  0.56536157750E+01  0.11005683345E+02  0.93882312219E+01  0.15531494542E+02  0.00000000000E+00 0. -1.
</event>
<event>
 7    1  0.2472338E-008  0.4614232E+02  0.7816164E-02  0.1320468E+00
        -11   -1    0    0    0    0  0.00000000000E+00  0.00000000000E+00  0.45593999997E+02  0.45594000000E+02  0.51100000000E-03 0.  1.
         11   -1    0    0    0    0 -0.00000000000E+00 -0.00000000000E+00 -0.45593999997E+02  0.45594000000E+02  0.51100000000E-03 0. -1.
    9900012    2    1    2    0    0 -0.10567922472E+02 -0.43479608389E+02 -0.51919370340E+01  0.46142317174E+02  0.99999946506E+01 0.  0.
         12    1    1    2    0    0  0.10567922472E+02  0.43479608389E+02  0.51919370340E+01  0.45045682826E+02  0.00000000000E+00 0. -1.
         11    1    3    3    0    0 -0.47215071885E+01 -0.96388819482E+01 -0.40299431761E+01  0.11464777259E+02  0.51100000000E-03 0. -1.
        -11    1    3    3    0    0 -0.59976746412E+01 -0.21818836964E+02 -0.42552161081E+00  0.22632163318E+02  0.51100000000E-03 0.  1.
        -12    1    3    3    0    0  0.15125935746E+00 -0.12021889477E+02 -0.73647224700E+00  0.12045376597E+02  0.00000000000E+00 0.  1.
</event>
<event>
 7    1  0.2472338E-008  0.4614232E+02  0.7816164E-02  0.1320468E+00
        -11   -1    0    0    0    0  0.00000000000E+00  0.00000000000E+00  0.45593999997E+02  0.45594000000E+02  0.51100000000E-03 0.  1.
         11   -1    0    0    0    0 -0.00000000000E+00 -0.00000000000E+00 -0.45593999997E+02  0.45594000000E+02  0.51100000000E-03 0. -1.
    9900012    2    1    2    0    0 -0.24266599437E+02  0.17902800044E+02  0.33462445592E+02  0.46142319157E+02  0.10000012726E+02 0.  0.
         12    1    1    2    0    0  0.24266599437E+02 -0.17902800044E+02 -0.33462445592E+02  0.45045680843E+02  0.00000000000E+00 0. -1.
         11    1    3    3    0    0 -0.74523885992E+01  0.45600206609E+01  0.78566977654E+01  0.11749875927E+02  0.51100000000E-03 0.  1.
        -11    1    3    3    0    0 -0.10534655679E+02  0.32554982793E+01  0.11169162883E+02  0.15694822046E+02  0.51100000000E-03 0. -1.
         12    1    3    3    0    0 -0.62795551590E+01  0.10087281103E+02  0.14436584944E+02  0.18697621183E+02  0.00000000000E+00 0. -1.
</event>
<event>
 7    1  0.2472338E-008  0.4614232E+02  0.7816164E-02  0.1320468E+00
        -11   -1    0    0    0    0  0.00000000000E+00  0.00000000000E+00  0.45593999997E+02  0.45594000000E+02  0.51100000000E-03 0.  1.
         11   -1    0    0    0    0 -0.00000000000E+00 -0.00000000000E+00 -0.45593999997E+02  0.45594000000E+02  0.51100000000E-03 0. -1.
    9900012    2    1    2    0    0 -0.55807983154E+01  0.12993931115E+02  0.42768282600E+02  0.46142317052E+02  0.99999935377E+01 0.  0.
         12    1    1    2    0    0  0.55807983154E+01 -0.12993931115E+02 -0.42768282600E+02  0.45045682948E+02  0.00000000000E+00 0. -1.
         11    1    3    3    0    0 -0.32563234980E+01  0.82915423755E+01  0.16354894028E+02  0.18623530187E+02  0.51100000000E-03 0. -1.
        -11    1    3    3    0    0 -0.12150600497E+01  0.32829685754E+01  0.54453092130E+01  0.64734570577E+01  0.51100000000E-03 0.  1.
        -12    1    3    3    0    0 -0.11094147678E+01  0.14194201646E+01  0.20968079358E+02  0.21045329808E+02  0.00000000000E+00 0.  1.
</event>
<event>
 7    1  0.2472338E-008  0.4614232E+02  0.7816164E-02  0.1320468E+00
        -11   -1    0    0    0    0  0.00000000000E+00  0.00000000000E+00  0.45593999997E+02  0.45594000000E+02  0.51100000000E-03 0. -1.
         11   -1    0    0    0    0 -0.00000000000E+00 -0.00000000000E+00 -0.45593999997E+02  0.45594000000E+02  0.51100000000E-03 0.  1.
    9900012    2    1    2    0    0  0.27100419143E+02  0.26160961774E+02 -0.24703944438E+02  0.46142317527E+02  0.99999978653E+01 0.  0.
         12    1    1    2    0    0 -0.27100419143E+02 -0.26160961774E+02  0.24703944438E+02  0.45045682473E+02  0.00000000000E+00 0. -1.
         11    1    3    3    0    0  0.20904971929E+02  0.18726220698E+02 -0.16198398459E+02  0.32404896326E+02  0.51100000000E-03 0. -1.
        -11    1    3    3    0    0  0.64158755721E+01  0.55365799797E+01 -0.52693052360E+01  0.99791159508E+01  0.51100000000E-03 0.  1.
         12    1    3    3    0    0 -0.22042835832E+00  0.18981610960E+01 -0.32362407430E+01  0.37583052502E+01  0.00000000000E+00 0. -1.
</event>
<event>
 7    1  0.2472338E-008  0.4614232E+02  0.7816164E-02  0.1320468E+00
        -11   -1    0    0    0    0  0.00000000000E+00  0.00000000000E+00  0.45593999997E+02  0.45594000000E+02  0.51100000000E-03 0. -1.
         11   -1    0    0    0    0 -0.00000000000E+00 -0.00000000000E+00 -0.45593999997E+02  0.45594000000E+02  0.51100000000E-03 0.  1.
    9900012    2    1    2    0    0 -0.59705111519E+01 -0.24148556062E+02 -0.37554144089E+02  0.46142317615E+02  0.99999986646E+01 0.  0.
         12    1    1    2    0    0  0.59705111519E+01  0.24148556062E+02  0.37554144089E+02  0.45045682385E+02  0.00000000000E+00 0. -1.
         11    1    3    3    0    0 -0.20583291502E+01 -0.54624004096E+01 -0.13402446216E+02  0.14618484940E+02  0.51100000000E-03 0. -1.
        -11    1    3    3    0    0  0.14313245665E+00 -0.11550574594E+01 -0.54434653938E+01  0.55665034258E+01  0.51100000000E-03 0.  1.
        -12    1    3    3    0    0 -0.40553144584E+01 -0.17531098193E+02 -0.18708232480E+02  0.25957329248E+02  0.00000000000E+00 0.  1.
</event>
<event>
 7    1  0.2472338E-008  0.4614231E+02  0.7816164E-02  0.1320468E+00
        -11   -1    0    0    0    0  0.00000000000E+00  0.00000000000E+00  0.45593999997E+02  0.45594000000E+02  0.51100000000E-03 0.  1.
         11   -1    0    0    0    0 -0.00000000000E+00 -0.00000000000E+00 -0.45593999997E+02  0.45594000000E+02  0.51100000000E-03 0. -1.
    9900012    2    1    2    0    0 -0.26139982945E+01  0.50216051515E+01  0.44688528103E+02  0.46142311534E+02  0.99999432119E+01 0.  0.
         12    1    1    2    0    0  0.26139982945E+01 -0.50216051515E+01 -0.44688528103E+02  0.45045688466E+02  0.00000000000E+00 0. -1.
         11    1    3    3    0    0  0.25254201296E+01  0.23093654306E+01  0.19429339584E+02  0.19728409780E+02  0.51100000000E-03 0. -1.
        -11    1    3    3    0    0  0.95466211627E+00  0.89451555816E+00  0.32219214957E+01  0.34774007859E+01  0.51100000000E-03 0.  1.
        -12    1    3    3    0    0 -0.60940805404E+01  0.18177241627E+01  0.22037267024E+02  0.22936500968E+02  0.00000000000E+00 0.  1.
</event>
<event>
 7    1  0.2472338E-008  0.4614232E+02  0.7816164E-02  0.1320468E+00
        -11   -1    0    0    0    0  0.00000000000E+00  0.00000000000E+00  0.45593999997E+02  0.45594000000E+02  0.51100000000E-03 0.  1.
         11   -1    0    0    0    0 -0.00000000000E+00 -0.00000000000E+00 -0.45593999997E+02  0.45594000000E+02  0.51100000000E-03 0. -1.
    9900012    2    1    2    0    0 -0.31273010655E+02 -0.29357682022E+02  0.13756390118E+02  0.46142323646E+02  0.10000053661E+02 0.  0.
         12    1    1    2    0    0  0.31273010655E+02  0.29357682022E+02 -0.13756390118E+02  0.45045676354E+02  0.00000000000E+00 0. -1.
         11    1    3    3    0    0 -0.55781523354E+01 -0.73990483815E+01  0.80599114005E+00  0.93011462954E+01  0.51100000000E-03 0. -1.
        -11    1    3    3    0    0 -0.24758585134E+02 -0.21148202488E+02  0.13773213712E+02  0.35354425784E+02  0.51100000000E-03 0.  1.
        -12    1    3    3    0    0 -0.93627318612E+00 -0.81043115296E+00 -0.82281473495E+00  0.14867515666E+01  0.00000000000E+00 0.  1.
</event>
<event>
 7    1  0.2472338E-008  0.4614232E+02  0.7816164E-02  0.1320468E+00
        -11   -1    0    0    0    0  0.00000000000E+00  0.00000000000E+00  0.45593999997E+02  0.45594000000E+02  0.51100000000E-03 0. -1.
         11   -1    0    0    0    0 -0.00000000000E+00 -0.00000000000E+00 -0.45593999997E+02  0.45594000000E+02  0.51100000000E-03 0.  1.
    9900012    2    1    2    0    0 -0.28460133751E+02 -0.29217528590E+02  0.19117276833E+02  0.46142318036E+02  0.10000002509E+02 0.  0.
         12    1    1    2    0    0  0.28460133751E+02  0.29217528590E+02 -0.19117276833E+02  0.45045681964E+02  0.00000000000E+00 0. -1.
         11    1    3    3    0    0 -0.14515119405E+02 -0.14713549512E+02  0.12620848254E+02  0.24216999019E+02  0.51100000000E-03 0. -1.
        -11    1    3    3    0    0 -0.72999012101E+01 -0.73561348048E+01  0.63705913902E+01  0.12164937808E+02  0.51100000000E-03 0.  1.
         12    1    3    3    0    0 -0.66451131363E+01 -0.71478442741E+01  0.12583718863E+00  0.97603812097E+01  0.00000000000E+00 0. -1.
</event>
<event>
 7    1  0.2472338E-008  0.4614232E+02  0.7816164E-02  0.1320468E+00
        -11   -1    0    0    0    0  0.00000000000E+00  0.00000000000E+00  0.45593999997E+02  0.45594000000E+02  0.51100000000E-03 0.  1.
         11   -1    0    0    0    0 -0.00000000000E+00 -0.00000000000E+00 -0.45593999997E+02  0.45594000000E+02  0.51100000000E-03 0. -1.
    9900012    2    1    2    0    0 -0.34851215445E+02 -0.70385707044E+01  0.27657996808E+02  0.46142317821E+02  0.10000000542E+02 0.  0.
         12    1    1    2    0    0  0.34851215445E+02  0.70385707044E+01 -0.27657996808E+02  0.45045682179E+02  0.00000000000E+00 0. -1.
         11    1    3    3    0    0 -0.10968462204E+01 -0.29256876106E+00  0.21785087532E+01  0.24565359269E+01  0.51100000000E-03 0. -1.
        -11    1    3    3    0    0 -0.23091579625E+02 -0.85900316221E+01  0.18483526231E+02  0.30800169400E+02  0.51100000000E-03 0.  1.
        -12    1    3    3    0    0 -0.10662789600E+02  0.18440296788E+01  0.69959618237E+01  0.12885612494E+02  0.00000000000E+00 0.  1.
</event>
<event>
 7    1  0.2472338E-008  0.4614232E+02  0.7816164E-02  0.1320468E+00
        -11   -1    0    0    0    0  0.00000000000E+00  0.00000000000E+00  0.45593999997E+02  0.45594000000E+02  0.51100000000E-03 0. -1.
         11   -1    0    0    0    0 -0.00000000000E+00 -0.00000000000E+00 -0.45593999997E+02  0.45594000000E+02  0.51100000000E-03 0.  1.
    9900012    2    1    2    0    0 -0.13355548681E+02  0.36624506969E+02 -0.22569632498E+02  0.46142317606E+02  0.99999985854E+01 0.  0.
         12    1    1    2    0    0  0.13355548681E+02 -0.36624506969E+02  0.22569632498E+02  0.45045682394E+02  0.00000000000E+00 0. -1.
         11    1    3    3    0    0 -0.86267781956E+01  0.15752045727E+02 -0.84576328807E+01  0.19851443293E+02  0.51100000000E-03 0. -1.
        -11    1    3    3    0    0 -0.57691019897E+01  0.13539547597E+02 -0.84729943642E+01  0.16982153004E+02  0.51100000000E-03 0.  1.
        -12    1    3    3    0    0  0.10403315044E+01  0.73329136450E+01 -0.56390052530E+01  0.93087213089E+01  0.00000000000E+00 0.  1.
</event>
<event>
 7    1  0.2472338E-008  0.4614232E+02  0.7816164E-02  0.1320468E+00
        -11   -1    0    0    0    0  0.00000000000E+00  0.00000000000E+00  0.45593999997E+02  0.45594000000E+02  0.51100000000E-03 0.  1.
         11   -1    0    0    0    0 -0.00000000000E+00 -0.00000000000E+00 -0.45593999997E+02  0.45594000000E+02  0.51100000000E-03 0. -1.
    9900012    2    1    2    0    0 -0.14629493430E+02  0.23437917639E+02  0.35577457912E+02  0.46142316825E+02  0.99999914611E+01 0.  0.
         12    1    1    2    0    0  0.14629493430E+02 -0.23437917639E+02 -0.35577457912E+02  0.45045683175E+02  0.00000000000E+00 0. -1.
         11    1    3    3    0    0 -0.33369207694E+01  0.30302759129E+00  0.39225495935E+01  0.51588042720E+01  0.51100000000E-03 0. -1.
        -11    1    3    3    0    0 -0.35633041476E+01  0.55294413600E+01  0.58507903458E+01  0.88036132431E+01  0.51100000000E-03 0.  1.
         12    1    3    3    0    0 -0.77292685126E+01  0.17605448688E+02  0.25804117972E+02  0.32179899310E+02  0.00000000000E+00 0. -1.
</event>
<event>
 7    1  0.2472338E-008  0.4614232E+02  0.7816164E-02  0.1320468E+00
        -11   -1    0    0    0    0  0.00000000000E+00  0.00000000000E+00  0.45593999997E+02  0.45594000000E+02  0.51100000000E-03 0. -1.
         11   -1    0    0    0    0 -0.00000000000E+00 -0.00000000000E+00 -0.45593999997E+02  0.45594000000E+02  0.51100000000E-03 0.  1.
    9900012    2    1    2    0    0 -0.35629735449E+01 -0.44729759608E+02 -0.39581955862E+01  0.46142317772E+02  0.10000000103E+02 0.  0.
         12    1    1    2    0    0  0.35629735449E+01  0.44729759608E+02  0.39581955862E+01  0.45045682228E+02  0.00000000000E+00 0. -1.
         11    1    3    3    0    0 -0.11804902873E+01 -0.11085920394E+02  0.23966627401E+01  0.11403296929E+02  0.51100000000E-03 0. -1.
        -11    1    3    3    0    0 -0.16689814508E+01 -0.17192402797E+02 -0.56019550581E+00  0.17282304021E+02  0.51100000000E-03 0.  1.
        -12    1    3    3    0    0 -0.71350180679E+00 -0.16451436416E+02 -0.57946628205E+01  0.17456716822E+02  0.00000000000E+00 0.  1.
</event>
<event>
 7    1  0.2472338E-008  0.4614232E+02  0.7816164E-02  0.1320468E+00
        -11   -1    0    0    0    0  0.00000000000E+00  0.00000000000E+00  0.45593999997E+02  0.45594000000E+02  0.51100000000E-03 0.  1.
         11   -1    0    0    0    0 -0.00000000000E+00 -0.00000000000E+00 -0.45593999997E+02  0.45594000000E+02  0.51100000000E-03 0. -1.
    9900012    2    1    2    0    0 -0.15936238284E+02  0.30270012647E+02  0.29306586274E+02  0.46142319238E+02  0.10000013467E+02 0.  0.
         12    1    1    2    0    0  0.15936238284E+02 -0.30270012647E+02 -0.29306586274E+02  0.45045680762E+02  0.00000000000E+00 0. -1.
         11    1    3    3    0    0 -0.48730657531E-01  0.80234973594E+01  0.89059755170E+01  0.11987296806E+02  0.51100000000E-03 0. -1.
        -11    1    3    3    0    0 -0.57871718754E+01  0.92657187310E+01  0.88023516547E+01  0.14029479564E+02  0.51100000000E-03 0.  1.
         12    1    3    3    0    0 -0.10100335751E+02  0.12980796556E+02  0.11598259102E+02  0.20125542868E+02  0.00000000000E+00 0. -1.
</event>
<event>
 7    1  0.2472338E-008  0.4614232E+02  0.7816164E-02  0.1320468E+00
        -11   -1    0    0    0    0  0.00000000000E+00  0.00000000000E+00  0.45593999997E+02  0.45594000000E+02  0.51100000000E-03 0.  1.
         11   -1    0    0    0    0 -0.00000000000E+00 -0.00000000000E+00 -0.45593999997E+02  0.45594000000E+02  0.51100000000E-03 0. -1.
    9900012    2    1    2    0    0  0.27790805169E+02 -0.13539953551E+02  0.32763611166E+02  0.46142318622E+02  0.10000007854E+02 0.  0.
         12    1    1    2    0    0 -0.27790805169E+02  0.13539953551E+02 -0.32763611166E+02  0.45045681378E+02  0.00000000000E+00 0. -1.
         11    1    3    3    0    0  0.50944198628E+01 -0.24862959152E+01  0.12327963685E+02  0.13568841881E+02  0.51100000000E-03 0. -1.
        -11    1    3    3    0    0  0.44699289181E+01 -0.11313220637E+01  0.38928512749E+01  0.60344382882E+01  0.51100000000E-03 0.  1.
         12    1    3    3    0    0  0.18226456388E+02 -0.99223355724E+01  0.16542796206E+02  0.26539038453E+02  0.00000000000E+00 0. -1.
</event>
<event>
 7    1  0.2472338E-008  0.4614231E+02  0.7816164E-02  0.1320468E+00
        -11   -1    0    0    0    0  0.00000000000E+00  0.00000000000E+00  0.45593999997E+02  0.45594000000E+02  0.51100000000E-03 0. -1.
         11   -1    0    0    0    0 -0.00000000000E+00 -0.00000000000E+00 -0.45593999997E+02  0.45594000000E+02  0.51100000000E-03 0.  1.
    9900012    2    1    2    0    0 -0.23112628792E+02 -0.55847276793E+01 -0.38258742190E+02  0.46142310451E+02  0.99999333441E+01 0.  0.
         12    1    1    2    0    0  0.23112628792E+02  0.55847276793E+01  0.38258742190E+02  0.45045689549E+02  0.00000000000E+00 0. -1.
         11    1    3    3    0    0 -0.10697651947E+02 -0.30358390634E+00 -0.11682029385E+02  0.15843034154E+02  0.51100000000E-03 0. -1.
        -11    1    3    3    0    0 -0.32871584768E+00  0.83652061523E+00 -0.27228343437E+01  0.28673416212E+01  0.51100000000E-03 0.  1.
        -12    1    3    3    0    0 -0.12086260997E+02 -0.61176643882E+01 -0.23853878461E+02  0.27431934676E+02  0.00000000000E+00 0.  1.
</event>
<event>
 7    1  0.2472338E-008  0.4614232E+02  0.7816164E-02  0.1320468E+00
        -11   -1    0    0    0    0  0.00000000000E+00  0.00000000000E+00  0.45593999997E+02  0.45594000000E+02  0.51100000000E-03 0.  1.
         11   -1    0    0    0    0 -0.00000000000E+00 -0.00000000000E+00 -0.45593999997E+02  0.45594000000E+02  0.51100000000E-03 0. -1.
    9900012    2    1    2    0    0 -0.43482528026E+02  0.10870979011E+02  0.44950053968E+01  0.46142317613E+02  0.99999986450E+01 0.  0.
         12    1    1    2    0    0  0.43482528026E+02 -0.10870979011E+02 -0.44950053968E+01  0.45045682387E+02  0.00000000000E+00 0. -1.
         11    1    3    3    0    0 -0.79620019294E+00  0.18488691115E+01  0.10158211025E+00  0.20155820313E+01  0.51100000000E-03 0. -1.
        -11    1    3    3    0    0 -0.21066714564E+02  0.43510115057E+01  0.46436586724E+01  0.22006847338E+02  0.51100000000E-03 0.  1.
         12    1    3    3    0    0 -0.21619613270E+02  0.46710983941E+01 -0.25023538583E+00  0.22119888243E+02  0.00000000000E+00 0. -1.
</event>
<event>
 7    1  0.2472338E-008  0.4614232E+02  0.7816164E-02  0.1320468E+00
        -11   -1    0    0    0    0  0.00000000000E+00  0.00000000000E+00  0.45593999997E+02  0.45594000000E+02  0.51100000000E-03 0.  1.
         11   -1    0    0    0    0 -0.00000000000E+00 -0.00000000000E+00 -0.45593999997E+02  0.45594000000E+02  0.51100000000E-03 0. -1.
    9900012    2    1    2    0    0 -0.27675031005E+02 -0.14079046960E+01  0.35513713609E+02  0.46142318842E+02  0.10000009852E+02 0.  0.
         12    1    1    2    0    0  0.27675031005E+02  0.14079046960E+01 -0.35513713609E+02  0.45045681158E+02  0.00000000000E+00 0. -1.
         11    1    3    3    0    0 -0.52942698613E+01 -0.13592094361E+01  0.12477031997E+02  0.13621786644E+02  0.51100000000E-03 0. -1.
        -11    1    3    3    0    0 -0.15943124993E+02 -0.19145259023E+01  0.18099349196E+02  0.24195765860E+02  0.51100000000E-03 0.  1.
        -12    1    3    3    0    0 -0.64376361505E+01  0.18658306425E+01  0.49373324153E+01  0.83247663374E+01  0.00000000000E+00 0.  1.
</event>
<event>
 7    1  0.2472338E-008  0.4614232E+02  0.7816164E-02  0.1320468E+00
        -11   -1    0    0    0    0  0.00000000000E+00  0.00000000000E+00  0.45593999997E+02  0.45594000000E+02  0.51100000000E-03 0.  1.
         11   -1    0    0    0    0 -0.00000000000E+00 -0.00000000000E+00 -0.45593999997E+02  0.45594000000E+02  0.51100000000E-03 0. -1.
    9900012    2    1    2    0    0 -0.27039029167E+02 -0.65786378168E+00  0.36021820715E+02  0.46142318179E+02  0.10000003814E+02 0.  0.
         12    1    1    2    0    0  0.27039029167E+02  0.65786378168E+00 -0.36021820715E+02  0.45045681821E+02  0.00000000000E+00 0. -1.
         11    1    3    3    0    0 -0.15983643654E+01 -0.27643100763E+00  0.27306116479E+01  0.31760703675E+01  0.51100000000E-03 0. -1.
        -11    1    3    3    0    0 -0.23061046402E+02  0.15901555961E+01  0.32302971397E+02  0.39721812865E+02  0.51100000000E-03 0.  1.
         12    1    3    3    0    0 -0.23796184003E+01 -0.19715883701E+01  0.98823767046E+00  0.32444349471E+01  0.00000000000E+00 0. -1.
</event>
<event>
 7    1  0.2472338E-008  0.4614232E+02  0.7816164E-02  0.1320468E+00
        -11   -1    0    0    0    0  0.00000000000E+00  0.00000000000E+00  0.45593999997E+02  0.45594000000E+02  0.51100000000E-03 0. -1.
         11   -1    0    0    0    0 -0.00000000000E+00 -0.00000000000E+00 -0.45593999997E+02  0.45594000000E+02  0.51100000000E-03 0.  1.
    9900012    2    1    2    0    0 -0.13641523500E+02  0.32856522567E+02 -0.27630983626E+02  0.46142317690E+02  0.99999993560E+01 0.  0.
         12    1    1    2    0    0  0.13641523500E+02 -0.32856522567E+02  0.27630983626E+02  0.45045682310E+02  0.00000000000E+00 0. -1.
         11    1    3    3    0    0 -0.78913655605E+00  0.14614087748E+01 -0.74079430717E+00  0.18185787246E+01  0.51100000000E-03 0. -1.
        -11    1    3    3    0    0  0.62541131002E+00  0.57566097742E+00  0.46340785327E+00  0.96812807377E+00  0.51100000000E-03 0.  1.
        -12    1    3    3    0    0 -0.13477798254E+02  0.30819452815E+02 -0.27353597172E+02  0.43355610892E+02  0.00000000000E+00 0.  1.
</event>
<event>
 7    1  0.2472338E-008  0.4614232E+02  0.7816164E-02  0.1320468E+00
        -11   -1    0    0    0    0  0.00000000000E+00  0.00000000000E+00  0.45593999997E+02  0.45594000000E+02  0.51100000000E-03 0. -1.
         11   -1    0    0    0    0 -0.00000000000E+00 -0.00000000000E+00 -0.45593999997E+02  0.45594000000E+02  0.51100000000E-03 0.  1.
    9900012    2    1    2    0    0  0.35881756689E+02 -0.25716546901E+02 -0.89594566314E+01  0.46142321953E+02  0.10000038227E+02 0.  0.
         12    1    1    2    0    0 -0.35881756689E+02  0.25716546901E+02  0.89594566314E+01  0.45045678047E+02  0.00000000000E+00 0. -1.
         11    1    3    3    0    0  0.87599064199E+01 -0.57740090782E+01  0.16441586445E+01  0.10619717474E+02  0.51100000000E-03 0. -1.
        -11    1    3    3    0    0  0.17135850354E+02 -0.14909868572E+02 -0.74254878933E+01  0.23897268022E+02  0.51100000000E-03 0.  1.
         12    1    3    3    0    0  0.99859999151E+01 -0.50326692504E+01 -0.31781273826E+01  0.11625336457E+02  0.00000000000E+00 0. -1.
</event>
<event>
 7    1  0.2472338E-008  0.4614232E+02  0.7816164E-02  0.1320468E+00
        -11   -1    0    0    0    0  0.00000000000E+00  0.00000000000E+00  0.45593999997E+02  0.45594000000E+02  0.51100000000E-03 0.  1.
         11   -1    0    0    0    0 -0.00000000000E+00 -0.00000000000E+00 -0.45593999997E+02  0.45594000000E+02  0.51100000000E-03 0. -1.
    9900012    2    1    2    0    0 -0.37210257838E+02 -0.22334900595E+02 -0.12069069120E+02  0.46142317605E+02  0.99999985787E+01 0.  0.
         12    1    1    2    0    0  0.37210257838E+02  0.22334900595E+02  0.12069069120E+02  0.45045682395E+02  0.00000000000E+00 0. -1.
         11    1    3    3    0    0 -0.45873141926E+00 -0.10820255589E+01 -0.75084093680E+00  0.13946240349E+01  0.51100000000E-03 0. -1.
        -11    1    3    3    0    0 -0.14805918036E+02 -0.13108235365E+02 -0.67713015290E+01  0.20901951295E+02  0.51100000000E-03 0.  1.
         12    1    3    3    0    0 -0.21945608383E+02 -0.81446396712E+01 -0.45469266543E+01  0.23845742275E+02  0.00000000000E+00 0. -1.
</event>
<event>
 7    1  0.2472338E-008  0.4614232E+02  0.7816164E-02  0.1320468E+00
        -11   -1    0    0    0    0  0.00000000000E+00  0.00000000000E+00  0.45593999997E+02  0.45594000000E+02  0.51100000000E-03 0.  1.
         11   -1    0    0    0    0 -0.00000000000E+00 -0.00000000000E+00 -0.45593999997E+02  0.45594000000E+02  0.51100000000E-03 0. -1.
    9900012    2    1    2    0    0  0.23457581826E+02  0.35694573006E+02 -0.14309183869E+02  0.46142318407E+02  0.10000005887E+02 0.  0.
         12    1    1    2    0    0 -0.23457581826E+02 -0.35694573006E+02  0.14309183869E+02  0.45045681593E+02  0.00000000000E+00 0. -1.
         11    1    3    3    0    0  0.10384442189E+01  0.55051041294E+01 -0.10218413790E+01  0.56946200871E+01  0.51100000000E-03 0. -1.
        -11    1    3    3    0    0  0.11432631697E+02  0.14385204088E+02 -0.29839851382E+01  0.18615674356E+02  0.51100000000E-03 0.  1.
        -12    1    3    3    0    0  0.10986505910E+02  0.15804264789E+02 -0.10303357352E+02  0.21832023963E+02  0.00000000000E+00 0.  1.
</event>
<event>
 7    1  0.2472338E-008  0.4614232E+02  0.7816164E-02  0.1320468E+00
        -11   -1    0    0    0    0  0.00000000000E+00  0.00000000000E+00  0.45593999997E+02  0.45594000000E+02  0.51100000000E-03 0. -1.
         11   -1    0    0    0    0 -0.00000000000E+00 -0.00000000000E+00 -0.45593999997E+02  0.45594000000E+02  0.51100000000E-03 0.  1.
    9900012    2    1    2    0    0  0.60281540944E+01  0.42130383403E+02 -0.14758242175E+02  0.46142316971E+02  0.99999927943E+01 0.  0.
         12    1    1    2    0    0 -0.60281540944E+01 -0.42130383403E+02  0.14758242175E+02  0.45045683029E+02  0.00000000000E+00 0. -1.
         11    1    3    3    0    0  0.48917191012E+01  0.24398211189E+02 -0.45939094233E+01  0.25304261085E+02  0.51100000000E-03 0. -1.
        -11    1    3    3    0    0  0.41974958193E+00  0.85949934886E+01 -0.27031732810E+01  0.90198253214E+01  0.51100000000E-03 0.  1.
         12    1    3    3    0    0  0.71668541130E+00  0.91371787252E+01 -0.74611594707E+01  0.11818230565E+02  0.00000000000E+00 0. -1.
</event>
<event>
 7    1  0.2472338E-008  0.4614232E+02  0.7816164E-02  0.1320468E+00
        -11   -1    0    0    0    0  0.00000000000E+00  0.00000000000E+00  0.45593999997E+02  0.45594000000E+02  0.51100000000E-03 0.  1.
         11   -1    0    0    0    0 -0.00000000000E+00 -0.00000000000E+00 -0.45593999997E+02  0.45594000000E+02  0.51100000000E-03 0. -1.
    9900012    2    1    2    0    0 -0.14815185661E+02  0.14921812952E+02  0.39836706932E+02  0.46142318219E+02  0.10000004173E+02 0.  0.
         12    1    1    2    0    0  0.14815185661E+02 -0.14921812952E+02 -0.39836706932E+02  0.45045681781E+02  0.00000000000E+00 0. -1.
         11    1    3    3    0    0 -0.12889158884E+02  0.12063338949E+02  0.24842879127E+02  0.30476600973E+02  0.51100000000E-03 0.  1.
        -11    1    3    3    0    0 -0.17310022536E+01  0.71101542161E-01  0.51931777488E+01  0.54745337356E+01  0.51100000000E-03 0. -1.
        -12    1    3    3    0    0 -0.19502452402E+00  0.27873724613E+01  0.98006500564E+01  0.10191183510E+02  0.00000000000E+00 0.  1.
</event>
<event>
 7    1  0.2472338E-008  0.4614232E+02  0.7816164E-02  0.1320468E+00
        -11   -1    0    0    0    0  0.00000000000E+00  0.00000000000E+00  0.45593999997E+02  0.45594000000E+02  0.51100000000E-03 0.  1.
         11   -1    0    0    0    0 -0.00000000000E+00 -0.00000000000E+00 -0.45593999997E+02  0.45594000000E+02  0.51100000000E-03 0. -1.
    9900012    2    1    2    0    0 -0.38608887623E+02  0.21681997623E+02  0.82678997309E+01  0.46142318849E+02  0.10000009923E+02 0.  0.
         12    1    1    2    0    0  0.38608887623E+02 -0.21681997623E+02 -0.82678997309E+01  0.45045681151E+02  0.00000000000E+00 0. -1.
         11    1    3    3    0    0 -0.72708107057E+01  0.69732795170E+01  0.80877473265E+00  0.10106702349E+02  0.51100000000E-03 0. -1.
        -11    1    3    3    0    0 -0.72417975709E+01  0.16600985769E+01  0.39351955603E+01  0.84074564348E+01  0.51100000000E-03 0.  1.
        -12    1    3    3    0    0 -0.24096279346E+02  0.13048619529E+02  0.35239294379E+01  0.27628160066E+02  0.00000000000E+00 0.  1.
</event>
<event>
 7    1  0.2472338E-008  0.4614232E+02  0.7816164E-02  0.1320468E+00
        -11   -1    0    0    0    0  0.00000000000E+00  0.00000000000E+00  0.45593999997E+02  0.45594000000E+02  0.51100000000E-03 0.  1.
         11   -1    0    0    0    0 -0.00000000000E+00 -0.00000000000E+00 -0.45593999997E+02  0.45594000000E+02  0.51100000000E-03 0. -1.
    9900012    2    1    2    0    0  0.18232687168E+02 -0.37987571535E+02  0.15925669068E+02  0.46142318656E+02  0.10000008163E+02 0.  0.
         12    1    1    2    0    0 -0.18232687168E+02  0.37987571535E+02 -0.15925669068E+02  0.45045681344E+02  0.00000000000E+00 0. -1.
         11    1    3    3    0    0  0.69234811395E+01 -0.21829034404E+02  0.76401702592E+01  0.24141531351E+02  0.51100000000E-03 0. -1.
        -11    1    3    3    0    0  0.52440177252E+01 -0.10919442902E+02  0.66580383368E+01  0.13822569586E+02  0.51100000000E-03 0.  1.
         12    1    3    3    0    0  0.60651883034E+01 -0.52390942281E+01  0.16274604717E+01  0.81782177199E+01  0.00000000000E+00 0. -1.
</event>
<event>
 7    1  0.2472338E-008  0.4614232E+02  0.7816164E-02  0.1320468E+00
        -11   -1    0    0    0    0  0.00000000000E+00  0.00000000000E+00  0.45593999997E+02  0.45594000000E+02  0.51100000000E-03 0. -1.
         11   -1    0    0    0    0 -0.00000000000E+00 -0.00000000000E+00 -0.45593999997E+02  0.45594000000E+02  0.51100000000E-03 0.  1.
    9900012    2    1    2    0    0 -0.25249528291E+02  0.10500008852E+02 -0.35795594585E+02  0.46142318115E+02  0.10000003224E+02 0.  0.
         12    1    1    2    0    0  0.25249528291E+02 -0.10500008852E+02  0.35795594585E+02  0.45045681885E+02  0.00000000000E+00 0. -1.
         11    1    3    3    0    0 -0.19898632574E+02  0.64624586508E+01 -0.23316326192E+02  0.31326825844E+02  0.51100000000E-03 0. -1.
        -11    1    3    3    0    0 -0.55620617592E+01  0.35829955548E+01 -0.12658436836E+02  0.14283221330E+02  0.51100000000E-03 0.  1.
        -12    1    3    3    0    0  0.21116604152E+00  0.45455464617E+00  0.17916844309E+00  0.53227094082E+00  0.00000000000E+00 0.  1.
</event>
<event>
 7    1  0.2472338E-008  0.4614232E+02  0.7816164E-02  0.1320468E+00
        -11   -1    0    0    0    0  0.00000000000E+00  0.00000000000E+00  0.45593999997E+02  0.45594000000E+02  0.51100000000E-03 0.  1.
         11   -1    0    0    0    0 -0.00000000000E+00 -0.00000000000E+00 -0.45593999997E+02  0.45594000000E+02  0.51100000000E-03 0. -1.
    9900012    2    1    2    0    0  0.91838051481E+01 -0.38600477947E+02  0.21325441327E+02  0.46142316272E+02  0.99999864237E+01 0.  0.
         12    1    1    2    0    0 -0.91838051481E+01  0.38600477947E+02 -0.21325441327E+02  0.45045683728E+02  0.00000000000E+00 0. -1.
         11    1    3    3    0    0  0.18635286419E+01 -0.21655312152E+02  0.96580141364E+01  0.23784501692E+02  0.51100000000E-03 0. -1.
        -11    1    3    3    0    0  0.48006330339E+01 -0.15183463271E+02  0.90255675369E+01  0.18304220936E+02  0.51100000000E-03 0.  1.
         12    1    3    3    0    0  0.25196434723E+01 -0.17617025232E+01  0.26418596538E+01  0.40535936449E+01  0.00000000000E+00 0. -1.
</event>
<event>
 7    1  0.2472338E-008  0.4614232E+02  0.7816164E-02  0.1320468E+00
        -11   -1    0    0    0    0  0.00000000000E+00  0.00000000000E+00  0.45593999997E+02  0.45594000000E+02  0.51100000000E-03 0. -1.
         11   -1    0    0    0    0 -0.00000000000E+00 -0.00000000000E+00 -0.45593999997E+02  0.45594000000E+02  0.51100000000E-03 0.  1.
    9900012    2    1    2    0    0  0.14757499331E+02 -0.17082682836E+01 -0.42525421823E+02  0.46142317984E+02  0.10000002035E+02 0.  0.
         12    1    1    2    0    0 -0.14757499331E+02  0.17082682836E+01  0.42525421823E+02  0.45045682016E+02  0.00000000000E+00 0. -1.
         11    1    3    3    0    0  0.56393133007E+00  0.14429435808E+01 -0.18298959483E+01  0.23976288631E+01  0.51100000000E-03 0. -1.
        -11    1    3    3    0    0  0.89706015327E+01 -0.55040750381E+00 -0.15826265218E+02  0.18200145914E+02  0.51100000000E-03 0.  1.
         12    1    3    3    0    0  0.52229664683E+01 -0.26008043605E+01 -0.24869260656E+02  0.25544543207E+02  0.00000000000E+00 0. -1.
</event>
<event>
 7    1  0.2472338E-008  0.4614232E+02  0.7816164E-02  0.1320468E+00
        -11   -1    0    0    0    0  0.00000000000E+00  0.00000000000E+00  0.45593999997E+02  0.45594000000E+02  0.51100000000E-03 0.  1.
         11   -1    0    0    0    0 -0.00000000000E+00 -0.00000000000E+00 -0.45593999997E+02  0.45594000000E+02  0.51100000000E-03 0. -1.
    9900012    2    1    2    0    0  0.13995123974E+02  0.15414973227E+01  0.42788712103E+02  0.46142316606E+02  0.99999894640E+01 0.  0.
         12    1    1    2    0    0 -0.13995123974E+02 -0.15414973227E+01 -0.42788712103E+02  0.45045683394E+02  0.00000000000E+00 0. -1.
         11    1    3    3    0    0 -0.32708700824E+00  0.32868888485E+00  0.83957437831E+01  0.84085394823E+01  0.51100000000E-03 0. -1.
        -11    1    3    3    0    0  0.75314581722E+01  0.35676303860E+01  0.18750097486E+02  0.20518698905E+02  0.51100000000E-03 0.  1.
         12    1    3    3    0    0  0.67907528097E+01 -0.23548219481E+01  0.15642870834E+02  0.17215078218E+02  0.00000000000E+00 0. -1.
</event>
<event>
 7    1  0.2472338E-008  0.4614232E+02  0.7816164E-02  0.1320468E+00
        -11   -1    0    0    0    0  0.00000000000E+00  0.00000000000E+00  0.45593999997E+02  0.45594000000E+02  0.51100000000E-03 0. -1.
         11   -1    0    0    0    0 -0.00000000000E+00 -0.00000000000E+00 -0.45593999997E+02  0.45594000000E+02  0.51100000000E-03 0.  1.
    9900012    2    1    2    0    0 -0.23608631426E+02 -0.29582292922E+01 -0.38249115825E+02  0.46142318079E+02  0.10000002902E+02 0.  0.
         12    1    1    2    0    0  0.23608631426E+02  0.29582292922E+01  0.38249115825E+02  0.45045681921E+02  0.00000000000E+00 0. -1.
         11    1    3    3    0    0 -0.20288049280E+02 -0.12319807047E+01 -0.36147513786E+02  0.41470055139E+02  0.51100000000E-03 0.  1.
        -11    1    3    3    0    0 -0.10640113314E+01 -0.23139757403E+00  0.21450995358E+00  0.11098106739E+01  0.51100000000E-03 0. -1.
        -12    1    3    3    0    0 -0.22565708140E+01 -0.14948510135E+01 -0.23161119919E+01  0.35624522664E+01  0.00000000000E+00 0.  1.
</event>
<event>
 7    1  0.2472338E-008  0.4614232E+02  0.7816164E-02  0.1320468E+00
        -11   -1    0    0    0    0  0.00000000000E+00  0.00000000000E+00  0.45593999997E+02  0.45594000000E+02  0.51100000000E-03 0. -1.
         11   -1    0    0    0    0 -0.00000000000E+00 -0.00000000000E+00 -0.45593999997E+02  0.45594000000E+02  0.51100000000E-03 0.  1.
    9900012    2    1    2    0    0  0.38915283505E+02  0.15945757511E+02 -0.16138371566E+02  0.46142317524E+02  0.99999978406E+01 0.  0.
         12    1    1    2    0    0 -0.38915283505E+02 -0.15945757511E+02  0.16138371566E+02  0.45045682476E+02  0.00000000000E+00 0. -1.
         11    1    3    3    0    0  0.33798066189E+02  0.14292073100E+02 -0.14585192732E+02  0.39487978917E+02  0.51100000000E-03 0. -1.
        -11    1    3    3    0    0  0.49002489993E+01  0.22172306186E+00 -0.65163065237E+00  0.49483557006E+01  0.51100000000E-03 0.  1.
         12    1    3    3    0    0  0.21696831671E+00  0.14319613488E+01 -0.90154818163E+00  0.17059829069E+01  0.00000000000E+00 0. -1.
</event>
<event>
 7    1  0.2472338E-008  0.4614232E+02  0.7816164E-02  0.1320468E+00
        -11   -1    0    0    0    0  0.00000000000E+00  0.00000000000E+00  0.45593999997E+02  0.45594000000E+02  0.51100000000E-03 0. -1.
         11   -1    0    0    0    0 -0.00000000000E+00 -0.00000000000E+00 -0.45593999997E+02  0.45594000000E+02  0.51100000000E-03 0.  1.
    9900012    2    1    2    0    0 -0.27161891170E+02  0.32400307551E+02  0.15542374031E+02  0.46142315947E+02  0.99999834533E+01 0.  0.
         12    1    1    2    0    0  0.27161891170E+02 -0.32400307551E+02 -0.15542374031E+02  0.45045684053E+02  0.00000000000E+00 0. -1.
         11    1    3    3    0    0 -0.67852875606E+01  0.11449294274E+02  0.46871179393E+01  0.14110121951E+02  0.51100000000E-03 0. -1.
        -11    1    3    3    0    0 -0.14905975436E+02  0.14188243101E+02  0.10996204345E+02  0.23332613575E+02  0.51100000000E-03 0.  1.
         12    1    3    3    0    0 -0.54706281729E+01  0.67627701768E+01 -0.14094825369E+00  0.86995804198E+01  0.00000000000E+00 0. -1.
</event>
<event>
 7    1  0.2472338E-008  0.4614232E+02  0.7816164E-02  0.1320468E+00
        -11   -1    0    0    0    0  0.00000000000E+00  0.00000000000E+00  0.45593999997E+02  0.45594000000E+02  0.51100000000E-03 0.  1.
         11   -1    0    0    0    0 -0.00000000000E+00 -0.00000000000E+00 -0.45593999997E+02  0.45594000000E+02  0.51100000000E-03 0. -1.
    9900012    2    1    2    0    0 -0.25955712681E+02 -0.18085647081E+02  0.32067488074E+02  0.46142318271E+02  0.10000004645E+02 0.  0.
         12    1    1    2    0    0  0.25955712681E+02  0.18085647081E+02 -0.32067488074E+02  0.45045681729E+02  0.00000000000E+00 0. -1.
         11    1    3    3    0    0 -0.45608288671E+01 -0.23981841271E+01  0.10893177174E+02  0.12050467056E+02  0.51100000000E-03 0. -1.
        -11    1    3    3    0    0 -0.54168745212E+01 -0.53338744431E+01  0.48956316436E+01  0.90421211894E+01  0.51100000000E-03 0.  1.
         12    1    3    3    0    0 -0.15978009292E+02 -0.10353588511E+02  0.16278679256E+02  0.25049730025E+02  0.00000000000E+00 0. -1.
</event>
<event>
 7    1  0.2472338E-008  0.4614232E+02  0.7816164E-02  0.1320468E+00
        -11   -1    0    0    0    0  0.00000000000E+00  0.00000000000E+00  0.45593999997E+02  0.45594000000E+02  0.51100000000E-03 0.  1.
         11   -1    0    0    0    0 -0.00000000000E+00 -0.00000000000E+00 -0.45593999997E+02  0.45594000000E+02  0.51100000000E-03 0. -1.
    9900012    2    1    2    0    0  0.34039293153E+02  0.19836542252E+02  0.21839221511E+02  0.46142317820E+02  0.10000000536E+02 0.  0.
         12    1    1    2    0    0 -0.34039293153E+02 -0.19836542252E+02 -0.21839221511E+02  0.45045682180E+02  0.00000000000E+00 0. -1.
         11    1    3    3    0    0  0.11486317915E+02  0.31462792368E+01  0.61947136226E+01  0.13424196416E+02  0.51100000000E-03 0. -1.
        -11    1    3    3    0    0  0.20126742326E+02  0.15498625906E+02  0.15954516438E+02  0.29997329158E+02  0.51100000000E-03 0.  1.
        -12    1    3    3    0    0  0.24262329124E+01  0.11916371091E+01 -0.31000854913E+00  0.27207922459E+01  0.00000000000E+00 0.  1.
</event>
<event>
 7    1  0.2472338E-008  0.4614232E+02  0.7816164E-02  0.1320468E+00
        -11   -1    0    0    0    0  0.00000000000E+00  0.00000000000E+00  0.45593999997E+02  0.45594000000E+02  0.51100000000E-03 0.  1.
         11   -1    0    0    0    0 -0.00000000000E+00 -0.00000000000E+00 -0.45593999997E+02  0.45594000000E+02  0.51100000000E-03 0. -1.
    9900012    2    1    2    0    0 -0.38045301262E+02  0.11915828166E+02  0.20968585496E+02  0.46142317780E+02  0.10000000171E+02 0.  0.
         12    1    1    2    0    0  0.38045301262E+02 -0.11915828166E+02 -0.20968585496E+02  0.45045682220E+02  0.00000000000E+00 0. -1.
         11    1    3    3    0    0 -0.58454729213E+01  0.89976404719E+00  0.73830999776E+01  0.94598781469E+01  0.51100000000E-03 0. -1.
        -11    1    3    3    0    0 -0.15579516748E+00 -0.60999928198E-01  0.39161396855E-01  0.17183422702E+00  0.51100000000E-03 0.  1.
         12    1    3    3    0    0 -0.32044033173E+02  0.11077064047E+02  0.13546324121E+02  0.36510605406E+02  0.00000000000E+00 0. -1.
</event>
<event>
 7    1  0.2472338E-008  0.4614232E+02  0.7816164E-02  0.1320468E+00
        -11   -1    0    0    0    0  0.00000000000E+00  0.00000000000E+00  0.45593999997E+02  0.45594000000E+02  0.51100000000E-03 0.  1.
         11   -1    0    0    0    0 -0.00000000000E+00 -0.00000000000E+00 -0.45593999997E+02  0.45594000000E+02  0.51100000000E-03 0. -1.
    9900012    2    1    2    0    0  0.68198993797E+00 -0.73359441296E+01  0.44439085549E+02  0.46142317510E+02  0.99999977090E+01 0.  0.
         12    1    1    2    0    0 -0.68198993797E+00  0.73359441296E+01 -0.44439085549E+02  0.45045682490E+02  0.00000000000E+00 0. -1.
         11    1    3    3    0    0  0.11764469783E+00 -0.50008307495E+01  0.29701965240E+02  0.30120240501E+02  0.51100000000E-03 0. -1.
        -11    1    3    3    0    0  0.15075986062E+01 -0.36905748198E+01  0.13114023964E+02  0.13706597712E+02  0.51100000000E-03 0.  1.
         12    1    3    3    0    0 -0.94325336608E+00  0.13554614397E+01  0.16230963456E+01  0.23154792968E+01  0.00000000000E+00 0. -1.
</event>
<event>
 7    1  0.2472338E-008  0.4614232E+02  0.7816164E-02  0.1320468E+00
        -11   -1    0    0    0    0  0.00000000000E+00  0.00000000000E+00  0.45593999997E+02  0.45594000000E+02  0.51100000000E-03 0.  1.
         11   -1    0    0    0    0 -0.00000000000E+00 -0.00000000000E+00 -0.45593999997E+02  0.45594000000E+02  0.51100000000E-03 0. -1.
    9900012    2    1    2    0    0  0.96853219187E+01 -0.72813750304E+01  0.43385361149E+02  0.46142318242E+02  0.10000004383E+02 0.  0.
         12    1    1    2    0    0 -0.96853219187E+01  0.72813750304E+01 -0.43385361149E+02  0.45045681758E+02  0.00000000000E+00 0. -1.
         11    1    3    3    0    0  0.40722172964E+00 -0.24517928710E+01  0.37644128357E+01  0.45108671093E+01  0.51100000000E-03 0. -1.
        -11    1    3    3    0    0  0.40199856672E+01 -0.59252808550E+01  0.18474112339E+02  0.19813179072E+02  0.51100000000E-03 0.  1.
         12    1    3    3    0    0  0.52581145218E+01  0.10956986955E+01  0.21146835975E+02  0.21818272060E+02  0.00000000000E+00 0. -1.
</event>
<event>
 7    1  0.2472338E-008  0.4614232E+02  0.7816164E-02  0.1320468E+00
        -11   -1    0    0    0    0  0.00000000000E+00  0.00000000000E+00  0.45593999997E+02  0.45594000000E+02  0.51100000000E-03 0.  1.
         11   -1    0    0    0    0 -0.00000000000E+00 -0.00000000000E+00 -0.45593999997E+02  0.45594000000E+02  0.51100000000E-03 0. -1.
    9900012    2    1    2    0    0 -0.23866293252E+02  0.15415885125E+02  0.34955170704E+02  0.46142318445E+02  0.10000006238E+02 0.  0.
         12    1    1    2    0    0  0.23866293252E+02 -0.15415885125E+02 -0.34955170704E+02  0.45045681555E+02  0.00000000000E+00 0. -1.
         11    1    3    3    0    0 -0.78499269010E+01  0.51112362804E+01  0.82888633041E+01  0.12508051159E+02  0.51100000000E-03 0. -1.
        -11    1    3    3    0    0 -0.15278824672E+02  0.67413469194E+01  0.20149998556E+02  0.26170798301E+02  0.51100000000E-03 0.  1.
         12    1    3    3    0    0 -0.73754167917E+00  0.35633019250E+01  0.65163088444E+01  0.74634689851E+01  0.00000000000E+00 0. -1.
</event>
<event>
 7    1  0.2472338E-008  0.4614232E+02  0.7816164E-02  0.1320468E+00
        -11   -1    0    0    0    0  0.00000000000E+00  0.00000000000E+00  0.45593999997E+02  0.45594000000E+02  0.51100000000E-03 0.  1.
         11   -1    0    0    0    0 -0.00000000000E+00 -0.00000000000E+00 -0.45593999997E+02  0.45594000000E+02  0.51100000000E-03 0. -1.
    9900012    2    1    2    0    0 -0.40888239443E+02  0.75887839120E+01  0.17311141907E+02  0.46142318740E+02  0.10000008931E+02 0.  0.
         12    1    1    2    0    0  0.40888239443E+02 -0.75887839120E+01 -0.17311141907E+02  0.45045681260E+02  0.00000000000E+00 0. -1.
         11    1    3    3    0    0 -0.63946660156E+01 -0.35510190578E+00  0.53119221258E+01  0.83207191844E+01  0.51100000000E-03 0. -1.
        -11    1    3    3    0    0 -0.16447772558E+02  0.11913357387E+01  0.70056081354E+01  0.17917227703E+02  0.51100000000E-03 0.  1.
        -12    1    3    3    0    0 -0.18045800869E+02  0.67525500792E+01  0.49936116463E+01  0.19904371853E+02  0.00000000000E+00 0.  1.
</event>
<event>
 7    1  0.2472338E-008  0.4614232E+02  0.7816164E-02  0.1320468E+00
        -11   -1    0    0    0    0  0.00000000000E+00  0.00000000000E+00  0.45593999997E+02  0.45594000000E+02  0.51100000000E-03 0.  1.
         11   -1    0    0    0    0 -0.00000000000E+00 -0.00000000000E+00 -0.45593999997E+02  0.45594000000E+02  0.51100000000E-03 0. -1.
    9900012    2    1    2    0    0 -0.33343984741E+02 -0.71243966084E+01  0.29436968619E+02  0.46142317999E+02  0.10000002170E+02 0.  0.
         12    1    1    2    0    0  0.33343984741E+02  0.71243966084E+01 -0.29436968619E+02  0.45045682001E+02  0.00000000000E+00 0. -1.
         11    1    3    3    0    0 -0.19273917451E+01  0.46245016028E+00  0.29546807535E+00  0.20039961912E+01  0.51100000000E-03 0. -1.
        -11    1    3    3    0    0 -0.25061712188E+01  0.16465523100E+00  0.22725247205E+00  0.25218345446E+01  0.51100000000E-03 0.  1.
        -12    1    3    3    0    0 -0.28910421777E+02 -0.77515019997E+01  0.28914248072E+02  0.41616487263E+02  0.00000000000E+00 0.  1.
</event>
<event>
 7    1  0.2472338E-008  0.4614232E+02  0.7816164E-02  0.1320468E+00
        -11   -1    0    0    0    0  0.00000000000E+00  0.00000000000E+00  0.45593999997E+02  0.45594000000E+02  0.51100000000E-03 0.  1.
         11   -1    0    0    0    0 -0.00000000000E+00 -0.00000000000E+00 -0.45593999997E+02  0.45594000000E+02  0.51100000000E-03 0. -1.
    9900012    2    1    2    0    0 -0.73569972311E-01 -0.86908533642E+01  0.44199286171E+02  0.46142320487E+02  0.10000024861E+02 0.  0.
         12    1    1    2    0    0  0.73569972311E-01  0.86908533642E+01 -0.44199286171E+02  0.45045679513E+02  0.00000000000E+00 0. -1.
         11    1    3    3    0    0 -0.18259352519E+01 -0.33733741307E+01  0.23076535756E+02  0.23393165569E+02  0.51100000000E-03 0. -1.
        -11    1    3    3    0    0  0.10859599380E+01 -0.14393827060E+01  0.16828018255E+02  0.16924341353E+02  0.51100000000E-03 0.  1.
         12    1    3    3    0    0  0.66640534153E+00 -0.38780965275E+01  0.42947321589E+01  0.58248135655E+01  0.00000000000E+00 0. -1.
</event>
<event>
 7    1  0.2472338E-008  0.4614232E+02  0.7816164E-02  0.1320468E+00
        -11   -1    0    0    0    0  0.00000000000E+00  0.00000000000E+00  0.45593999997E+02  0.45594000000E+02  0.51100000000E-03 0. -1.
         11   -1    0    0    0    0 -0.00000000000E+00 -0.00000000000E+00 -0.45593999997E+02  0.45594000000E+02  0.51100000000E-03 0.  1.
    9900012    2    1    2    0    0 -0.20789052314E+02 -0.27627807640E+02 -0.28872706359E+02  0.46142316260E+02  0.99999863116E+01 0.  0.
         12    1    1    2    0    0  0.20789052314E+02  0.27627807640E+02  0.28872706359E+02  0.45045683740E+02  0.00000000000E+00 0. -1.
         11    1    3    3    0    0 -0.41909858844E+01 -0.27861713878E+01 -0.36435289932E+01  0.62130843766E+01  0.51100000000E-03 0.  1.
        -11    1    3    3    0    0 -0.47797300926E+01 -0.25155995222E+01 -0.25163693731E+01  0.59587058827E+01  0.51100000000E-03 0. -1.
        -12    1    3    3    0    0 -0.11818336337E+02 -0.22326036730E+02 -0.22712807992E+02  0.33970526001E+02  0.00000000000E+00 0.  1.
</event>
<event>
 7    1  0.2472338E-008  0.4614232E+02  0.7816164E-02  0.1320468E+00
        -11   -1    0    0    0    0  0.00000000000E+00  0.00000000000E+00  0.45593999997E+02  0.45594000000E+02  0.51100000000E-03 0.  1.
         11   -1    0    0    0    0 -0.00000000000E+00 -0.00000000000E+00 -0.45593999997E+02  0.45594000000E+02  0.51100000000E-03 0. -1.
    9900012    2    1    2    0    0  0.50618448621E+01 -0.34144715944E+02  0.28941828747E+02  0.46142319280E+02  0.10000013855E+02 0.  0.
         12    1    1    2    0    0 -0.50618448621E+01  0.34144715944E+02 -0.28941828747E+02  0.45045680720E+02  0.00000000000E+00 0. -1.
         11    1    3    3    0    0 -0.13842907119E+01 -0.34425576119E+01  0.36401758867E+01  0.51979173169E+01  0.51100000000E-03 0. -1.
        -11    1    3    3    0    0  0.16122258319E+01 -0.32339998283E+01  0.60773423540E+01  0.70705104038E+01  0.51100000000E-03 0.  1.
         12    1    3    3    0    0  0.48339097421E+01 -0.27468158503E+02  0.19224310506E+02  0.33873891560E+02  0.00000000000E+00 0. -1.
</event>
<event>
 7    1  0.2472338E-008  0.4614231E+02  0.7816164E-02  0.1320468E+00
        -11   -1    0    0    0    0  0.00000000000E+00  0.00000000000E+00  0.45593999997E+02  0.45594000000E+02  0.51100000000E-03 0.  1.
         11   -1    0    0    0    0 -0.00000000000E+00 -0.00000000000E+00 -0.45593999997E+02  0.45594000000E+02  0.51100000000E-03 0. -1.
    9900012    2    1    2    0    0  0.11932203840E+02  0.52954450929E+01  0.43112580660E+02  0.46142313876E+02  0.99999645715E+01 0.  0.
         12    1    1    2    0    0 -0.11932203840E+02 -0.52954450929E+01 -0.43112580660E+02  0.45045686124E+02  0.00000000000E+00 0. -1.
         11    1    3    3    0    0  0.84404087824E+00  0.25009308089E+01  0.94016621529E+01  0.97651580332E+01  0.51100000000E-03 0. -1.
        -11    1    3    3    0    0  0.12949601944E+01  0.35873485822E+01  0.10558411592E+02  0.11226132342E+02  0.51100000000E-03 0.  1.
        -12    1    3    3    0    0  0.97932027672E+01 -0.79283429819E+00  0.23152506916E+02  0.25151023501E+02  0.00000000000E+00 0.  1.
</event>
<event>
 7    1  0.2472338E-008  0.4614232E+02  0.7816164E-02  0.1320468E+00
        -11   -1    0    0    0    0  0.00000000000E+00  0.00000000000E+00  0.45593999997E+02  0.45594000000E+02  0.51100000000E-03 0.  1.
         11   -1    0    0    0    0 -0.00000000000E+00 -0.00000000000E+00 -0.45593999997E+02  0.45594000000E+02  0.51100000000E-03 0. -1.
    9900012    2    1    2    0    0 -0.31106923968E+02 -0.99636101115E+00  0.32565014013E+02  0.46142316615E+02  0.99999895447E+01 0.  0.
         12    1    1    2    0    0  0.31106923968E+02  0.99636101115E+00 -0.32565014013E+02  0.45045683385E+02  0.00000000000E+00 0. -1.
         11    1    3    3    0    0 -0.82422162008E+01  0.23772989711E+01  0.10784938314E+02  0.13780441684E+02  0.51100000000E-03 0. -1.
        -11    1    3    3    0    0 -0.18297366957E+01  0.11805025236E+01  0.84090492255E+00  0.23342330505E+01  0.51100000000E-03 0.  1.
        -12    1    3    3    0    0 -0.21034971071E+02 -0.45541625059E+01  0.20939170777E+02  0.30027641881E+02  0.00000000000E+00 0.  1.
</event>
<event>
 7    1  0.2472338E-008  0.4614232E+02  0.7816164E-02  0.1320468E+00
        -11   -1    0    0    0    0  0.00000000000E+00  0.00000000000E+00  0.45593999997E+02  0.45594000000E+02  0.51100000000E-03 0. -1.
         11   -1    0    0    0    0 -0.00000000000E+00 -0.00000000000E+00 -0.45593999997E+02  0.45594000000E+02  0.51100000000E-03 0.  1.
    9900012    2    1    2    0    0 -0.10775675144E+02 -0.39465775420E+02 -0.18853406027E+02  0.46142317375E+02  0.99999964827E+01 0.  0.
         12    1    1    2    0    0  0.10775675144E+02  0.39465775420E+02  0.18853406027E+02  0.45045682625E+02  0.00000000000E+00 0. -1.
         11    1    3    3    0    0 -0.43001453413E+01 -0.16501291831E+02 -0.37700657889E+01  0.17464171276E+02  0.51100000000E-03 0. -1.
        -11    1    3    3    0    0 -0.32542509587E+00  0.18687832008E+00 -0.89381188906E-02  0.37537334832E+00  0.51100000000E-03 0.  1.
        -12    1    3    3    0    0 -0.61501047071E+01 -0.23151361909E+02 -0.15074402119E+02  0.28302772751E+02  0.00000000000E+00 0.  1.
</event>
<event>
 7    1  0.2472338E-008  0.4614232E+02  0.7816164E-02  0.1320468E+00
        -11   -1    0    0    0    0  0.00000000000E+00  0.00000000000E+00  0.45593999997E+02  0.45594000000E+02  0.51100000000E-03 0. -1.
         11   -1    0    0    0    0 -0.00000000000E+00 -0.00000000000E+00 -0.45593999997E+02  0.45594000000E+02  0.51100000000E-03 0.  1.
    9900012    2    1    2    0    0  0.30958983063E+02 -0.19438315006E+02 -0.26321221789E+02  0.46142318309E+02  0.10000004995E+02 0.  0.
         12    1    1    2    0    0 -0.30958983063E+02  0.19438315006E+02  0.26321221789E+02  0.45045681691E+02  0.00000000000E+00 0. -1.
         11    1    3    3    0    0  0.30704420821E+00  0.69623620544E+00  0.36204358606E-01  0.76179525875E+00  0.51100000000E-03 0. -1.
        -11    1    3    3    0    0  0.83809149550E+01 -0.54917927465E+01 -0.48514257364E+01  0.11132648157E+02  0.51100000000E-03 0.  1.
         12    1    3    3    0    0  0.22271023900E+02 -0.14642758464E+02 -0.21506000411E+02  0.34247874893E+02  0.00000000000E+00 0. -1.
</event>
<event>
 7    1  0.2472338E-008  0.4614231E+02  0.7816164E-02  0.1320468E+00
        -11   -1    0    0    0    0  0.00000000000E+00  0.00000000000E+00  0.45593999997E+02  0.45594000000E+02  0.51100000000E-03 0.  1.
         11   -1    0    0    0    0 -0.00000000000E+00 -0.00000000000E+00 -0.45593999997E+02  0.45594000000E+02  0.51100000000E-03 0. -1.
    9900012    2    1    2    0    0  0.28581860808E+02 -0.22049991060E+02  0.26944193702E+02  0.46142307118E+02  0.99999029455E+01 0.  0.
         12    1    1    2    0    0 -0.28581860808E+02  0.22049991060E+02 -0.26944193702E+02  0.45045692882E+02  0.00000000000E+00 0. -1.
         11    1    3    3    0    0  0.38546970610E+01 -0.53588272542E+01  0.17453332349E+01  0.68280236771E+01  0.51100000000E-03 0. -1.
        -11    1    3    3    0    0  0.21791250447E+02 -0.15632068099E+02  0.20892549585E+02  0.33995864124E+02  0.51100000000E-03 0.  1.
         12    1    3    3    0    0  0.29359132995E+01 -0.10590957070E+01  0.43063108814E+01  0.53184193165E+01  0.00000000000E+00 0. -1.
</event>
<event>
 7    1  0.2472338E-008  0.4614232E+02  0.7816164E-02  0.1320468E+00
        -11   -1    0    0    0    0  0.00000000000E+00  0.00000000000E+00  0.45593999997E+02  0.45594000000E+02  0.51100000000E-03 0. -1.
         11   -1    0    0    0    0 -0.00000000000E+00 -0.00000000000E+00 -0.45593999997E+02  0.45594000000E+02  0.51100000000E-03 0.  1.
    9900012    2    1    2    0    0 -0.44435122674E+02 -0.21124385984E+01  0.70831481858E+01  0.46142317498E+02  0.99999975975E+01 0.  0.
         12    1    1    2    0    0  0.44435122674E+02  0.21124385984E+01 -0.70831481858E+01  0.45045682502E+02  0.00000000000E+00 0. -1.
         11    1    3    3    0    0 -0.11563801074E+02 -0.22086002167E+01  0.43492647147E+01  0.12550518476E+02  0.51100000000E-03 0. -1.
        -11    1    3    3    0    0 -0.12185808383E+02  0.85799580240E+00  0.39983620158E+01  0.12853675809E+02  0.51100000000E-03 0.  1.
         12    1    3    3    0    0 -0.20685513218E+02 -0.76183418409E+00 -0.12644785447E+01  0.20738123213E+02  0.00000000000E+00 0. -1.
</event>
<event>
 7    1  0.2472338E-008  0.4614232E+02  0.7816164E-02  0.1320468E+00
        -11   -1    0    0    0    0  0.00000000000E+00  0.00000000000E+00  0.45593999997E+02  0.45594000000E+02  0.51100000000E-03 0.  1.
         11   -1    0    0    0    0 -0.00000000000E+00 -0.00000000000E+00 -0.45593999997E+02  0.45594000000E+02  0.51100000000E-03 0. -1.
    9900012    2    1    2    0    0 -0.40043584005E+02 -0.17328475812E+02  0.11195934914E+02  0.46142315939E+02  0.99999833855E+01 0.  0.
         12    1    1    2    0    0  0.40043584005E+02  0.17328475812E+02 -0.11195934914E+02  0.45045684061E+02  0.00000000000E+00 0. -1.
         11    1    3    3    0    0  0.25600918801E+00 -0.86457268925E+00 -0.14581606438E+00  0.91339434260E+00  0.51100000000E-03 0. -1.
        -11    1    3    3    0    0 -0.30980523064E+02 -0.10471163317E+02  0.82880056926E+01  0.33736169154E+02  0.51100000000E-03 0.  1.
        -12    1    3    3    0    0 -0.93190701282E+01 -0.59927398058E+01  0.30537452861E+01  0.11492752443E+02  0.00000000000E+00 0.  1.
</event>
<event>
 7    1  0.2472338E-008  0.4614232E+02  0.7816164E-02  0.1320468E+00
        -11   -1    0    0    0    0  0.00000000000E+00  0.00000000000E+00  0.45593999997E+02  0.45594000000E+02  0.51100000000E-03 0.  1.
         11   -1    0    0    0    0 -0.00000000000E+00 -0.00000000000E+00 -0.45593999997E+02  0.45594000000E+02  0.51100000000E-03 0. -1.
    9900012    2    1    2    0    0  0.42668747850E+02  0.55919734988E+01 -0.13312450697E+02  0.46142317030E+02  0.99999933316E+01 0.  0.
         12    1    1    2    0    0 -0.42668747850E+02 -0.55919734988E+01  0.13312450697E+02  0.45045682970E+02  0.00000000000E+00 0. -1.
         11    1    3    3    0    0  0.17371085577E+02  0.59461758054E+01 -0.56967234187E+01  0.19224054692E+02  0.51100000000E-03 0. -1.
        -11    1    3    3    0    0  0.24666064376E+02 -0.10483180280E+01 -0.66426002688E+01  0.25566341957E+02  0.51100000000E-03 0.  1.
        -12    1    3    3    0    0  0.63159789682E+00  0.69411572134E+00 -0.97312700980E+00  0.13519203805E+01  0.00000000000E+00 0.  1.
</event>
<event>
 7    1  0.2472338E-008  0.4614232E+02  0.7816164E-02  0.1320468E+00
        -11   -1    0    0    0    0  0.00000000000E+00  0.00000000000E+00  0.45593999997E+02  0.45594000000E+02  0.51100000000E-03 0. -1.
         11   -1    0    0    0    0 -0.00000000000E+00 -0.00000000000E+00 -0.45593999997E+02  0.45594000000E+02  0.51100000000E-03 0.  1.
    9900012    2    1    2    0    0 -0.10417563841E+02  0.11268718680E+02 -0.42350960995E+02  0.46142317029E+02  0.99999933281E+01 0.  0.
         12    1    1    2    0    0  0.10417563841E+02 -0.11268718680E+02  0.42350960995E+02  0.45045682971E+02  0.00000000000E+00 0. -1.
         11    1    3    3    0    0 -0.48944311063E+01  0.23581885868E+01 -0.54217980500E+01  0.76754415913E+01  0.51100000000E-03 0. -1.
        -11    1    3    3    0    0 -0.44254405239E+01  0.54282436183E+01 -0.21516600059E+02  0.22627735878E+02  0.51100000000E-03 0.  1.
         12    1    3    3    0    0 -0.10976922108E+01  0.34822864751E+01 -0.15412562886E+02  0.15839139560E+02  0.00000000000E+00 0. -1.
</event>
<event>
 7    1  0.2472338E-008  0.4614231E+02  0.7816164E-02  0.1320468E+00
        -11   -1    0    0    0    0  0.00000000000E+00  0.00000000000E+00  0.45593999997E+02  0.45594000000E+02  0.51100000000E-03 0.  1.
         11   -1    0    0    0    0 -0.00000000000E+00 -0.00000000000E+00 -0.45593999997E+02  0.45594000000E+02  0.51100000000E-03 0. -1.
    9900012    2    1    2    0    0 -0.75819442224E+01  0.40686048187E+02  0.17784089052E+02  0.46142309655E+02  0.99999260793E+01 0.  0.
         12    1    1    2    0    0  0.75819442224E+01 -0.40686048187E+02 -0.17784089052E+02  0.45045690345E+02  0.00000000000E+00 0. -1.
         11    1    3    3    0    0 -0.93828214935E+00  0.96011808783E+01  0.70029297513E+01  0.11920741295E+02  0.51100000000E-03 0. -1.
        -11    1    3    3    0    0  0.42184946358E+00  0.12368395976E+02  0.54168904252E+01  0.13509177552E+02  0.51100000000E-03 0.  1.
         12    1    3    3    0    0 -0.70655115367E+01  0.18716471333E+02  0.53642688754E+01  0.20712390808E+02  0.00000000000E+00 0. -1.
</event>
<event>
 7    1  0.2472338E-008  0.4614231E+02  0.7816164E-02  0.1320468E+00
        -11   -1    0    0    0    0  0.00000000000E+00  0.00000000000E+00  0.45593999997E+02  0.45594000000E+02  0.51100000000E-03 0.  1.
         11   -1    0    0    0    0 -0.00000000000E+00 -0.00000000000E+00 -0.45593999997E+02  0.45594000000E+02  0.51100000000E-03 0. -1.
    9900012    2    1    2    0    0 -0.35880852123E+01 -0.41132255049E+01  0.44713767006E+02  0.46142312755E+02  0.99999543499E+01 0.  0.
         12    1    1    2    0    0  0.35880852123E+01  0.41132255049E+01 -0.44713767006E+02  0.45045687245E+02  0.00000000000E+00 0. -1.
         11    1    3    3    0    0  0.77631607979E+00 -0.17473187695E+01  0.28695396314E+02  0.28759025703E+02  0.51100000000E-03 0. -1.
        -11    1    3    3    0    0 -0.44128679403E+01 -0.34897730352E+01  0.13227469136E+02  0.14374208128E+02  0.51100000000E-03 0.  1.
         12    1    3    3    0    0  0.48466648209E-01  0.11238662998E+01  0.27909015556E+01  0.30090789236E+01  0.00000000000E+00 0. -1.
</event>
<event>
 7    1  0.2472338E-008  0.4614232E+02  0.7816164E-02  0.1320468E+00
        -11   -1    0    0    0    0  0.00000000000E+00  0.00000000000E+00  0.45593999997E+02  0.45594000000E+02  0.51100000000E-03 0.  1.
         11   -1    0    0    0    0 -0.00000000000E+00 -0.00000000000E+00 -0.45593999997E+02  0.45594000000E+02  0.51100000000E-03 0. -1.
    9900012    2    1    2    0    0  0.19010700401E+02  0.37690977721E+02  0.15719316437E+02  0.46142318292E+02  0.10000004839E+02 0.  0.
         12    1    1    2    0    0 -0.19010700401E+02 -0.37690977721E+02 -0.15719316437E+02  0.45045681708E+02  0.00000000000E+00 0. -1.
         11    1    3    3    0    0  0.84450025056E+01  0.16868778296E+02  0.97979827897E+01  0.21257333218E+02  0.51100000000E-03 0.  1.
        -11    1    3    3    0    0  0.48987947281E+01  0.14572193843E+02  0.58473411055E+01  0.16448052208E+02  0.51100000000E-03 0. -1.
         12    1    3    3    0    0  0.56669031674E+01  0.62500055818E+01  0.73992542278E-01  0.84369328656E+01  0.00000000000E+00 0. -1.
</event>
<event>
 7    1  0.2472338E-008  0.4614232E+02  0.7816164E-02  0.1320468E+00
        -11   -1    0    0    0    0  0.00000000000E+00  0.00000000000E+00  0.45593999997E+02  0.45594000000E+02  0.51100000000E-03 0.  1.
         11   -1    0    0    0    0 -0.00000000000E+00 -0.00000000000E+00 -0.45593999997E+02  0.45594000000E+02  0.51100000000E-03 0. -1.
    9900012    2    1    2    0    0  0.35739561193E+02 -0.26113819545E+02  0.83585725662E+01  0.46142317178E+02  0.99999946862E+01 0.  0.
         12    1    1    2    0    0 -0.35739561193E+02  0.26113819545E+02 -0.83585725662E+01  0.45045682822E+02  0.00000000000E+00 0. -1.
         11    1    3    3    0    0  0.14495873541E+01 -0.17548301378E+01 -0.88823492229E+00  0.24432956939E+01  0.51100000000E-03 0. -1.
        -11    1    3    3    0    0  0.14450679575E+02 -0.84114378921E+01  0.31604005464E+00  0.16723465824E+02  0.51100000000E-03 0.  1.
         12    1    3    3    0    0  0.19839294265E+02 -0.15947551515E+02  0.89307674338E+01  0.26975555661E+02  0.00000000000E+00 0. -1.
</event>
<event>
 7    1  0.2472338E-008  0.4614232E+02  0.7816164E-02  0.1320468E+00
        -11   -1    0    0    0    0  0.00000000000E+00  0.00000000000E+00  0.45593999997E+02  0.45594000000E+02  0.51100000000E-03 0. -1.
         11   -1    0    0    0    0 -0.00000000000E+00 -0.00000000000E+00 -0.45593999997E+02  0.45594000000E+02  0.51100000000E-03 0.  1.
    9900012    2    1    2    0    0  0.42257890921E+02 -0.44291501063E+01 -0.14958840978E+02  0.46142316088E+02  0.99999847393E+01 0.  0.
         12    1    1    2    0    0 -0.42257890921E+02  0.44291501063E+01  0.14958840978E+02  0.45045683912E+02  0.00000000000E+00 0. -1.
         11    1    3    3    0    0  0.26693579198E+01 -0.25114203580E+01 -0.48919685217E+00  0.36975691664E+01  0.51100000000E-03 0. -1.
        -11    1    3    3    0    0  0.10430793103E+02  0.13372757346E+01 -0.47357179071E+01  0.11533289883E+02  0.51100000000E-03 0.  1.
        -12    1    3    3    0    0  0.29157739898E+02 -0.32550054829E+01 -0.97339262183E+01  0.30911457039E+02  0.00000000000E+00 0.  1.
</event>
<event>
 7    1  0.2472338E-008  0.4614232E+02  0.7816164E-02  0.1320468E+00
        -11   -1    0    0    0    0  0.00000000000E+00  0.00000000000E+00  0.45593999997E+02  0.45594000000E+02  0.51100000000E-03 0.  1.
         11   -1    0    0    0    0 -0.00000000000E+00 -0.00000000000E+00 -0.45593999997E+02  0.45594000000E+02  0.51100000000E-03 0. -1.
    9900012    2    1    2    0    0  0.33551016312E+02  0.20685727130E+02  0.21806963591E+02  0.46142315817E+02  0.99999822692E+01 0.  0.
         12    1    1    2    0    0 -0.33551016312E+02 -0.20685727130E+02 -0.21806963591E+02  0.45045684183E+02  0.00000000000E+00 0. -1.
         11    1    3    3    0    0  0.23034235984E+02  0.17222297979E+02  0.17927719885E+02  0.33890805767E+02  0.51100000000E-03 0.  1.
        -11    1    3    3    0    0  0.82143569439E+01  0.20104823854E+01  0.43154476176E+01  0.94942502509E+01  0.51100000000E-03 0. -1.
         12    1    3    3    0    0  0.23024233844E+01  0.14529467656E+01 -0.43620391098E+00  0.27572597985E+01  0.00000000000E+00 0. -1.
</event>
<event>
 7    1  0.2472338E-008  0.4614232E+02  0.7816164E-02  0.1320468E+00
        -11   -1    0    0    0    0  0.00000000000E+00  0.00000000000E+00  0.45593999997E+02  0.45594000000E+02  0.51100000000E-03 0.  1.
         11   -1    0    0    0    0 -0.00000000000E+00 -0.00000000000E+00 -0.45593999997E+02  0.45594000000E+02  0.51100000000E-03 0. -1.
    9900012    2    1    2    0    0 -0.13161176119E+02 -0.41159937304E+02  0.12718353339E+02  0.46142317551E+02  0.99999980817E+01 0.  0.
         12    1    1    2    0    0  0.13161176119E+02  0.41159937304E+02 -0.12718353339E+02  0.45045682449E+02  0.00000000000E+00 0. -1.
         11    1    3    3    0    0 -0.75226102781E+01 -0.12484000165E+02  0.40215057779E+01  0.15119935003E+02  0.51100000000E-03 0. -1.
        -11    1    3    3    0    0 -0.53075840893E+01 -0.18642570426E+02  0.79677354624E+01  0.20957115489E+02  0.51100000000E-03 0.  1.
         12    1    3    3    0    0 -0.33098175122E+00 -0.10033366713E+02  0.72911209832E+00  0.10065267059E+02  0.00000000000E+00 0. -1.
</event>
<event>
 7    1  0.2472338E-008  0.4614232E+02  0.7816164E-02  0.1320468E+00
        -11   -1    0    0    0    0  0.00000000000E+00  0.00000000000E+00  0.45593999997E+02  0.45594000000E+02  0.51100000000E-03 0.  1.
         11   -1    0    0    0    0 -0.00000000000E+00 -0.00000000000E+00 -0.45593999997E+02  0.45594000000E+02  0.51100000000E-03 0. -1.
    9900012    2    1    2    0    0 -0.12170644817E+01 -0.36959476516E+02  0.25722156473E+02  0.46142317811E+02  0.10000000456E+02 0.  0.
         12    1    1    2    0    0  0.12170644817E+01  0.36959476516E+02 -0.25722156473E+02  0.45045682189E+02  0.00000000000E+00 0. -1.
         11    1    3    3    0    0 -0.17719514237E+00 -0.22375158863E+02  0.17221537143E+02  0.28235801283E+02  0.51100000000E-03 0. -1.
        -11    1    3    3    0    0  0.50424416780E+00 -0.13657986954E+02  0.85205747918E+01  0.16105746330E+02  0.51100000000E-03 0.  1.
         12    1    3    3    0    0 -0.15441135071E+01 -0.92633069904E+00 -0.19955461568E-01  0.18007701983E+01  0.00000000000E+00 0. -1.
</event>
<event>
 7    1  0.2472338E-008  0.4614232E+02  0.7816164E-02  0.1320468E+00
        -11   -1    0    0    0    0  0.00000000000E+00  0.00000000000E+00  0.45593999997E+02  0.45594000000E+02  0.51100000000E-03 0. -1.
         11   -1    0    0    0    0 -0.00000000000E+00 -0.00000000000E+00 -0.45593999997E+02  0.45594000000E+02  0.51100000000E-03 0.  1.
    9900012    2    1    2    0    0  0.38653199216E+02  0.16576417067E+02  0.16132748464E+02  0.46142323343E+02  0.10000050904E+02 0.  0.
         12    1    1    2    0    0 -0.38653199216E+02 -0.16576417067E+02 -0.16132748464E+02  0.45045676657E+02  0.00000000000E+00 0. -1.
         11    1    3    3    0    0  0.14682503380E+01  0.37354666220E+00 -0.47206609061E+00  0.15868657218E+01  0.51100000000E-03 0. -1.
        -11    1    3    3    0    0  0.20188186913E+02  0.12494428200E+02  0.73685539344E+01  0.24858986589E+02  0.51100000000E-03 0.  1.
         12    1    3    3    0    0  0.16996761966E+02  0.37084422044E+01  0.92362606203E+01  0.19696471033E+02  0.00000000000E+00 0. -1.
</event>
<event>
 7    1  0.2472338E-008  0.4614232E+02  0.7816164E-02  0.1320468E+00
        -11   -1    0    0    0    0  0.00000000000E+00  0.00000000000E+00  0.45593999997E+02  0.45594000000E+02  0.51100000000E-03 0. -1.
         11   -1    0    0    0    0 -0.00000000000E+00 -0.00000000000E+00 -0.45593999997E+02  0.45594000000E+02  0.51100000000E-03 0.  1.
    9900012    2    1    2    0    0  0.11624357072E+02  0.43073938493E+02  0.62147878894E+01  0.46142318264E+02  0.10000004582E+02 0.  0.
         12    1    1    2    0    0 -0.11624357072E+02 -0.43073938493E+02 -0.62147878894E+01  0.45045681736E+02  0.00000000000E+00 0. -1.
         11    1    3    3    0    0  0.28310542668E+01  0.37900352515E+01  0.32240714151E+01  0.57248469167E+01  0.51100000000E-03 0. -1.
        -11    1    3    3    0    0  0.43368107305E+01  0.19677380963E+02  0.48635226929E+00  0.20155490261E+02  0.51100000000E-03 0.  1.
         12    1    3    3    0    0  0.44564920744E+01  0.19606522278E+02  0.25043642050E+01  0.20261981086E+02  0.00000000000E+00 0. -1.
</event>
<event>
 7    1  0.2472338E-008  0.4614232E+02  0.7816164E-02  0.1320468E+00
        -11   -1    0    0    0    0  0.00000000000E+00  0.00000000000E+00  0.45593999997E+02  0.45594000000E+02  0.51100000000E-03 0.  1.
         11   -1    0    0    0    0 -0.00000000000E+00 -0.00000000000E+00 -0.45593999997E+02  0.45594000000E+02  0.51100000000E-03 0. -1.
    9900012    2    1    2    0    0  0.44977126558E+02 -0.24236932177E+01 -0.54518230326E+00  0.46142318453E+02  0.10000006313E+02 0.  0.
         12    1    1    2    0    0 -0.44977126558E+02  0.24236932177E+01  0.54518230326E+00  0.45045681547E+02  0.00000000000E+00 0. -1.
         11    1    3    3    0    0  0.11829128204E-01 -0.14575390811E+00 -0.93703440029E-01  0.17367995220E+00  0.51100000000E-03 0. -1.
        -11    1    3    3    0    0  0.10454871404E+02  0.14541701771E+01 -0.35067857010E+01  0.11122791609E+02  0.51100000000E-03 0.  1.
        -12    1    3    3    0    0  0.34510426027E+02 -0.37321094867E+01  0.30553068377E+01  0.34845846892E+02  0.00000000000E+00 0.  1.
</event>
<event>
 7    1  0.2472338E-008  0.4614232E+02  0.7816164E-02  0.1320468E+00
        -11   -1    0    0    0    0  0.00000000000E+00  0.00000000000E+00  0.45593999997E+02  0.45594000000E+02  0.51100000000E-03 0.  1.
         11   -1    0    0    0    0 -0.00000000000E+00 -0.00000000000E+00 -0.45593999997E+02  0.45594000000E+02  0.51100000000E-03 0. -1.
    9900012    2    1    2    0    0 -0.24662556152E+02  0.23625746512E+02  0.29371685293E+02  0.46142317952E+02  0.10000001740E+02 0.  0.
         12    1    1    2    0    0  0.24662556152E+02 -0.23625746512E+02 -0.29371685293E+02  0.45045682048E+02  0.00000000000E+00 0. -1.
         11    1    3    3    0    0 -0.86963907274E+01  0.56668304578E+01  0.93633921170E+01  0.13979030414E+02  0.51100000000E-03 0. -1.
        -11    1    3    3    0    0 -0.13203521910E+02  0.96300024041E+01  0.14102521670E+02  0.21585899445E+02  0.51100000000E-03 0.  1.
         12    1    3    3    0    0 -0.27626435146E+01  0.83289136501E+01  0.59057715061E+01  0.10577388093E+02  0.00000000000E+00 0. -1.
</event>
<event>
 7    1  0.2472338E-008  0.4614232E+02  0.7816164E-02  0.1320468E+00
        -11   -1    0    0    0    0  0.00000000000E+00  0.00000000000E+00  0.45593999997E+02  0.45594000000E+02  0.51100000000E-03 0.  1.
         11   -1    0    0    0    0 -0.00000000000E+00 -0.00000000000E+00 -0.45593999997E+02  0.45594000000E+02  0.51100000000E-03 0. -1.
    9900012    2    1    2    0    0  0.29928336118E+02  0.27862282478E+02  0.18897126929E+02  0.46142317700E+02  0.99999994464E+01 0.  0.
         12    1    1    2    0    0 -0.29928336118E+02 -0.27862282478E+02 -0.18897126929E+02  0.45045682300E+02  0.00000000000E+00 0. -1.
         11    1    3    3    0    0  0.13282752016E+02  0.11989535590E+02  0.76911803044E+01  0.19476517130E+02  0.51100000000E-03 0. -1.
        -11    1    3    3    0    0  0.16278407033E+02  0.14092168857E+02  0.12036704752E+02  0.24666941849E+02  0.51100000000E-03 0.  1.
         12    1    3    3    0    0  0.36717706914E+00  0.17805780310E+01 -0.83075812696E+00  0.19988587219E+01  0.00000000000E+00 0. -1.
</event>
<event>
 7    1  0.2472338E-008  0.4614232E+02  0.7816164E-02  0.1320468E+00
        -11   -1    0    0    0    0  0.00000000000E+00  0.00000000000E+00  0.45593999997E+02  0.45594000000E+02  0.51100000000E-03 0.  1.
         11   -1    0    0    0    0 -0.00000000000E+00 -0.00000000000E+00 -0.45593999997E+02  0.45594000000E+02  0.51100000000E-03 0. -1.
    9900012    2    1    2    0    0  0.18426948437E+02  0.30523377641E+02  0.27529701837E+02  0.46142317693E+02  0.99999993768E+01 0.  0.
         12    1    1    2    0    0 -0.18426948437E+02 -0.30523377641E+02 -0.27529701837E+02  0.45045682307E+02  0.00000000000E+00 0. -1.
         11    1    3    3    0    0  0.20733239992E+01  0.68141008072E+01  0.43224399194E+01  0.83315142282E+01  0.51100000000E-03 0. -1.
        -11    1    3    3    0    0  0.57742994213E+01  0.12753323573E+02  0.73016104597E+01  0.15789341707E+02  0.51100000000E-03 0.  1.
         12    1    3    3    0    0  0.10579325017E+02  0.10955953260E+02  0.15905651458E+02  0.22021461757E+02  0.00000000000E+00 0. -1.
</event>
<event>
 7    1  0.2472338E-008  0.4614232E+02  0.7816164E-02  0.1320468E+00
        -11   -1    0    0    0    0  0.00000000000E+00  0.00000000000E+00  0.45593999997E+02  0.45594000000E+02  0.51100000000E-03 0.  1.
         11   -1    0    0    0    0 -0.00000000000E+00 -0.00000000000E+00 -0.45593999997E+02  0.45594000000E+02  0.51100000000E-03 0. -1.
    9900012    2    1    2    0    0  0.30131862459E+02  0.33252630695E+02  0.39302838859E+01  0.46142315247E+02  0.99999770781E+01 0.  0.
         12    1    1    2    0    0 -0.30131862459E+02 -0.33252630695E+02 -0.39302838859E+01  0.45045684753E+02  0.00000000000E+00 0. -1.
         11    1    3    3    0    0  0.36597727114E+01  0.70214911736E+01  0.29564235778E+01  0.84519651699E+01  0.51100000000E-03 0. -1.
        -11    1    3    3    0    0  0.21271255068E+02  0.23423348025E+02  0.19474012281E+01  0.31700345371E+02  0.51100000000E-03 0.  1.
         12    1    3    3    0    0  0.52008346800E+01  0.28077914964E+01 -0.97354092005E+00  0.59900047061E+01  0.00000000000E+00 0. -1.
</event>
<event>
 7    1  0.2472338E-008  0.4614232E+02  0.7816164E-02  0.1320468E+00
        -11   -1    0    0    0    0  0.00000000000E+00  0.00000000000E+00  0.45593999997E+02  0.45594000000E+02  0.51100000000E-03 0.  1.
         11   -1    0    0    0    0 -0.00000000000E+00 -0.00000000000E+00 -0.45593999997E+02  0.45594000000E+02  0.51100000000E-03 0. -1.
    9900012    2    1    2    0    0 -0.14248406387E+02  0.29839116103E+02  0.30589597126E+02  0.46142318890E+02  0.10000010291E+02 0.  0.
         12    1    1    2    0    0  0.14248406387E+02 -0.29839116103E+02 -0.30589597126E+02  0.45045681110E+02  0.00000000000E+00 0. -1.
         11    1    3    3    0    0 -0.18726654700E+01  0.20689409441E+01  0.20090646009E+01  0.34385656056E+01  0.51100000000E-03 0. -1.
        -11    1    3    3    0    0 -0.70757148676E+01  0.71990967287E+01  0.12465740157E+02  0.16040181187E+02  0.51100000000E-03 0.  1.
         12    1    3    3    0    0 -0.53000260495E+01  0.20571078430E+02  0.16114792368E+02  0.26663572097E+02  0.00000000000E+00 0. -1.
</event>
<event>
 7    1  0.2472338E-008  0.4614233E+02  0.7816164E-02  0.1320468E+00
        -11   -1    0    0    0    0  0.00000000000E+00  0.00000000000E+00  0.45593999997E+02  0.45594000000E+02  0.51100000000E-03 0.  1.
         11   -1    0    0    0    0 -0.00000000000E+00 -0.00000000000E+00 -0.45593999997E+02  0.45594000000E+02  0.51100000000E-03 0. -1.
    9900012    2    1    2    0    0  0.14417011770E+02 -0.21578518256E+02  0.36818879844E+02  0.46142327717E+02  0.10000090782E+02 0.  0.
         12    1    1    2    0    0 -0.14417011770E+02  0.21578518256E+02 -0.36818879844E+02  0.45045672283E+02  0.00000000000E+00 0. -1.
         11    1    3    3    0    0  0.22976536764E+01 -0.52277308581E+01  0.11121338286E+02  0.12501701799E+02  0.51100000000E-03 0. -1.
        -11    1    3    3    0    0  0.10696048487E+02 -0.88357949029E+01  0.18616562403E+02  0.23217517541E+02  0.51100000000E-03 0.  1.
         12    1    3    3    0    0  0.14233096073E+01 -0.75149924953E+01  0.70809791546E+01  0.10423108377E+02  0.00000000000E+00 0. -1.
</event>
<event>
 7    1  0.2472338E-008  0.4614232E+02  0.7816164E-02  0.1320468E+00
        -11   -1    0    0    0    0  0.00000000000E+00  0.00000000000E+00  0.45593999997E+02  0.45594000000E+02  0.51100000000E-03 0.  1.
         11   -1    0    0    0    0 -0.00000000000E+00 -0.00000000000E+00 -0.45593999997E+02  0.45594000000E+02  0.51100000000E-03 0. -1.
    9900012    2    1    2    0    0 -0.36178893815E+02  0.11369979107E+02  0.24308943732E+02  0.46142317322E+02  0.99999959955E+01 0.  0.
         12    1    1    2    0    0  0.36178893815E+02 -0.11369979107E+02 -0.24308943732E+02  0.45045682678E+02  0.00000000000E+00 0. -1.
         11    1    3    3    0    0 -0.11118042434E+02  0.58151530436E+01  0.55907242062E+01  0.13736195613E+02  0.51100000000E-03 0. -1.
        -11    1    3    3    0    0 -0.79212065328E+01  0.17491415756E+01  0.24583500043E+01  0.84763491074E+01  0.51100000000E-03 0.  1.
        -12    1    3    3    0    0 -0.17139644848E+02  0.38056844881E+01  0.16259869522E+02  0.23929772602E+02  0.00000000000E+00 0.  1.
</event>
<event>
 7    1  0.2472338E-008  0.4614232E+02  0.7816164E-02  0.1320468E+00
        -11   -1    0    0    0    0  0.00000000000E+00  0.00000000000E+00  0.45593999997E+02  0.45594000000E+02  0.51100000000E-03 0.  1.
         11   -1    0    0    0    0 -0.00000000000E+00 -0.00000000000E+00 -0.45593999997E+02  0.45594000000E+02  0.51100000000E-03 0. -1.
    9900012    2    1    2    0    0  0.20209498927E+02  0.35823217520E+02 -0.18368095105E+02  0.46142315654E+02  0.99999807901E+01 0.  0.
         12    1    1    2    0    0 -0.20209498927E+02 -0.35823217520E+02  0.18368095105E+02  0.45045684346E+02  0.00000000000E+00 0. -1.
         11    1    3    3    0    0  0.51373110816E+01  0.90705161513E+01 -0.14340174655E+01  0.10522482347E+02  0.51100000000E-03 0. -1.
        -11    1    3    3    0    0  0.91873646941E+01  0.17002539799E+02 -0.71518094851E+01  0.20606853442E+02  0.51100000000E-03 0.  1.
         12    1    3    3    0    0  0.58848231516E+01  0.97501615698E+01 -0.97822681548E+01  0.15012979865E+02  0.00000000000E+00 0. -1.
</event>
<event>
 7    1  0.2472338E-008  0.4614232E+02  0.7816164E-02  0.1320468E+00
        -11   -1    0    0    0    0  0.00000000000E+00  0.00000000000E+00  0.45593999997E+02  0.45594000000E+02  0.51100000000E-03 0. -1.
         11   -1    0    0    0    0 -0.00000000000E+00 -0.00000000000E+00 -0.45593999997E+02  0.45594000000E+02  0.51100000000E-03 0.  1.
    9900012    2    1    2    0    0  0.39042834992E+02  0.22361314045E+02  0.21776602838E+01  0.46142317251E+02  0.99999953488E+01 0.  0.
         12    1    1    2    0    0 -0.39042834992E+02 -0.22361314045E+02 -0.21776602838E+01  0.45045682749E+02  0.00000000000E+00 0. -1.
         11    1    3    3    0    0  0.58255962467E+01  0.39091323713E+00  0.27135465002E+00  0.58449994350E+01  0.51100000000E-03 0. -1.
        -11    1    3    3    0    0  0.12238448811E+02  0.10144935592E+02 -0.15351905247E+01  0.15970477690E+02  0.51100000000E-03 0.  1.
        -12    1    3    3    0    0  0.20978789935E+02  0.11825465216E+02  0.34414961584E+01  0.24326840126E+02  0.00000000000E+00 0.  1.
</event>
<event>
 7    1  0.2472338E-008  0.4614232E+02  0.7816164E-02  0.1320468E+00
        -11   -1    0    0    0    0  0.00000000000E+00  0.00000000000E+00  0.45593999997E+02  0.45594000000E+02  0.51100000000E-03 0. -1.
         11   -1    0    0    0    0 -0.00000000000E+00 -0.00000000000E+00 -0.45593999997E+02  0.45594000000E+02  0.51100000000E-03 0.  1.
    9900012    2    1    2    0    0 -0.78742606913E+01  0.39060740938E+02 -0.21008761037E+02  0.46142317584E+02  0.99999983815E+01 0.  0.
         12    1    1    2    0    0  0.78742606913E+01 -0.39060740938E+02  0.21008761037E+02  0.45045682416E+02  0.00000000000E+00 0. -1.
         11    1    3    3    0    0 -0.54260951298E+00  0.96542220726E+00  0.70304546507E-01  0.11096882951E+01  0.51100000000E-03 0. -1.
        -11    1    3    3    0    0 -0.56673191637E+01  0.32514235081E+02 -0.21165434948E+02  0.39208030124E+02  0.51100000000E-03 0.  1.
        -12    1    3    3    0    0 -0.16643320147E+01  0.55810836496E+01  0.86369364782E-01  0.58245991644E+01  0.00000000000E+00 0.  1.
</event>
<event>
 7    1  0.2472338E-008  0.4614232E+02  0.7816164E-02  0.1320468E+00
        -11   -1    0    0    0    0  0.00000000000E+00  0.00000000000E+00  0.45593999997E+02  0.45594000000E+02  0.51100000000E-03 0.  1.
         11   -1    0    0    0    0 -0.00000000000E+00 -0.00000000000E+00 -0.45593999997E+02  0.45594000000E+02  0.51100000000E-03 0. -1.
    9900012    2    1    2    0    0 -0.16319155183E+02 -0.25250471133E+02  0.33544185130E+02  0.46142317916E+02  0.10000001413E+02 0.  0.
         12    1    1    2    0    0  0.16319155183E+02  0.25250471133E+02 -0.33544185130E+02  0.45045682084E+02  0.00000000000E+00 0. -1.
         11    1    3    3    0    0 -0.26669440674E+01 -0.65445880542E+01  0.33215587107E+01  0.78087755755E+01  0.51100000000E-03 0. -1.
        -11    1    3    3    0    0 -0.10989754354E+02 -0.14436144989E+02  0.20426508030E+02  0.27320673737E+02  0.51100000000E-03 0.  1.
         12    1    3    3    0    0 -0.26624567617E+01 -0.42697380902E+01  0.97961183899E+01  0.11012868603E+02  0.00000000000E+00 0. -1.
</event>
<event>
 7    1  0.2472338E-008  0.4614232E+02  0.7816164E-02  0.1320468E+00
        -11   -1    0    0    0    0  0.00000000000E+00  0.00000000000E+00  0.45593999997E+02  0.45594000000E+02  0.51100000000E-03 0.  1.
         11   -1    0    0    0    0 -0.00000000000E+00 -0.00000000000E+00 -0.45593999997E+02  0.45594000000E+02  0.51100000000E-03 0. -1.
    9900012    2    1    2    0    0  0.32856490357E+02 -0.26262766110E+01  0.30702882717E+02  0.46142319912E+02  0.10000019617E+02 0.  0.
         12    1    1    2    0    0 -0.32856490357E+02  0.26262766110E+01 -0.30702882717E+02  0.45045680088E+02  0.00000000000E+00 0. -1.
         11    1    3    3    0    0  0.79117090062E+01 -0.98211225314E+00  0.40020210807E+01  0.89205300778E+01  0.51100000000E-03 0. -1.
        -11    1    3    3    0    0  0.15853037760E+01  0.87573147375E+00  0.22625361868E+00  0.18251807136E+01  0.51100000000E-03 0.  1.
        -12    1    3    3    0    0  0.23359477575E+02 -0.25198958316E+01  0.26474608017E+02  0.35396609121E+02  0.00000000000E+00 0.  1.
</event>
<event>
 7    1  0.2472338E-008  0.4614232E+02  0.7816164E-02  0.1320468E+00
        -11   -1    0    0    0    0  0.00000000000E+00  0.00000000000E+00  0.45593999997E+02  0.45594000000E+02  0.51100000000E-03 0.  1.
         11   -1    0    0    0    0 -0.00000000000E+00 -0.00000000000E+00 -0.45593999997E+02  0.45594000000E+02  0.51100000000E-03 0. -1.
    9900012    2    1    2    0    0  0.31283386469E+02  0.32405137392E+02 -0.60852111209E+00  0.46142317673E+02  0.99999991971E+01 0.  0.
         12    1    1    2    0    0 -0.31283386469E+02 -0.32405137392E+02  0.60852111209E+00  0.45045682327E+02  0.00000000000E+00 0. -1.
         11    1    3    3    0    0  0.87577528764E+01  0.65193443108E+01 -0.67327306072E+00  0.10938618860E+02  0.51100000000E-03 0. -1.
        -11    1    3    3    0    0  0.15746285442E+02  0.13100308787E+02  0.20959817094E+01  0.20590209691E+02  0.51100000000E-03 0.  1.
        -12    1    3    3    0    0  0.67793481508E+01  0.12785484294E+02 -0.20312297607E+01  0.14613489122E+02  0.00000000000E+00 0.  1.
</event>
<event>
 7    1  0.2472338E-008  0.4614232E+02  0.7816164E-02  0.1320468E+00
        -11   -1    0    0    0    0  0.00000000000E+00  0.00000000000E+00  0.45593999997E+02  0.45594000000E+02  0.51100000000E-03 0.  1.
         11   -1    0    0    0    0 -0.00000000000E+00 -0.00000000000E+00 -0.45593999997E+02  0.45594000000E+02  0.51100000000E-03 0. -1.
    9900012    2    1    2    0    0  0.28601167500E+01 -0.37193528747E+02  0.25250241361E+02  0.46142317218E+02  0.99999950507E+01 0.  0.
         12    1    1    2    0    0 -0.28601167500E+01  0.37193528747E+02 -0.25250241361E+02  0.45045682782E+02  0.00000000000E+00 0. -1.
         11    1    3    3    0    0  0.23927666310E+01 -0.35112211464E+01  0.47437360015E+01  0.63684407513E+01  0.51100000000E-03 0. -1.
        -11    1    3    3    0    0  0.14125125965E+01 -0.97460912749E+01  0.83477734389E+01  0.12909949985E+02  0.51100000000E-03 0.  1.
        -12    1    3    3    0    0 -0.94516247757E+00 -0.23936216326E+02  0.12158731920E+02  0.26863926482E+02  0.00000000000E+00 0.  1.
</event>
<event>
 7    1  0.2472338E-008  0.4614232E+02  0.7816164E-02  0.1320468E+00
        -11   -1    0    0    0    0  0.00000000000E+00  0.00000000000E+00  0.45593999997E+02  0.45594000000E+02  0.51100000000E-03 0.  1.
         11   -1    0    0    0    0 -0.00000000000E+00 -0.00000000000E+00 -0.45593999997E+02  0.45594000000E+02  0.51100000000E-03 0. -1.
    9900012    2    1    2    0    0  0.25841481549E+02  0.24486710736E+02  0.27599498644E+02  0.46142317668E+02  0.99999991506E+01 0.  0.
         12    1    1    2    0    0 -0.25841481549E+02 -0.24486710736E+02 -0.27599498644E+02  0.45045682332E+02  0.00000000000E+00 0. -1.
         11    1    3    3    0    0  0.49695331317E+01  0.73232546830E+01  0.82320891052E+01  0.12086918962E+02  0.51100000000E-03 0. -1.
        -11    1    3    3    0    0  0.14031005235E+02  0.15597847400E+02  0.14977635395E+02  0.25777732905E+02  0.51100000000E-03 0.  1.
         12    1    3    3    0    0  0.68409431824E+01  0.15656086534E+01  0.43897741441E+01  0.82776658012E+01  0.00000000000E+00 0. -1.
</event>
<event>
 7    1  0.2472338E-008  0.4614232E+02  0.7816164E-02  0.1320468E+00
        -11   -1    0    0    0    0  0.00000000000E+00  0.00000000000E+00  0.45593999997E+02  0.45594000000E+02  0.51100000000E-03 0.  1.
         11   -1    0    0    0    0 -0.00000000000E+00 -0.00000000000E+00 -0.45593999997E+02  0.45594000000E+02  0.51100000000E-03 0. -1.
    9900012    2    1    2    0    0  0.15748780246E+02  0.24652346350E+02  0.34254214887E+02  0.46142317662E+02  0.99999990933E+01 0.  0.
         12    1    1    2    0    0 -0.15748780246E+02 -0.24652346350E+02 -0.34254214887E+02  0.45045682338E+02  0.00000000000E+00 0. -1.
         11    1    3    3    0    0  0.82847847517E+01  0.13944420459E+02  0.19479643557E+02  0.25348393119E+02  0.51100000000E-03 0. -1.
        -11    1    3    3    0    0  0.22191600507E+01  0.87523775063E+01  0.88481917565E+01  0.12641965075E+02  0.51100000000E-03 0.  1.
         12    1    3    3    0    0  0.52448354437E+01  0.19555483845E+01  0.59263795732E+01  0.81519594676E+01  0.00000000000E+00 0. -1.
</event>
<event>
 7    1  0.2472338E-008  0.4614232E+02  0.7816164E-02  0.1320468E+00
        -11   -1    0    0    0    0  0.00000000000E+00  0.00000000000E+00  0.45593999997E+02  0.45594000000E+02  0.51100000000E-03 0.  1.
         11   -1    0    0    0    0 -0.00000000000E+00 -0.00000000000E+00 -0.45593999997E+02  0.45594000000E+02  0.51100000000E-03 0. -1.
    9900012    2    1    2    0    0  0.31695840172E+02  0.22768353942E+01  0.31926531158E+02  0.46142315907E+02  0.99999830934E+01 0.  0.
         12    1    1    2    0    0 -0.31695840172E+02 -0.22768353942E+01 -0.31926531158E+02  0.45045684093E+02  0.00000000000E+00 0. -1.
         11    1    3    3    0    0  0.14386654664E+02  0.12077178704E+00  0.15479582961E+02  0.21133099800E+02  0.51100000000E-03 0.  1.
        -11    1    3    3    0    0  0.15003171957E+02  0.52574300874E+00  0.10188951700E+02  0.18143492262E+02  0.51100000000E-03 0. -1.
         12    1    3    3    0    0  0.23060135511E+01  0.16303205984E+01  0.62579964976E+01  0.68657238449E+01  0.00000000000E+00 0. -1.
</event>
<event>
 7    1  0.2472338E-008  0.4614231E+02  0.7816164E-02  0.1320468E+00
        -11   -1    0    0    0    0  0.00000000000E+00  0.00000000000E+00  0.45593999997E+02  0.45594000000E+02  0.51100000000E-03 0.  1.
         11   -1    0    0    0    0 -0.00000000000E+00 -0.00000000000E+00 -0.45593999997E+02  0.45594000000E+02  0.51100000000E-03 0. -1.
    9900012    2    1    2    0    0 -0.19972205954E+02  0.35875376728E+02  0.18525193358E+02  0.46142307032E+02  0.99999021610E+01 0.  0.
         12    1    1    2    0    0  0.19972205954E+02 -0.35875376728E+02 -0.18525193358E+02  0.45045692968E+02  0.00000000000E+00 0. -1.
         11    1    3    3    0    0 -0.14055099007E+01  0.51629436660E+01  0.12333030044E+01  0.54911275655E+01  0.51100000000E-03 0. -1.
        -11    1    3    3    0    0 -0.14566017456E+01 -0.18320324126E+00  0.82239048152E+00  0.16827294608E+01  0.51100000000E-03 0.  1.
        -12    1    3    3    0    0 -0.17110094308E+02  0.30895636303E+02  0.16469499872E+02  0.38968450006E+02  0.00000000000E+00 0.  1.
</event>
<event>
 7    1  0.2472338E-008  0.4614232E+02  0.7816164E-02  0.1320468E+00
        -11   -1    0    0    0    0  0.00000000000E+00  0.00000000000E+00  0.45593999997E+02  0.45594000000E+02  0.51100000000E-03 0.  1.
         11   -1    0    0    0    0 -0.00000000000E+00 -0.00000000000E+00 -0.45593999997E+02  0.45594000000E+02  0.51100000000E-03 0. -1.
    9900012    2    1    2    0    0  0.71836514525E+01  0.44053936652E+02 -0.60628936781E+01  0.46142324708E+02  0.10000063348E+02 0.  0.
         12    1    1    2    0    0 -0.71836514525E+01 -0.44053936652E+02  0.60628936781E+01  0.45045675292E+02  0.00000000000E+00 0. -1.
         11    1    3    3    0    0  0.14956129060E+01  0.34161405120E+01 -0.14352589422E+01  0.39958531573E+01  0.51100000000E-03 0. -1.
        -11    1    3    3    0    0 -0.32248520913E+00  0.95081544774E+00  0.12234921528E+01  0.15827128719E+01  0.51100000000E-03 0.  1.
        -12    1    3    3    0    0  0.60105237557E+01  0.39686980692E+02 -0.58511268886E+01  0.40563758679E+02  0.00000000000E+00 0.  1.
</event>
<event>
 7    1  0.2472338E-008  0.4614232E+02  0.7816164E-02  0.1320468E+00
        -11   -1    0    0    0    0  0.00000000000E+00  0.00000000000E+00  0.45593999997E+02  0.45594000000E+02  0.51100000000E-03 0. -1.
         11   -1    0    0    0    0 -0.00000000000E+00 -0.00000000000E+00 -0.45593999997E+02  0.45594000000E+02  0.51100000000E-03 0.  1.
    9900012    2    1    2    0    0  0.41885949947E+02  0.15606803326E+02  0.55774820826E+01  0.46142318527E+02  0.10000006984E+02 0.  0.
         12    1    1    2    0    0 -0.41885949947E+02 -0.15606803326E+02 -0.55774820826E+01  0.45045681473E+02  0.00000000000E+00 0. -1.
         11    1    3    3    0    0  0.15879222185E+02  0.72666490368E+01  0.89319375097E+00  0.17485756511E+02  0.51100000000E-03 0. -1.
        -11    1    3    3    0    0  0.58317331502E+01  0.11281931163E+01 -0.19100748034E+01  0.62394164197E+01  0.51100000000E-03 0.  1.
        -12    1    3    3    0    0  0.20174994612E+02  0.72119611727E+01  0.65943631351E+01  0.22417145596E+02  0.00000000000E+00 0.  1.
</event>
<event>
 7    1  0.2472338E-008  0.4614232E+02  0.7816164E-02  0.1320468E+00
        -11   -1    0    0    0    0  0.00000000000E+00  0.00000000000E+00  0.45593999997E+02  0.45594000000E+02  0.51100000000E-03 0.  1.
         11   -1    0    0    0    0 -0.00000000000E+00 -0.00000000000E+00 -0.45593999997E+02  0.45594000000E+02  0.51100000000E-03 0. -1.
    9900012    2    1    2    0    0 -0.22396870953E+02 -0.20332301548E+02  0.33378003908E+02  0.46142318080E+02  0.10000002911E+02 0.  0.
         12    1    1    2    0    0  0.22396870953E+02  0.20332301548E+02 -0.33378003908E+02  0.45045681920E+02  0.00000000000E+00 0. -1.
         11    1    3    3    0    0 -0.15415097674E+02 -0.10518430814E+02  0.20543889962E+02  0.27754531848E+02  0.51100000000E-03 0. -1.
        -11    1    3    3    0    0 -0.46071289916E+01 -0.21868584582E+01  0.40304111052E+01  0.65001693362E+01  0.51100000000E-03 0.  1.
        -12    1    3    3    0    0 -0.23746442874E+01 -0.76270122764E+01  0.88037028412E+01  0.11887616896E+02  0.00000000000E+00 0.  1.
</event>
<event>
 7    1  0.2472338E-008  0.4614232E+02  0.7816164E-02  0.1320468E+00
        -11   -1    0    0    0    0  0.00000000000E+00  0.00000000000E+00  0.45593999997E+02  0.45594000000E+02  0.51100000000E-03 0.  1.
         11   -1    0    0    0    0 -0.00000000000E+00 -0.00000000000E+00 -0.45593999997E+02  0.45594000000E+02  0.51100000000E-03 0. -1.
    9900012    2    1    2    0    0  0.10180367026E+02  0.51501774265E+01  0.43576934895E+02  0.46142318130E+02  0.10000003362E+02 0.  0.
         12    1    1    2    0    0 -0.10180367026E+02 -0.51501774265E+01 -0.43576934895E+02  0.45045681870E+02  0.00000000000E+00 0. -1.
         11    1    3    3    0    0  0.10490765182E+00 -0.15755845703E+00  0.32968861004E-01  0.19213924562E+00  0.51100000000E-03 0. -1.
        -11    1    3    3    0    0  0.44826289915E+01 -0.12340291952E+01  0.25957986365E+02  0.26371079749E+02  0.51100000000E-03 0.  1.
        -12    1    3    3    0    0  0.55928303826E+01  0.65417650787E+01  0.17585979669E+02  0.19579099136E+02  0.00000000000E+00 0.  1.
</event>
<event>
 7    1  0.2472338E-008  0.4614232E+02  0.7816164E-02  0.1320468E+00
        -11   -1    0    0    0    0  0.00000000000E+00  0.00000000000E+00  0.45593999997E+02  0.45594000000E+02  0.51100000000E-03 0.  1.
         11   -1    0    0    0    0 -0.00000000000E+00 -0.00000000000E+00 -0.45593999997E+02  0.45594000000E+02  0.51100000000E-03 0. -1.
    9900012    2    1    2    0    0 -0.15553294894E+02 -0.42130270561E+02  0.34998309298E+01  0.46142317675E+02  0.99999992142E+01 0.  0.
         12    1    1    2    0    0  0.15553294894E+02  0.42130270561E+02 -0.34998309298E+01  0.45045682325E+02  0.00000000000E+00 0. -1.
         11    1    3    3    0    0 -0.35929812263E+01 -0.18496152398E+02 -0.17077206840E+01  0.18919129943E+02  0.51100000000E-03 0. -1.
        -11    1    3    3    0    0 -0.93685710716E+01 -0.19592841290E+02  0.29465295327E+01  0.21916468472E+02  0.51100000000E-03 0.  1.
        -12    1    3    3    0    0 -0.25917425963E+01 -0.40412768735E+01  0.22610220811E+01  0.53067192600E+01  0.00000000000E+00 0.  1.
</event>
<event>
 7    1  0.2472338E-008  0.4614232E+02  0.7816164E-02  0.1320468E+00
        -11   -1    0    0    0    0  0.00000000000E+00  0.00000000000E+00  0.45593999997E+02  0.45594000000E+02  0.51100000000E-03 0.  1.
         11   -1    0    0    0    0 -0.00000000000E+00 -0.00000000000E+00 -0.45593999997E+02  0.45594000000E+02  0.51100000000E-03 0. -1.
    9900012    2    1    2    0    0 -0.63239408492E+01  0.24775918117E+02  0.37084702861E+02  0.46142317269E+02  0.99999955130E+01 0.  0.
         12    1    1    2    0    0  0.63239408492E+01 -0.24775918117E+02 -0.37084702861E+02  0.45045682731E+02  0.00000000000E+00 0. -1.
         11    1    3    3    0    0  0.21344156932E-03  0.61433426796E+00  0.46910775904E+01  0.47311326190E+01  0.51100000000E-03 0. -1.
        -11    1    3    3    0    0 -0.46454158068E+01  0.62055491955E+01  0.91644947499E+01  0.12003195121E+02  0.51100000000E-03 0.  1.
         12    1    3    3    0    0 -0.16787384839E+01  0.17956034654E+02  0.23229130521E+02  0.29407989529E+02  0.00000000000E+00 0. -1.
</event>
<event>
 7    1  0.2472338E-008  0.4614232E+02  0.7816164E-02  0.1320468E+00
        -11   -1    0    0    0    0  0.00000000000E+00  0.00000000000E+00  0.45593999997E+02  0.45594000000E+02  0.51100000000E-03 0.  1.
         11   -1    0    0    0    0 -0.00000000000E+00 -0.00000000000E+00 -0.45593999997E+02  0.45594000000E+02  0.51100000000E-03 0. -1.
    9900012    2    1    2    0    0 -0.22798405582E+02  0.33160037970E+02  0.20242480631E+02  0.46142318327E+02  0.10000005164E+02 0.  0.
         12    1    1    2    0    0  0.22798405582E+02 -0.33160037970E+02 -0.20242480631E+02  0.45045681673E+02  0.00000000000E+00 0. -1.
         11    1    3    3    0    0 -0.22146430527E+01  0.57119332049E+01  0.67692736853E+01  0.91298352272E+01  0.51100000000E-03 0. -1.
        -11    1    3    3    0    0 -0.64564053441E+01  0.10476664570E+02  0.35865282458E+01  0.12818301588E+02  0.51100000000E-03 0.  1.
         12    1    3    3    0    0 -0.14127357185E+02  0.16971440195E+02  0.98866787000E+01  0.24194181512E+02  0.00000000000E+00 0. -1.
</event>
<event>
 7    1  0.2472338E-008  0.4614232E+02  0.7816164E-02  0.1320468E+00
        -11   -1    0    0    0    0  0.00000000000E+00  0.00000000000E+00  0.45593999997E+02  0.45594000000E+02  0.51100000000E-03 0. -1.
         11   -1    0    0    0    0 -0.00000000000E+00 -0.00000000000E+00 -0.45593999997E+02  0.45594000000E+02  0.51100000000E-03 0.  1.
    9900012    2    1    2    0    0 -0.45066014890E+01 -0.64711508664E+01 -0.44350066341E+02  0.46142316134E+02  0.99999851599E+01 0.  0.
         12    1    1    2    0    0  0.45066014890E+01  0.64711508664E+01  0.44350066341E+02  0.45045683866E+02  0.00000000000E+00 0. -1.
         11    1    3    3    0    0 -0.44296617610E+01 -0.58474559982E+01 -0.16418205743E+02  0.17982550572E+02  0.51100000000E-03 0. -1.
        -11    1    3    3    0    0 -0.17249009651E+00 -0.17895881478E+01 -0.23732856404E+02  0.23800858218E+02  0.51100000000E-03 0.  1.
         12    1    3    3    0    0  0.95550368518E-01  0.11658932797E+01 -0.41990041939E+01  0.43589073439E+01  0.00000000000E+00 0. -1.
</event>
<event>
 7    1  0.2472338E-008  0.4614232E+02  0.7816164E-02  0.1320468E+00
        -11   -1    0    0    0    0  0.00000000000E+00  0.00000000000E+00  0.45593999997E+02  0.45594000000E+02  0.51100000000E-03 0.  1.
         11   -1    0    0    0    0 -0.00000000000E+00 -0.00000000000E+00 -0.45593999997E+02  0.45594000000E+02  0.51100000000E-03 0. -1.
    9900012    2    1    2    0    0  0.76943117314E+01 -0.19665149508E+02  0.39789352204E+02  0.46142322216E+02  0.10000040624E+02 0.  0.
         12    1    1    2    0    0 -0.76943117314E+01  0.19665149508E+02 -0.39789352204E+02  0.45045677784E+02  0.00000000000E+00 0. -1.
         11    1    3    3    0    0  0.12661006253E+01 -0.61018689115E+01  0.18320931075E+02  0.19351804327E+02  0.51100000000E-03 0.  1.
        -11    1    3    3    0    0 -0.61656139496E+00 -0.38868793439E+01  0.68187430863E+01  0.78729433204E+01  0.51100000000E-03 0. -1.
        -12    1    3    3    0    0  0.70447725011E+01 -0.96764012522E+01  0.14649678043E+02  0.18917574568E+02  0.00000000000E+00 0.  1.
</event>
<event>
 7    1  0.2472338E-008  0.4614232E+02  0.7816164E-02  0.1320468E+00
        -11   -1    0    0    0    0  0.00000000000E+00  0.00000000000E+00  0.45593999997E+02  0.45594000000E+02  0.51100000000E-03 0.  1.
         11   -1    0    0    0    0 -0.00000000000E+00 -0.00000000000E+00 -0.45593999997E+02  0.45594000000E+02  0.51100000000E-03 0. -1.
    9900012    2    1    2    0    0  0.85066088979E+01  0.14840415765E+02  0.41671490072E+02  0.46142318522E+02  0.10000006936E+02 0.  0.
         12    1    1    2    0    0 -0.85066088979E+01 -0.14840415765E+02 -0.41671490072E+02  0.45045681478E+02  0.00000000000E+00 0. -1.
         11    1    3    3    0    0 -0.18716471364E+00  0.90804626931E+00  0.40095529271E+00  0.10101208171E+01  0.51100000000E-03 0. -1.
        -11    1    3    3    0    0  0.89399651892E+01  0.14834145328E+02  0.39491102303E+02  0.43122175346E+02  0.51100000000E-03 0.  1.
         12    1    3    3    0    0 -0.24619157763E+00 -0.90177583240E+00  0.17794324765E+01  0.20100223589E+01  0.00000000000E+00 0. -1.
</event>
<event>
 7    1  0.2472338E-008  0.4614232E+02  0.7816164E-02  0.1320468E+00
        -11   -1    0    0    0    0  0.00000000000E+00  0.00000000000E+00  0.45593999997E+02  0.45594000000E+02  0.51100000000E-03 0.  1.
         11   -1    0    0    0    0 -0.00000000000E+00 -0.00000000000E+00 -0.45593999997E+02  0.45594000000E+02  0.51100000000E-03 0. -1.
    9900012    2    1    2    0    0  0.36970657092E+02 -0.94603991902E+00  0.25717485025E+02  0.46142317484E+02  0.99999974719E+01 0.  0.
         12    1    1    2    0    0 -0.36970657092E+02  0.94603991902E+00 -0.25717485025E+02  0.45045682516E+02  0.00000000000E+00 0. -1.
         11    1    3    3    0    0  0.18198389912E+02 -0.46846328101E+01  0.10979147526E+02  0.21763934860E+02  0.51100000000E-03 0. -1.
        -11    1    3    3    0    0  0.65359164738E+01  0.31741292519E+00  0.65750653478E+01  0.92763376235E+01  0.51100000000E-03 0.  1.
         12    1    3    3    0    0  0.12236350706E+02  0.34211799658E+01  0.81632721516E+01  0.15102045000E+02  0.00000000000E+00 0. -1.
</event>
<event>
 7    1  0.2472338E-008  0.4614232E+02  0.7816164E-02  0.1320468E+00
        -11   -1    0    0    0    0  0.00000000000E+00  0.00000000000E+00  0.45593999997E+02  0.45594000000E+02  0.51100000000E-03 0.  1.
         11   -1    0    0    0    0 -0.00000000000E+00 -0.00000000000E+00 -0.45593999997E+02  0.45594000000E+02  0.51100000000E-03 0. -1.
    9900012    2    1    2    0    0 -0.11863411788E+02  0.35439081745E+02 -0.25148444283E+02  0.46142319807E+02  0.10000018658E+02 0.  0.
         12    1    1    2    0    0  0.11863411788E+02 -0.35439081745E+02  0.25148444283E+02  0.45045680193E+02  0.00000000000E+00 0. -1.
         11    1    3    3    0    0 -0.84343562204E+01  0.24491123193E+02 -0.16349578093E+02  0.30631065672E+02  0.51100000000E-03 0. -1.
        -11    1    3    3    0    0 -0.25762589694E+01  0.11354054667E+02 -0.73075552966E+01  0.13745982407E+02  0.51100000000E-03 0.  1.
         12    1    3    3    0    0 -0.85279659857E+00 -0.40609611543E+00 -0.14913108940E+01  0.17652717287E+01  0.00000000000E+00 0. -1.
</event>
<event>
 7    1  0.2472338E-008  0.4614232E+02  0.7816164E-02  0.1320468E+00
        -11   -1    0    0    0    0  0.00000000000E+00  0.00000000000E+00  0.45593999997E+02  0.45594000000E+02  0.51100000000E-03 0.  1.
         11   -1    0    0    0    0 -0.00000000000E+00 -0.00000000000E+00 -0.45593999997E+02  0.45594000000E+02  0.51100000000E-03 0. -1.
    9900012    2    1    2    0    0 -0.44258271898E+01  0.10349525261E+02  0.43616657732E+02  0.46142318175E+02  0.10000003771E+02 0.  0.
         12    1    1    2    0    0  0.44258271898E+01 -0.10349525261E+02 -0.43616657732E+02  0.45045681825E+02  0.00000000000E+00 0. -1.
         11    1    3    3    0    0 -0.12466400391E+01  0.64837327656E+01  0.17869451885E+02  0.19050202437E+02  0.51100000000E-03 0. -1.
        -11    1    3    3    0    0 -0.44639224784E+01  0.13344973748E+00  0.14516440120E+02  0.15187871699E+02  0.51100000000E-03 0.  1.
        -12    1    3    3    0    0  0.12847353276E+01  0.37323427577E+01  0.11230765727E+02  0.11904244038E+02  0.00000000000E+00 0.  1.
</event>
<event>
 7    1  0.2472338E-008  0.4614232E+02  0.7816164E-02  0.1320468E+00
        -11   -1    0    0    0    0  0.00000000000E+00  0.00000000000E+00  0.45593999997E+02  0.45594000000E+02  0.51100000000E-03 0.  1.
         11   -1    0    0    0    0 -0.00000000000E+00 -0.00000000000E+00 -0.45593999997E+02  0.45594000000E+02  0.51100000000E-03 0. -1.
    9900012    2    1    2    0    0 -0.93123367068E+01  0.60289872280E+01  0.43658275289E+02  0.46142319817E+02  0.10000018744E+02 0.  0.
         12    1    1    2    0    0  0.93123367068E+01 -0.60289872280E+01 -0.43658275289E+02  0.45045680183E+02  0.00000000000E+00 0. -1.
         11    1    3    3    0    0 -0.83758462284E+01  0.56136579131E+01  0.33563337218E+02  0.35045193118E+02  0.51100000000E-03 0. -1.
        -11    1    3    3    0    0 -0.87285427048E+00 -0.68908935673E+00  0.99139992692E+01  0.99761766469E+01  0.51100000000E-03 0.  1.
         12    1    3    3    0    0 -0.63636207974E-01  0.11044186716E+01  0.18093880263E+00  0.11209500522E+01  0.00000000000E+00 0. -1.
</event>
<event>
 7    1  0.2472338E-008  0.4614232E+02  0.7816164E-02  0.1320468E+00
        -11   -1    0    0    0    0  0.00000000000E+00  0.00000000000E+00  0.45593999997E+02  0.45594000000E+02  0.51100000000E-03 0. -1.
         11   -1    0    0    0    0 -0.00000000000E+00 -0.00000000000E+00 -0.45593999997E+02  0.45594000000E+02  0.51100000000E-03 0.  1.
    9900012    2    1    2    0    0  0.10761444163E+02 -0.11454008094E+02 -0.42215051105E+02  0.46142317392E+02  0.99999966315E+01 0.  0.
         12    1    1    2    0    0 -0.10761444163E+02  0.11454008094E+02  0.42215051105E+02  0.45045682608E+02  0.00000000000E+00 0. -1.
         11    1    3    3    0    0  0.85412208565E+00 -0.65347533411E+01 -0.13180219315E+02  0.14736034311E+02  0.51100000000E-03 0. -1.
        -11    1    3    3    0    0  0.36520155586E+01 -0.41003136500E+01 -0.10889314465E+02  0.12195366311E+02  0.51100000000E-03 0.  1.
        -12    1    3    3    0    0  0.62553065184E+01 -0.81894110296E+00 -0.18145517325E+02  0.19210916770E+02  0.00000000000E+00 0.  1.
</event>
<event>
 7    1  0.2472338E-008  0.4614232E+02  0.7816164E-02  0.1320468E+00
        -11   -1    0    0    0    0  0.00000000000E+00  0.00000000000E+00  0.45593999997E+02  0.45594000000E+02  0.51100000000E-03 0. -1.
         11   -1    0    0    0    0 -0.00000000000E+00 -0.00000000000E+00 -0.45593999997E+02  0.45594000000E+02  0.51100000000E-03 0.  1.
    9900012    2    1    2    0    0 -0.34189517557E+01 -0.16870868943E+02 -0.41626890626E+02  0.46142317929E+02  0.10000001534E+02 0.  0.
         12    1    1    2    0    0  0.34189517557E+01  0.16870868943E+02  0.41626890626E+02  0.45045682071E+02  0.00000000000E+00 0. -1.
         11    1    3    3    0    0 -0.85143960716E+00 -0.47948339058E+01 -0.86133096441E+01  0.98946695183E+01  0.51100000000E-03 0. -1.
        -11    1    3    3    0    0  0.65203661704E+00 -0.11706627882E+02 -0.25687888272E+02  0.28237172171E+02  0.51100000000E-03 0.  1.
         12    1    3    3    0    0 -0.32195487656E+01 -0.36940715548E+00 -0.73256927105E+01  0.80104762398E+01  0.00000000000E+00 0. -1.
</event>
<event>
 7    1  0.2472338E-008  0.4614232E+02  0.7816164E-02  0.1320468E+00
        -11   -1    0    0    0    0  0.00000000000E+00  0.00000000000E+00  0.45593999997E+02  0.45594000000E+02  0.51100000000E-03 0.  1.
         11   -1    0    0    0    0 -0.00000000000E+00 -0.00000000000E+00 -0.45593999997E+02  0.45594000000E+02  0.51100000000E-03 0. -1.
    9900012    2    1    2    0    0  0.34070965495E+02 -0.17010631289E+02  0.24060780625E+02  0.46142318399E+02  0.10000005815E+02 0.  0.
         12    1    1    2    0    0 -0.34070965495E+02  0.17010631289E+02 -0.24060780625E+02  0.45045681601E+02  0.00000000000E+00 0. -1.
         11    1    3    3    0    0  0.17418435855E+02 -0.41464376982E+01  0.10041848247E+02  0.20528847257E+02  0.51100000000E-03 0. -1.
        -11    1    3    3    0    0  0.90686520677E+01 -0.53442847275E+01  0.88309514696E+01  0.13739997587E+02  0.51100000000E-03 0.  1.
         12    1    3    3    0    0  0.75838775728E+01 -0.75199088636E+01  0.51879809084E+01  0.11873473555E+02  0.00000000000E+00 0. -1.
</event>
<event>
 7    1  0.2472338E-008  0.4614231E+02  0.7816164E-02  0.1320468E+00
        -11   -1    0    0    0    0  0.00000000000E+00  0.00000000000E+00  0.45593999997E+02  0.45594000000E+02  0.51100000000E-03 0.  1.
         11   -1    0    0    0    0 -0.00000000000E+00 -0.00000000000E+00 -0.45593999997E+02  0.45594000000E+02  0.51100000000E-03 0. -1.
    9900012    2    1    2    0    0  0.31797351818E+02  0.18726121130E+02  0.25833595986E+02  0.46142313450E+02  0.99999606893E+01 0.  0.
         12    1    1    2    0    0 -0.31797351818E+02 -0.18726121130E+02 -0.25833595986E+02  0.45045686550E+02  0.00000000000E+00 0. -1.
         11    1    3    3    0    0  0.12589346480E+02  0.58830774242E+01  0.90279456991E+01  0.16571241613E+02  0.51100000000E-03 0. -1.
        -11    1    3    3    0    0  0.13301909972E+02  0.93417769492E+01  0.15733493992E+02  0.22621945959E+02  0.51100000000E-03 0.  1.
         12    1    3    3    0    0  0.59060953649E+01  0.35012667564E+01  0.10721562942E+01  0.69491258787E+01  0.00000000000E+00 0. -1.
</event>
<event>
 7    1  0.2472338E-008  0.4614232E+02  0.7816164E-02  0.1320468E+00
        -11   -1    0    0    0    0  0.00000000000E+00  0.00000000000E+00  0.45593999997E+02  0.45594000000E+02  0.51100000000E-03 0. -1.
         11   -1    0    0    0    0 -0.00000000000E+00 -0.00000000000E+00 -0.45593999997E+02  0.45594000000E+02  0.51100000000E-03 0.  1.
    9900012    2    1    2    0    0 -0.31105075236E+02  0.16607801369E+01 -0.32539661702E+02  0.46142317856E+02  0.10000000864E+02 0.  0.
         12    1    1    2    0    0  0.31105075236E+02 -0.16607801369E+01  0.32539661702E+02  0.45045682144E+02  0.00000000000E+00 0. -1.
         11    1    3    3    0    0 -0.12517087866E+02 -0.25079468917E+00 -0.17579769408E+02  0.21582137969E+02  0.51100000000E-03 0. -1.
        -11    1    3    3    0    0 -0.79786570042E+01 -0.93234580760E+00 -0.90001048076E+01  0.12063586660E+02  0.51100000000E-03 0.  1.
        -12    1    3    3    0    0 -0.10609330366E+02  0.28439206337E+01 -0.59597874871E+01  0.12496593227E+02  0.00000000000E+00 0.  1.
</event>
<event>
 7    1  0.2472338E-008  0.4614232E+02  0.7816164E-02  0.1320468E+00
        -11   -1    0    0    0    0  0.00000000000E+00  0.00000000000E+00  0.45593999997E+02  0.45594000000E+02  0.51100000000E-03 0.  1.
         11   -1    0    0    0    0 -0.00000000000E+00 -0.00000000000E+00 -0.45593999997E+02  0.45594000000E+02  0.51100000000E-03 0. -1.
    9900012    2    1    2    0    0  0.44854464587E+02 -0.14631403014E+01  0.38794011137E+01  0.46142317344E+02  0.99999961942E+01 0.  0.
         12    1    1    2    0    0 -0.44854464587E+02  0.14631403014E+01 -0.38794011137E+01  0.45045682656E+02  0.00000000000E+00 0. -1.
         11    1    3    3    0    0  0.14812204376E+02 -0.39811696217E+01  0.13778385835E+01  0.15399660693E+02  0.51100000000E-03 0. -1.
        -11    1    3    3    0    0  0.27727989038E+02  0.31829972154E+01  0.10474272096E+01  0.27929732390E+02  0.51100000000E-03 0.  1.
         12    1    3    3    0    0  0.23142711732E+01 -0.66496789509E+00  0.14541353206E+01  0.28129242605E+01  0.00000000000E+00 0. -1.
</event>
<event>
 7    1  0.2472338E-008  0.4614232E+02  0.7816164E-02  0.1320468E+00
        -11   -1    0    0    0    0  0.00000000000E+00  0.00000000000E+00  0.45593999997E+02  0.45594000000E+02  0.51100000000E-03 0. -1.
         11   -1    0    0    0    0 -0.00000000000E+00 -0.00000000000E+00 -0.45593999997E+02  0.45594000000E+02  0.51100000000E-03 0.  1.
    9900012    2    1    2    0    0 -0.22368323406E+02  0.11625920650E+02 -0.37331081329E+02  0.46142317009E+02  0.99999931395E+01 0.  0.
         12    1    1    2    0    0  0.22368323406E+02 -0.11625920650E+02  0.37331081329E+02  0.45045682991E+02  0.00000000000E+00 0. -1.
         11    1    3    3    0    0 -0.10741172772E+01  0.33403543215E+01 -0.65006195373E+01  0.73871340552E+01  0.51100000000E-03 0. -1.
        -11    1    3    3    0    0 -0.14294084249E+02  0.76370443278E+01 -0.23953205093E+02  0.28920603816E+02  0.51100000000E-03 0.  1.
        -12    1    3    3    0    0 -0.70001218803E+01  0.64852200090E+00 -0.68772566987E+01  0.98345791381E+01  0.00000000000E+00 0.  1.
</event>
<event>
 7    1  0.2472338E-008  0.4614232E+02  0.7816164E-02  0.1320468E+00
        -11   -1    0    0    0    0  0.00000000000E+00  0.00000000000E+00  0.45593999997E+02  0.45594000000E+02  0.51100000000E-03 0. -1.
         11   -1    0    0    0    0 -0.00000000000E+00 -0.00000000000E+00 -0.45593999997E+02  0.45594000000E+02  0.51100000000E-03 0.  1.
    9900012    2    1    2    0    0 -0.39981275331E+02 -0.88835408379E+01  0.18753500680E+02  0.46142318046E+02  0.10000002597E+02 0.  0.
         12    1    1    2    0    0  0.39981275331E+02  0.88835408379E+01 -0.18753500680E+02  0.45045681954E+02  0.00000000000E+00 0. -1.
         11    1    3    3    0    0 -0.44497020518E+01  0.26144892676E+00  0.55298690512E+00  0.44915474693E+01  0.51100000000E-03 0. -1.
        -11    1    3    3    0    0 -0.92603870308E+00  0.93237196172E+00  0.99486512286E-01  0.13178630361E+01  0.51100000000E-03 0.  1.
         12    1    3    3    0    0 -0.34605534577E+02 -0.10077361726E+02  0.18101027263E+02  0.40332907540E+02  0.00000000000E+00 0. -1.
</event>
<event>
 7    1  0.2472338E-008  0.4614232E+02  0.7816164E-02  0.1320468E+00
        -11   -1    0    0    0    0  0.00000000000E+00  0.00000000000E+00  0.45593999997E+02  0.45594000000E+02  0.51100000000E-03 0.  1.
         11   -1    0    0    0    0 -0.00000000000E+00 -0.00000000000E+00 -0.45593999997E+02  0.45594000000E+02  0.51100000000E-03 0. -1.
    9900012    2    1    2    0    0  0.14704844099E+02 -0.28998988726E+02  0.31175947332E+02  0.46142317864E+02  0.10000000934E+02 0.  0.
         12    1    1    2    0    0 -0.14704844099E+02  0.28998988726E+02 -0.31175947332E+02  0.45045682136E+02  0.00000000000E+00 0. -1.
         11    1    3    3    0    0 -0.56088060148E+00 -0.99989600145E+00  0.13605596168E+01  0.17791857111E+01  0.51100000000E-03 0. -1.
        -11    1    3    3    0    0  0.63443046277E+01 -0.12034397671E+02  0.18106051033E+02  0.22647428392E+02  0.51100000000E-03 0.  1.
         12    1    3    3    0    0  0.89214200723E+01 -0.15964695054E+02  0.11709336682E+02  0.21715703760E+02  0.00000000000E+00 0. -1.
</event>
<event>
 7    1  0.2472338E-008  0.4614232E+02  0.7816164E-02  0.1320468E+00
        -11   -1    0    0    0    0  0.00000000000E+00  0.00000000000E+00  0.45593999997E+02  0.45594000000E+02  0.51100000000E-03 0.  1.
         11   -1    0    0    0    0 -0.00000000000E+00 -0.00000000000E+00 -0.45593999997E+02  0.45594000000E+02  0.51100000000E-03 0. -1.
    9900012    2    1    2    0    0 -0.33287568170E+00 -0.19570640049E+02  0.40570834196E+02  0.46142319347E+02  0.10000014460E+02 0.  0.
         12    1    1    2    0    0  0.33287568170E+00  0.19570640049E+02 -0.40570834196E+02  0.45045680653E+02  0.00000000000E+00 0. -1.
         11    1    3    3    0    0 -0.16709223535E+01 -0.68488429311E+01  0.10628904581E+02  0.12754302955E+02  0.51100000000E-03 0. -1.
        -11    1    3    3    0    0 -0.66128845059E+00  0.80313074670E+00  0.30067298236E+01  0.31816262987E+01  0.51100000000E-03 0.  1.
        -12    1    3    3    0    0  0.19993351224E+01 -0.13524927865E+02  0.26935199791E+02  0.30206390093E+02  0.00000000000E+00 0.  1.
</event>
<event>
 7    1  0.2472338E-008  0.4614232E+02  0.7816164E-02  0.1320468E+00
        -11   -1    0    0    0    0  0.00000000000E+00  0.00000000000E+00  0.45593999997E+02  0.45594000000E+02  0.51100000000E-03 0.  1.
         11   -1    0    0    0    0 -0.00000000000E+00 -0.00000000000E+00 -0.45593999997E+02  0.45594000000E+02  0.51100000000E-03 0. -1.
    9900012    2    1    2    0    0  0.32158550995E+02  0.30423121177E+02  0.83291511794E+01  0.46142318036E+02  0.10000002508E+02 0.  0.
         12    1    1    2    0    0 -0.32158550995E+02 -0.30423121177E+02 -0.83291511794E+01  0.45045681964E+02  0.00000000000E+00 0. -1.
         11    1    3    3    0    0  0.95361136656E+01  0.13099546703E+02  0.64653855925E+01  0.17445251468E+02  0.51100000000E-03 0. -1.
        -11    1    3    3    0    0  0.18905054477E+02  0.15716199618E+02  0.17159075058E+01  0.24644357449E+02  0.51100000000E-03 0.  1.
         12    1    3    3    0    0  0.37173828518E+01  0.16073748555E+01  0.14785808115E+00  0.40527091192E+01  0.00000000000E+00 0. -1.
</event>
<event>
 7    1  0.2472338E-008  0.4614232E+02  0.7816164E-02  0.1320468E+00
        -11   -1    0    0    0    0  0.00000000000E+00  0.00000000000E+00  0.45593999997E+02  0.45594000000E+02  0.51100000000E-03 0.  1.
         11   -1    0    0    0    0 -0.00000000000E+00 -0.00000000000E+00 -0.45593999997E+02  0.45594000000E+02  0.51100000000E-03 0. -1.
    9900012    2    1    2    0    0  0.28329757735E+02 -0.33450523711E+02  0.10373078474E+02  0.46142317999E+02  0.10000002169E+02 0.  0.
         12    1    1    2    0    0 -0.28329757735E+02  0.33450523711E+02 -0.10373078474E+02  0.45045682001E+02  0.00000000000E+00 0. -1.
         11    1    3    3    0    0  0.78217845968E+00 -0.66492645095E+00 -0.89124247704E+00  0.13595012843E+01  0.51100000000E-03 0. -1.
        -11    1    3    3    0    0  0.34533013247E+01 -0.18822808736E+01  0.23974089388E+01  0.46060656973E+01  0.51100000000E-03 0.  1.
        -12    1    3    3    0    0  0.24094277951E+02 -0.30903316387E+02  0.88669120126E+01  0.40176751017E+02  0.00000000000E+00 0.  1.
</event>
<event>
 7    1  0.2472338E-008  0.4614232E+02  0.7816164E-02  0.1320468E+00
        -11   -1    0    0    0    0  0.00000000000E+00  0.00000000000E+00  0.45593999997E+02  0.45594000000E+02  0.51100000000E-03 0.  1.
         11   -1    0    0    0    0 -0.00000000000E+00 -0.00000000000E+00 -0.45593999997E+02  0.45594000000E+02  0.51100000000E-03 0. -1.
    9900012    2    1    2    0    0 -0.34413961089E+01 -0.18940648820E+02  0.40724955949E+02  0.46142318498E+02  0.10000006722E+02 0.  0.
         12    1    1    2    0    0  0.34413961089E+01  0.18940648820E+02 -0.40724955949E+02  0.45045681502E+02  0.00000000000E+00 0. -1.
         11    1    3    3    0    0  0.14417746971E+01 -0.30011236912E+00  0.12518336670E+01  0.19328397508E+01  0.51100000000E-03 0. -1.
        -11    1    3    3    0    0  0.92247985481E+00 -0.11837245460E+01  0.33829790176E+01  0.37009080207E+01  0.51100000000E-03 0.  1.
        -12    1    3    3    0    0 -0.58056506607E+01 -0.17456811905E+02  0.36090143265E+02  0.40508570727E+02  0.00000000000E+00 0.  1.
</event>
<event>
 7    1  0.2472338E-008  0.4614232E+02  0.7816164E-02  0.1320468E+00
        -11   -1    0    0    0    0  0.00000000000E+00  0.00000000000E+00  0.45593999997E+02  0.45594000000E+02  0.51100000000E-03 0.  1.
         11   -1    0    0    0    0 -0.00000000000E+00 -0.00000000000E+00 -0.45593999997E+02  0.45594000000E+02  0.51100000000E-03 0. -1.
    9900012    2    1    2    0    0  0.18258272677E-01 -0.39539453564E+02  0.21581119348E+02  0.46142318366E+02  0.10000005518E+02 0.  0.
         12    1    1    2    0    0 -0.18258272677E-01  0.39539453564E+02 -0.21581119348E+02  0.45045681634E+02  0.00000000000E+00 0. -1.
         11    1    3    3    0    0  0.11111868148E+01 -0.20134405059E+02  0.12836035328E+02  0.23903824096E+02  0.51100000000E-03 0. -1.
        -11    1    3    3    0    0  0.23036342628E+01 -0.97946236122E+01  0.28245808190E+01  0.10450820044E+02  0.51100000000E-03 0.  1.
         12    1    3    3    0    0 -0.33965628049E+01 -0.96104248929E+01  0.59205032016E+01  0.11787674227E+02  0.00000000000E+00 0. -1.
</event>
<event>
 7    1  0.2472338E-008  0.4614232E+02  0.7816164E-02  0.1320468E+00
        -11   -1    0    0    0    0  0.00000000000E+00  0.00000000000E+00  0.45593999997E+02  0.45594000000E+02  0.51100000000E-03 0. -1.
         11   -1    0    0    0    0 -0.00000000000E+00 -0.00000000000E+00 -0.45593999997E+02  0.45594000000E+02  0.51100000000E-03 0.  1.
    9900012    2    1    2    0    0  0.66295076651E+01 -0.34124627790E+02 -0.28647388929E+02  0.46142317786E+02  0.10000000229E+02 0.  0.
         12    1    1    2    0    0 -0.66295076651E+01  0.34124627790E+02  0.28647388929E+02  0.45045682214E+02  0.00000000000E+00 0. -1.
         11    1    3    3    0    0  0.36577114839E+00 -0.10231091351E+02 -0.59719120204E+01  0.11852120157E+02  0.51100000000E-03 0. -1.
        -11    1    3    3    0    0  0.35254512636E+01 -0.82295135964E+01 -0.41262534154E+01  0.98579748506E+01  0.51100000000E-03 0.  1.
         12    1    3    3    0    0  0.27382852531E+01 -0.15664022842E+02 -0.18549223493E+02  0.24432222779E+02  0.00000000000E+00 0. -1.
</event>
<event>
 7    1  0.2472338E-008  0.4614232E+02  0.7816164E-02  0.1320468E+00
        -11   -1    0    0    0    0  0.00000000000E+00  0.00000000000E+00  0.45593999997E+02  0.45594000000E+02  0.51100000000E-03 0. -1.
         11   -1    0    0    0    0 -0.00000000000E+00 -0.00000000000E+00 -0.45593999997E+02  0.45594000000E+02  0.51100000000E-03 0.  1.
    9900012    2    1    2    0    0 -0.42037839045E+02  0.16182229280E+02 -0.26263249726E+00  0.46142318388E+02  0.10000005715E+02 0.  0.
         12    1    1    2    0    0  0.42037839045E+02 -0.16182229280E+02  0.26263249726E+00  0.45045681612E+02  0.00000000000E+00 0. -1.
         11    1    3    3    0    0 -0.11776509427E+02  0.21214051621E+01 -0.19378317137E+01  0.12121952242E+02  0.51100000000E-03 0. -1.
        -11    1    3    3    0    0 -0.25258448797E+02  0.10804896227E+02  0.36928115539E+01  0.27719521560E+02  0.51100000000E-03 0.  1.
        -12    1    3    3    0    0 -0.50028808215E+01  0.32559278914E+01 -0.20176123375E+01  0.63008445857E+01  0.00000000000E+00 0.  1.
</event>
<event>
 7    1  0.2472338E-008  0.4614232E+02  0.7816164E-02  0.1320468E+00
        -11   -1    0    0    0    0  0.00000000000E+00  0.00000000000E+00  0.45593999997E+02  0.45594000000E+02  0.51100000000E-03 0.  1.
         11   -1    0    0    0    0 -0.00000000000E+00 -0.00000000000E+00 -0.45593999997E+02  0.45594000000E+02  0.51100000000E-03 0. -1.
    9900012    2    1    2    0    0 -0.13707596715E+02 -0.29394173784E+02  0.31260163461E+02  0.46142317857E+02  0.10000000871E+02 0.  0.
         12    1    1    2    0    0  0.13707596715E+02  0.29394173784E+02 -0.31260163461E+02  0.45045682143E+02  0.00000000000E+00 0. -1.
         11    1    3    3    0    0 -0.35641731520E+01 -0.52722440982E+01  0.66121236769E+01  0.91771492234E+01  0.51100000000E-03 0. -1.
        -11    1    3    3    0    0 -0.77469189973E+01 -0.10459733294E+02  0.15973838820E+02  0.20605443490E+02  0.51100000000E-03 0.  1.
         12    1    3    3    0    0 -0.23965045662E+01 -0.13662196392E+02  0.86742009647E+01  0.16359725143E+02  0.00000000000E+00 0. -1.
</event>
<event>
 7    1  0.2472338E-008  0.4614232E+02  0.7816164E-02  0.1320468E+00
        -11   -1    0    0    0    0  0.00000000000E+00  0.00000000000E+00  0.45593999997E+02  0.45594000000E+02  0.51100000000E-03 0.  1.
         11   -1    0    0    0    0 -0.00000000000E+00 -0.00000000000E+00 -0.45593999997E+02  0.45594000000E+02  0.51100000000E-03 0. -1.
    9900012    2    1    2    0    0  0.44636351087E+01  0.17789317073E+02  0.41142796346E+02  0.46142317282E+02  0.99999956355E+01 0.  0.
         12    1    1    2    0    0 -0.44636351087E+01 -0.17789317073E+02 -0.41142796346E+02  0.45045682718E+02  0.00000000000E+00 0. -1.
         11    1    3    3    0    0 -0.19106291825E-01  0.25524400744E+01  0.42465070685E+01  0.49546077471E+01  0.51100000000E-03 0. -1.
        -11    1    3    3    0    0  0.62023109066E+01  0.15144515459E+02  0.31127834448E+02  0.35167699480E+02  0.51100000000E-03 0.  1.
        -12    1    3    3    0    0 -0.17195695061E+01  0.92361539936E-01  0.57684548296E+01  0.60200100549E+01  0.00000000000E+00 0.  1.
</event>
<event>
 7    1  0.2472338E-008  0.4614232E+02  0.7816164E-02  0.1320468E+00
        -11   -1    0    0    0    0  0.00000000000E+00  0.00000000000E+00  0.45593999997E+02  0.45594000000E+02  0.51100000000E-03 0.  1.
         11   -1    0    0    0    0 -0.00000000000E+00 -0.00000000000E+00 -0.45593999997E+02  0.45594000000E+02  0.51100000000E-03 0. -1.
    9900012    2    1    2    0    0  0.13278182657E+02  0.31966796495E+02  0.28825806864E+02  0.46142319250E+02  0.10000013580E+02 0.  0.
         12    1    1    2    0    0 -0.13278182657E+02 -0.31966796495E+02 -0.28825806864E+02  0.45045680750E+02  0.00000000000E+00 0. -1.
         11    1    3    3    0    0  0.29531881088E+01  0.11821547170E+02  0.10762224214E+02  0.16257175887E+02  0.51100000000E-03 0. -1.
        -11    1    3    3    0    0  0.11917211257E+01  0.42223986587E+01  0.75472766999E+01  0.87298473939E+01  0.51100000000E-03 0.  1.
        -12    1    3    3    0    0  0.91332734226E+01  0.15922850666E+02  0.10516305950E+02  0.21155295970E+02  0.00000000000E+00 0.  1.
</event>
<event>
 7    1  0.2472338E-008  0.4614232E+02  0.7816164E-02  0.1320468E+00
        -11   -1    0    0    0    0  0.00000000000E+00  0.00000000000E+00  0.45593999997E+02  0.45594000000E+02  0.51100000000E-03 0.  1.
         11   -1    0    0    0    0 -0.00000000000E+00 -0.00000000000E+00 -0.45593999997E+02  0.45594000000E+02  0.51100000000E-03 0. -1.
    9900012    2    1    2    0    0 -0.21572100571E+02 -0.20085455992E+02  0.34063653759E+02  0.46142316823E+02  0.99999914438E+01 0.  0.
         12    1    1    2    0    0  0.21572100571E+02  0.20085455992E+02 -0.34063653759E+02  0.45045683177E+02  0.00000000000E+00 0. -1.
         11    1    3    3    0    0 -0.29110004019E+01 -0.65419478910E+01  0.10469143776E+02  0.12683610575E+02  0.51100000000E-03 0. -1.
        -11    1    3    3    0    0 -0.70418881861E+01 -0.85441169922E+01  0.11225340210E+02  0.15767003123E+02  0.51100000000E-03 0.  1.
         12    1    3    3    0    0 -0.11619211983E+02 -0.49993911090E+01  0.12369169774E+02  0.17691703125E+02  0.00000000000E+00 0. -1.
</event>
<event>
 7    1  0.2472338E-008  0.4614232E+02  0.7816164E-02  0.1320468E+00
        -11   -1    0    0    0    0  0.00000000000E+00  0.00000000000E+00  0.45593999997E+02  0.45594000000E+02  0.51100000000E-03 0.  1.
         11   -1    0    0    0    0 -0.00000000000E+00 -0.00000000000E+00 -0.45593999997E+02  0.45594000000E+02  0.51100000000E-03 0. -1.
    9900012    2    1    2    0    0  0.23658470615E+01  0.38891090409E+02  0.22605292917E+02  0.46142318593E+02  0.10000007587E+02 0.  0.
         12    1    1    2    0    0 -0.23658470615E+01 -0.38891090409E+02 -0.22605292917E+02  0.45045681407E+02  0.00000000000E+00 0. -1.
         11    1    3    3    0    0  0.19124332791E+01  0.51105833111E+01  0.67761846787E+01  0.87001230961E+01  0.51100000000E-03 0. -1.
        -11    1    3    3    0    0  0.17530366504E+01  0.17581569107E+02  0.87408676789E+01  0.19712622296E+02  0.51100000000E-03 0.  1.
         12    1    3    3    0    0 -0.12996228680E+01  0.16198937991E+02  0.70882405595E+01  0.17729573201E+02  0.00000000000E+00 0. -1.
</event>
<event>
 7    1  0.2472338E-008  0.4614232E+02  0.7816164E-02  0.1320468E+00
        -11   -1    0    0    0    0  0.00000000000E+00  0.00000000000E+00  0.45593999997E+02  0.45594000000E+02  0.51100000000E-03 0.  1.
         11   -1    0    0    0    0 -0.00000000000E+00 -0.00000000000E+00 -0.45593999997E+02  0.45594000000E+02  0.51100000000E-03 0. -1.
    9900012    2    1    2    0    0 -0.41804419906E+01 -0.40209298158E+02  0.19870830420E+02  0.46142315909E+02  0.99999831146E+01 0.  0.
         12    1    1    2    0    0  0.41804419906E+01  0.40209298158E+02 -0.19870830420E+02  0.45045684091E+02  0.00000000000E+00 0. -1.
         11    1    3    3    0    0 -0.35889755135E+01 -0.29963043306E+02  0.11254622838E+02  0.32207627123E+02  0.51100000000E-03 0. -1.
        -11    1    3    3    0    0 -0.10416464356E+01 -0.10386376567E+02  0.84654012814E+01  0.13439675018E+02  0.51100000000E-03 0.  1.
         12    1    3    3    0    0  0.45017995843E+00  0.14012171510E+00  0.15080630061E+00  0.49501376781E+00  0.00000000000E+00 0. -1.
</event>
<event>
 7    1  0.2472338E-008  0.4614232E+02  0.7816164E-02  0.1320468E+00
        -11   -1    0    0    0    0  0.00000000000E+00  0.00000000000E+00  0.45593999997E+02  0.45594000000E+02  0.51100000000E-03 0.  1.
         11   -1    0    0    0    0 -0.00000000000E+00 -0.00000000000E+00 -0.45593999997E+02  0.45594000000E+02  0.51100000000E-03 0. -1.
    9900012    2    1    2    0    0 -0.11331380297E+02 -0.22820992673E+02  0.37147215393E+02  0.46142317660E+02  0.99999990773E+01 0.  0.
         12    1    1    2    0    0  0.11331380297E+02  0.22820992673E+02 -0.37147215393E+02  0.45045682340E+02  0.00000000000E+00 0. -1.
         11    1    3    3    0    0 -0.39038831512E+01 -0.37737582427E+01  0.51599010394E+01  0.74904027882E+01  0.51100000000E-03 0. -1.
        -11    1    3    3    0    0 -0.54434735099E+01 -0.52848789740E+01  0.88395275833E+01  0.11648974108E+02  0.51100000000E-03 0.  1.
        -12    1    3    3    0    0 -0.19840236361E+01 -0.13762355457E+02  0.23147786770E+02  0.27002940763E+02  0.00000000000E+00 0.  1.
</event>
<event>
 7    1  0.2472338E-008  0.4614231E+02  0.7816164E-02  0.1320468E+00
        -11   -1    0    0    0    0  0.00000000000E+00  0.00000000000E+00  0.45593999997E+02  0.45594000000E+02  0.51100000000E-03 0.  1.
         11   -1    0    0    0    0 -0.00000000000E+00 -0.00000000000E+00 -0.45593999997E+02  0.45594000000E+02  0.51100000000E-03 0. -1.
    9900012    2    1    2    0    0  0.59794264043E+01 -0.23944630204E+02  0.37683085546E+02  0.46142314391E+02  0.99999692676E+01 0.  0.
         12    1    1    2    0    0 -0.59794264043E+01  0.23944630204E+02 -0.37683085546E+02  0.45045685609E+02  0.00000000000E+00 0. -1.
         11    1    3    3    0    0  0.43584300573E+01 -0.53896887887E+01  0.89717223414E+01  0.11337392109E+02  0.51100000000E-03 0.  1.
        -11    1    3    3    0    0 -0.19689159824E+01 -0.99593942302E+01  0.12449998674E+02  0.16064514646E+02  0.51100000000E-03 0. -1.
        -12    1    3    3    0    0  0.35899123294E+01 -0.85955471846E+01  0.16261364531E+02  0.18740407636E+02  0.00000000000E+00 0.  1.
</event>
<event>
 7    1  0.2472338E-008  0.4614232E+02  0.7816164E-02  0.1320468E+00
        -11   -1    0    0    0    0  0.00000000000E+00  0.00000000000E+00  0.45593999997E+02  0.45594000000E+02  0.51100000000E-03 0.  1.
         11   -1    0    0    0    0 -0.00000000000E+00 -0.00000000000E+00 -0.45593999997E+02  0.45594000000E+02  0.51100000000E-03 0. -1.
    9900012    2    1    2    0    0 -0.20682218066E+02  0.34782242758E+02  0.19787745887E+02  0.46142318268E+02  0.10000004623E+02 0.  0.
         12    1    1    2    0    0  0.20682218066E+02 -0.34782242758E+02 -0.19787745887E+02  0.45045681732E+02  0.00000000000E+00 0. -1.
         11    1    3    3    0    0 -0.49741252083E+01  0.11820669731E+02  0.57392616608E+01  0.14050241248E+02  0.51100000000E-03 0. -1.
        -11    1    3    3    0    0 -0.59466045114E+01  0.93444622456E+01  0.98432681902E+01  0.14817928627E+02  0.51100000000E-03 0.  1.
         12    1    3    3    0    0 -0.97614883463E+01  0.13617110781E+02  0.42052160365E+01  0.17274148392E+02  0.00000000000E+00 0. -1.
</event>
<event>
 7    1  0.2472338E-008  0.4614232E+02  0.7816164E-02  0.1320468E+00
        -11   -1    0    0    0    0  0.00000000000E+00  0.00000000000E+00  0.45593999997E+02  0.45594000000E+02  0.51100000000E-03 0.  1.
         11   -1    0    0    0    0 -0.00000000000E+00 -0.00000000000E+00 -0.45593999997E+02  0.45594000000E+02  0.51100000000E-03 0. -1.
    9900012    2    1    2    0    0 -0.16072540530E+02 -0.52838163232E+01  0.41747674564E+02  0.46142316461E+02  0.99999881410E+01 0.  0.
         12    1    1    2    0    0  0.16072540530E+02  0.52838163232E+01 -0.41747674564E+02  0.45045683539E+02  0.00000000000E+00 0. -1.
         11    1    3    3    0    0 -0.88127650333E-01 -0.17030562692E+01  0.13111983512E+01  0.21511412125E+01  0.51100000000E-03 0. -1.
        -11    1    3    3    0    0 -0.21183987870E+01 -0.21509358816E+01  0.42537631480E+01  0.52161901584E+01  0.51100000000E-03 0.  1.
        -12    1    3    3    0    0 -0.13866014093E+02 -0.14298241725E+01  0.36182713065E+02  0.38774985090E+02  0.00000000000E+00 0.  1.
</event>
<event>
 7    1  0.2472338E-008  0.4614232E+02  0.7816164E-02  0.1320468E+00
        -11   -1    0    0    0    0  0.00000000000E+00  0.00000000000E+00  0.45593999997E+02  0.45594000000E+02  0.51100000000E-03 0. -1.
         11   -1    0    0    0    0 -0.00000000000E+00 -0.00000000000E+00 -0.45593999997E+02  0.45594000000E+02  0.51100000000E-03 0.  1.
    9900012    2    1    2    0    0  0.20408002446E+02  0.31699719429E+02 -0.24652681925E+02  0.46142317612E+02  0.99999986428E+01 0.  0.
         12    1    1    2    0    0 -0.20408002446E+02 -0.31699719429E+02  0.24652681925E+02  0.45045682388E+02  0.00000000000E+00 0. -1.
         11    1    3    3    0    0  0.31380238726E+01  0.61330253529E+01 -0.66633614325E+01  0.95844446708E+01  0.51100000000E-03 0. -1.
        -11    1    3    3    0    0  0.10630408543E+02  0.13949515290E+02 -0.14430586068E+02  0.22712031550E+02  0.51100000000E-03 0.  1.
         12    1    3    3    0    0  0.66395700309E+01  0.11617178786E+02 -0.35587344241E+01  0.13845841391E+02  0.00000000000E+00 0. -1.
</event>
<event>
 7    1  0.2472338E-008  0.4614232E+02  0.7816164E-02  0.1320468E+00
        -11   -1    0    0    0    0  0.00000000000E+00  0.00000000000E+00  0.45593999997E+02  0.45594000000E+02  0.51100000000E-03 0.  1.
         11   -1    0    0    0    0 -0.00000000000E+00 -0.00000000000E+00 -0.45593999997E+02  0.45594000000E+02  0.51100000000E-03 0. -1.
    9900012    2    1    2    0    0 -0.13884529398E+02  0.41988026149E+02  0.85638216808E+01  0.46142317207E+02  0.99999949509E+01 0.  0.
         12    1    1    2    0    0  0.13884529398E+02 -0.41988026149E+02 -0.85638216808E+01  0.45045682793E+02  0.00000000000E+00 0. -1.
         11    1    3    3    0    0 -0.51704232963E+01  0.18159693433E+02  0.50864983590E+01  0.19554544445E+02  0.51100000000E-03 0.  1.
        -11    1    3    3    0    0 -0.60351388403E+01  0.18560341882E+02  0.56059932631E+01  0.20306066885E+02  0.51100000000E-03 0. -1.
         12    1    3    3    0    0 -0.26789672614E+01  0.52679908336E+01 -0.21286699413E+01  0.62817058774E+01  0.00000000000E+00 0. -1.
</event>
<event>
 7    1  0.2472338E-008  0.4614232E+02  0.7816164E-02  0.1320468E+00
        -11   -1    0    0    0    0  0.00000000000E+00  0.00000000000E+00  0.45593999997E+02  0.45594000000E+02  0.51100000000E-03 0.  1.
         11   -1    0    0    0    0 -0.00000000000E+00 -0.00000000000E+00 -0.45593999997E+02  0.45594000000E+02  0.51100000000E-03 0. -1.
    9900012    2    1    2    0    0 -0.41693268045E+02  0.16548312621E+02  0.41156188606E+01  0.46142316861E+02  0.99999917883E+01 0.  0.
         12    1    1    2    0    0  0.41693268045E+02 -0.16548312621E+02 -0.41156188606E+01  0.45045683139E+02  0.00000000000E+00 0. -1.
         11    1    3    3    0    0  0.11223618749E-01  0.83797615417E+00  0.40702819337E+00  0.93166636512E+00  0.51100000000E-03 0. -1.
        -11    1    3    3    0    0 -0.47075190712E+01  0.33849076095E+01  0.21485217482E+01  0.61834036982E+01  0.51100000000E-03 0.  1.
        -12    1    3    3    0    0 -0.36996972593E+02  0.12325428857E+02  0.15600689190E+01  0.39027246797E+02  0.00000000000E+00 0.  1.
</event>
<event>
 7    1  0.2472338E-008  0.4614232E+02  0.7816164E-02  0.1320468E+00
        -11   -1    0    0    0    0  0.00000000000E+00  0.00000000000E+00  0.45593999997E+02  0.45594000000E+02  0.51100000000E-03 0. -1.
         11   -1    0    0    0    0 -0.00000000000E+00 -0.00000000000E+00 -0.45593999997E+02  0.45594000000E+02  0.51100000000E-03 0.  1.
    9900012    2    1    2    0    0  0.42039309741E+02 -0.58157139115E+01 -0.15099257815E+02  0.46142315652E+02  0.99999807673E+01 0.  0.
         12    1    1    2    0    0 -0.42039309741E+02  0.58157139115E+01  0.15099257815E+02  0.45045684348E+02  0.00000000000E+00 0. -1.
         11    1    3    3    0    0  0.20483835414E+01 -0.27681543446E+01 -0.17780462349E+01  0.38755647695E+01  0.51100000000E-03 0. -1.
        -11    1    3    3    0    0  0.93661822846E+01 -0.96622539875E+00 -0.32747377912E+01  0.99690957449E+01  0.51100000000E-03 0.  1.
        -12    1    3    3    0    0  0.30624743915E+02 -0.20813341682E+01 -0.10046473789E+02  0.32297655138E+02  0.00000000000E+00 0.  1.
</event>
<event>
 7    1  0.2472338E-008  0.4614232E+02  0.7816164E-02  0.1320468E+00
        -11   -1    0    0    0    0  0.00000000000E+00  0.00000000000E+00  0.45593999997E+02  0.45594000000E+02  0.51100000000E-03 0.  1.
         11   -1    0    0    0    0 -0.00000000000E+00 -0.00000000000E+00 -0.45593999997E+02  0.45594000000E+02  0.51100000000E-03 0. -1.
    9900012    2    1    2    0    0 -0.33222424544E+02 -0.30417770577E+02  0.37837871584E+00  0.46142318409E+02  0.10000005912E+02 0.  0.
         12    1    1    2    0    0  0.33222424544E+02  0.30417770577E+02 -0.37837871584E+00  0.45045681591E+02  0.00000000000E+00 0. -1.
         11    1    3    3    0    0 -0.18684540277E+02 -0.14602182792E+02 -0.17021223375E+01  0.23774629511E+02  0.51100000000E-03 0. -1.
        -11    1    3    3    0    0 -0.13904061552E+02 -0.13576728706E+02  0.33456707720E+01  0.19719127850E+02  0.51100000000E-03 0.  1.
         12    1    3    3    0    0 -0.63382271524E+00 -0.22388590789E+01 -0.12651697186E+01  0.26485610482E+01  0.00000000000E+00 0. -1.
</event>
<event>
 7    1  0.2472338E-008  0.4614232E+02  0.7816164E-02  0.1320468E+00
        -11   -1    0    0    0    0  0.00000000000E+00  0.00000000000E+00  0.45593999997E+02  0.45594000000E+02  0.51100000000E-03 0. -1.
         11   -1    0    0    0    0 -0.00000000000E+00 -0.00000000000E+00 -0.45593999997E+02  0.45594000000E+02  0.51100000000E-03 0.  1.
    9900012    2    1    2    0    0  0.21142109044E+02  0.93183606189E+01 -0.38669016540E+02  0.46142318080E+02  0.10000002906E+02 0.  0.
         12    1    1    2    0    0 -0.21142109044E+02 -0.93183606189E+01  0.38669016540E+02  0.45045681920E+02  0.00000000000E+00 0. -1.
         11    1    3    3    0    0  0.39329759050E+01  0.63053205276E+00 -0.14757730322E+02  0.15285825940E+02  0.51100000000E-03 0. -1.
        -11    1    3    3    0    0  0.44856935196E+01  0.36237828269E+01 -0.80357867181E+01  0.98907591604E+01  0.51100000000E-03 0.  1.
        -12    1    3    3    0    0  0.12723439619E+02  0.50640457392E+01 -0.15875499500E+02  0.20965732980E+02  0.00000000000E+00 0.  1.
</event>
<event>
 7    1  0.2472338E-008  0.4614232E+02  0.7816164E-02  0.1320468E+00
        -11   -1    0    0    0    0  0.00000000000E+00  0.00000000000E+00  0.45593999997E+02  0.45594000000E+02  0.51100000000E-03 0. -1.
         11   -1    0    0    0    0 -0.00000000000E+00 -0.00000000000E+00 -0.45593999997E+02  0.45594000000E+02  0.51100000000E-03 0.  1.
    9900012    2    1    2    0    0 -0.41383171827E+01 -0.43879344426E+02  0.93054205656E+01  0.46142318872E+02  0.10000010131E+02 0.  0.
         12    1    1    2    0    0  0.41383171827E+01  0.43879344426E+02 -0.93054205656E+01  0.45045681128E+02  0.00000000000E+00 0. -1.
         11    1    3    3    0    0 -0.13400369696E+01 -0.18358908575E+02  0.25808779075E+01  0.18587795840E+02  0.51100000000E-03 0. -1.
        -11    1    3    3    0    0 -0.22340965774E+01 -0.21456136618E+02  0.25859237475E+01  0.21726573314E+02  0.51100000000E-03 0.  1.
         12    1    3    3    0    0 -0.56418363571E+00 -0.40642992331E+01  0.41386189105E+01  0.58279497181E+01  0.00000000000E+00 0. -1.
</event>
<event>
 7    1  0.2472338E-008  0.4614232E+02  0.7816164E-02  0.1320468E+00
        -11   -1    0    0    0    0  0.00000000000E+00  0.00000000000E+00  0.45593999997E+02  0.45594000000E+02  0.51100000000E-03 0.  1.
         11   -1    0    0    0    0 -0.00000000000E+00 -0.00000000000E+00 -0.45593999997E+02  0.45594000000E+02  0.51100000000E-03 0. -1.
    9900012    2    1    2    0    0 -0.68731899390E+01 -0.30730622776E+02  0.32210272154E+02  0.46142317096E+02  0.99999939324E+01 0.  0.
         12    1    1    2    0    0  0.68731899390E+01  0.30730622776E+02 -0.32210272154E+02  0.45045682904E+02  0.00000000000E+00 0. -1.
         11    1    3    3    0    0  0.39398225094E+00 -0.14290616725E+01  0.16435354870E+00  0.14914595630E+01  0.51100000000E-03 0. -1.
        -11    1    3    3    0    0 -0.33174762065E+01 -0.11894445629E+02  0.18502954668E+02  0.22245062754E+02  0.51100000000E-03 0.  1.
        -12    1    3    3    0    0 -0.39496959835E+01 -0.17407115474E+02  0.13542963936E+02  0.22405794779E+02  0.00000000000E+00 0.  1.
</event>
<event>
 7    1  0.2472338E-008  0.4614232E+02  0.7816164E-02  0.1320468E+00
        -11   -1    0    0    0    0  0.00000000000E+00  0.00000000000E+00  0.45593999997E+02  0.45594000000E+02  0.51100000000E-03 0. -1.
         11   -1    0    0    0    0 -0.00000000000E+00 -0.00000000000E+00 -0.45593999997E+02  0.45594000000E+02  0.51100000000E-03 0.  1.
    9900012    2    1    2    0    0  0.32369028207E+02 -0.31618921293E+01 -0.31166678508E+02  0.46142318763E+02  0.10000009132E+02 0.  0.
         12    1    1    2    0    0 -0.32369028207E+02  0.31618921293E+01  0.31166678508E+02  0.45045681237E+02  0.00000000000E+00 0. -1.
         11    1    3    3    0    0  0.99014236254E+00 -0.20784390152E+01 -0.23440071527E+01  0.32855228551E+01  0.51100000000E-03 0. -1.
        -11    1    3    3    0    0  0.87733351637E+01  0.13885569320E+01 -0.66505098431E+01  0.11096340914E+02  0.51100000000E-03 0.  1.
        -12    1    3    3    0    0  0.22605550681E+02 -0.24720100460E+01 -0.22172161512E+02  0.31760454993E+02  0.00000000000E+00 0.  1.
</event>
<event>
 7    1  0.2472338E-008  0.4614232E+02  0.7816164E-02  0.1320468E+00
        -11   -1    0    0    0    0  0.00000000000E+00  0.00000000000E+00  0.45593999997E+02  0.45594000000E+02  0.51100000000E-03 0.  1.
         11   -1    0    0    0    0 -0.00000000000E+00 -0.00000000000E+00 -0.45593999997E+02  0.45594000000E+02  0.51100000000E-03 0. -1.
    9900012    2    1    2    0    0 -0.11746631607E+02 -0.11234714836E+02  0.42010845995E+02  0.46142319266E+02  0.10000013723E+02 0.  0.
         12    1    1    2    0    0  0.11746631607E+02  0.11234714836E+02 -0.42010845995E+02  0.45045680734E+02  0.00000000000E+00 0. -1.
         11    1    3    3    0    0 -0.51627110918E+01 -0.83177775362E+00  0.94546158459E+01  0.10804406560E+02  0.51100000000E-03 0. -1.
        -11    1    3    3    0    0 -0.43854564656E+01 -0.17459172724E+01  0.93942706140E+01  0.10513456908E+02  0.51100000000E-03 0.  1.
        -12    1    3    3    0    0 -0.21984640498E+01 -0.86570198097E+01  0.23161959535E+02  0.24824455798E+02  0.00000000000E+00 0.  1.
</event>
<event>
 7    1  0.2472338E-008  0.4614232E+02  0.7816164E-02  0.1320468E+00
        -11   -1    0    0    0    0  0.00000000000E+00  0.00000000000E+00  0.45593999997E+02  0.45594000000E+02  0.51100000000E-03 0.  1.
         11   -1    0    0    0    0 -0.00000000000E+00 -0.00000000000E+00 -0.45593999997E+02  0.45594000000E+02  0.51100000000E-03 0. -1.
    9900012    2    1    2    0    0 -0.24890882173E+01  0.29872753929E+02  0.33623454305E+02  0.46142315779E+02  0.99999819292E+01 0.  0.
         12    1    1    2    0    0  0.24890882173E+01 -0.29872753929E+02 -0.33623454305E+02  0.45045684221E+02  0.00000000000E+00 0. -1.
         11    1    3    3    0    0 -0.55680308769E+00 -0.41977298607E+00  0.19056388130E+01  0.20292113210E+01  0.51100000000E-03 0. -1.
        -11    1    3    3    0    0 -0.14455830095E+00  0.54683631539E+01  0.35313890502E+01  0.65111136966E+01  0.51100000000E-03 0.  1.
        -12    1    3    3    0    0 -0.17877268287E+01  0.24824163761E+02  0.28186426442E+02  0.37601990762E+02  0.00000000000E+00 0.  1.
</event>
<event>
 7    1  0.2472338E-008  0.4614232E+02  0.7816164E-02  0.1320468E+00
        -11   -1    0    0    0    0  0.00000000000E+00  0.00000000000E+00  0.45593999997E+02  0.45594000000E+02  0.51100000000E-03 0.  1.
         11   -1    0    0    0    0 -0.00000000000E+00 -0.00000000000E+00 -0.45593999997E+02  0.45594000000E+02  0.51100000000E-03 0. -1.
    9900012    2    1    2    0    0 -0.22621914980E+01 -0.20956614329E+01  0.44940006771E+02  0.46142317457E+02  0.99999972243E+01 0.  0.
         12    1    1    2    0    0  0.22621914980E+01  0.20956614329E+01 -0.44940006771E+02  0.45045682543E+02  0.00000000000E+00 0. -1.
         11    1    3    3    0    0  0.10649514728E+01  0.28743212090E-01  0.11617330212E+01  0.15762524180E+01  0.51100000000E-03 0. -1.
        -11    1    3    3    0    0  0.64441802480E-02 -0.37482521979E+01  0.31977487655E+02  0.32196415220E+02  0.51100000000E-03 0.  1.
        -12    1    3    3    0    0 -0.33335871511E+01  0.16238475529E+01  0.11800786095E+02  0.12369649818E+02  0.00000000000E+00 0.  1.
</event>
<event>
 7    1  0.2472338E-008  0.4614232E+02  0.7816164E-02  0.1320468E+00
        -11   -1    0    0    0    0  0.00000000000E+00  0.00000000000E+00  0.45593999997E+02  0.45594000000E+02  0.51100000000E-03 0. -1.
         11   -1    0    0    0    0 -0.00000000000E+00 -0.00000000000E+00 -0.45593999997E+02  0.45594000000E+02  0.51100000000E-03 0.  1.
    9900012    2    1    2    0    0  0.10379994044E+02 -0.41635252103E+02 -0.13706750705E+02  0.46142317533E+02  0.99999979205E+01 0.  0.
         12    1    1    2    0    0 -0.10379994044E+02  0.41635252103E+02  0.13706750705E+02  0.45045682467E+02  0.00000000000E+00 0. -1.
         11    1    3    3    0    0  0.51421539283E+01 -0.26976964997E+02 -0.69548404756E+01  0.28329634551E+02  0.51100000000E-03 0.  1.
        -11    1    3    3    0    0  0.12019400974E+01 -0.10425573676E+02 -0.54321709561E+01  0.11817179360E+02  0.51100000000E-03 0. -1.
        -12    1    3    3    0    0  0.40359000180E+01 -0.42327134298E+01 -0.13197392734E+01  0.59955036222E+01  0.00000000000E+00 0.  1.
</event>
<event>
 7    1  0.2472338E-008  0.4614231E+02  0.7816164E-02  0.1320468E+00
        -11   -1    0    0    0    0  0.00000000000E+00  0.00000000000E+00  0.45593999997E+02  0.45594000000E+02  0.51100000000E-03 0. -1.
         11   -1    0    0    0    0 -0.00000000000E+00 -0.00000000000E+00 -0.45593999997E+02  0.45594000000E+02  0.51100000000E-03 0.  1.
    9900012    2    1    2    0    0  0.40190582274E+02 -0.26841749481E+01 -0.20164976637E+02  0.46142312288E+02  0.99999500919E+01 0.  0.
         12    1    1    2    0    0 -0.40190582274E+02  0.26841749481E+01  0.20164976637E+02  0.45045687712E+02  0.00000000000E+00 0. -1.
         11    1    3    3    0    0  0.77998054182E+01 -0.30843383702E+01 -0.61124877505E+01  0.10378468794E+02  0.51100000000E-03 0. -1.
        -11    1    3    3    0    0  0.15440943294E+02 -0.26363365709E+01 -0.64400632902E+01  0.16936570366E+02  0.51100000000E-03 0.  1.
         12    1    3    3    0    0  0.16949833562E+02  0.30364999929E+01 -0.76124255959E+01  0.18827273128E+02  0.00000000000E+00 0. -1.
</event>
<event>
 7    1  0.2472338E-008  0.4614232E+02  0.7816164E-02  0.1320468E+00
        -11   -1    0    0    0    0  0.00000000000E+00  0.00000000000E+00  0.45593999997E+02  0.45594000000E+02  0.51100000000E-03 0. -1.
         11   -1    0    0    0    0 -0.00000000000E+00 -0.00000000000E+00 -0.45593999997E+02  0.45594000000E+02  0.51100000000E-03 0.  1.
    9900012    2    1    2    0    0 -0.24282182845E+02  0.36740827386E+02 -0.94657658580E+01  0.46142317366E+02  0.99999963930E+01 0.  0.
         12    1    1    2    0    0  0.24282182845E+02 -0.36740827386E+02  0.94657658580E+01  0.45045682634E+02  0.00000000000E+00 0. -1.
         11    1    3    3    0    0 -0.48316352321E+01  0.52687011649E+01 -0.26599439302E+01  0.76275299380E+01  0.51100000000E-03 0. -1.
        -11    1    3    3    0    0 -0.68776921835E+01  0.47080799063E+01 -0.17231739550E+01  0.85110513402E+01  0.51100000000E-03 0.  1.
         12    1    3    3    0    0 -0.12572855429E+02  0.26764046315E+02 -0.50826479728E+01  0.30003736087E+02  0.00000000000E+00 0. -1.
</event>
<event>
 7    1  0.2472338E-008  0.4614232E+02  0.7816164E-02  0.1320468E+00
        -11   -1    0    0    0    0  0.00000000000E+00  0.00000000000E+00  0.45593999997E+02  0.45594000000E+02  0.51100000000E-03 0.  1.
         11   -1    0    0    0    0 -0.00000000000E+00 -0.00000000000E+00 -0.45593999997E+02  0.45594000000E+02  0.51100000000E-03 0. -1.
    9900012    2    1    2    0    0 -0.24508392444E+02  0.27984125665E+02  0.25403561169E+02  0.46142317527E+02  0.99999978607E+01 0.  0.
         12    1    1    2    0    0  0.24508392444E+02 -0.27984125665E+02 -0.25403561169E+02  0.45045682473E+02  0.00000000000E+00 0. -1.
         11    1    3    3    0    0 -0.34844032239E+01  0.26531086071E+01 -0.10745184936E+00  0.43808215290E+01  0.51100000000E-03 0. -1.
        -11    1    3    3    0    0 -0.26231375626E+01  0.20618181161E+01  0.18458431778E+01  0.38130148065E+01  0.51100000000E-03 0.  1.
        -12    1    3    3    0    0 -0.18400851658E+02  0.23269198942E+02  0.23665169841E+02  0.37948481191E+02  0.00000000000E+00 0.  1.
</event>
<event>
 7    1  0.2472338E-008  0.4614232E+02  0.7816164E-02  0.1320468E+00
        -11   -1    0    0    0    0  0.00000000000E+00  0.00000000000E+00  0.45593999997E+02  0.45594000000E+02  0.51100000000E-03 0. -1.
         11   -1    0    0    0    0 -0.00000000000E+00 -0.00000000000E+00 -0.45593999997E+02  0.45594000000E+02  0.51100000000E-03 0.  1.
    9900012    2    1    2    0    0  0.44663548612E+02  0.73915227101E+00 -0.58081490654E+01  0.46142317451E+02  0.99999971750E+01 0.  0.
         12    1    1    2    0    0 -0.44663548612E+02 -0.73915227101E+00  0.58081490654E+01  0.45045682549E+02  0.00000000000E+00 0. -1.
         11    1    3    3    0    0  0.53101781229E+01  0.68798210021E+00  0.11799574621E+01  0.54830293580E+01  0.51100000000E-03 0. -1.
        -11    1    3    3    0    0  0.74962602350E+01 -0.13102586138E+00 -0.44083118515E+01  0.86973731051E+01  0.51100000000E-03 0.  1.
        -12    1    3    3    0    0  0.31857110254E+02  0.18219603218E+00 -0.25797946760E+01  0.31961914988E+02  0.00000000000E+00 0.  1.
</event>
<event>
 7    1  0.2472338E-008  0.4614232E+02  0.7816164E-02  0.1320468E+00
        -11   -1    0    0    0    0  0.00000000000E+00  0.00000000000E+00  0.45593999997E+02  0.45594000000E+02  0.51100000000E-03 0. -1.
         11   -1    0    0    0    0 -0.00000000000E+00 -0.00000000000E+00 -0.45593999997E+02  0.45594000000E+02  0.51100000000E-03 0.  1.
    9900012    2    1    2    0    0  0.31515903718E+02  0.30611513273E+02  0.99396432385E+01  0.46142318301E+02  0.10000004924E+02 0.  0.
         12    1    1    2    0    0 -0.31515903718E+02 -0.30611513273E+02 -0.99396432385E+01  0.45045681699E+02  0.00000000000E+00 0. -1.
         11    1    3    3    0    0  0.67051706718E+00 -0.37422034926E+00  0.12411635165E+01  0.14594934543E+01  0.51100000000E-03 0.  1.
        -11    1    3    3    0    0  0.76363400754E+01  0.86505183503E+01  0.34804012809E+01  0.12052317238E+02  0.51100000000E-03 0. -1.
        -12    1    3    3    0    0  0.23209046575E+02  0.22335215272E+02  0.52180784411E+01  0.32630507609E+02  0.00000000000E+00 0.  1.
</event>
<event>
 7    1  0.2472338E-008  0.4614232E+02  0.7816164E-02  0.1320468E+00
        -11   -1    0    0    0    0  0.00000000000E+00  0.00000000000E+00  0.45593999997E+02  0.45594000000E+02  0.51100000000E-03 0. -1.
         11   -1    0    0    0    0 -0.00000000000E+00 -0.00000000000E+00 -0.45593999997E+02  0.45594000000E+02  0.51100000000E-03 0.  1.
    9900012    2    1    2    0    0  0.38680094264E+01 -0.25419060768E+01 -0.44807262081E+02  0.46142317426E+02  0.99999969420E+01 0.  0.
         12    1    1    2    0    0 -0.38680094264E+01  0.25419060768E+01  0.44807262081E+02  0.45045682574E+02  0.00000000000E+00 0. -1.
         11    1    3    3    0    0  0.28889753630E+01  0.29063354324E+01 -0.15344100383E+02  0.15881888462E+02  0.51100000000E-03 0. -1.
        -11    1    3    3    0    0 -0.44340732652E+00 -0.13250857002E+01 -0.16976779465E+02  0.17034186315E+02  0.51100000000E-03 0.  1.
         12    1    3    3    0    0  0.14224413900E+01 -0.41231558090E+01 -0.12486382233E+02  0.13226242649E+02  0.00000000000E+00 0. -1.
</event>
<event>
 7    1  0.2472338E-008  0.4614232E+02  0.7816164E-02  0.1320468E+00
        -11   -1    0    0    0    0  0.00000000000E+00  0.00000000000E+00  0.45593999997E+02  0.45594000000E+02  0.51100000000E-03 0. -1.
         11   -1    0    0    0    0 -0.00000000000E+00 -0.00000000000E+00 -0.45593999997E+02  0.45594000000E+02  0.51100000000E-03 0.  1.
    9900012    2    1    2    0    0  0.30957274296E+01  0.36456271052E+02 -0.26276798819E+02  0.46142318925E+02  0.10000010612E+02 0.  0.
         12    1    1    2    0    0 -0.30957274296E+01 -0.36456271052E+02  0.26276798819E+02  0.45045681075E+02  0.00000000000E+00 0. -1.
         11    1    3    3    0    0 -0.20518841572E+01  0.30522793343E+01 -0.25875785325E+01  0.44969101228E+01  0.51100000000E-03 0. -1.
        -11    1    3    3    0    0  0.52688398760E+00  0.13379531614E+01  0.11586959446E+00  0.14426196389E+01  0.51100000000E-03 0.  1.
        -12    1    3    3    0    0  0.46207275992E+01  0.32066038557E+02 -0.23805089881E+02  0.40202789163E+02  0.00000000000E+00 0.  1.
</event>
<event>
 7    1  0.2472338E-008  0.4614232E+02  0.7816164E-02  0.1320468E+00
        -11   -1    0    0    0    0  0.00000000000E+00  0.00000000000E+00  0.45593999997E+02  0.45594000000E+02  0.51100000000E-03 0. -1.
         11   -1    0    0    0    0 -0.00000000000E+00 -0.00000000000E+00 -0.45593999997E+02  0.45594000000E+02  0.51100000000E-03 0.  1.
    9900012    2    1    2    0    0 -0.12631001686E+02 -0.30804330475E+02 -0.30342454924E+02  0.46142317073E+02  0.99999937211E+01 0.  0.
         12    1    1    2    0    0  0.12631001686E+02  0.30804330475E+02  0.30342454924E+02  0.45045682927E+02  0.00000000000E+00 0. -1.
         11    1    3    3    0    0 -0.66755663308E+01 -0.59560578616E+01 -0.82507455424E+01  0.12170152561E+02  0.51100000000E-03 0. -1.
        -11    1    3    3    0    0 -0.26099485862E+01 -0.16526660755E+02 -0.12875067311E+02  0.21111838050E+02  0.51100000000E-03 0.  1.
         12    1    3    3    0    0 -0.33454867688E+01 -0.83216118585E+01 -0.92166420710E+01  0.12860326462E+02  0.00000000000E+00 0. -1.
</event>
<event>
 7    1  0.2472338E-008  0.4614232E+02  0.7816164E-02  0.1320468E+00
        -11   -1    0    0    0    0  0.00000000000E+00  0.00000000000E+00  0.45593999997E+02  0.45594000000E+02  0.51100000000E-03 0.  1.
         11   -1    0    0    0    0 -0.00000000000E+00 -0.00000000000E+00 -0.45593999997E+02  0.45594000000E+02  0.51100000000E-03 0. -1.
    9900012    2    1    2    0    0 -0.10531568416E+02 -0.41682907344E+02  0.13443763715E+02  0.46142317846E+02  0.10000000771E+02 0.  0.
         12    1    1    2    0    0  0.10531568416E+02  0.41682907344E+02 -0.13443763715E+02  0.45045682154E+02  0.00000000000E+00 0. -1.
         11    1    3    3    0    0  0.34604731301E-01 -0.68368898534E+01 -0.92096344462E+00  0.68987270045E+01  0.51100000000E-03 0. -1.
        -11    1    3    3    0    0 -0.30615295613E+01 -0.13723407411E+02  0.46129872241E+01  0.14798125746E+02  0.51100000000E-03 0.  1.
         12    1    3    3    0    0 -0.75046435859E+01 -0.21122610080E+02  0.97517399360E+01  0.24445465095E+02  0.00000000000E+00 0. -1.
</event>
<event>
 7    1  0.2472338E-008  0.4614232E+02  0.7816164E-02  0.1320468E+00
        -11   -1    0    0    0    0  0.00000000000E+00  0.00000000000E+00  0.45593999997E+02  0.45594000000E+02  0.51100000000E-03 0.  1.
         11   -1    0    0    0    0 -0.00000000000E+00 -0.00000000000E+00 -0.45593999997E+02  0.45594000000E+02  0.51100000000E-03 0. -1.
    9900012    2    1    2    0    0 -0.43596582555E+02 -0.22917675676E+00  0.11331325440E+02  0.46142317980E+02  0.10000001992E+02 0.  0.
         12    1    1    2    0    0  0.43596582555E+02  0.22917675676E+00 -0.11331325440E+02  0.45045682020E+02  0.00000000000E+00 0. -1.
         11    1    3    3    0    0 -0.15322653470E+02 -0.21281823146E+01  0.17697886449E+01  0.15570646147E+02  0.51100000000E-03 0. -1.
        -11    1    3    3    0    0 -0.69677776387E+01 -0.48307555171E+00  0.51645144371E+01  0.86865123521E+01  0.51100000000E-03 0.  1.
         12    1    3    3    0    0 -0.21306151446E+02  0.23820811095E+01  0.43970223576E+01  0.21885159480E+02  0.00000000000E+00 0. -1.
</event>
<event>
 7    1  0.2472338E-008  0.4614232E+02  0.7816164E-02  0.1320468E+00
        -11   -1    0    0    0    0  0.00000000000E+00  0.00000000000E+00  0.45593999997E+02  0.45594000000E+02  0.51100000000E-03 0.  1.
         11   -1    0    0    0    0 -0.00000000000E+00 -0.00000000000E+00 -0.45593999997E+02  0.45594000000E+02  0.51100000000E-03 0. -1.
    9900012    2    1    2    0    0  0.11292570831E+02  0.43513027872E+02  0.28649215107E+01  0.46142317345E+02  0.99999962048E+01 0.  0.
         12    1    1    2    0    0 -0.11292570831E+02 -0.43513027872E+02 -0.28649215107E+01  0.45045682655E+02  0.00000000000E+00 0. -1.
         11    1    3    3    0    0  0.41957220614E+00  0.37762272487E+01 -0.12063718883E+01  0.39863851374E+01  0.51100000000E-03 0. -1.
        -11    1    3    3    0    0  0.21621249552E+01  0.22899834849E+02  0.21485243684E+01  0.23101804641E+02  0.51100000000E-03 0.  1.
        -12    1    3    3    0    0  0.87108736694E+01  0.16836965775E+02  0.19227690306E+01  0.19054127567E+02  0.00000000000E+00 0.  1.
</event>
<event>
 7    1  0.2472338E-008  0.4614232E+02  0.7816164E-02  0.1320468E+00
        -11   -1    0    0    0    0  0.00000000000E+00  0.00000000000E+00  0.45593999997E+02  0.45594000000E+02  0.51100000000E-03 0.  1.
         11   -1    0    0    0    0 -0.00000000000E+00 -0.00000000000E+00 -0.45593999997E+02  0.45594000000E+02  0.51100000000E-03 0. -1.
    9900012    2    1    2    0    0 -0.24555143402E+02 -0.29666531453E+02  0.23367824206E+02  0.46142319141E+02  0.10000012582E+02 0.  0.
         12    1    1    2    0    0  0.24555143402E+02  0.29666531453E+02 -0.23367824206E+02  0.45045680859E+02  0.00000000000E+00 0. -1.
         11    1    3    3    0    0 -0.85523616522E+01 -0.13822749712E+02  0.10900599491E+02  0.19571263856E+02  0.51100000000E-03 0. -1.
        -11    1    3    3    0    0 -0.61659550278E+01 -0.10624575316E+02  0.73577520946E+01  0.14319117228E+02  0.51100000000E-03 0.  1.
         12    1    3    3    0    0 -0.98368267225E+01 -0.52192064256E+01  0.51094726203E+01  0.12251938056E+02  0.00000000000E+00 0. -1.
</event>
<event>
 7    1  0.2472338E-008  0.4614232E+02  0.7816164E-02  0.1320468E+00
        -11   -1    0    0    0    0  0.00000000000E+00  0.00000000000E+00  0.45593999997E+02  0.45594000000E+02  0.51100000000E-03 0. -1.
         11   -1    0    0    0    0 -0.00000000000E+00 -0.00000000000E+00 -0.45593999997E+02  0.45594000000E+02  0.51100000000E-03 0.  1.
    9900012    2    1    2    0    0 -0.23637968019E+02 -0.18081124220E+02 -0.33814686030E+02  0.46142316783E+02  0.99999910843E+01 0.  0.
         12    1    1    2    0    0  0.23637968019E+02  0.18081124220E+02  0.33814686030E+02  0.45045683217E+02  0.00000000000E+00 0. -1.
         11    1    3    3    0    0 -0.60053846031E+01 -0.61448523290E+01 -0.99591009135E+01  0.13153233277E+02  0.51100000000E-03 0.  1.
        -11    1    3    3    0    0 -0.45850894500E+01 -0.72873804432E+01 -0.11924702187E+02  0.14708075384E+02  0.51100000000E-03 0. -1.
         12    1    3    3    0    0 -0.13047493966E+02 -0.46488914474E+01 -0.11930882930E+02  0.18281008123E+02  0.00000000000E+00 0. -1.
</event>
<event>
 7    1  0.2472338E-008  0.4614232E+02  0.7816164E-02  0.1320468E+00
        -11   -1    0    0    0    0  0.00000000000E+00  0.00000000000E+00  0.45593999997E+02  0.45594000000E+02  0.51100000000E-03 0.  1.
         11   -1    0    0    0    0 -0.00000000000E+00 -0.00000000000E+00 -0.45593999997E+02  0.45594000000E+02  0.51100000000E-03 0. -1.
    9900012    2    1    2    0    0 -0.15676934272E+01 -0.74018247009E+01  0.44405730539E+02  0.46142316785E+02  0.99999911033E+01 0.  0.
         12    1    1    2    0    0  0.15676934272E+01  0.74018247009E+01 -0.44405730539E+02  0.45045683215E+02  0.00000000000E+00 0. -1.
         11    1    3    3    0    0 -0.49888753326E+01 -0.32899832419E+01  0.25254355727E+02  0.25951788961E+02  0.51100000000E-03 0. -1.
        -11    1    3    3    0    0 -0.62432085129E-02 -0.25548907294E+01  0.62760437209E+01  0.67761516117E+01  0.51100000000E-03 0.  1.
         12    1    3    3    0    0  0.34274251139E+01 -0.15569507295E+01  0.12875331091E+02  0.13414376213E+02  0.00000000000E+00 0. -1.
</event>
<event>
 7    1  0.2472338E-008  0.4614232E+02  0.7816164E-02  0.1320468E+00
        -11   -1    0    0    0    0  0.00000000000E+00  0.00000000000E+00  0.45593999997E+02  0.45594000000E+02  0.51100000000E-03 0.  1.
         11   -1    0    0    0    0 -0.00000000000E+00 -0.00000000000E+00 -0.45593999997E+02  0.45594000000E+02  0.51100000000E-03 0. -1.
    9900012    2    1    2    0    0  0.38689514402E+02 -0.21897438899E+02  0.72620339901E+01  0.46142317713E+02  0.99999995630E+01 0.  0.
         12    1    1    2    0    0 -0.38689514402E+02  0.21897438899E+02 -0.72620339901E+01  0.45045682287E+02  0.00000000000E+00 0. -1.
         11    1    3    3    0    0  0.18605964077E+01 -0.36166372318E+00  0.18837695501E+01  0.26723038038E+01  0.51100000000E-03 0. -1.
        -11    1    3    3    0    0  0.34930360939E+02 -0.19583824013E+02  0.64152112118E+01  0.40556272184E+02  0.51100000000E-03 0.  1.
        -12    1    3    3    0    0  0.18985570554E+01 -0.19519511630E+01 -0.10369467718E+01  0.29137417255E+01  0.00000000000E+00 0.  1.
</event>
<event>
 7    1  0.2472338E-008  0.4614232E+02  0.7816164E-02  0.1320468E+00
        -11   -1    0    0    0    0  0.00000000000E+00  0.00000000000E+00  0.45593999997E+02  0.45594000000E+02  0.51100000000E-03 0.  1.
         11   -1    0    0    0    0 -0.00000000000E+00 -0.00000000000E+00 -0.45593999997E+02  0.45594000000E+02  0.51100000000E-03 0. -1.
    9900012    2    1    2    0    0  0.39001101520E+02  0.15130904372E+02 -0.16705788732E+02  0.46142316921E+02  0.99999923429E+01 0.  0.
         12    1    1    2    0    0 -0.39001101520E+02 -0.15130904372E+02  0.16705788732E+02  0.45045683079E+02  0.00000000000E+00 0. -1.
         11    1    3    3    0    0  0.99813885801E+01  0.42692506455E+01 -0.24908993355E+01  0.11138186514E+02  0.51100000000E-03 0.  1.
        -11    1    3    3    0    0  0.53666364287E+01  0.37872371252E+01 -0.62394697680E+01  0.90595217781E+01  0.51100000000E-03 0. -1.
         12    1    3    3    0    0  0.23653076511E+02  0.70744166011E+01 -0.79754196282E+01  0.25944608629E+02  0.00000000000E+00 0. -1.
</event>
<event>
 7    1  0.2472338E-008  0.4614232E+02  0.7816164E-02  0.1320468E+00
        -11   -1    0    0    0    0  0.00000000000E+00  0.00000000000E+00  0.45593999997E+02  0.45594000000E+02  0.51100000000E-03 0.  1.
         11   -1    0    0    0    0 -0.00000000000E+00 -0.00000000000E+00 -0.45593999997E+02  0.45594000000E+02  0.51100000000E-03 0. -1.
    9900012    2    1    2    0    0 -0.51573704560E+01  0.24257998848E+01  0.44683671416E+02  0.46142318006E+02  0.10000002236E+02 0.  0.
         12    1    1    2    0    0  0.51573704560E+01 -0.24257998848E+01 -0.44683671416E+02  0.45045681994E+02  0.00000000000E+00 0. -1.
         11    1    3    3    0    0 -0.51273836979E+01 -0.18340427885E+01  0.31943068394E+02  0.32403910184E+02  0.51100000000E-03 0. -1.
        -11    1    3    3    0    0  0.86234476299E-01  0.32993776771E+00  0.54039407045E+01  0.54146902695E+01  0.51100000000E-03 0.  1.
        -12    1    3    3    0    0 -0.11622123435E+00  0.39299049056E+01  0.73366623174E+01  0.83237175530E+01  0.00000000000E+00 0.  1.
</event>
<event>
 7    1  0.2472338E-008  0.4614232E+02  0.7816164E-02  0.1320468E+00
        -11   -1    0    0    0    0  0.00000000000E+00  0.00000000000E+00  0.45593999997E+02  0.45594000000E+02  0.51100000000E-03 0.  1.
         11   -1    0    0    0    0 -0.00000000000E+00 -0.00000000000E+00 -0.45593999997E+02  0.45594000000E+02  0.51100000000E-03 0. -1.
    9900012    2    1    2    0    0 -0.29831306859E+02 -0.12638156611E+02  0.31296704007E+02  0.46142317042E+02  0.99999934426E+01 0.  0.
         12    1    1    2    0    0  0.29831306859E+02  0.12638156611E+02 -0.31296704007E+02  0.45045682958E+02  0.00000000000E+00 0. -1.
         11    1    3    3    0    0 -0.15214836736E+02 -0.51560568933E+01  0.13927904807E+02  0.21261766440E+02  0.51100000000E-03 0. -1.
        -11    1    3    3    0    0 -0.31249190910E+01 -0.80626265937E+00  0.29018860926E+00  0.32402759900E+01  0.51100000000E-03 0.  1.
        -12    1    3    3    0    0 -0.11491551032E+02 -0.66758370585E+01  0.17078610591E+02  0.21640274612E+02  0.00000000000E+00 0.  1.
</event>
<event>
 7    1  0.2472338E-008  0.4614232E+02  0.7816164E-02  0.1320468E+00
        -11   -1    0    0    0    0  0.00000000000E+00  0.00000000000E+00  0.45593999997E+02  0.45594000000E+02  0.51100000000E-03 0.  1.
         11   -1    0    0    0    0 -0.00000000000E+00 -0.00000000000E+00 -0.45593999997E+02  0.45594000000E+02  0.51100000000E-03 0. -1.
    9900012    2    1    2    0    0  0.10522385738E+02  0.69882876521E-01  0.43799407011E+02  0.46142317191E+02  0.99999947980E+01 0.  0.
         12    1    1    2    0    0 -0.10522385738E+02 -0.69882876521E-01 -0.43799407011E+02  0.45045682809E+02  0.00000000000E+00 0. -1.
         11    1    3    3    0    0  0.56941431034E+01 -0.20965878231E+01  0.18263270762E+02  0.19244895567E+02  0.51100000000E-03 0. -1.
        -11    1    3    3    0    0  0.11551550400E+01  0.20413443302E+01  0.20189041898E+01  0.30947446146E+01  0.51100000000E-03 0.  1.
         12    1    3    3    0    0  0.36730875948E+01  0.12512636946E+00  0.23517232059E+02  0.23802677009E+02  0.00000000000E+00 0. -1.
</event>
<event>
 7    1  0.2472338E-008  0.4614232E+02  0.7816164E-02  0.1320468E+00
        -11   -1    0    0    0    0  0.00000000000E+00  0.00000000000E+00  0.45593999997E+02  0.45594000000E+02  0.51100000000E-03 0. -1.
         11   -1    0    0    0    0 -0.00000000000E+00 -0.00000000000E+00 -0.45593999997E+02  0.45594000000E+02  0.51100000000E-03 0.  1.
    9900012    2    1    2    0    0  0.26387410611E+02 -0.33674249526E+02 -0.14101878368E+02  0.46142317706E+02  0.99999994955E+01 0.  0.
         12    1    1    2    0    0 -0.26387410611E+02  0.33674249526E+02  0.14101878368E+02  0.45045682294E+02  0.00000000000E+00 0. -1.
         11    1    3    3    0    0  0.39398639019E+01 -0.55314924488E+01 -0.41448299226E+01  0.79561015343E+01  0.51100000000E-03 0. -1.
        -11    1    3    3    0    0  0.20287133032E+02 -0.20734403334E+02 -0.64860638493E+01  0.29724607194E+02  0.51100000000E-03 0.  1.
        -12    1    3    3    0    0  0.21604136765E+01 -0.74083537424E+01 -0.34709845960E+01  0.84616089777E+01  0.00000000000E+00 0.  1.
</event>
<event>
 7    1  0.2472338E-008  0.4614232E+02  0.7816164E-02  0.1320468E+00
        -11   -1    0    0    0    0  0.00000000000E+00  0.00000000000E+00  0.45593999997E+02  0.45594000000E+02  0.51100000000E-03 0.  1.
         11   -1    0    0    0    0 -0.00000000000E+00 -0.00000000000E+00 -0.45593999997E+02  0.45594000000E+02  0.51100000000E-03 0. -1.
    9900012    2    1    2    0    0 -0.27327937470E+02  0.43784230777E+01  0.35540494370E+02  0.46142317687E+02  0.99999993217E+01 0.  0.
         12    1    1    2    0    0  0.27327937470E+02 -0.43784230777E+01 -0.35540494370E+02  0.45045682313E+02  0.00000000000E+00 0. -1.
         11    1    3    3    0    0 -0.99403601415E+00 -0.58757126950E+00  0.35276802327E+00  0.12073910442E+01  0.51100000000E-03 0. -1.
        -11    1    3    3    0    0 -0.17681390684E+02  0.31798626526E+01  0.29124458631E+02  0.34219544033E+02  0.51100000000E-03 0.  1.
        -12    1    3    3    0    0 -0.86525107712E+01  0.17861316946E+01  0.60632677164E+01  0.10715382610E+02  0.00000000000E+00 0.  1.
</event>
<event>
 7    1  0.2472338E-008  0.4614232E+02  0.7816164E-02  0.1320468E+00
        -11   -1    0    0    0    0  0.00000000000E+00  0.00000000000E+00  0.45593999997E+02  0.45594000000E+02  0.51100000000E-03 0.  1.
         11   -1    0    0    0    0 -0.00000000000E+00 -0.00000000000E+00 -0.45593999997E+02  0.45594000000E+02  0.51100000000E-03 0. -1.
    9900012    2    1    2    0    0 -0.28568170801E+02  0.31663594226E+02  0.14504824224E+02  0.46142317544E+02  0.99999980178E+01 0.  0.
         12    1    1    2    0    0  0.28568170801E+02 -0.31663594226E+02 -0.14504824224E+02  0.45045682456E+02  0.00000000000E+00 0. -1.
         11    1    3    3    0    0 -0.96601645099E+01  0.54100097669E+01  0.23107393216E+01  0.11310459783E+02  0.51100000000E-03 0. -1.
        -11    1    3    3    0    0 -0.63486675326E+01  0.12383688798E+02  0.51475499288E+01  0.14837742356E+02  0.51100000000E-03 0.  1.
         12    1    3    3    0    0 -0.12559338758E+02  0.13869895661E+02  0.70465349734E+01  0.19994115405E+02  0.00000000000E+00 0. -1.
</event>
<event>
 7    1  0.2472338E-008  0.4614231E+02  0.7816164E-02  0.1320468E+00
        -11   -1    0    0    0    0  0.00000000000E+00  0.00000000000E+00  0.45593999997E+02  0.45594000000E+02  0.51100000000E-03 0. -1.
         11   -1    0    0    0    0 -0.00000000000E+00 -0.00000000000E+00 -0.45593999997E+02  0.45594000000E+02  0.51100000000E-03 0.  1.
    9900012    2    1    2    0    0  0.34453467569E+02  0.14026755328E+02 -0.25403201860E+02  0.46142312556E+02  0.99999525340E+01 0.  0.
         12    1    1    2    0    0 -0.34453467569E+02 -0.14026755328E+02  0.25403201860E+02  0.45045687444E+02  0.00000000000E+00 0. -1.
         11    1    3    3    0    0  0.14029284390E+02  0.82651315649E+01 -0.11088665268E+02  0.19700043603E+02  0.51100000000E-03 0. -1.
        -11    1    3    3    0    0  0.17053337692E+02  0.53645410408E+01 -0.87005647606E+01  0.19882013339E+02  0.51100000000E-03 0.  1.
         12    1    3    3    0    0  0.33708454875E+01  0.39708272212E+00 -0.56139718312E+01  0.65602556132E+01  0.00000000000E+00 0. -1.
</event>
<event>
 7    1  0.2472338E-008  0.4614232E+02  0.7816164E-02  0.1320468E+00
        -11   -1    0    0    0    0  0.00000000000E+00  0.00000000000E+00  0.45593999997E+02  0.45594000000E+02  0.51100000000E-03 0. -1.
         11   -1    0    0    0    0 -0.00000000000E+00 -0.00000000000E+00 -0.45593999997E+02  0.45594000000E+02  0.51100000000E-03 0.  1.
    9900012    2    1    2    0    0  0.11159365929E+01 -0.44932949978E+02  0.29829727244E+01  0.46142318360E+02  0.10000005458E+02 0.  0.
         12    1    1    2    0    0 -0.11159365929E+01  0.44932949978E+02 -0.29829727244E+01  0.45045681640E+02  0.00000000000E+00 0. -1.
         11    1    3    3    0    0  0.24155306214E+01 -0.11322921199E+02 -0.16960416940E+01  0.11701277296E+02  0.51100000000E-03 0.  1.
        -11    1    3    3    0    0 -0.38926594080E+00 -0.87287389697E+01  0.37989310698E+01  0.95275542249E+01  0.51100000000E-03 0. -1.
         12    1    3    3    0    0 -0.91032808774E+00 -0.24881289809E+02  0.88008334859E+00  0.24913486839E+02  0.00000000000E+00 0. -1.
</event>
<event>
 7    1  0.2472338E-008  0.4614232E+02  0.7816164E-02  0.1320468E+00
        -11   -1    0    0    0    0  0.00000000000E+00  0.00000000000E+00  0.45593999997E+02  0.45594000000E+02  0.51100000000E-03 0. -1.
         11   -1    0    0    0    0 -0.00000000000E+00 -0.00000000000E+00 -0.45593999997E+02  0.45594000000E+02  0.51100000000E-03 0.  1.
    9900012    2    1    2    0    0  0.25948018381E+02 -0.36544800561E+02 -0.45045924025E+01  0.46142318090E+02  0.10000003003E+02 0.  0.
         12    1    1    2    0    0 -0.25948018381E+02  0.36544800561E+02  0.45045924025E+01  0.45045681910E+02  0.00000000000E+00 0. -1.
         11    1    3    3    0    0  0.48557647002E+01 -0.71172887696E+01 -0.27809176975E+01  0.90536044620E+01  0.51100000000E-03 0. -1.
        -11    1    3    3    0    0  0.19791320861E+02 -0.27202255265E+02  0.56024929044E+00  0.33644805727E+02  0.51100000000E-03 0.  1.
         12    1    3    3    0    0  0.13009328203E+01 -0.22252565270E+01 -0.22839239955E+01  0.34439079011E+01  0.00000000000E+00 0. -1.
</event>
<event>
 7    1  0.2472338E-008  0.4614232E+02  0.7816164E-02  0.1320468E+00
        -11   -1    0    0    0    0  0.00000000000E+00  0.00000000000E+00  0.45593999997E+02  0.45594000000E+02  0.51100000000E-03 0.  1.
         11   -1    0    0    0    0 -0.00000000000E+00 -0.00000000000E+00 -0.45593999997E+02  0.45594000000E+02  0.51100000000E-03 0. -1.
    9900012    2    1    2    0    0  0.31177651809E+02 -0.26922898210E+02  0.18227042737E+02  0.46142317551E+02  0.99999980856E+01 0.  0.
         12    1    1    2    0    0 -0.31177651809E+02  0.26922898210E+02 -0.18227042737E+02  0.45045682449E+02  0.00000000000E+00 0. -1.
         11    1    3    3    0    0  0.61544983420E+01 -0.63416342354E+01  0.15879635533E+01  0.89786303591E+01  0.51100000000E-03 0. -1.
        -11    1    3    3    0    0  0.18427982512E+02 -0.18242775217E+02  0.15073055298E+02  0.29993105597E+02  0.51100000000E-03 0.  1.
        -12    1    3    3    0    0  0.65951709557E+01 -0.23384887569E+01  0.15660238856E+01  0.71705815951E+01  0.00000000000E+00 0.  1.
</event>
<event>
 7    1  0.2472338E-008  0.4614232E+02  0.7816164E-02  0.1320468E+00
        -11   -1    0    0    0    0  0.00000000000E+00  0.00000000000E+00  0.45593999997E+02  0.45594000000E+02  0.51100000000E-03 0. -1.
         11   -1    0    0    0    0 -0.00000000000E+00 -0.00000000000E+00 -0.45593999997E+02  0.45594000000E+02  0.51100000000E-03 0.  1.
    9900012    2    1    2    0    0 -0.12053003468E+02  0.33682240506E+02 -0.27374171414E+02  0.46142317869E+02  0.10000000980E+02 0.  0.
         12    1    1    2    0    0  0.12053003468E+02 -0.33682240506E+02  0.27374171414E+02  0.45045682131E+02  0.00000000000E+00 0. -1.
         11    1    3    3    0    0 -0.28715323020E+01  0.24141329057E+01 -0.37127786587E+01  0.52781115067E+01  0.51100000000E-03 0. -1.
        -11    1    3    3    0    0 -0.66865300587E+01  0.14452861772E+02 -0.83262181068E+01  0.17969997380E+02  0.51100000000E-03 0.  1.
        -12    1    3    3    0    0 -0.24949411070E+01  0.16815245828E+02 -0.15335174648E+02  0.22894208981E+02  0.00000000000E+00 0.  1.
</event>
<event>
 7    1  0.2472338E-008  0.4614232E+02  0.7816164E-02  0.1320468E+00
        -11   -1    0    0    0    0  0.00000000000E+00  0.00000000000E+00  0.45593999997E+02  0.45594000000E+02  0.51100000000E-03 0.  1.
         11   -1    0    0    0    0 -0.00000000000E+00 -0.00000000000E+00 -0.45593999997E+02  0.45594000000E+02  0.51100000000E-03 0. -1.
    9900012    2    1    2    0    0  0.11176523490E+02 -0.28106805607E+02  0.33379729861E+02  0.46142316918E+02  0.99999923137E+01 0.  0.
         12    1    1    2    0    0 -0.11176523490E+02  0.28106805607E+02 -0.33379729861E+02  0.45045683082E+02  0.00000000000E+00 0. -1.
         11    1    3    3    0    0  0.10586921584E+01 -0.31832145293E+01  0.51722417903E+01  0.61648819311E+01  0.51100000000E-03 0. -1.
        -11    1    3    3    0    0  0.55364254989E+01 -0.19719000227E+02  0.16208325734E+02  0.26118973958E+02  0.51100000000E-03 0.  1.
         12    1    3    3    0    0  0.45814058327E+01 -0.52045908507E+01  0.11999162337E+02  0.13858461030E+02  0.00000000000E+00 0. -1.
</event>
<event>
 7    1  0.2472338E-008  0.4614232E+02  0.7816164E-02  0.1320468E+00
        -11   -1    0    0    0    0  0.00000000000E+00  0.00000000000E+00  0.45593999997E+02  0.45594000000E+02  0.51100000000E-03 0.  1.
         11   -1    0    0    0    0 -0.00000000000E+00 -0.00000000000E+00 -0.45593999997E+02  0.45594000000E+02  0.51100000000E-03 0. -1.
    9900012    2    1    2    0    0 -0.15312136539E+02 -0.10009787899E+01  0.42351506011E+02  0.46142317129E+02  0.99999942359E+01 0.  0.
         12    1    1    2    0    0  0.15312136539E+02  0.10009787899E+01 -0.42351506011E+02  0.45045682871E+02  0.00000000000E+00 0. -1.
         11    1    3    3    0    0 -0.54337343265E+01 -0.21221874238E+01  0.83716230682E+01  0.10203588646E+02  0.51100000000E-03 0. -1.
        -11    1    3    3    0    0 -0.73780802364E+01  0.35469224239E+01  0.25032304180E+02  0.26336912869E+02  0.51100000000E-03 0.  1.
        -12    1    3    3    0    0 -0.25003219761E+01 -0.24257137900E+01  0.89475787629E+01  0.96018156144E+01  0.00000000000E+00 0.  1.
</event>
<event>
 7    1  0.2472338E-008  0.4614232E+02  0.7816164E-02  0.1320468E+00
        -11   -1    0    0    0    0  0.00000000000E+00  0.00000000000E+00  0.45593999997E+02  0.45594000000E+02  0.51100000000E-03 0.  1.
         11   -1    0    0    0    0 -0.00000000000E+00 -0.00000000000E+00 -0.45593999997E+02  0.45594000000E+02  0.51100000000E-03 0. -1.
    9900012    2    1    2    0    0  0.27733674000E+02 -0.69763054827E+01  0.34803561494E+02  0.46142318693E+02  0.10000008501E+02 0.  0.
         12    1    1    2    0    0 -0.27733674000E+02  0.69763054827E+01 -0.34803561494E+02  0.45045681307E+02  0.00000000000E+00 0. -1.
         11    1    3    3    0    0  0.11559080619E+02 -0.83282835191E+00  0.81541599868E+01  0.14170260166E+02  0.51100000000E-03 0. -1.
        -11    1    3    3    0    0  0.38596757414E+01 -0.11484383841E+01  0.37872157898E+01  0.55280205544E+01  0.51100000000E-03 0.  1.
        -12    1    3    3    0    0  0.12314917640E+02 -0.49950387466E+01  0.22862185717E+02  0.26444037973E+02  0.00000000000E+00 0.  1.
</event>
<event>
 7    1  0.2472338E-008  0.4614232E+02  0.7816164E-02  0.1320468E+00
        -11   -1    0    0    0    0  0.00000000000E+00  0.00000000000E+00  0.45593999997E+02  0.45594000000E+02  0.51100000000E-03 0.  1.
         11   -1    0    0    0    0 -0.00000000000E+00 -0.00000000000E+00 -0.45593999997E+02  0.45594000000E+02  0.51100000000E-03 0. -1.
    9900012    2    1    2    0    0  0.43909594525E+02  0.43309843334E+01  0.90721258957E+01  0.46142318909E+02  0.10000010469E+02 0.  0.
         12    1    1    2    0    0 -0.43909594525E+02 -0.43309843334E+01 -0.90721258957E+01  0.45045681091E+02  0.00000000000E+00 0. -1.
         11    1    3    3    0    0  0.19133874514E+02  0.29228232053E+01  0.84675333485E+01  0.21126929987E+02  0.51100000000E-03 0. -1.
        -11    1    3    3    0    0  0.89671921303E+01  0.33577386026E+00  0.16985217627E+01  0.91328120109E+01  0.51100000000E-03 0.  1.
         12    1    3    3    0    0  0.15808527881E+02  0.10723872679E+01 -0.10939292155E+01  0.15882576912E+02  0.00000000000E+00 0. -1.
</event>
<event>
 7    1  0.2472338E-008  0.4614232E+02  0.7816164E-02  0.1320468E+00
        -11   -1    0    0    0    0  0.00000000000E+00  0.00000000000E+00  0.45593999997E+02  0.45594000000E+02  0.51100000000E-03 0.  1.
         11   -1    0    0    0    0 -0.00000000000E+00 -0.00000000000E+00 -0.45593999997E+02  0.45594000000E+02  0.51100000000E-03 0. -1.
    9900012    2    1    2    0    0  0.34710806914E+02  0.16433842483E+02  0.23541498165E+02  0.46142318395E+02  0.10000005782E+02 0.  0.
         12    1    1    2    0    0 -0.34710806914E+02 -0.16433842483E+02 -0.23541498165E+02  0.45045681605E+02  0.00000000000E+00 0. -1.
         11    1    3    3    0    0  0.55495096269E+01  0.23110740256E+01  0.12872818794E+01  0.61477813192E+01  0.51100000000E-03 0. -1.
        -11    1    3    3    0    0  0.12341147223E+02  0.70321216366E+01  0.55451173335E+01  0.15248048268E+02  0.51100000000E-03 0.  1.
         12    1    3    3    0    0  0.16820150065E+02  0.70906468212E+01  0.16709098952E+02  0.24746488808E+02  0.00000000000E+00 0. -1.
</event>
<event>
 7    1  0.2472338E-008  0.4614232E+02  0.7816164E-02  0.1320468E+00
        -11   -1    0    0    0    0  0.00000000000E+00  0.00000000000E+00  0.45593999997E+02  0.45594000000E+02  0.51100000000E-03 0.  1.
         11   -1    0    0    0    0 -0.00000000000E+00 -0.00000000000E+00 -0.45593999997E+02  0.45594000000E+02  0.51100000000E-03 0. -1.
    9900012    2    1    2    0    0 -0.31163674548E+02  0.12590811084E+01  0.32501593442E+02  0.46142317933E+02  0.10000001571E+02 0.  0.
         12    1    1    2    0    0  0.31163674548E+02 -0.12590811084E+01 -0.32501593442E+02  0.45045682067E+02  0.00000000000E+00 0. -1.
         11    1    3    3    0    0 -0.48383507484E+01 -0.27998643608E+01  0.71444965878E+01  0.90715329552E+01  0.51100000000E-03 0. -1.
        -11    1    3    3    0    0 -0.12050123442E+01 -0.24755358174E+00  0.27086609906E+01  0.29749255703E+01  0.51100000000E-03 0.  1.
        -12    1    3    3    0    0 -0.25120311456E+02  0.43064990509E+01  0.22648435864E+02  0.34095859408E+02  0.00000000000E+00 0.  1.
</event>
<event>
 7    1  0.2472338E-008  0.4614232E+02  0.7816164E-02  0.1320468E+00
        -11   -1    0    0    0    0  0.00000000000E+00  0.00000000000E+00  0.45593999997E+02  0.45594000000E+02  0.51100000000E-03 0.  1.
         11   -1    0    0    0    0 -0.00000000000E+00 -0.00000000000E+00 -0.45593999997E+02  0.45594000000E+02  0.51100000000E-03 0. -1.
    9900012    2    1    2    0    0  0.65815946345E+01 -0.41901356984E+02  0.15168137003E+02  0.46142317796E+02  0.10000000321E+02 0.  0.
         12    1    1    2    0    0 -0.65815946345E+01  0.41901356984E+02 -0.15168137003E+02  0.45045682204E+02  0.00000000000E+00 0. -1.
         11    1    3    3    0    0 -0.44299984142E+00 -0.44506053036E+00 -0.54360945608E+00  0.83056561272E+00  0.51100000000E-03 0. -1.
        -11    1    3    3    0    0  0.30739029969E+01 -0.18387523278E+02  0.10264147862E+02  0.21281508959E+02  0.51100000000E-03 0.  1.
         12    1    3    3    0    0  0.39506914790E+01 -0.23068773175E+02  0.54475985967E+01  0.24030243225E+02  0.00000000000E+00 0. -1.
</event>
<event>
 7    1  0.2472338E-008  0.4614232E+02  0.7816164E-02  0.1320468E+00
        -11   -1    0    0    0    0  0.00000000000E+00  0.00000000000E+00  0.45593999997E+02  0.45594000000E+02  0.51100000000E-03 0.  1.
         11   -1    0    0    0    0 -0.00000000000E+00 -0.00000000000E+00 -0.45593999997E+02  0.45594000000E+02  0.51100000000E-03 0. -1.
    9900012    2    1    2    0    0 -0.97482741761E+01  0.33645847453E+02  0.28320339769E+02  0.46142317134E+02  0.99999942836E+01 0.  0.
         12    1    1    2    0    0  0.97482741761E+01 -0.33645847453E+02 -0.28320339769E+02  0.45045682866E+02  0.00000000000E+00 0. -1.
         11    1    3    3    0    0 -0.36698909503E+01  0.10089708704E+02  0.72036703881E+01  0.12929160399E+02  0.51100000000E-03 0. -1.
        -11    1    3    3    0    0  0.19925960955E-01  0.96526907836E+01  0.12374348885E+02  0.15693927074E+02  0.51100000000E-03 0.  1.
        -12    1    3    3    0    0 -0.60983091868E+01  0.13903447965E+02  0.87423204954E+01  0.17519229661E+02  0.00000000000E+00 0.  1.
</event>
<event>
 7    1  0.2472338E-008  0.4614232E+02  0.7816164E-02  0.1320468E+00
        -11   -1    0    0    0    0  0.00000000000E+00  0.00000000000E+00  0.45593999997E+02  0.45594000000E+02  0.51100000000E-03 0. -1.
         11   -1    0    0    0    0 -0.00000000000E+00 -0.00000000000E+00 -0.45593999997E+02  0.45594000000E+02  0.51100000000E-03 0.  1.
    9900012    2    1    2    0    0 -0.39152516436E+02 -0.15019239382E+02  0.16450423342E+02  0.46142317376E+02  0.99999964902E+01 0.  0.
         12    1    1    2    0    0  0.39152516436E+02  0.15019239382E+02 -0.16450423342E+02  0.45045682624E+02  0.00000000000E+00 0. -1.
         11    1    3    3    0    0 -0.26754797734E+01 -0.40135557524E+01  0.32459628610E+01  0.58140430813E+01  0.51100000000E-03 0. -1.
        -11    1    3    3    0    0 -0.20807090618E+02 -0.60252823736E+01  0.73636159585E+01  0.22879289497E+02  0.51100000000E-03 0.  1.
         12    1    3    3    0    0 -0.15669946045E+02 -0.49804012560E+01  0.58408445226E+01  0.17448984798E+02  0.00000000000E+00 0. -1.
</event>
<event>
 7    1  0.2472338E-008  0.4614232E+02  0.7816164E-02  0.1320468E+00
        -11   -1    0    0    0    0  0.00000000000E+00  0.00000000000E+00  0.45593999997E+02  0.45594000000E+02  0.51100000000E-03 0.  1.
         11   -1    0    0    0    0 -0.00000000000E+00 -0.00000000000E+00 -0.45593999997E+02  0.45594000000E+02  0.51100000000E-03 0. -1.
    9900012    2    1    2    0    0  0.15696105610E+02  0.16033959143E+01  0.42192118820E+02  0.46142317628E+02  0.99999987906E+01 0.  0.
         12    1    1    2    0    0 -0.15696105610E+02 -0.16033959143E+01 -0.42192118820E+02  0.45045682372E+02  0.00000000000E+00 0. -1.
         11    1    3    3    0    0  0.40196550571E+01  0.91644918640E+00  0.10291167793E+02  0.11086281644E+02  0.51100000000E-03 0. -1.
        -11    1    3    3    0    0  0.88927745257E+01  0.31872738441E+01  0.14855355084E+02  0.17604593953E+02  0.51100000000E-03 0.  1.
         12    1    3    3    0    0  0.27836760277E+01 -0.25003271162E+01  0.17045595943E+02  0.17451442031E+02  0.00000000000E+00 0. -1.
</event>
<event>
 7    1  0.2472338E-008  0.4614232E+02  0.7816164E-02  0.1320468E+00
        -11   -1    0    0    0    0  0.00000000000E+00  0.00000000000E+00  0.45593999997E+02  0.45594000000E+02  0.51100000000E-03 0.  1.
         11   -1    0    0    0    0 -0.00000000000E+00 -0.00000000000E+00 -0.45593999997E+02  0.45594000000E+02  0.51100000000E-03 0. -1.
    9900012    2    1    2    0    0  0.43891571141E+02  0.10130004915E+02  0.16264523440E+00  0.46142317962E+02  0.10000001831E+02 0.  0.
         12    1    1    2    0    0 -0.43891571141E+02 -0.10130004915E+02 -0.16264523440E+00  0.45045682038E+02  0.00000000000E+00 0. -1.
         11    1    3    3    0    0  0.12818553152E+02  0.22435745873E+01  0.40310068163E+01  0.13623433783E+02  0.51100000000E-03 0. -1.
        -11    1    3    3    0    0  0.18591066096E+02  0.56698488448E+01 -0.68705844682E+00  0.19448572546E+02  0.51100000000E-03 0.  1.
        -12    1    3    3    0    0  0.12481951893E+02  0.22165814825E+01 -0.31813031351E+01  0.13070311632E+02  0.00000000000E+00 0.  1.
</event>
<event>
 7    1  0.2472338E-008  0.4614232E+02  0.7816164E-02  0.1320468E+00
        -11   -1    0    0    0    0  0.00000000000E+00  0.00000000000E+00  0.45593999997E+02  0.45594000000E+02  0.51100000000E-03 0.  1.
         11   -1    0    0    0    0 -0.00000000000E+00 -0.00000000000E+00 -0.45593999997E+02  0.45594000000E+02  0.51100000000E-03 0. -1.
    9900012    2    1    2    0    0 -0.16793696506E+02 -0.99400376697E+00  0.41786324269E+02  0.46142321164E+02  0.10000031035E+02 0.  0.
         12    1    1    2    0    0  0.16793696506E+02  0.99400376697E+00 -0.41786324269E+02  0.45045678836E+02  0.00000000000E+00 0. -1.
         11    1    3    3    0    0 -0.55697215757E+01 -0.32402944764E+01  0.13415874220E+02  0.14883110833E+02  0.51100000000E-03 0. -1.
        -11    1    3    3    0    0 -0.87126926013E+01  0.40660236704E+01  0.17646548295E+02  0.20095875891E+02  0.51100000000E-03 0.  1.
        -12    1    3    3    0    0 -0.25112823294E+01 -0.18197329610E+01  0.10723901754E+02  0.11163334440E+02  0.00000000000E+00 0.  1.
</event>
<event>
 7    1  0.2472338E-008  0.4614232E+02  0.7816164E-02  0.1320468E+00
        -11   -1    0    0    0    0  0.00000000000E+00  0.00000000000E+00  0.45593999997E+02  0.45594000000E+02  0.51100000000E-03 0.  1.
         11   -1    0    0    0    0 -0.00000000000E+00 -0.00000000000E+00 -0.45593999997E+02  0.45594000000E+02  0.51100000000E-03 0. -1.
    9900012    2    1    2    0    0  0.39508545249E+02 -0.91803200041E+01  0.19593622937E+02  0.46142317822E+02  0.10000000556E+02 0.  0.
         12    1    1    2    0    0 -0.39508545249E+02  0.91803200041E+01 -0.19593622937E+02  0.45045682178E+02  0.00000000000E+00 0. -1.
         11    1    3    3    0    0  0.46476614507E+01 -0.58481979518E+00  0.17546353610E+01  0.50021512037E+01  0.51100000000E-03 0.  1.
        -11    1    3    3    0    0  0.13213945375E+02 -0.40294566732E+01  0.20623925315E+01  0.13967760617E+02  0.51100000000E-03 0. -1.
         12    1    3    3    0    0  0.21646938424E+02 -0.45660435357E+01  0.15776595044E+02  0.27172406001E+02  0.00000000000E+00 0. -1.
</event>
<event>
 7    1  0.2472338E-008  0.4614232E+02  0.7816164E-02  0.1320468E+00
        -11   -1    0    0    0    0  0.00000000000E+00  0.00000000000E+00  0.45593999997E+02  0.45594000000E+02  0.51100000000E-03 0.  1.
         11   -1    0    0    0    0 -0.00000000000E+00 -0.00000000000E+00 -0.45593999997E+02  0.45594000000E+02  0.51100000000E-03 0. -1.
    9900012    2    1    2    0    0  0.22926057610E+02  0.37485292188E+02  0.99177694123E+01  0.46142318764E+02  0.10000009141E+02 0.  0.
         12    1    1    2    0    0 -0.22926057610E+02 -0.37485292188E+02 -0.99177694123E+01  0.45045681236E+02  0.00000000000E+00 0. -1.
         11    1    3    3    0    0  0.20559880106E+01  0.39415080739E+00  0.82274082556E+00  0.22492986209E+01  0.51100000000E-03 0. -1.
        -11    1    3    3    0    0  0.13160165106E+02  0.23655245513E+02  0.29575055961E+01  0.27230633953E+02  0.51100000000E-03 0.  1.
        -12    1    3    3    0    0  0.77099044934E+01  0.13435895868E+02  0.61375229907E+01  0.16662386189E+02  0.00000000000E+00 0.  1.
</event>
<event>
 7    1  0.2472338E-008  0.4614233E+02  0.7816164E-02  0.1320468E+00
        -11   -1    0    0    0    0  0.00000000000E+00  0.00000000000E+00  0.45593999997E+02  0.45594000000E+02  0.51100000000E-03 0.  1.
         11   -1    0    0    0    0 -0.00000000000E+00 -0.00000000000E+00 -0.45593999997E+02  0.45594000000E+02  0.51100000000E-03 0. -1.
    9900012    2    1    2    0    0 -0.31448816977E+02 -0.83381160855E+01  0.31153817068E+02  0.46142327766E+02  0.10000091234E+02 0.  0.
         12    1    1    2    0    0  0.31448816977E+02  0.83381160855E+01 -0.31153817068E+02  0.45045672234E+02  0.00000000000E+00 0. -1.
         11    1    3    3    0    0 -0.55724430952E+00  0.75475528536E+00  0.35663258659E+00  0.10036751587E+01  0.51100000000E-03 0. -1.
        -11    1    3    3    0    0 -0.30460456994E+02 -0.76745221191E+01  0.30079895690E+02  0.43491813656E+02  0.51100000000E-03 0.  1.
        -12    1    3    3    0    0 -0.43111567278E+00 -0.14183492518E+01  0.71728879109E+00  0.16468389518E+01  0.00000000000E+00 0.  1.
</event>
<event>
 7    1  0.2472338E-008  0.4614232E+02  0.7816164E-02  0.1320468E+00
        -11   -1    0    0    0    0  0.00000000000E+00  0.00000000000E+00  0.45593999997E+02  0.45594000000E+02  0.51100000000E-03 0.  1.
         11   -1    0    0    0    0 -0.00000000000E+00 -0.00000000000E+00 -0.45593999997E+02  0.45594000000E+02  0.51100000000E-03 0. -1.
    9900012    2    1    2    0    0  0.29518728423E+02 -0.47873856346E+01  0.33687373713E+02  0.46142317226E+02  0.99999951189E+01 0.  0.
         12    1    1    2    0    0 -0.29518728423E+02  0.47873856346E+01 -0.33687373713E+02  0.45045682774E+02  0.00000000000E+00 0. -1.
         11    1    3    3    0    0  0.42558245251E+01  0.17201964426E+01  0.45155786545E+01  0.64390658511E+01  0.51100000000E-03 0. -1.
        -11    1    3    3    0    0  0.20404913321E+02 -0.26044662090E+01  0.23964352624E+02  0.31582177392E+02  0.51100000000E-03 0.  1.
        -12    1    3    3    0    0  0.48579905769E+01 -0.39031158682E+01  0.52074424347E+01  0.81210739829E+01  0.00000000000E+00 0.  1.
</event>
<event>
 7    1  0.2472338E-008  0.4614232E+02  0.7816164E-02  0.1320468E+00
        -11   -1    0    0    0    0  0.00000000000E+00  0.00000000000E+00  0.45593999997E+02  0.45594000000E+02  0.51100000000E-03 0.  1.
         11   -1    0    0    0    0 -0.00000000000E+00 -0.00000000000E+00 -0.45593999997E+02  0.45594000000E+02  0.51100000000E-03 0. -1.
    9900012    2    1    2    0    0  0.24456082196E+02  0.33578744313E+02 -0.17420718601E+02  0.46142318047E+02  0.10000002609E+02 0.  0.
         12    1    1    2    0    0 -0.24456082196E+02 -0.33578744313E+02  0.17420718601E+02  0.45045681953E+02  0.00000000000E+00 0. -1.
         11    1    3    3    0    0  0.54787237957E+01  0.59943465793E+01 -0.30524920950E+01  0.86756160354E+01  0.51100000000E-03 0.  1.
        -11    1    3    3    0    0  0.17333150109E+02  0.18450442299E+02 -0.10197803047E+02  0.27291978693E+02  0.51100000000E-03 0. -1.
         12    1    3    3    0    0  0.16442082910E+01  0.91339554345E+01 -0.41704234591E+01  0.10174723319E+02  0.00000000000E+00 0. -1.
</event>
<event>
 7    1  0.2472338E-008  0.4614231E+02  0.7816164E-02  0.1320468E+00
        -11   -1    0    0    0    0  0.00000000000E+00  0.00000000000E+00  0.45593999997E+02  0.45594000000E+02  0.51100000000E-03 0. -1.
         11   -1    0    0    0    0 -0.00000000000E+00 -0.00000000000E+00 -0.45593999997E+02  0.45594000000E+02  0.51100000000E-03 0.  1.
    9900012    2    1    2    0    0 -0.92738815004E+01  0.44080394638E+02  0.16787384141E+00  0.46142309295E+02  0.99999227958E+01 0.  0.
         12    1    1    2    0    0  0.92738815004E+01 -0.44080394638E+02 -0.16787384141E+00  0.45045690705E+02  0.00000000000E+00 0. -1.
         11    1    3    3    0    0 -0.97004494971E+00  0.80765909999E+01 -0.29114659923E+01  0.86399620294E+01  0.51100000000E-03 0. -1.
        -11    1    3    3    0    0 -0.84006671069E+01  0.29003510900E+02  0.10527198793E+01  0.30213954918E+02  0.51100000000E-03 0.  1.
        -12    1    3    3    0    0  0.96830556254E-01  0.70002927379E+01  0.20266199544E+01  0.72883923476E+01  0.00000000000E+00 0.  1.
</event>
<event>
 7    1  0.2472338E-008  0.4614232E+02  0.7816164E-02  0.1320468E+00
        -11   -1    0    0    0    0  0.00000000000E+00  0.00000000000E+00  0.45593999997E+02  0.45594000000E+02  0.51100000000E-03 0.  1.
         11   -1    0    0    0    0 -0.00000000000E+00 -0.00000000000E+00 -0.45593999997E+02  0.45594000000E+02  0.51100000000E-03 0. -1.
    9900012    2    1    2    0    0 -0.10552381551E+02 -0.36360600714E+02  0.24406298793E+02  0.46142318060E+02  0.10000002726E+02 0.  0.
         12    1    1    2    0    0  0.10552381551E+02  0.36360600714E+02 -0.24406298793E+02  0.45045681940E+02  0.00000000000E+00 0. -1.
         11    1    3    3    0    0 -0.33714437131E+01 -0.60842614492E+01  0.17604352203E+01  0.71752353633E+01  0.51100000000E-03 0. -1.
        -11    1    3    3    0    0 -0.58887852844E+01 -0.12917955118E+02  0.85833052589E+01  0.16589891078E+02  0.51100000000E-03 0.  1.
        -12    1    3    3    0    0 -0.12921525533E+01 -0.17358384147E+02  0.14062558314E+02  0.22377191618E+02  0.00000000000E+00 0.  1.
</event>
<event>
 7    1  0.2472338E-008  0.4614232E+02  0.7816164E-02  0.1320468E+00
        -11   -1    0    0    0    0  0.00000000000E+00  0.00000000000E+00  0.45593999997E+02  0.45594000000E+02  0.51100000000E-03 0.  1.
         11   -1    0    0    0    0 -0.00000000000E+00 -0.00000000000E+00 -0.45593999997E+02  0.45594000000E+02  0.51100000000E-03 0. -1.
    9900012    2    1    2    0    0 -0.37009118996E+02 -0.22133231882E+01  0.25583978930E+02  0.46142315787E+02  0.99999819957E+01 0.  0.
         12    1    1    2    0    0  0.37009118996E+02  0.22133231882E+01 -0.25583978930E+02  0.45045684213E+02  0.00000000000E+00 0. -1.
         11    1    3    3    0    0 -0.11454223721E+01  0.14325275904E+01  0.41828020165E+00  0.18812459424E+01  0.51100000000E-03 0. -1.
        -11    1    3    3    0    0 -0.15643989986E+02  0.37565300975E+00  0.89096147239E+01  0.18007131161E+02  0.51100000000E-03 0.  1.
        -12    1    3    3    0    0 -0.20219706638E+02 -0.40215037883E+01  0.16256084004E+02  0.26253938683E+02  0.00000000000E+00 0.  1.
</event>
<event>
 7    1  0.2472338E-008  0.4614232E+02  0.7816164E-02  0.1320468E+00
        -11   -1    0    0    0    0  0.00000000000E+00  0.00000000000E+00  0.45593999997E+02  0.45594000000E+02  0.51100000000E-03 0.  1.
         11   -1    0    0    0    0 -0.00000000000E+00 -0.00000000000E+00 -0.45593999997E+02  0.45594000000E+02  0.51100000000E-03 0. -1.
    9900012    2    1    2    0    0 -0.40026581101E+02  0.20602969688E+02  0.15823894700E+01  0.46142317509E+02  0.99999977011E+01 0.  0.
         12    1    1    2    0    0  0.40026581101E+02 -0.20602969688E+02 -0.15823894700E+01  0.45045682491E+02  0.00000000000E+00 0. -1.
         11    1    3    3    0    0 -0.11915300759E+02  0.52327865409E+01  0.92347560145E+00  0.13046426890E+02  0.51100000000E-03 0.  1.
        -11    1    3    3    0    0 -0.24971620300E+02  0.12578165032E+02  0.32668999468E+01  0.28150749395E+02  0.51100000000E-03 0. -1.
         12    1    3    3    0    0 -0.31396600431E+01  0.27920181149E+01 -0.26079860782E+01  0.49451412239E+01  0.00000000000E+00 0. -1.
</event>
<event>
 7    1  0.2472338E-008  0.4614232E+02  0.7816164E-02  0.1320468E+00
        -11   -1    0    0    0    0  0.00000000000E+00  0.00000000000E+00  0.45593999997E+02  0.45594000000E+02  0.51100000000E-03 0.  1.
         11   -1    0    0    0    0 -0.00000000000E+00 -0.00000000000E+00 -0.45593999997E+02  0.45594000000E+02  0.51100000000E-03 0. -1.
    9900012    2    1    2    0    0 -0.32790129805E+02  0.10633952243E+02  0.28997238492E+02  0.46142318819E+02  0.10000009648E+02 0.  0.
         12    1    1    2    0    0  0.32790129805E+02 -0.10633952243E+02 -0.28997238492E+02  0.45045681181E+02  0.00000000000E+00 0. -1.
         11    1    3    3    0    0 -0.38130726905E+01  0.32741516822E+01  0.14765661946E+01  0.52383051237E+01  0.51100000000E-03 0. -1.
        -11    1    3    3    0    0 -0.10084198426E+02  0.31072881307E+01  0.12738958219E+02  0.16541685349E+02  0.51100000000E-03 0.  1.
        -12    1    3    3    0    0 -0.18892858688E+02  0.42525124302E+01  0.14781714078E+02  0.24362328347E+02  0.00000000000E+00 0.  1.
</event>
<event>
 7    1  0.2472338E-008  0.4614232E+02  0.7816164E-02  0.1320468E+00
        -11   -1    0    0    0    0  0.00000000000E+00  0.00000000000E+00  0.45593999997E+02  0.45594000000E+02  0.51100000000E-03 0.  1.
         11   -1    0    0    0    0 -0.00000000000E+00 -0.00000000000E+00 -0.45593999997E+02  0.45594000000E+02  0.51100000000E-03 0. -1.
    9900012    2    1    2    0    0  0.15143196730E+02  0.97802181224E+01  0.41281284761E+02  0.46142317129E+02  0.99999942377E+01 0.  0.
         12    1    1    2    0    0 -0.15143196730E+02 -0.97802181224E+01 -0.41281284761E+02  0.45045682871E+02  0.00000000000E+00 0. -1.
         11    1    3    3    0    0  0.30024698968E+01  0.46026532875E+01  0.72241472548E+01  0.90767585947E+01  0.51100000000E-03 0. -1.
        -11    1    3    3    0    0  0.75242985608E+01  0.61937615359E+01  0.20281595645E+02  0.22501574900E+02  0.51100000000E-03 0.  1.
        -12    1    3    3    0    0  0.46164282728E+01 -0.10161967010E+01  0.13775541862E+02  0.14563983635E+02  0.00000000000E+00 0.  1.
</event>
<event>
 7    1  0.2472338E-008  0.4614232E+02  0.7816164E-02  0.1320468E+00
        -11   -1    0    0    0    0  0.00000000000E+00  0.00000000000E+00  0.45593999997E+02  0.45594000000E+02  0.51100000000E-03 0. -1.
         11   -1    0    0    0    0 -0.00000000000E+00 -0.00000000000E+00 -0.45593999997E+02  0.45594000000E+02  0.51100000000E-03 0.  1.
    9900012    2    1    2    0    0  0.32341999495E+02  0.30008500394E+02 -0.90883683715E+01  0.46142318000E+02  0.10000002176E+02 0.  0.
         12    1    1    2    0    0 -0.32341999495E+02 -0.30008500394E+02  0.90883683715E+01  0.45045682000E+02  0.00000000000E+00 0. -1.
         11    1    3    3    0    0  0.33209287800E+01  0.32490355063E+01 -0.43159905480E+01  0.63413385302E+01  0.51100000000E-03 0. -1.
        -11    1    3    3    0    0  0.14360692875E+02  0.13525919196E+02 -0.32389645075E+01  0.19991770339E+02  0.51100000000E-03 0.  1.
         12    1    3    3    0    0  0.14660377840E+02  0.13233545691E+02 -0.15334133159E+01  0.19809209130E+02  0.00000000000E+00 0. -1.
</event>
<event>
 7    1  0.2472338E-008  0.4614232E+02  0.7816164E-02  0.1320468E+00
        -11   -1    0    0    0    0  0.00000000000E+00  0.00000000000E+00  0.45593999997E+02  0.45594000000E+02  0.51100000000E-03 0. -1.
         11   -1    0    0    0    0 -0.00000000000E+00 -0.00000000000E+00 -0.45593999997E+02  0.45594000000E+02  0.51100000000E-03 0.  1.
    9900012    2    1    2    0    0 -0.82544716943E+01  0.25730775174E+02 -0.36040317888E+02  0.46142316439E+02  0.99999879401E+01 0.  0.
         12    1    1    2    0    0  0.82544716943E+01 -0.25730775174E+02  0.36040317888E+02  0.45045683561E+02  0.00000000000E+00 0. -1.
         11    1    3    3    0    0  0.13408527877E+01  0.41312366138E+01 -0.62544098288E+01  0.76146335910E+01  0.51100000000E-03 0. -1.
        -11    1    3    3    0    0 -0.84643148257E+01  0.11583800750E+02 -0.18065868471E+02  0.23069561529E+02  0.51100000000E-03 0.  1.
        -12    1    3    3    0    0 -0.11310096563E+01  0.10015737811E+02 -0.11720039588E+02  0.15458121318E+02  0.00000000000E+00 0.  1.
</event>
<event>
 7    1  0.2472338E-008  0.4614232E+02  0.7816164E-02  0.1320468E+00
        -11   -1    0    0    0    0  0.00000000000E+00  0.00000000000E+00  0.45593999997E+02  0.45594000000E+02  0.51100000000E-03 0. -1.
         11   -1    0    0    0    0 -0.00000000000E+00 -0.00000000000E+00 -0.45593999997E+02  0.45594000000E+02  0.51100000000E-03 0.  1.
    9900012    2    1    2    0    0 -0.11989475404E+02 -0.34459929955E+02 -0.26417403586E+02  0.46142317574E+02  0.99999982977E+01 0.  0.
         12    1    1    2    0    0  0.11989475404E+02  0.34459929955E+02  0.26417403586E+02  0.45045682426E+02  0.00000000000E+00 0. -1.
         11    1    3    3    0    0 -0.99080677952E+00 -0.62933514490E+01 -0.23944548824E+01  0.68059815589E+01  0.51100000000E-03 0. -1.
        -11    1    3    3    0    0  0.17761108220E+00 -0.78166647335E+00 -0.28521327203E+01  0.29626355644E+01  0.51100000000E-03 0.  1.
        -12    1    3    3    0    0 -0.11176279706E+02 -0.27384912033E+02 -0.21170815983E+02  0.36373700451E+02  0.00000000000E+00 0.  1.
</event>
<event>
 7    1  0.2472338E-008  0.4614232E+02  0.7816164E-02  0.1320468E+00
        -11   -1    0    0    0    0  0.00000000000E+00  0.00000000000E+00  0.45593999997E+02  0.45594000000E+02  0.51100000000E-03 0. -1.
         11   -1    0    0    0    0 -0.00000000000E+00 -0.00000000000E+00 -0.45593999997E+02  0.45594000000E+02  0.51100000000E-03 0.  1.
    9900012    2    1    2    0    0 -0.19015664693E+02 -0.10578611793E+02 -0.39441235163E+02  0.46142316939E+02  0.99999925071E+01 0.  0.
         12    1    1    2    0    0  0.19015664693E+02  0.10578611793E+02  0.39441235163E+02  0.45045683061E+02  0.00000000000E+00 0. -1.
         11    1    3    3    0    0 -0.32224114901E+01 -0.62250256079E+01 -0.12071293723E+02  0.13958904399E+02  0.51100000000E-03 0. -1.
        -11    1    3    3    0    0 -0.44433070887E+01 -0.16159983300E+01 -0.11879011581E+02  0.12785356659E+02  0.51100000000E-03 0.  1.
        -12    1    3    3    0    0 -0.11349946114E+02 -0.27375878549E+01 -0.15490929860E+02  0.19398055881E+02  0.00000000000E+00 0.  1.
</event>
<event>
 7    1  0.2472338E-008  0.4614232E+02  0.7816164E-02  0.1320468E+00
        -11   -1    0    0    0    0  0.00000000000E+00  0.00000000000E+00  0.45593999997E+02  0.45594000000E+02  0.51100000000E-03 0.  1.
         11   -1    0    0    0    0 -0.00000000000E+00 -0.00000000000E+00 -0.45593999997E+02  0.45594000000E+02  0.51100000000E-03 0. -1.
    9900012    2    1    2    0    0 -0.32641454263E+02  0.13246443491E+02  0.28074555469E+02  0.46142318006E+02  0.10000002229E+02 0.  0.
         12    1    1    2    0    0  0.32641454263E+02 -0.13246443491E+02 -0.28074555469E+02  0.45045681994E+02  0.00000000000E+00 0. -1.
         11    1    3    3    0    0 -0.15415197229E+02  0.96095708172E+01  0.11135785534E+02  0.21306756596E+02  0.51100000000E-03 0. -1.
        -11    1    3    3    0    0 -0.16113712742E+02  0.37121510955E+01  0.13910969143E+02  0.21608953395E+02  0.51100000000E-03 0.  1.
         12    1    3    3    0    0 -0.11125442917E+01 -0.75278421582E-01  0.30278007925E+01  0.32266080148E+01  0.00000000000E+00 0. -1.
</event>
<event>
 7    1  0.2472338E-008  0.4614232E+02  0.7816164E-02  0.1320468E+00
        -11   -1    0    0    0    0  0.00000000000E+00  0.00000000000E+00  0.45593999997E+02  0.45594000000E+02  0.51100000000E-03 0. -1.
         11   -1    0    0    0    0 -0.00000000000E+00 -0.00000000000E+00 -0.45593999997E+02  0.45594000000E+02  0.51100000000E-03 0.  1.
    9900012    2    1    2    0    0 -0.36176873032E+02 -0.26248520542E+02 -0.56002049909E+01  0.46142320196E+02  0.10000022208E+02 0.  0.
         12    1    1    2    0    0  0.36176873032E+02  0.26248520542E+02  0.56002049909E+01  0.45045679804E+02  0.00000000000E+00 0. -1.
         11    1    3    3    0    0 -0.38190760339E+01 -0.87014968137E+00 -0.50310061875E+00  0.39491280955E+01  0.51100000000E-03 0. -1.
        -11    1    3    3    0    0 -0.24251517488E+02 -0.20676824537E+02 -0.78895983754E+00  0.31879297848E+02  0.51100000000E-03 0.  1.
        -12    1    3    3    0    0 -0.81062795101E+01 -0.47015463243E+01 -0.43081445346E+01  0.10313894253E+02  0.00000000000E+00 0.  1.
</event>
<event>
 7    1  0.2472338E-008  0.4614232E+02  0.7816164E-02  0.1320468E+00
        -11   -1    0    0    0    0  0.00000000000E+00  0.00000000000E+00  0.45593999997E+02  0.45594000000E+02  0.51100000000E-03 0.  1.
         11   -1    0    0    0    0 -0.00000000000E+00 -0.00000000000E+00 -0.45593999997E+02  0.45594000000E+02  0.51100000000E-03 0. -1.
    9900012    2    1    2    0    0 -0.19768815168E+02  0.53033767413E+01  0.40127068824E+02  0.46142317517E+02  0.99999977712E+01 0.  0.
         12    1    1    2    0    0  0.19768815168E+02 -0.53033767413E+01 -0.40127068824E+02  0.45045682483E+02  0.00000000000E+00 0. -1.
         11    1    3    3    0    0 -0.15027557777E+02  0.36126413578E+01  0.35620223124E+02  0.38828841935E+02  0.51100000000E-03 0. -1.
        -11    1    3    3    0    0 -0.40765110255E+01  0.12372728455E+01  0.48353408344E+01  0.64443236636E+01  0.51100000000E-03 0.  1.
         12    1    3    3    0    0 -0.66474636486E+00  0.45346253794E+00 -0.32849513490E+00  0.86915191800E+00  0.00000000000E+00 0. -1.
</event>
<event>
 7    1  0.2472338E-008  0.4614232E+02  0.7816164E-02  0.1320468E+00
        -11   -1    0    0    0    0  0.00000000000E+00  0.00000000000E+00  0.45593999997E+02  0.45594000000E+02  0.51100000000E-03 0.  1.
         11   -1    0    0    0    0 -0.00000000000E+00 -0.00000000000E+00 -0.45593999997E+02  0.45594000000E+02  0.51100000000E-03 0. -1.
    9900012    2    1    2    0    0  0.23986711684E+02  0.12634547137E+02  0.35973872482E+02  0.46142316299E+02  0.99999866640E+01 0.  0.
         12    1    1    2    0    0 -0.23986711684E+02 -0.12634547137E+02 -0.35973872482E+02  0.45045683701E+02  0.00000000000E+00 0. -1.
         11    1    3    3    0    0  0.15849057897E+02  0.32144208472E+01  0.20387840641E+02  0.26022858872E+02  0.51100000000E-03 0. -1.
        -11    1    3    3    0    0 -0.16875719429E+00  0.32670618450E-01  0.11062434949E+00  0.20441224953E+00  0.51100000000E-03 0.  1.
        -12    1    3    3    0    0  0.83064109806E+01  0.93874556716E+01  0.15475407491E+02  0.19915045177E+02  0.00000000000E+00 0.  1.
</event>
<event>
 7    1  0.2472338E-008  0.4614232E+02  0.7816164E-02  0.1320468E+00
        -11   -1    0    0    0    0  0.00000000000E+00  0.00000000000E+00  0.45593999997E+02  0.45594000000E+02  0.51100000000E-03 0.  1.
         11   -1    0    0    0    0 -0.00000000000E+00 -0.00000000000E+00 -0.45593999997E+02  0.45594000000E+02  0.51100000000E-03 0. -1.
    9900012    2    1    2    0    0 -0.58215886310E+01  0.44558942026E+02 -0.31182046666E+01  0.46142318642E+02  0.10000008034E+02 0.  0.
         12    1    1    2    0    0  0.58215886310E+01 -0.44558942026E+02  0.31182046666E+01  0.45045681358E+02  0.00000000000E+00 0. -1.
         11    1    3    3    0    0 -0.19807959220E+01  0.18313533954E+02 -0.11167913240E+01  0.18454167591E+02  0.51100000000E-03 0.  1.
        -11    1    3    3    0    0 -0.56352013804E+01  0.13032673052E+02  0.39350776943E-01  0.14198859469E+02  0.51100000000E-03 0. -1.
        -12    1    3    3    0    0  0.17944086713E+01  0.13212735019E+02 -0.20407641195E+01  0.13489291581E+02  0.00000000000E+00 0.  1.
</event>
<event>
 7    1  0.2472338E-008  0.4614232E+02  0.7816164E-02  0.1320468E+00
        -11   -1    0    0    0    0  0.00000000000E+00  0.00000000000E+00  0.45593999997E+02  0.45594000000E+02  0.51100000000E-03 0.  1.
         11   -1    0    0    0    0 -0.00000000000E+00 -0.00000000000E+00 -0.45593999997E+02  0.45594000000E+02  0.51100000000E-03 0. -1.
    9900012    2    1    2    0    0  0.46209952541E+01  0.53597821352E+00  0.44804827650E+02  0.46142318181E+02  0.10000003826E+02 0.  0.
         12    1    1    2    0    0 -0.46209952541E+01 -0.53597821352E+00 -0.44804827650E+02  0.45045681819E+02  0.00000000000E+00 0. -1.
         11    1    3    3    0    0 -0.33962061253E+00 -0.94524246971E+00  0.29387208430E+01  0.31056248873E+01  0.51100000000E-03 0. -1.
        -11    1    3    3    0    0  0.72365033194E+01 -0.10766404024E-01  0.29485561737E+02  0.30360590367E+02  0.51100000000E-03 0.  1.
         12    1    3    3    0    0 -0.22758874527E+01  0.14919870872E+01  0.12380545070E+02  0.12676102926E+02  0.00000000000E+00 0. -1.
</event>
<event>
 7    1  0.2472338E-008  0.4614232E+02  0.7816164E-02  0.1320468E+00
        -11   -1    0    0    0    0  0.00000000000E+00  0.00000000000E+00  0.45593999997E+02  0.45594000000E+02  0.51100000000E-03 0.  1.
         11   -1    0    0    0    0 -0.00000000000E+00 -0.00000000000E+00 -0.45593999997E+02  0.45594000000E+02  0.51100000000E-03 0. -1.
    9900012    2    1    2    0    0  0.36145849117E+02  0.54375093969E+01  0.26325359661E+02  0.46142317875E+02  0.10000001042E+02 0.  0.
         12    1    1    2    0    0 -0.36145849117E+02 -0.54375093969E+01 -0.26325359661E+02  0.45045682125E+02  0.00000000000E+00 0. -1.
         11    1    3    3    0    0  0.11088254690E+02  0.43885736213E+01  0.75443475636E+01  0.14111206572E+02  0.51100000000E-03 0. -1.
        -11    1    3    3    0    0  0.10411592987E+02  0.36565372455E+01  0.71678567948E+01  0.13158636116E+02  0.51100000000E-03 0.  1.
        -12    1    3    3    0    0  0.14646001440E+02 -0.26076014698E+01  0.11613155303E+02  0.18872475187E+02  0.00000000000E+00 0.  1.
</event>
<event>
 7    1  0.2472338E-008  0.4614232E+02  0.7816164E-02  0.1320468E+00
        -11   -1    0    0    0    0  0.00000000000E+00  0.00000000000E+00  0.45593999997E+02  0.45594000000E+02  0.51100000000E-03 0.  1.
         11   -1    0    0    0    0 -0.00000000000E+00 -0.00000000000E+00 -0.45593999997E+02  0.45594000000E+02  0.51100000000E-03 0. -1.
    9900012    2    1    2    0    0 -0.10183140294E+01  0.68404407897E+01  0.44511627021E+02  0.46142317258E+02  0.99999954139E+01 0.  0.
         12    1    1    2    0    0  0.10183140294E+01 -0.68404407897E+01 -0.44511627021E+02  0.45045682742E+02  0.00000000000E+00 0. -1.
         11    1    3    3    0    0  0.11558850492E+01  0.16166209192E+01  0.26307364632E+01  0.32970150202E+01  0.51100000000E-03 0. -1.
        -11    1    3    3    0    0 -0.32130209305E+01  0.27091848248E+01  0.37156856538E+02  0.37393785232E+02  0.51100000000E-03 0.  1.
        -12    1    3    3    0    0  0.10388218520E+01  0.25146350457E+01  0.47240340195E+01  0.54515170064E+01  0.00000000000E+00 0.  1.
</event>
<event>
 7    1  0.2472338E-008  0.4614232E+02  0.7816164E-02  0.1320468E+00
        -11   -1    0    0    0    0  0.00000000000E+00  0.00000000000E+00  0.45593999997E+02  0.45594000000E+02  0.51100000000E-03 0.  1.
         11   -1    0    0    0    0 -0.00000000000E+00 -0.00000000000E+00 -0.45593999997E+02  0.45594000000E+02  0.51100000000E-03 0. -1.
    9900012    2    1    2    0    0 -0.37398337539E+02 -0.12268331665E+02  0.21908122737E+02  0.46142318138E+02  0.10000003441E+02 0.  0.
         12    1    1    2    0    0  0.37398337539E+02  0.12268331665E+02 -0.21908122737E+02  0.45045681862E+02  0.00000000000E+00 0. -1.
         11    1    3    3    0    0 -0.20599553064E+02 -0.51342402761E+01  0.16064433788E+02  0.26622697889E+02  0.51100000000E-03 0. -1.
        -11    1    3    3    0    0 -0.12487519859E+02 -0.38495936904E+01  0.51904861642E+01  0.14060535931E+02  0.51100000000E-03 0.  1.
        -12    1    3    3    0    0 -0.43112646157E+01 -0.32844976985E+01  0.65320278496E+00  0.54590843185E+01  0.00000000000E+00 0.  1.
</event>
<event>
 7    1  0.2472338E-008  0.4614232E+02  0.7816164E-02  0.1320468E+00
        -11   -1    0    0    0    0  0.00000000000E+00  0.00000000000E+00  0.45593999997E+02  0.45594000000E+02  0.51100000000E-03 0. -1.
         11   -1    0    0    0    0 -0.00000000000E+00 -0.00000000000E+00 -0.45593999997E+02  0.45594000000E+02  0.51100000000E-03 0.  1.
    9900012    2    1    2    0    0  0.40570018265E+02 -0.18732326055E+02  0.56821638332E+01  0.46142318661E+02  0.10000008210E+02 0.  0.
         12    1    1    2    0    0 -0.40570018265E+02  0.18732326055E+02 -0.56821638332E+01  0.45045681339E+02  0.00000000000E+00 0. -1.
         11    1    3    3    0    0  0.14967792591E+02 -0.67024069525E+01  0.63372644836E+01  0.17581751773E+02  0.51100000000E-03 0. -1.
        -11    1    3    3    0    0  0.29694494518E+01 -0.28923488874E+01 -0.11138216552E+00  0.41467720435E+01  0.51100000000E-03 0.  1.
         12    1    3    3    0    0  0.22632776222E+02 -0.91375702147E+01 -0.54371848485E+00  0.24413794845E+02  0.00000000000E+00 0. -1.
</event>
<event>
 7    1  0.2472338E-008  0.4614232E+02  0.7816164E-02  0.1320468E+00
        -11   -1    0    0    0    0  0.00000000000E+00  0.00000000000E+00  0.45593999997E+02  0.45594000000E+02  0.51100000000E-03 0.  1.
         11   -1    0    0    0    0 -0.00000000000E+00 -0.00000000000E+00 -0.45593999997E+02  0.45594000000E+02  0.51100000000E-03 0. -1.
    9900012    2    1    2    0    0  0.13338802151E+02 -0.20597650122E+02  0.37774682867E+02  0.46142317642E+02  0.99999989134E+01 0.  0.
         12    1    1    2    0    0 -0.13338802151E+02  0.20597650122E+02 -0.37774682867E+02  0.45045682358E+02  0.00000000000E+00 0. -1.
         11    1    3    3    0    0 -0.11677960772E+01 -0.38046351439E+01  0.70535990018E+01  0.80989045800E+01  0.51100000000E-03 0. -1.
        -11    1    3    3    0    0  0.36519486805E+01 -0.65231500083E+01  0.94904469921E+01  0.12081258195E+02  0.51100000000E-03 0.  1.
         12    1    3    3    0    0  0.10854649547E+02 -0.10269864970E+02  0.21230636874E+02  0.25962154867E+02  0.00000000000E+00 0. -1.
</event>
<event>
 7    1  0.2472338E-008  0.4614232E+02  0.7816164E-02  0.1320468E+00
        -11   -1    0    0    0    0  0.00000000000E+00  0.00000000000E+00  0.45593999997E+02  0.45594000000E+02  0.51100000000E-03 0.  1.
         11   -1    0    0    0    0 -0.00000000000E+00 -0.00000000000E+00 -0.45593999997E+02  0.45594000000E+02  0.51100000000E-03 0. -1.
    9900012    2    1    2    0    0 -0.13329708020E+02  0.42262445974E+02 -0.80819554082E+01  0.46142318089E+02  0.10000002990E+02 0.  0.
         12    1    1    2    0    0  0.13329708020E+02 -0.42262445974E+02  0.80819554082E+01  0.45045681911E+02  0.00000000000E+00 0. -1.
         11    1    3    3    0    0 -0.59710176827E-01  0.41187340455E+01 -0.25182302819E+01  0.48279415341E+01  0.51100000000E-03 0. -1.
        -11    1    3    3    0    0 -0.13774427011E+01  0.13547032802E+02 -0.17771511293E+01  0.13732360050E+02  0.51100000000E-03 0.  1.
        -12    1    3    3    0    0 -0.11892555142E+02  0.24596679126E+02 -0.37865739970E+01  0.27582016505E+02  0.00000000000E+00 0.  1.
</event>
<event>
 7    1  0.2472338E-008  0.4614232E+02  0.7816164E-02  0.1320468E+00
        -11   -1    0    0    0    0  0.00000000000E+00  0.00000000000E+00  0.45593999997E+02  0.45594000000E+02  0.51100000000E-03 0.  1.
         11   -1    0    0    0    0 -0.00000000000E+00 -0.00000000000E+00 -0.45593999997E+02  0.45594000000E+02  0.51100000000E-03 0. -1.
    9900012    2    1    2    0    0 -0.30368589945E+02  0.24952668737E+02  0.22005148981E+02  0.46142317476E+02  0.99999974006E+01 0.  0.
         12    1    1    2    0    0  0.30368589945E+02 -0.24952668737E+02 -0.22005148981E+02  0.45045682524E+02  0.00000000000E+00 0. -1.
         11    1    3    3    0    0 -0.33604116026E+01  0.50673958482E+01  0.42658325388E+01  0.74275294904E+01  0.51100000000E-03 0. -1.
        -11    1    3    3    0    0 -0.19458988231E+02  0.16332677726E+02  0.98979027458E+01  0.27264942026E+02  0.51100000000E-03 0.  1.
         12    1    3    3    0    0 -0.75491901112E+01  0.35525951636E+01  0.78414136966E+01  0.11449845959E+02  0.00000000000E+00 0. -1.
</event>
<event>
 7    1  0.2472338E-008  0.4614232E+02  0.7816164E-02  0.1320468E+00
        -11   -1    0    0    0    0  0.00000000000E+00  0.00000000000E+00  0.45593999997E+02  0.45594000000E+02  0.51100000000E-03 0.  1.
         11   -1    0    0    0    0 -0.00000000000E+00 -0.00000000000E+00 -0.45593999997E+02  0.45594000000E+02  0.51100000000E-03 0. -1.
    9900012    2    1    2    0    0  0.26721022201E+02 -0.36257240843E+02 -0.71619984219E+00  0.46142317818E+02  0.10000000522E+02 0.  0.
         12    1    1    2    0    0 -0.26721022201E+02  0.36257240843E+02  0.71619984219E+00  0.45045682182E+02  0.00000000000E+00 0. -1.
         11    1    3    3    0    0  0.15377156265E+01 -0.72779753835E+01  0.42754941313E+00  0.74509257004E+01  0.51100000000E-03 0. -1.
        -11    1    3    3    0    0  0.10456942554E+02 -0.10910250484E+02 -0.26071231889E+01  0.15335524275E+02  0.51100000000E-03 0.  1.
         12    1    3    3    0    0  0.14726364021E+02 -0.18069014975E+02  0.14633739336E+01  0.23355867843E+02  0.00000000000E+00 0. -1.
</event>
<event>
 7    1  0.2472338E-008  0.4614232E+02  0.7816164E-02  0.1320468E+00
        -11   -1    0    0    0    0  0.00000000000E+00  0.00000000000E+00  0.45593999997E+02  0.45594000000E+02  0.51100000000E-03 0.  1.
         11   -1    0    0    0    0 -0.00000000000E+00 -0.00000000000E+00 -0.45593999997E+02  0.45594000000E+02  0.51100000000E-03 0. -1.
    9900012    2    1    2    0    0  0.19032972604E+01 -0.32743288492E+01  0.44886184890E+02  0.46142319143E+02  0.10000012602E+02 0.  0.
         12    1    1    2    0    0 -0.19032972604E+01  0.32743288492E+01 -0.44886184890E+02  0.45045680857E+02  0.00000000000E+00 0. -1.
         11    1    3    3    0    0  0.11976603451E+01  0.99679072399E-01  0.19135009479E+01  0.22596044695E+01  0.51100000000E-03 0. -1.
        -11    1    3    3    0    0 -0.37032618778E+01 -0.11028630431E+01  0.16190087321E+02  0.16644800484E+02  0.51100000000E-03 0.  1.
         12    1    3    3    0    0  0.44088987931E+01 -0.22711448785E+01  0.26782596621E+02  0.27237914189E+02  0.00000000000E+00 0. -1.
</event>
<event>
 7    1  0.2472338E-008  0.4614232E+02  0.7816164E-02  0.1320468E+00
        -11   -1    0    0    0    0  0.00000000000E+00  0.00000000000E+00  0.45593999997E+02  0.45594000000E+02  0.51100000000E-03 0. -1.
         11   -1    0    0    0    0 -0.00000000000E+00 -0.00000000000E+00 -0.45593999997E+02  0.45594000000E+02  0.51100000000E-03 0.  1.
    9900012    2    1    2    0    0 -0.25340214537E+02 -0.10969298514E+02 -0.35590191200E+02  0.46142315497E+02  0.99999793531E+01 0.  0.
         12    1    1    2    0    0  0.25340214537E+02  0.10969298514E+02  0.35590191200E+02  0.45045684503E+02  0.00000000000E+00 0. -1.
         11    1    3    3    0    0 -0.12370539191E+01 -0.20291105523E+01 -0.40283886115E+01  0.46771259442E+01  0.51100000000E-03 0. -1.
        -11    1    3    3    0    0 -0.20010097809E+02 -0.88140749455E+01 -0.21785260809E+02  0.30865668958E+02  0.51100000000E-03 0.  1.
        -12    1    3    3    0    0 -0.40930628085E+01 -0.12611301641E+00 -0.97765417804E+01  0.10599520594E+02  0.00000000000E+00 0.  1.
</event>
<event>
 7    1  0.2472338E-008  0.4614232E+02  0.7816164E-02  0.1320468E+00
        -11   -1    0    0    0    0  0.00000000000E+00  0.00000000000E+00  0.45593999997E+02  0.45594000000E+02  0.51100000000E-03 0. -1.
         11   -1    0    0    0    0 -0.00000000000E+00 -0.00000000000E+00 -0.45593999997E+02  0.45594000000E+02  0.51100000000E-03 0.  1.
    9900012    2    1    2    0    0  0.15670646702E+01  0.39791595655E+02  0.21054374796E+02  0.46142317915E+02  0.10000001402E+02 0.  0.
         12    1    1    2    0    0 -0.15670646702E+01 -0.39791595655E+02 -0.21054374796E+02  0.45045682085E+02  0.00000000000E+00 0. -1.
         11    1    3    3    0    0 -0.33286924132E+01  0.99797840212E+01  0.51089629481E+01  0.11695203502E+02  0.51100000000E-03 0. -1.
        -11    1    3    3    0    0  0.16145669734E+01  0.21949346664E+02  0.11801884934E+02  0.24973288404E+02  0.51100000000E-03 0.  1.
        -12    1    3    3    0    0  0.32811901100E+01  0.78624649704E+01  0.41435269141E+01  0.94738260084E+01  0.00000000000E+00 0.  1.
</event>
<event>
 7    1  0.2472338E-008  0.4614232E+02  0.7816164E-02  0.1320468E+00
        -11   -1    0    0    0    0  0.00000000000E+00  0.00000000000E+00  0.45593999997E+02  0.45594000000E+02  0.51100000000E-03 0.  1.
         11   -1    0    0    0    0 -0.00000000000E+00 -0.00000000000E+00 -0.45593999997E+02  0.45594000000E+02  0.51100000000E-03 0. -1.
    9900012    2    1    2    0    0 -0.31760845231E+02 -0.31003951793E+00  0.31941598693E+02  0.46142321613E+02  0.10000035121E+02 0.  0.
         12    1    1    2    0    0  0.31760845231E+02  0.31003951793E+00 -0.31941598693E+02  0.45045678387E+02  0.00000000000E+00 0. -1.
         11    1    3    3    0    0 -0.95814958956E+01 -0.29177526124E-01  0.41180764070E+01  0.10429020495E+02  0.51100000000E-03 0. -1.
        -11    1    3    3    0    0 -0.40264432424E+01 -0.19577557868E+00  0.70894221699E+01  0.81553957737E+01  0.51100000000E-03 0.  1.
         12    1    3    3    0    0 -0.18152906093E+02 -0.85086413124E-01  0.20734100116E+02  0.27557905344E+02  0.00000000000E+00 0. -1.
</event>
<event>
 7    1  0.2472338E-008  0.4614232E+02  0.7816164E-02  0.1320468E+00
        -11   -1    0    0    0    0  0.00000000000E+00  0.00000000000E+00  0.45593999997E+02  0.45594000000E+02  0.51100000000E-03 0.  1.
         11   -1    0    0    0    0 -0.00000000000E+00 -0.00000000000E+00 -0.45593999997E+02  0.45594000000E+02  0.51100000000E-03 0. -1.
    9900012    2    1    2    0    0  0.37939522314E+02  0.75814664644E+01  0.23070055960E+02  0.46142317975E+02  0.10000001948E+02 0.  0.
         12    1    1    2    0    0 -0.37939522314E+02 -0.75814664644E+01 -0.23070055960E+02  0.45045682025E+02  0.00000000000E+00 0. -1.
         11    1    3    3    0    0  0.98022930525E+01  0.27135733182E+01  0.32134793422E+01  0.10666530785E+02  0.51100000000E-03 0. -1.
        -11    1    3    3    0    0  0.26229975667E+02  0.25229435356E+01  0.18239973957E+02  0.32047987734E+02  0.51100000000E-03 0.  1.
        -12    1    3    3    0    0  0.19072535942E+01  0.23449496106E+01  0.16166026602E+01  0.34277994559E+01  0.00000000000E+00 0.  1.
</event>
<event>
 7    1  0.2472338E-008  0.4614232E+02  0.7816164E-02  0.1320468E+00
        -11   -1    0    0    0    0  0.00000000000E+00  0.00000000000E+00  0.45593999997E+02  0.45594000000E+02  0.51100000000E-03 0. -1.
         11   -1    0    0    0    0 -0.00000000000E+00 -0.00000000000E+00 -0.45593999997E+02  0.45594000000E+02  0.51100000000E-03 0.  1.
    9900012    2    1    2    0    0  0.41303689982E+02  0.16879459360E+02 -0.61807872366E+01  0.46142322235E+02  0.10000040797E+02 0.  0.
         12    1    1    2    0    0 -0.41303689982E+02 -0.16879459360E+02  0.61807872366E+01  0.45045677765E+02  0.00000000000E+00 0. -1.
         11    1    3    3    0    0  0.92858499292E+01  0.41364844842E+01  0.24689178715E+00  0.10168503755E+02  0.51100000000E-03 0. -1.
        -11    1    3    3    0    0  0.76088644272E+01  0.68161829088E+00  0.11191390680E+01  0.77208739066E+01  0.51100000000E-03 0.  1.
        -12    1    3    3    0    0  0.24408975626E+02  0.12061356585E+02 -0.75468180918E+01  0.28252944574E+02  0.00000000000E+00 0.  1.
</event>
<event>
 7    1  0.2472338E-008  0.4614232E+02  0.7816164E-02  0.1320468E+00
        -11   -1    0    0    0    0  0.00000000000E+00  0.00000000000E+00  0.45593999997E+02  0.45594000000E+02  0.51100000000E-03 0.  1.
         11   -1    0    0    0    0 -0.00000000000E+00 -0.00000000000E+00 -0.45593999997E+02  0.45594000000E+02  0.51100000000E-03 0. -1.
    9900012    2    1    2    0    0 -0.10601299537E+02 -0.29780229201E+01  0.43679025901E+02  0.46142317898E+02  0.10000001250E+02 0.  0.
         12    1    1    2    0    0  0.10601299537E+02  0.29780229201E+01 -0.43679025901E+02  0.45045682102E+02  0.00000000000E+00 0. -1.
         11    1    3    3    0    0 -0.70591353683E+01 -0.27580888728E+01  0.26074287105E+02  0.27153395638E+02  0.51100000000E-03 0.  1.
        -11    1    3    3    0    0 -0.70913136828E+00  0.27798079756E+01  0.55502428831E+01  0.62478313038E+01  0.51100000000E-03 0. -1.
         12    1    3    3    0    0 -0.28330328009E+01 -0.29997420229E+01  0.12054495913E+02  0.12741090957E+02  0.00000000000E+00 0. -1.
</event>
<event>
 7    1  0.2472338E-008  0.4614232E+02  0.7816164E-02  0.1320468E+00
        -11   -1    0    0    0    0  0.00000000000E+00  0.00000000000E+00  0.45593999997E+02  0.45594000000E+02  0.51100000000E-03 0.  1.
         11   -1    0    0    0    0 -0.00000000000E+00 -0.00000000000E+00 -0.45593999997E+02  0.45594000000E+02  0.51100000000E-03 0. -1.
    9900012    2    1    2    0    0 -0.32402767920E+02 -0.26532957428E+02  0.16588438089E+02  0.46142317887E+02  0.10000001151E+02 0.  0.
         12    1    1    2    0    0  0.32402767920E+02  0.26532957428E+02 -0.16588438089E+02  0.45045682113E+02  0.00000000000E+00 0. -1.
         11    1    3    3    0    0 -0.29968240061E+01 -0.24012599591E+01 -0.17225417193E+00  0.38440441303E+01  0.51100000000E-03 0. -1.
        -11    1    3    3    0    0 -0.23502662780E+02 -0.15488700791E+02  0.14183705649E+02  0.31519081778E+02  0.51100000000E-03 0.  1.
        -12    1    3    3    0    0 -0.59032811342E+01 -0.86429966775E+01  0.25769866115E+01  0.10779191979E+02  0.00000000000E+00 0.  1.
</event>
<event>
 7    1  0.2472338E-008  0.4614232E+02  0.7816164E-02  0.1320468E+00
        -11   -1    0    0    0    0  0.00000000000E+00  0.00000000000E+00  0.45593999997E+02  0.45594000000E+02  0.51100000000E-03 0. -1.
         11   -1    0    0    0    0 -0.00000000000E+00 -0.00000000000E+00 -0.45593999997E+02  0.45594000000E+02  0.51100000000E-03 0.  1.
    9900012    2    1    2    0    0 -0.29348057669E+02  0.89124846923E+00 -0.34161537045E+02  0.46142318453E+02  0.10000006308E+02 0.  0.
         12    1    1    2    0    0  0.29348057669E+02 -0.89124846923E+00  0.34161537045E+02  0.45045681547E+02  0.00000000000E+00 0. -1.
         11    1    3    3    0    0 -0.28279379372E+01  0.28960164101E+00 -0.89126542787E+01  0.93550258492E+01  0.51100000000E-03 0. -1.
        -11    1    3    3    0    0 -0.19337384058E+02 -0.85168098491E+00 -0.17097395740E+02  0.25825969953E+02  0.51100000000E-03 0.  1.
         12    1    3    3    0    0 -0.71827356743E+01  0.14533278131E+01 -0.81514870264E+01  0.10961322650E+02  0.00000000000E+00 0. -1.
</event>
<event>
 7    1  0.2472338E-008  0.4614232E+02  0.7816164E-02  0.1320468E+00
        -11   -1    0    0    0    0  0.00000000000E+00  0.00000000000E+00  0.45593999997E+02  0.45594000000E+02  0.51100000000E-03 0. -1.
         11   -1    0    0    0    0 -0.00000000000E+00 -0.00000000000E+00 -0.45593999997E+02  0.45594000000E+02  0.51100000000E-03 0.  1.
    9900012    2    1    2    0    0 -0.20407941038E+02  0.27238780783E+02 -0.29507255888E+02  0.46142318898E+02  0.10000010367E+02 0.  0.
         12    1    1    2    0    0  0.20407941038E+02 -0.27238780783E+02  0.29507255888E+02  0.45045681102E+02  0.00000000000E+00 0. -1.
         11    1    3    3    0    0 -0.66133916477E+01  0.38277105133E+01 -0.77406687221E+01  0.10876868547E+02  0.51100000000E-03 0. -1.
        -11    1    3    3    0    0 -0.11626459251E+02  0.14619602141E+02 -0.14158905587E+02  0.23438897780E+02  0.51100000000E-03 0.  1.
        -12    1    3    3    0    0 -0.21680901387E+01  0.87914681287E+01 -0.76076815784E+01  0.11826552571E+02  0.00000000000E+00 0.  1.
</event>
<event>
 7    1  0.2472338E-008  0.4614232E+02  0.7816164E-02  0.1320468E+00
        -11   -1    0    0    0    0  0.00000000000E+00  0.00000000000E+00  0.45593999997E+02  0.45594000000E+02  0.51100000000E-03 0. -1.
         11   -1    0    0    0    0 -0.00000000000E+00 -0.00000000000E+00 -0.45593999997E+02  0.45594000000E+02  0.51100000000E-03 0.  1.
    9900012    2    1    2    0    0 -0.10862547197E+02 -0.40108823887E+02 -0.17389677148E+02  0.46142317004E+02  0.99999930984E+01 0.  0.
         12    1    1    2    0    0  0.10862547197E+02  0.40108823887E+02  0.17389677148E+02  0.45045682996E+02  0.00000000000E+00 0. -1.
         11    1    3    3    0    0 -0.26572401162E+01 -0.11762702413E+02 -0.89362595349E+01  0.15009291383E+02  0.51100000000E-03 0. -1.
        -11    1    3    3    0    0 -0.16158827610E+01 -0.11659205680E+01 -0.44878705206E+00  0.20425126554E+01  0.51100000000E-03 0.  1.
        -12    1    3    3    0    0 -0.65894243201E+01 -0.27180200906E+02 -0.80046305609E+01  0.29090512965E+02  0.00000000000E+00 0.  1.
</event>
<event>
 7    1  0.2472338E-008  0.4614232E+02  0.7816164E-02  0.1320468E+00
        -11   -1    0    0    0    0  0.00000000000E+00  0.00000000000E+00  0.45593999997E+02  0.45594000000E+02  0.51100000000E-03 0.  1.
         11   -1    0    0    0    0 -0.00000000000E+00 -0.00000000000E+00 -0.45593999997E+02  0.45594000000E+02  0.51100000000E-03 0. -1.
    9900012    2    1    2    0    0  0.28726281916E+02 -0.24770053039E+02  0.24297301802E+02  0.46142315688E+02  0.99999810948E+01 0.  0.
         12    1    1    2    0    0 -0.28726281916E+02  0.24770053039E+02 -0.24297301802E+02  0.45045684312E+02  0.00000000000E+00 0. -1.
         11    1    3    3    0    0  0.40894156422E+00 -0.13604024697E+01  0.42048579011E+00  0.14814643577E+01  0.51100000000E-03 0. -1.
        -11    1    3    3    0    0  0.12232249665E+02 -0.15678005725E+02  0.13102308895E+02  0.23813825691E+02  0.51100000000E-03 0.  1.
         12    1    3    3    0    0  0.16085090686E+02 -0.77316448440E+01  0.10774507117E+02  0.20847025639E+02  0.00000000000E+00 0. -1.
</event>
<event>
 7    1  0.2472338E-008  0.4614232E+02  0.7816164E-02  0.1320468E+00
        -11   -1    0    0    0    0  0.00000000000E+00  0.00000000000E+00  0.45593999997E+02  0.45594000000E+02  0.51100000000E-03 0. -1.
         11   -1    0    0    0    0 -0.00000000000E+00 -0.00000000000E+00 -0.45593999997E+02  0.45594000000E+02  0.51100000000E-03 0.  1.
    9900012    2    1    2    0    0  0.36759411593E+02 -0.14949067949E+00 -0.26035299566E+02  0.46142317503E+02  0.99999976459E+01 0.  0.
         12    1    1    2    0    0 -0.36759411593E+02  0.14949067949E+00  0.26035299566E+02  0.45045682497E+02  0.00000000000E+00 0. -1.
         11    1    3    3    0    0  0.14347552646E+02  0.15861318058E+01 -0.15396041317E+02  0.21104648055E+02  0.51100000000E-03 0. -1.
        -11    1    3    3    0    0  0.21729582355E+02 -0.12834555556E+01 -0.10617521751E+02  0.24218872309E+02  0.51100000000E-03 0.  1.
        -12    1    3    3    0    0  0.68227659153E+00 -0.45216692972E+00 -0.21736498098E-01  0.81879713912E+00  0.00000000000E+00 0.  1.
</event>
<event>
 7    1  0.2472338E-008  0.4614232E+02  0.7816164E-02  0.1320468E+00
        -11   -1    0    0    0    0  0.00000000000E+00  0.00000000000E+00  0.45593999997E+02  0.45594000000E+02  0.51100000000E-03 0.  1.
         11   -1    0    0    0    0 -0.00000000000E+00 -0.00000000000E+00 -0.45593999997E+02  0.45594000000E+02  0.51100000000E-03 0. -1.
    9900012    2    1    2    0    0 -0.27926914863E+02 -0.34872028338E+02  0.57569604833E+01  0.46142317319E+02  0.99999959707E+01 0.  0.
         12    1    1    2    0    0  0.27926914863E+02  0.34872028338E+02 -0.57569604833E+01  0.45045682681E+02  0.00000000000E+00 0. -1.
         11    1    3    3    0    0 -0.30201800972E+01 -0.15080754465E+01  0.14933143560E+01  0.36913097132E+01  0.51100000000E-03 0. -1.
        -11    1    3    3    0    0 -0.94213817400E+01 -0.81170877074E+01 -0.53450003312E+00  0.12447298393E+02  0.51100000000E-03 0.  1.
        -12    1    3    3    0    0 -0.15485353026E+02 -0.25246865184E+02  0.47981461604E+01  0.30003709213E+02  0.00000000000E+00 0.  1.
</event>
<event>
 7    1  0.2472338E-008  0.4614232E+02  0.7816164E-02  0.1320468E+00
        -11   -1    0    0    0    0  0.00000000000E+00  0.00000000000E+00  0.45593999997E+02  0.45594000000E+02  0.51100000000E-03 0.  1.
         11   -1    0    0    0    0 -0.00000000000E+00 -0.00000000000E+00 -0.45593999997E+02  0.45594000000E+02  0.51100000000E-03 0. -1.
    9900012    2    1    2    0    0  0.21847431445E+02  0.67213269302E+01  0.38815293766E+02  0.46142317337E+02  0.99999961366E+01 0.  0.
         12    1    1    2    0    0 -0.21847431445E+02 -0.67213269302E+01 -0.38815293766E+02  0.45045682663E+02  0.00000000000E+00 0. -1.
         11    1    3    3    0    0  0.12160517101E+02  0.38275072064E+01  0.27581660119E+02  0.30385456435E+02  0.51100000000E-03 0.  1.
        -11    1    3    3    0    0  0.63550999898E+01  0.30863109433E+01  0.49002604304E+01  0.85979743932E+01  0.51100000000E-03 0. -1.
         12    1    3    3    0    0  0.33318143537E+01 -0.19249121950E+00  0.63333732162E+01  0.71588865093E+01  0.00000000000E+00 0. -1.
</event>
<event>
 7    1  0.2472338E-008  0.4614232E+02  0.7816164E-02  0.1320468E+00
        -11   -1    0    0    0    0  0.00000000000E+00  0.00000000000E+00  0.45593999997E+02  0.45594000000E+02  0.51100000000E-03 0. -1.
         11   -1    0    0    0    0 -0.00000000000E+00 -0.00000000000E+00 -0.45593999997E+02  0.45594000000E+02  0.51100000000E-03 0.  1.
    9900012    2    1    2    0    0  0.65806293401E+01  0.33684355511E+02 -0.29174871663E+02  0.46142316242E+02  0.99999861449E+01 0.  0.
         12    1    1    2    0    0 -0.65806293401E+01 -0.33684355511E+02  0.29174871663E+02  0.45045683758E+02  0.00000000000E+00 0. -1.
         11    1    3    3    0    0  0.33046137282E+00  0.95559162387E+01 -0.84418042257E+01  0.12754951930E+02  0.51100000000E-03 0. -1.
        -11    1    3    3    0    0 -0.89571961445E-01  0.92244272435E+01 -0.11504798445E+02  0.14746473091E+02  0.51100000000E-03 0.  1.
         12    1    3    3    0    0  0.63397399288E+01  0.14904012029E+02 -0.92282689922E+01  0.18640891221E+02  0.00000000000E+00 0. -1.
</event>
<event>
 7    1  0.2472338E-008  0.4614232E+02  0.7816164E-02  0.1320468E+00
        -11   -1    0    0    0    0  0.00000000000E+00  0.00000000000E+00  0.45593999997E+02  0.45594000000E+02  0.51100000000E-03 0. -1.
         11   -1    0    0    0    0 -0.00000000000E+00 -0.00000000000E+00 -0.45593999997E+02  0.45594000000E+02  0.51100000000E-03 0.  1.
    9900012    2    1    2    0    0  0.20165639402E+01 -0.26494373923E+02 -0.36374374742E+02  0.46142317437E+02  0.99999970458E+01 0.  0.
         12    1    1    2    0    0 -0.20165639402E+01  0.26494373923E+02  0.36374374742E+02  0.45045682563E+02  0.00000000000E+00 0. -1.
         11    1    3    3    0    0 -0.65079554528E+00 -0.65339933641E-01 -0.12047052657E+01  0.13708096830E+01  0.51100000000E-03 0. -1.
        -11    1    3    3    0    0 -0.69833083243E+00 -0.65322830884E+01 -0.14323532368E+02  0.15758234929E+02  0.51100000000E-03 0.  1.
         12    1    3    3    0    0  0.33656903179E+01 -0.19896750901E+02 -0.20846137108E+02  0.29013272825E+02  0.00000000000E+00 0. -1.
</event>
<event>
 7    1  0.2472338E-008  0.4614232E+02  0.7816164E-02  0.1320468E+00
        -11   -1    0    0    0    0  0.00000000000E+00  0.00000000000E+00  0.45593999997E+02  0.45594000000E+02  0.51100000000E-03 0. -1.
         11   -1    0    0    0    0 -0.00000000000E+00 -0.00000000000E+00 -0.45593999997E+02  0.45594000000E+02  0.51100000000E-03 0.  1.
    9900012    2    1    2    0    0  0.25131843045E+02 -0.25899414384E+02 -0.26957824119E+02  0.46142317838E+02  0.10000000698E+02 0.  0.
         12    1    1    2    0    0 -0.25131843045E+02  0.25899414384E+02  0.26957824119E+02  0.45045682162E+02  0.00000000000E+00 0. -1.
         11    1    3    3    0    0  0.10321778120E+02 -0.10364331267E+02 -0.14304570658E+02  0.20459208395E+02  0.51100000000E-03 0. -1.
        -11    1    3    3    0    0  0.66430941238E+01 -0.11163616783E+02 -0.85489509265E+01  0.15551257230E+02  0.51100000000E-03 0.  1.
         12    1    3    3    0    0  0.81669708015E+01 -0.43714663328E+01 -0.41043025338E+01  0.10131852213E+02  0.00000000000E+00 0. -1.
</event>
<event>
 7    1  0.2472338E-008  0.4614232E+02  0.7816164E-02  0.1320468E+00
        -11   -1    0    0    0    0  0.00000000000E+00  0.00000000000E+00  0.45593999997E+02  0.45594000000E+02  0.51100000000E-03 0.  1.
         11   -1    0    0    0    0 -0.00000000000E+00 -0.00000000000E+00 -0.45593999997E+02  0.45594000000E+02  0.51100000000E-03 0. -1.
    9900012    2    1    2    0    0  0.30311888423E+02 -0.27964311828E+02  0.18119057238E+02  0.46142317066E+02  0.99999936631E+01 0.  0.
         12    1    1    2    0    0 -0.30311888423E+02  0.27964311828E+02 -0.18119057238E+02  0.45045682934E+02  0.00000000000E+00 0. -1.
         11    1    3    3    0    0  0.74793607635E+01 -0.54287834163E+01  0.56766205970E+01  0.10846038377E+02  0.51100000000E-03 0. -1.
        -11    1    3    3    0    0  0.13335194896E+02 -0.13290909426E+02  0.11381029431E+02  0.22000080169E+02  0.51100000000E-03 0.  1.
        -12    1    3    3    0    0  0.94973327643E+01 -0.92446189857E+01  0.10614072097E+01  0.13296198520E+02  0.00000000000E+00 0.  1.
</event>
<event>
 7    1  0.2472338E-008  0.4614232E+02  0.7816164E-02  0.1320468E+00
        -11   -1    0    0    0    0  0.00000000000E+00  0.00000000000E+00  0.45593999997E+02  0.45594000000E+02  0.51100000000E-03 0.  1.
         11   -1    0    0    0    0 -0.00000000000E+00 -0.00000000000E+00 -0.45593999997E+02  0.45594000000E+02  0.51100000000E-03 0. -1.
    9900012    2    1    2    0    0  0.12849648213E+02 -0.18572893837E+02  0.38974960524E+02  0.46142318825E+02  0.10000009704E+02 0.  0.
         12    1    1    2    0    0 -0.12849648213E+02  0.18572893837E+02 -0.38974960524E+02  0.45045681175E+02  0.00000000000E+00 0. -1.
         11    1    3    3    0    0  0.37455145041E+00  0.44998188307E-01  0.18227963529E+01  0.18614243018E+01  0.51100000000E-03 0. -1.
        -11    1    3    3    0    0  0.46653182633E+01 -0.11303185766E+02  0.26485774834E+02  0.29172306590E+02  0.51100000000E-03 0.  1.
        -12    1    3    3    0    0  0.78097784989E+01 -0.73147062590E+01  0.10666389337E+02  0.15108587934E+02  0.00000000000E+00 0.  1.
</event>
<event>
 7    1  0.2472338E-008  0.4614232E+02  0.7816164E-02  0.1320468E+00
        -11   -1    0    0    0    0  0.00000000000E+00  0.00000000000E+00  0.45593999997E+02  0.45594000000E+02  0.51100000000E-03 0.  1.
         11   -1    0    0    0    0 -0.00000000000E+00 -0.00000000000E+00 -0.45593999997E+02  0.45594000000E+02  0.51100000000E-03 0. -1.
    9900012    2    1    2    0    0  0.58522613023E+01  0.17728753775E+02  0.40994582530E+02  0.46142317970E+02  0.10000001902E+02 0.  0.
         12    1    1    2    0    0 -0.58522613023E+01 -0.17728753775E+02 -0.40994582530E+02  0.45045682030E+02  0.00000000000E+00 0. -1.
         11    1    3    3    0    0  0.34964933058E+01  0.30375925078E+01  0.13790176769E+02  0.14547213109E+02  0.51100000000E-03 0. -1.
        -11    1    3    3    0    0 -0.18618851064E+01  0.58699988741E+01  0.85952905022E+01  0.10573671170E+02  0.51100000000E-03 0.  1.
        -12    1    3    3    0    0  0.42176531029E+01  0.88211623934E+01  0.18609115259E+02  0.21021433690E+02  0.00000000000E+00 0.  1.
</event>
<event>
 7    1  0.2472338E-008  0.4614232E+02  0.7816164E-02  0.1320468E+00
        -11   -1    0    0    0    0  0.00000000000E+00  0.00000000000E+00  0.45593999997E+02  0.45594000000E+02  0.51100000000E-03 0. -1.
         11   -1    0    0    0    0 -0.00000000000E+00 -0.00000000000E+00 -0.45593999997E+02  0.45594000000E+02  0.51100000000E-03 0.  1.
    9900012    2    1    2    0    0 -0.40695153064E+02  0.33467917050E+01 -0.19021488874E+02  0.46142317226E+02  0.99999951186E+01 0.  0.
         12    1    1    2    0    0  0.40695153064E+02 -0.33467917050E+01  0.19021488874E+02  0.45045682774E+02  0.00000000000E+00 0. -1.
         11    1    3    3    0    0 -0.21812773920E+01  0.20370228875E+01 -0.67365443487E-02  0.29845399892E+01  0.51100000000E-03 0. -1.
        -11    1    3    3    0    0 -0.16010568661E+02  0.24783783540E+01 -0.83939156923E+01  0.18246602122E+02  0.51100000000E-03 0.  1.
        -12    1    3    3    0    0 -0.22503307011E+02 -0.11686095365E+01 -0.10620836638E+02  0.24911175114E+02  0.00000000000E+00 0.  1.
</event>
<event>
 7    1  0.2472338E-008  0.4614232E+02  0.7816164E-02  0.1320468E+00
        -11   -1    0    0    0    0  0.00000000000E+00  0.00000000000E+00  0.45593999997E+02  0.45594000000E+02  0.51100000000E-03 0.  1.
         11   -1    0    0    0    0 -0.00000000000E+00 -0.00000000000E+00 -0.45593999997E+02  0.45594000000E+02  0.51100000000E-03 0. -1.
    9900012    2    1    2    0    0 -0.24005655969E+01  0.44973552338E+02 -0.85460561120E+00  0.46142317900E+02  0.10000001266E+02 0.  0.
         12    1    1    2    0    0  0.24005655969E+01 -0.44973552338E+02  0.85460561120E+00  0.45045682100E+02  0.00000000000E+00 0. -1.
         11    1    3    3    0    0 -0.24270950834E+01  0.42706898019E+01 -0.44647958392E+00  0.49324361332E+01  0.51100000000E-03 0. -1.
        -11    1    3    3    0    0 -0.10781078453E+01  0.10452095091E+02  0.24960845340E+01  0.10799955860E+02  0.51100000000E-03 0.  1.
         12    1    3    3    0    0  0.11046373317E+01  0.30250767446E+02 -0.29042105613E+01  0.30409925907E+02  0.00000000000E+00 0. -1.
</event>
<event>
 7    1  0.2472338E-008  0.4614232E+02  0.7816164E-02  0.1320468E+00
        -11   -1    0    0    0    0  0.00000000000E+00  0.00000000000E+00  0.45593999997E+02  0.45594000000E+02  0.51100000000E-03 0.  1.
         11   -1    0    0    0    0 -0.00000000000E+00 -0.00000000000E+00 -0.45593999997E+02  0.45594000000E+02  0.51100000000E-03 0. -1.
    9900012    2    1    2    0    0 -0.13763409240E+02 -0.38317581581E+02  0.19272907876E+02  0.46142317964E+02  0.10000001849E+02 0.  0.
         12    1    1    2    0    0  0.13763409240E+02  0.38317581581E+02 -0.19272907876E+02  0.45045682036E+02  0.00000000000E+00 0. -1.
         11    1    3    3    0    0 -0.22252180528E+01 -0.90481520140E+01  0.27374967550E+01  0.97115672780E+01  0.51100000000E-03 0. -1.
        -11    1    3    3    0    0 -0.73843660384E+01 -0.23102596348E+02  0.15828159105E+02  0.28961861831E+02  0.51100000000E-03 0.  1.
        -12    1    3    3    0    0 -0.41538251488E+01 -0.61668332190E+01  0.70725201628E+00  0.74688888553E+01  0.00000000000E+00 0.  1.
</event>
<event>
 7    1  0.2472338E-008  0.4614232E+02  0.7816164E-02  0.1320468E+00
        -11   -1    0    0    0    0  0.00000000000E+00  0.00000000000E+00  0.45593999997E+02  0.45594000000E+02  0.51100000000E-03 0.  1.
         11   -1    0    0    0    0 -0.00000000000E+00 -0.00000000000E+00 -0.45593999997E+02  0.45594000000E+02  0.51100000000E-03 0. -1.
    9900012    2    1    2    0    0 -0.31812051938E+02 -0.80597819212E+01  0.30856876141E+02  0.46142317206E+02  0.99999949416E+01 0.  0.
         12    1    1    2    0    0  0.31812051938E+02  0.80597819212E+01 -0.30856876141E+02  0.45045682794E+02  0.00000000000E+00 0. -1.
         11    1    3    3    0    0 -0.42044787217E+00 -0.10531413355E+01 -0.12058480744E+00  0.11403613650E+01  0.51100000000E-03 0. -1.
        -11    1    3    3    0    0 -0.70419299220E+01  0.75641587376E+00  0.64538328595E+01  0.95819048649E+01  0.51100000000E-03 0.  1.
         12    1    3    3    0    0 -0.24349674144E+02 -0.77630564594E+01  0.24523628089E+02  0.35420050976E+02  0.00000000000E+00 0. -1.
</event>
<event>
 7    1  0.2472338E-008  0.4614230E+02  0.7816164E-02  0.1320468E+00
        -11   -1    0    0    0    0  0.00000000000E+00  0.00000000000E+00  0.45593999997E+02  0.45594000000E+02  0.51100000000E-03 0.  1.
         11   -1    0    0    0    0 -0.00000000000E+00 -0.00000000000E+00 -0.45593999997E+02  0.45594000000E+02  0.51100000000E-03 0. -1.
    9900012    2    1    2    0    0 -0.18246017041E+02  0.34171371054E+02  0.22989454250E+02  0.46142303821E+02  0.99998728806E+01 0.  0.
         12    1    1    2    0    0  0.18246017041E+02 -0.34171371054E+02 -0.22989454250E+02  0.45045696179E+02  0.00000000000E+00 0. -1.
         11    1    3    3    0    0 -0.13130259672E+01  0.36379716587E+01  0.38751419529E+01  0.54749977531E+01  0.51100000000E-03 0. -1.
        -11    1    3    3    0    0 -0.13134486855E+02  0.25034450281E+02  0.18849820675E+02  0.33978731371E+02  0.51100000000E-03 0.  1.
         12    1    3    3    0    0 -0.37985042186E+01  0.54989491144E+01  0.26449162178E+00  0.66885746972E+01  0.00000000000E+00 0. -1.
</event>
<event>
 7    1  0.2472338E-008  0.4614232E+02  0.7816164E-02  0.1320468E+00
        -11   -1    0    0    0    0  0.00000000000E+00  0.00000000000E+00  0.45593999997E+02  0.45594000000E+02  0.51100000000E-03 0. -1.
         11   -1    0    0    0    0 -0.00000000000E+00 -0.00000000000E+00 -0.45593999997E+02  0.45594000000E+02  0.51100000000E-03 0.  1.
    9900012    2    1    2    0    0  0.18696412806E+00 -0.44585686923E+02 -0.64183362335E+01  0.46142317921E+02  0.10000001458E+02 0.  0.
         12    1    1    2    0    0 -0.18696412806E+00  0.44585686923E+02  0.64183362335E+01  0.45045682079E+02  0.00000000000E+00 0. -1.
         11    1    3    3    0    0  0.11516086937E+01 -0.46849345502E+01  0.16542353392E+01  0.51001283457E+01  0.51100000000E-03 0. -1.
        -11    1    3    3    0    0 -0.80919526642E+00 -0.31232995232E+01  0.53522832476E+00  0.32705147166E+01  0.51100000000E-03 0.  1.
        -12    1    3    3    0    0 -0.15544929922E+00 -0.36777452849E+02 -0.86077998975E+01  0.37771674859E+02  0.00000000000E+00 0.  1.
</event>
<event>
 7    1  0.2472338E-008  0.4614232E+02  0.7816164E-02  0.1320468E+00
        -11   -1    0    0    0    0  0.00000000000E+00  0.00000000000E+00  0.45593999997E+02  0.45594000000E+02  0.51100000000E-03 0.  1.
         11   -1    0    0    0    0 -0.00000000000E+00 -0.00000000000E+00 -0.45593999997E+02  0.45594000000E+02  0.51100000000E-03 0. -1.
    9900012    2    1    2    0    0  0.88380003454E+01 -0.76389343632E+01  0.43504596033E+02  0.46142318250E+02  0.10000004458E+02 0.  0.
         12    1    1    2    0    0 -0.88380003454E+01  0.76389343632E+01 -0.43504596033E+02  0.45045681750E+02  0.00000000000E+00 0. -1.
         11    1    3    3    0    0  0.24106435412E+01 -0.16703574535E+01  0.53526624902E+01  0.61034655976E+01  0.51100000000E-03 0. -1.
        -11    1    3    3    0    0  0.76104574706E+01 -0.70195242143E+01  0.35180087717E+02  0.36671942342E+02  0.51100000000E-03 0.  1.
         12    1    3    3    0    0 -0.11831006665E+01  0.10509473046E+01  0.29718458263E+01  0.33669103105E+01  0.00000000000E+00 0. -1.
</event>
<event>
 7    1  0.2472338E-008  0.4614232E+02  0.7816164E-02  0.1320468E+00
        -11   -1    0    0    0    0  0.00000000000E+00  0.00000000000E+00  0.45593999997E+02  0.45594000000E+02  0.51100000000E-03 0.  1.
         11   -1    0    0    0    0 -0.00000000000E+00 -0.00000000000E+00 -0.45593999997E+02  0.45594000000E+02  0.51100000000E-03 0. -1.
    9900012    2    1    2    0    0  0.35912084557E+02 -0.12607880289E+02  0.24093091028E+02  0.46142317655E+02  0.99999990301E+01 0.  0.
         12    1    1    2    0    0 -0.35912084557E+02  0.12607880289E+02 -0.24093091028E+02  0.45045682345E+02  0.00000000000E+00 0. -1.
         11    1    3    3    0    0  0.20261928433E+02 -0.97078845767E+01  0.92424037189E+01  0.24294254332E+02  0.51100000000E-03 0. -1.
        -11    1    3    3    0    0  0.68545678015E+00 -0.82001008067E-02  0.21782237650E+00  0.71928095202E+00  0.51100000000E-03 0.  1.
        -12    1    3    3    0    0  0.14964699344E+02 -0.28917956116E+01  0.14632864933E+02  0.21128782371E+02  0.00000000000E+00 0.  1.
</event>
<event>
 7    1  0.2472338E-008  0.4614232E+02  0.7816164E-02  0.1320468E+00
        -11   -1    0    0    0    0  0.00000000000E+00  0.00000000000E+00  0.45593999997E+02  0.45594000000E+02  0.51100000000E-03 0. -1.
         11   -1    0    0    0    0 -0.00000000000E+00 -0.00000000000E+00 -0.45593999997E+02  0.45594000000E+02  0.51100000000E-03 0.  1.
    9900012    2    1    2    0    0 -0.43419501292E+00  0.35151230081E+02 -0.28165868016E+02  0.46142316272E+02  0.99999864170E+01 0.  0.
         12    1    1    2    0    0  0.43419501292E+00 -0.35151230081E+02  0.28165868016E+02  0.45045683728E+02  0.00000000000E+00 0. -1.
         11    1    3    3    0    0 -0.16800749361E+01  0.11007681067E+02 -0.77936367205E+01  0.13591632274E+02  0.51100000000E-03 0. -1.
        -11    1    3    3    0    0  0.39623126380E+01  0.20207813901E+02 -0.16927935855E+02  0.26657281870E+02  0.51100000000E-03 0.  1.
         12    1    3    3    0    0 -0.27164327148E+01  0.39357351127E+01 -0.34442954399E+01  0.58934021285E+01  0.00000000000E+00 0. -1.
</event>
<event>
 7    1  0.2472338E-008  0.4614232E+02  0.7816164E-02  0.1320468E+00
        -11   -1    0    0    0    0  0.00000000000E+00  0.00000000000E+00  0.45593999997E+02  0.45594000000E+02  0.51100000000E-03 0.  1.
         11   -1    0    0    0    0 -0.00000000000E+00 -0.00000000000E+00 -0.45593999997E+02  0.45594000000E+02  0.51100000000E-03 0. -1.
    9900012    2    1    2    0    0  0.13250839090E+02 -0.34990255795E+02  0.25084074122E+02  0.46142317502E+02  0.99999976369E+01 0.  0.
         12    1    1    2    0    0 -0.13250839090E+02  0.34990255795E+02 -0.25084074122E+02  0.45045682498E+02  0.00000000000E+00 0. -1.
         11    1    3    3    0    0  0.59604427863E+00 -0.24263874743E+01 -0.47361483933E+00  0.25430171519E+01  0.51100000000E-03 0. -1.
        -11    1    3    3    0    0  0.68095608909E+01 -0.13936610008E+02  0.14103068707E+02  0.20964154294E+02  0.51100000000E-03 0.  1.
        -12    1    3    3    0    0  0.58452339200E+01 -0.18627258312E+02  0.11454620254E+02  0.22635146056E+02  0.00000000000E+00 0.  1.
</event>
<event>
 7    1  0.2472338E-008  0.4614232E+02  0.7816164E-02  0.1320468E+00
        -11   -1    0    0    0    0  0.00000000000E+00  0.00000000000E+00  0.45593999997E+02  0.45594000000E+02  0.51100000000E-03 0.  1.
         11   -1    0    0    0    0 -0.00000000000E+00 -0.00000000000E+00 -0.45593999997E+02  0.45594000000E+02  0.51100000000E-03 0. -1.
    9900012    2    1    2    0    0 -0.27085563422E+02 -0.24214981514E+02  0.26629314865E+02  0.46142317790E+02  0.10000000260E+02 0.  0.
         12    1    1    2    0    0  0.27085563422E+02  0.24214981514E+02 -0.26629314865E+02  0.45045682210E+02  0.00000000000E+00 0. -1.
         11    1    3    3    0    0 -0.30412558176E+00 -0.29272240219E+01  0.19002116321E+01  0.35031325056E+01  0.51100000000E-03 0. -1.
        -11    1    3    3    0    0 -0.47925286704E+01 -0.53475356720E+01  0.27080815488E+01  0.76745146267E+01  0.51100000000E-03 0.  1.
        -12    1    3    3    0    0 -0.21988909170E+02 -0.15940221820E+02  0.22021021684E+02  0.34964670657E+02  0.00000000000E+00 0.  1.
</event>
<event>
 7    1  0.2472338E-008  0.4614232E+02  0.7816164E-02  0.1320468E+00
        -11   -1    0    0    0    0  0.00000000000E+00  0.00000000000E+00  0.45593999997E+02  0.45594000000E+02  0.51100000000E-03 0.  1.
         11   -1    0    0    0    0 -0.00000000000E+00 -0.00000000000E+00 -0.45593999997E+02  0.45594000000E+02  0.51100000000E-03 0. -1.
    9900012    2    1    2    0    0  0.53285573671E+01  0.32716105038E+02  0.30502071905E+02  0.46142318265E+02  0.10000004599E+02 0.  0.
         12    1    1    2    0    0 -0.53285573671E+01 -0.32716105038E+02 -0.30502071905E+02  0.45045681735E+02  0.00000000000E+00 0. -1.
         11    1    3    3    0    0 -0.60701566339E+00  0.12388397199E+01  0.73148409330E-01  0.13815002056E+01  0.51100000000E-03 0. -1.
        -11    1    3    3    0    0  0.83573685174E+00  0.85947842607E+01  0.42684615926E+01  0.96326806862E+01  0.51100000000E-03 0.  1.
        -12    1    3    3    0    0  0.50998361787E+01  0.22882481057E+02  0.26160461903E+02  0.35128137374E+02  0.00000000000E+00 0.  1.
</event>
<event>
 7    1  0.2472338E-008  0.4614233E+02  0.7816164E-02  0.1320468E+00
        -11   -1    0    0    0    0  0.00000000000E+00  0.00000000000E+00  0.45593999997E+02  0.45594000000E+02  0.51100000000E-03 0.  1.
         11   -1    0    0    0    0 -0.00000000000E+00 -0.00000000000E+00 -0.45593999997E+02  0.45594000000E+02  0.51100000000E-03 0. -1.
    9900012    2    1    2    0    0  0.40414509921E+02 -0.92069666506E+01  0.17635529898E+02  0.46142325826E+02  0.10000073538E+02 0.  0.
         12    1    1    2    0    0 -0.40414509921E+02  0.92069666506E+01 -0.17635529898E+02  0.45045674174E+02  0.00000000000E+00 0. -1.
         11    1    3    3    0    0  0.11164497178E+02 -0.46763465120E+01  0.33864327854E+01  0.12569094685E+02  0.51100000000E-03 0. -1.
        -11    1    3    3    0    0  0.23484021861E+02 -0.58195564344E+01  0.13237551203E+02  0.27578964483E+02  0.51100000000E-03 0.  1.
        -12    1    3    3    0    0  0.57659908821E+01  0.12889362958E+01  0.10115459090E+01  0.59942666568E+01  0.00000000000E+00 0.  1.
</event>
<event>
 7    1  0.2472338E-008  0.4614232E+02  0.7816164E-02  0.1320468E+00
        -11   -1    0    0    0    0  0.00000000000E+00  0.00000000000E+00  0.45593999997E+02  0.45594000000E+02  0.51100000000E-03 0. -1.
         11   -1    0    0    0    0 -0.00000000000E+00 -0.00000000000E+00 -0.45593999997E+02  0.45594000000E+02  0.51100000000E-03 0.  1.
    9900012    2    1    2    0    0 -0.30987767829E+02 -0.22178746165E+02 -0.24020301660E+02  0.46142318428E+02  0.10000006077E+02 0.  0.
         12    1    1    2    0    0  0.30987767829E+02  0.22178746165E+02  0.24020301660E+02  0.45045681572E+02  0.00000000000E+00 0. -1.
         11    1    3    3    0    0 -0.17769702689E+01 -0.41151641917E+00  0.16098151632E+00  0.18310883128E+01  0.51100000000E-03 0. -1.
        -11    1    3    3    0    0 -0.98705444724E+01 -0.70024181565E+01 -0.41477364268E+01  0.12793171067E+02  0.51100000000E-03 0.  1.
        -12    1    3    3    0    0 -0.19340253088E+02 -0.14764811589E+02 -0.20033546750E+02  0.31518059048E+02  0.00000000000E+00 0.  1.
</event>
<event>
 7    1  0.2472338E-008  0.4614232E+02  0.7816164E-02  0.1320468E+00
        -11   -1    0    0    0    0  0.00000000000E+00  0.00000000000E+00  0.45593999997E+02  0.45594000000E+02  0.51100000000E-03 0.  1.
         11   -1    0    0    0    0 -0.00000000000E+00 -0.00000000000E+00 -0.45593999997E+02  0.45594000000E+02  0.51100000000E-03 0. -1.
    9900012    2    1    2    0    0  0.41782211136E+02 -0.16519124930E+02 -0.32371059663E+01  0.46142317511E+02  0.99999977209E+01 0.  0.
         12    1    1    2    0    0 -0.41782211136E+02  0.16519124930E+02  0.32371059663E+01  0.45045682489E+02  0.00000000000E+00 0. -1.
         11    1    3    3    0    0  0.22820400151E+00  0.35434494374E-01  0.89009836770E+00  0.91956948351E+00  0.51100000000E-03 0. -1.
        -11    1    3    3    0    0  0.13927460679E+02 -0.73213684610E+01 -0.33306463624E+01  0.16083214932E+02  0.51100000000E-03 0.  1.
        -12    1    3    3    0    0  0.27626546456E+02 -0.92331909630E+01 -0.79655797164E+00  0.29139533096E+02  0.00000000000E+00 0.  1.
</event>
<event>
 7    1  0.2472338E-008  0.4614232E+02  0.7816164E-02  0.1320468E+00
        -11   -1    0    0    0    0  0.00000000000E+00  0.00000000000E+00  0.45593999997E+02  0.45594000000E+02  0.51100000000E-03 0.  1.
         11   -1    0    0    0    0 -0.00000000000E+00 -0.00000000000E+00 -0.45593999997E+02  0.45594000000E+02  0.51100000000E-03 0. -1.
    9900012    2    1    2    0    0 -0.49970011113E+01  0.22547260434E+02  0.38675111335E+02  0.46142320851E+02  0.10000028178E+02 0.  0.
         12    1    1    2    0    0  0.49970011113E+01 -0.22547260434E+02 -0.38675111335E+02  0.45045679149E+02  0.00000000000E+00 0. -1.
         11    1    3    3    0    0 -0.19528095366E+01  0.17763984979E+01  0.61995635407E+01  0.67382226934E+01  0.51100000000E-03 0.  1.
        -11    1    3    3    0    0 -0.40338342592E+01  0.46910588353E+01  0.97567000697E+01  0.11552967079E+02  0.51100000000E-03 0. -1.
         12    1    3    3    0    0  0.98964268458E+00  0.16079803101E+02  0.22718847725E+02  0.27851131078E+02  0.00000000000E+00 0. -1.
</event>
<event>
 7    1  0.2472338E-008  0.4614232E+02  0.7816164E-02  0.1320468E+00
        -11   -1    0    0    0    0  0.00000000000E+00  0.00000000000E+00  0.45593999997E+02  0.45594000000E+02  0.51100000000E-03 0.  1.
         11   -1    0    0    0    0 -0.00000000000E+00 -0.00000000000E+00 -0.45593999997E+02  0.45594000000E+02  0.51100000000E-03 0. -1.
    9900012    2    1    2    0    0 -0.17341627758E+02  0.16729724541E+02  0.38059134450E+02  0.46142318169E+02  0.10000003719E+02 0.  0.
         12    1    1    2    0    0  0.17341627758E+02 -0.16729724541E+02 -0.38059134450E+02  0.45045681831E+02  0.00000000000E+00 0. -1.
         11    1    3    3    0    0 -0.95741942832E+01  0.11180027440E+02  0.27321758981E+02  0.31034444152E+02  0.51100000000E-03 0. -1.
        -11    1    3    3    0    0 -0.29856385530E+01  0.42515273299E+01  0.32450410438E+01  0.61253419369E+01  0.51100000000E-03 0.  1.
         12    1    3    3    0    0 -0.47817949216E+01  0.12981697706E+01  0.74923344252E+01  0.89825320798E+01  0.00000000000E+00 0. -1.
</event>
<event>
 7    1  0.2472338E-008  0.4614232E+02  0.7816164E-02  0.1320468E+00
        -11   -1    0    0    0    0  0.00000000000E+00  0.00000000000E+00  0.45593999997E+02  0.45594000000E+02  0.51100000000E-03 0.  1.
         11   -1    0    0    0    0 -0.00000000000E+00 -0.00000000000E+00 -0.45593999997E+02  0.45594000000E+02  0.51100000000E-03 0. -1.
    9900012    2    1    2    0    0 -0.34531595057E+02  0.44201360835E+01  0.28585744572E+02  0.46142318155E+02  0.10000003590E+02 0.  0.
         12    1    1    2    0    0  0.34531595057E+02 -0.44201360835E+01 -0.28585744572E+02  0.45045681845E+02  0.00000000000E+00 0. -1.
         11    1    3    3    0    0 -0.45359470126E+01 -0.71371314210E+00  0.16836956873E+01  0.48907088627E+01  0.51100000000E-03 0. -1.
        -11    1    3    3    0    0 -0.14744567080E+02  0.35639270095E+01  0.88289949640E+01  0.17551495277E+02  0.51100000000E-03 0.  1.
         12    1    3    3    0    0 -0.15251080964E+02  0.15699222161E+01  0.18073053920E+02  0.23700114016E+02  0.00000000000E+00 0. -1.
</event>
<event>
 7    1  0.2472338E-008  0.4614232E+02  0.7816164E-02  0.1320468E+00
        -11   -1    0    0    0    0  0.00000000000E+00  0.00000000000E+00  0.45593999997E+02  0.45594000000E+02  0.51100000000E-03 0.  1.
         11   -1    0    0    0    0 -0.00000000000E+00 -0.00000000000E+00 -0.45593999997E+02  0.45594000000E+02  0.51100000000E-03 0. -1.
    9900012    2    1    2    0    0  0.56927879938E+01 -0.33310176557E+02  0.29784848545E+02  0.46142324289E+02  0.10000059526E+02 0.  0.
         12    1    1    2    0    0 -0.56927879938E+01  0.33310176557E+02 -0.29784848545E+02  0.45045675711E+02  0.00000000000E+00 0. -1.
         11    1    3    3    0    0  0.40827479107E+01 -0.10571125440E+02  0.82125747619E+01  0.13995138730E+02  0.51100000000E-03 0. -1.
        -11    1    3    3    0    0 -0.21878317311E+01 -0.48722327943E+01  0.68541916583E+01  0.86893730289E+01  0.51100000000E-03 0.  1.
         12    1    3    3    0    0  0.37978718143E+01 -0.17866818322E+02  0.14718082125E+02  0.23457812531E+02  0.00000000000E+00 0. -1.
</event>
<event>
 7    1  0.2472338E-008  0.4614232E+02  0.7816164E-02  0.1320468E+00
        -11   -1    0    0    0    0  0.00000000000E+00  0.00000000000E+00  0.45593999997E+02  0.45594000000E+02  0.51100000000E-03 0.  1.
         11   -1    0    0    0    0 -0.00000000000E+00 -0.00000000000E+00 -0.45593999997E+02  0.45594000000E+02  0.51100000000E-03 0. -1.
    9900012    2    1    2    0    0 -0.37132127504E+02 -0.25199062850E+02  0.39148156590E+01  0.46142318263E+02  0.10000004578E+02 0.  0.
         12    1    1    2    0    0  0.37132127504E+02  0.25199062850E+02 -0.39148156590E+01  0.45045681737E+02  0.00000000000E+00 0. -1.
         11    1    3    3    0    0 -0.83663652366E+01 -0.61992533631E+01 -0.15198058815E+01  0.10523146854E+02  0.51100000000E-03 0. -1.
        -11    1    3    3    0    0 -0.64575511994E+01 -0.40978464639E+01 -0.17508532389E+01  0.78458779279E+01  0.51100000000E-03 0.  1.
        -12    1    3    3    0    0 -0.22308211068E+02 -0.14901963023E+02  0.71854747793E+01  0.27773293481E+02  0.00000000000E+00 0.  1.
</event>
<event>
 7    1  0.2472338E-008  0.4614232E+02  0.7816164E-02  0.1320468E+00
        -11   -1    0    0    0    0  0.00000000000E+00  0.00000000000E+00  0.45593999997E+02  0.45594000000E+02  0.51100000000E-03 0.  1.
         11   -1    0    0    0    0 -0.00000000000E+00 -0.00000000000E+00 -0.45593999997E+02  0.45594000000E+02  0.51100000000E-03 0. -1.
    9900012    2    1    2    0    0  0.42594985862E+02 -0.32942430899E+01 -0.14280363209E+02  0.46142316173E+02  0.99999855144E+01 0.  0.
         12    1    1    2    0    0 -0.42594985862E+02  0.32942430899E+01  0.14280363209E+02  0.45045683827E+02  0.00000000000E+00 0. -1.
         11    1    3    3    0    0  0.12257206506E+02  0.20473550486E+01 -0.57690144831E+01  0.13700813932E+02  0.51100000000E-03 0. -1.
        -11    1    3    3    0    0  0.46420113720E+01 -0.72656892991E+00 -0.34978175200E+01  0.58575506529E+01  0.51100000000E-03 0.  1.
        -12    1    3    3    0    0  0.25695767984E+02 -0.46150292085E+01 -0.50135312059E+01  0.26583951588E+02  0.00000000000E+00 0.  1.
</event>
<event>
 7    1  0.2472338E-008  0.4614232E+02  0.7816164E-02  0.1320468E+00
        -11   -1    0    0    0    0  0.00000000000E+00  0.00000000000E+00  0.45593999997E+02  0.45594000000E+02  0.51100000000E-03 0. -1.
         11   -1    0    0    0    0 -0.00000000000E+00 -0.00000000000E+00 -0.45593999997E+02  0.45594000000E+02  0.51100000000E-03 0.  1.
    9900012    2    1    2    0    0 -0.65447908748E+01  0.34262217076E+02 -0.28502274326E+02  0.46142318206E+02  0.10000004056E+02 0.  0.
         12    1    1    2    0    0  0.65447908748E+01 -0.34262217076E+02  0.28502274326E+02  0.45045681794E+02  0.00000000000E+00 0. -1.
         11    1    3    3    0    0 -0.50334738969E+00  0.29524986006E+01 -0.47458612707E+01  0.56119342514E+01  0.51100000000E-03 0. -1.
        -11    1    3    3    0    0 -0.59104939712E+01  0.12239542046E+02 -0.11970740557E+02  0.18111845799E+02  0.51100000000E-03 0.  1.
         12    1    3    3    0    0 -0.13094951387E+00  0.19070176429E+02 -0.11785672498E+02  0.22418538156E+02  0.00000000000E+00 0. -1.
</event>
<event>
 7    1  0.2472338E-008  0.4614232E+02  0.7816164E-02  0.1320468E+00
        -11   -1    0    0    0    0  0.00000000000E+00  0.00000000000E+00  0.45593999997E+02  0.45594000000E+02  0.51100000000E-03 0. -1.
         11   -1    0    0    0    0 -0.00000000000E+00 -0.00000000000E+00 -0.45593999997E+02  0.45594000000E+02  0.51100000000E-03 0.  1.
    9900012    2    1    2    0    0  0.11951653416E+02  0.19835585251E+02 -0.38637042208E+02  0.46142317718E+02  0.99999996108E+01 0.  0.
         12    1    1    2    0    0 -0.11951653416E+02 -0.19835585251E+02  0.38637042208E+02  0.45045682282E+02  0.00000000000E+00 0. -1.
         11    1    3    3    0    0  0.68260772779E+00 -0.28286476084E+00 -0.57601125264E-01  0.74113691968E+00  0.51100000000E-03 0. -1.
        -11    1    3    3    0    0  0.10816720801E+01  0.76610377756E+01 -0.10589159470E+02  0.13114564912E+02  0.51100000000E-03 0.  1.
        -12    1    3    3    0    0  0.10187373608E+02  0.12457412236E+02 -0.27990281613E+02  0.32286615887E+02  0.00000000000E+00 0.  1.
</event>
<event>
 7    1  0.2472338E-008  0.4614232E+02  0.7816164E-02  0.1320468E+00
        -11   -1    0    0    0    0  0.00000000000E+00  0.00000000000E+00  0.45593999997E+02  0.45594000000E+02  0.51100000000E-03 0. -1.
         11   -1    0    0    0    0 -0.00000000000E+00 -0.00000000000E+00 -0.45593999997E+02  0.45594000000E+02  0.51100000000E-03 0.  1.
    9900012    2    1    2    0    0 -0.44797973454E+02 -0.43598407928E+01 -0.18018907046E+01  0.46142318215E+02  0.10000004141E+02 0.  0.
         12    1    1    2    0    0  0.44797973454E+02  0.43598407928E+01  0.18018907046E+01  0.45045681785E+02  0.00000000000E+00 0. -1.
         11    1    3    3    0    0 -0.51374345069E+01 -0.19846198633E+01  0.58946047823E+00  0.55389000019E+01  0.51100000000E-03 0. -1.
        -11    1    3    3    0    0 -0.27738857678E+01  0.89155523049E+00  0.16568323576E+01  0.33517766489E+01  0.51100000000E-03 0.  1.
        -12    1    3    3    0    0 -0.36886653180E+02 -0.32667761600E+01 -0.40481835404E+01  0.37251641564E+02  0.00000000000E+00 0.  1.
</event>
<event>
 7    1  0.2472338E-008  0.4614232E+02  0.7816164E-02  0.1320468E+00
        -11   -1    0    0    0    0  0.00000000000E+00  0.00000000000E+00  0.45593999997E+02  0.45594000000E+02  0.51100000000E-03 0.  1.
         11   -1    0    0    0    0 -0.00000000000E+00 -0.00000000000E+00 -0.45593999997E+02  0.45594000000E+02  0.51100000000E-03 0. -1.
    9900012    2    1    2    0    0  0.35070522116E+02 -0.27594348256E+02 -0.61419844665E+01  0.46142317073E+02  0.99999937237E+01 0.  0.
         12    1    1    2    0    0 -0.35070522116E+02  0.27594348256E+02  0.61419844665E+01  0.45045682927E+02  0.00000000000E+00 0. -1.
         11    1    3    3    0    0  0.29954007057E+01 -0.50772732027E+01  0.81207204060E+00  0.59506797782E+01  0.51100000000E-03 0. -1.
        -11    1    3    3    0    0  0.15598434423E+02 -0.14027653985E+02 -0.49011505738E+01  0.21543154597E+02  0.51100000000E-03 0.  1.
         12    1    3    3    0    0  0.16476686987E+02 -0.84894210686E+01 -0.20529059333E+01  0.18648482698E+02  0.00000000000E+00 0. -1.
</event>
<event>
 7    1  0.2472338E-008  0.4614232E+02  0.7816164E-02  0.1320468E+00
        -11   -1    0    0    0    0  0.00000000000E+00  0.00000000000E+00  0.45593999997E+02  0.45594000000E+02  0.51100000000E-03 0. -1.
         11   -1    0    0    0    0 -0.00000000000E+00 -0.00000000000E+00 -0.45593999997E+02  0.45594000000E+02  0.51100000000E-03 0.  1.
    9900012    2    1    2    0    0  0.35556876050E+02 -0.23103685679E+02 -0.15200057540E+02  0.46142317903E+02  0.10000001292E+02 0.  0.
         12    1    1    2    0    0 -0.35556876050E+02  0.23103685679E+02  0.15200057540E+02  0.45045682097E+02  0.00000000000E+00 0. -1.
         11    1    3    3    0    0  0.19643856459E+02 -0.84275485426E+01 -0.63235248630E+01  0.22291066326E+02  0.51100000000E-03 0. -1.
        -11    1    3    3    0    0  0.41692804024E+01 -0.59134753810E+01 -0.46514393728E+01  0.86016265122E+01  0.51100000000E-03 0.  1.
        -12    1    3    3    0    0  0.11743739189E+02 -0.87626617557E+01 -0.42250933043E+01  0.15249625064E+02  0.00000000000E+00 0.  1.
</event>
<event>
 7    1  0.2472338E-008  0.4614232E+02  0.7816164E-02  0.1320468E+00
        -11   -1    0    0    0    0  0.00000000000E+00  0.00000000000E+00  0.45593999997E+02  0.45594000000E+02  0.51100000000E-03 0.  1.
         11   -1    0    0    0    0 -0.00000000000E+00 -0.00000000000E+00 -0.45593999997E+02  0.45594000000E+02  0.51100000000E-03 0. -1.
    9900012    2    1    2    0    0  0.60429021245E+01  0.28042569630E+02  0.34730550088E+02  0.46142317776E+02  0.10000000139E+02 0.  0.
         12    1    1    2    0    0 -0.60429021245E+01 -0.28042569630E+02 -0.34730550088E+02  0.45045682224E+02  0.00000000000E+00 0. -1.
         11    1    3    3    0    0 -0.22513040795E+00  0.26881902463E+01  0.53330146561E+01  0.59764618366E+01  0.51100000000E-03 0. -1.
        -11    1    3    3    0    0  0.42208980464E-01  0.12193194794E+02  0.92335443542E+01  0.15294905116E+02  0.51100000000E-03 0.  1.
         12    1    3    3    0    0  0.62258235520E+01  0.13161184589E+02  0.20163991078E+02  0.24870950824E+02  0.00000000000E+00 0. -1.
</event>
<event>
 7    1  0.2472338E-008  0.4614232E+02  0.7816164E-02  0.1320468E+00
        -11   -1    0    0    0    0  0.00000000000E+00  0.00000000000E+00  0.45593999997E+02  0.45594000000E+02  0.51100000000E-03 0. -1.
         11   -1    0    0    0    0 -0.00000000000E+00 -0.00000000000E+00 -0.45593999997E+02  0.45594000000E+02  0.51100000000E-03 0.  1.
    9900012    2    1    2    0    0 -0.74931485770E+01 -0.40893723055E+02  0.17339829561E+02  0.46142317076E+02  0.99999937516E+01 0.  0.
         12    1    1    2    0    0  0.74931485770E+01  0.40893723055E+02 -0.17339829561E+02  0.45045682924E+02  0.00000000000E+00 0. -1.
         11    1    3    3    0    0 -0.19221220129E+01 -0.25133705646E+02  0.13591219106E+02  0.28637719001E+02  0.51100000000E-03 0.  1.
        -11    1    3    3    0    0 -0.39650530604E+01 -0.14440571769E+02  0.28677013439E+01  0.15247146292E+02  0.51100000000E-03 0. -1.
        -12    1    3    3    0    0 -0.16059735036E+01 -0.13194456404E+01  0.88090911096E+00  0.22574517834E+01  0.00000000000E+00 0.  1.
</event>
<event>
 7    1  0.2472338E-008  0.4614232E+02  0.7816164E-02  0.1320468E+00
        -11   -1    0    0    0    0  0.00000000000E+00  0.00000000000E+00  0.45593999997E+02  0.45594000000E+02  0.51100000000E-03 0.  1.
         11   -1    0    0    0    0 -0.00000000000E+00 -0.00000000000E+00 -0.45593999997E+02  0.45594000000E+02  0.51100000000E-03 0. -1.
    9900012    2    1    2    0    0 -0.17754855438E+01 -0.43777457200E+02 -0.10464006675E+02  0.46142317149E+02  0.99999944197E+01 0.  0.
         12    1    1    2    0    0  0.17754855438E+01  0.43777457200E+02  0.10464006675E+02  0.45045682851E+02  0.00000000000E+00 0. -1.
         11    1    3    3    0    0  0.12741401093E+01 -0.59224542484E+01  0.40092747100E+00  0.60712140829E+01  0.51100000000E-03 0. -1.
        -11    1    3    3    0    0 -0.77981625135E+00 -0.12008534257E+02 -0.24629383998E+00  0.12036347839E+02  0.51100000000E-03 0.  1.
        -12    1    3    3    0    0 -0.22698094018E+01 -0.25846468695E+02 -0.10618640306E+02  0.28034755228E+02  0.00000000000E+00 0.  1.
</event>
<event>
 7    1  0.2472338E-008  0.4614232E+02  0.7816164E-02  0.1320468E+00
        -11   -1    0    0    0    0  0.00000000000E+00  0.00000000000E+00  0.45593999997E+02  0.45594000000E+02  0.51100000000E-03 0. -1.
         11   -1    0    0    0    0 -0.00000000000E+00 -0.00000000000E+00 -0.45593999997E+02  0.45594000000E+02  0.51100000000E-03 0.  1.
    9900012    2    1    2    0    0 -0.23735954421E+02  0.32095146480E+02 -0.20871499234E+02  0.46142318297E+02  0.10000004886E+02 0.  0.
         12    1    1    2    0    0  0.23735954421E+02 -0.32095146480E+02  0.20871499234E+02  0.45045681703E+02  0.00000000000E+00 0. -1.
         11    1    3    3    0    0 -0.25156294874E+01  0.94105364389E+01 -0.30504447675E+01  0.10207438529E+02  0.51100000000E-03 0. -1.
        -11    1    3    3    0    0 -0.59425566925E+01  0.45374690192E+01 -0.45699647667E+01  0.87628296443E+01  0.51100000000E-03 0.  1.
         12    1    3    3    0    0 -0.15277768241E+02  0.18147141022E+02 -0.13251089699E+02  0.27172050123E+02  0.00000000000E+00 0. -1.
</event>
<event>
 7    1  0.2472338E-008  0.4614232E+02  0.7816164E-02  0.1320468E+00
        -11   -1    0    0    0    0  0.00000000000E+00  0.00000000000E+00  0.45593999997E+02  0.45594000000E+02  0.51100000000E-03 0. -1.
         11   -1    0    0    0    0 -0.00000000000E+00 -0.00000000000E+00 -0.45593999997E+02  0.45594000000E+02  0.51100000000E-03 0.  1.
    9900012    2    1    2    0    0  0.30909268090E+02  0.32204242021E+02 -0.60512332908E+01  0.46142317828E+02  0.10000000608E+02 0.  0.
         12    1    1    2    0    0 -0.30909268090E+02 -0.32204242021E+02  0.60512332908E+01  0.45045682172E+02  0.00000000000E+00 0. -1.
         11    1    3    3    0    0  0.10435609249E+02  0.13092977598E+02 -0.64736512604E+01  0.17950937682E+02  0.51100000000E-03 0. -1.
        -11    1    3    3    0    0  0.30614370493E+00  0.80341593293E+00 -0.38370079054E+00  0.94150288748E+00  0.51100000000E-03 0.  1.
         12    1    3    3    0    0  0.20167515137E+02  0.18307848490E+02  0.80611876011E+00  0.27249877258E+02  0.00000000000E+00 0. -1.
</event>
<event>
 7    1  0.2472338E-008  0.4614231E+02  0.7816164E-02  0.1320468E+00
        -11   -1    0    0    0    0  0.00000000000E+00  0.00000000000E+00  0.45593999997E+02  0.45594000000E+02  0.51100000000E-03 0. -1.
         11   -1    0    0    0    0 -0.00000000000E+00 -0.00000000000E+00 -0.45593999997E+02  0.45594000000E+02  0.51100000000E-03 0.  1.
    9900012    2    1    2    0    0  0.23596775357E+02  0.12102629211E+02 -0.36411986569E+02  0.46142309785E+02  0.99999272627E+01 0.  0.
         12    1    1    2    0    0 -0.23596775357E+02 -0.12102629211E+02  0.36411986569E+02  0.45045690215E+02  0.00000000000E+00 0. -1.
         11    1    3    3    0    0  0.97998603513E+01  0.47488551897E+01 -0.17485415633E+02  0.20599239031E+02  0.51100000000E-03 0. -1.
        -11    1    3    3    0    0  0.10593573784E+02  0.75637538100E+01 -0.17978166900E+02  0.22195690180E+02  0.51100000000E-03 0.  1.
         12    1    3    3    0    0  0.32033412212E+01 -0.20997978883E+00 -0.94840403666E+00  0.33473805741E+01  0.00000000000E+00 0. -1.
</event>
<event>
 7    1  0.2472338E-008  0.4614232E+02  0.7816164E-02  0.1320468E+00
        -11   -1    0    0    0    0  0.00000000000E+00  0.00000000000E+00  0.45593999997E+02  0.45594000000E+02  0.51100000000E-03 0.  1.
         11   -1    0    0    0    0 -0.00000000000E+00 -0.00000000000E+00 -0.45593999997E+02  0.45594000000E+02  0.51100000000E-03 0. -1.
    9900012    2    1    2    0    0  0.15096953049E+02  0.11086975167E+02  0.40966748214E+02  0.46142317977E+02  0.10000001965E+02 0.  0.
         12    1    1    2    0    0 -0.15096953049E+02 -0.11086975167E+02 -0.40966748214E+02  0.45045682023E+02  0.00000000000E+00 0. -1.
         11    1    3    3    0    0 -0.16939400369E+00 -0.11725131592E+01  0.18037853886E+01  0.21580369381E+01  0.51100000000E-03 0. -1.
        -11    1    3    3    0    0 -0.26301022210E+00  0.20720496415E+00  0.39859088937E+00  0.52056049822E+00  0.51100000000E-03 0.  1.
        -12    1    3    3    0    0  0.15529357275E+02  0.12052283362E+02  0.38764371936E+02  0.43463720540E+02  0.00000000000E+00 0.  1.
</event>
<event>
 7    1  0.2472338E-008  0.4614232E+02  0.7816164E-02  0.1320468E+00
        -11   -1    0    0    0    0  0.00000000000E+00  0.00000000000E+00  0.45593999997E+02  0.45594000000E+02  0.51100000000E-03 0.  1.
         11   -1    0    0    0    0 -0.00000000000E+00 -0.00000000000E+00 -0.45593999997E+02  0.45594000000E+02  0.51100000000E-03 0. -1.
    9900012    2    1    2    0    0  0.39036529241E+02 -0.15406835863E+02  0.16367407721E+02  0.46142320495E+02  0.10000024931E+02 0.  0.
         12    1    1    2    0    0 -0.39036529241E+02  0.15406835863E+02 -0.16367407721E+02  0.45045679505E+02  0.00000000000E+00 0. -1.
         11    1    3    3    0    0  0.10774842362E+02 -0.24364248777E+01  0.17693385629E+01  0.11187669701E+02  0.51100000000E-03 0.  1.
        -11    1    3    3    0    0  0.13262740745E+02 -0.83455345148E+01  0.45465673436E+01  0.16316234654E+02  0.51100000000E-03 0. -1.
         12    1    3    3    0    0  0.14998946134E+02 -0.46248764708E+01  0.10051501815E+02  0.18638416141E+02  0.00000000000E+00 0. -1.
</event>
<event>
 7    1  0.2472338E-008  0.4614232E+02  0.7816164E-02  0.1320468E+00
        -11   -1    0    0    0    0  0.00000000000E+00  0.00000000000E+00  0.45593999997E+02  0.45594000000E+02  0.51100000000E-03 0. -1.
         11   -1    0    0    0    0 -0.00000000000E+00 -0.00000000000E+00 -0.45593999997E+02  0.45594000000E+02  0.51100000000E-03 0.  1.
    9900012    2    1    2    0    0  0.31527441111E+02 -0.13383731956E+02 -0.29257642814E+02  0.46142317774E+02  0.10000000122E+02 0.  0.
         12    1    1    2    0    0 -0.31527441111E+02  0.13383731956E+02  0.29257642814E+02  0.45045682226E+02  0.00000000000E+00 0. -1.
         11    1    3    3    0    0  0.96274631313E+00  0.66976209272E+00 -0.84965390766E+00  0.14482312482E+01  0.51100000000E-03 0. -1.
        -11    1    3    3    0    0  0.40522211745E+01  0.23407404124E+00 -0.55942427253E+01  0.69116451757E+01  0.51100000000E-03 0.  1.
        -12    1    3    3    0    0  0.26512473624E+02 -0.14287568090E+02 -0.22813746181E+02  0.37782441351E+02  0.00000000000E+00 0.  1.
</event>
<event>
 7    1  0.2472338E-008  0.4614232E+02  0.7816164E-02  0.1320468E+00
        -11   -1    0    0    0    0  0.00000000000E+00  0.00000000000E+00  0.45593999997E+02  0.45594000000E+02  0.51100000000E-03 0.  1.
         11   -1    0    0    0    0 -0.00000000000E+00 -0.00000000000E+00 -0.45593999997E+02  0.45594000000E+02  0.51100000000E-03 0. -1.
    9900012    2    1    2    0    0 -0.89154672594E+00  0.43902919338E+02  0.10042524756E+02  0.46142317794E+02  0.10000000299E+02 0.  0.
         12    1    1    2    0    0  0.89154672594E+00 -0.43902919338E+02 -0.10042524756E+02  0.45045682206E+02  0.00000000000E+00 0. -1.
         11    1    3    3    0    0  0.14974672647E+00 -0.33111972312E+00 -0.73786876607E-01  0.37082221806E+00  0.51100000000E-03 0. -1.
        -11    1    3    3    0    0 -0.72406987193E+00  0.52832460718E+01  0.31735563146E+01  0.62055157866E+01  0.51100000000E-03 0.  1.
        -12    1    3    3    0    0 -0.31722358049E+00  0.38950792989E+02  0.69427553183E+01  0.39565979789E+02  0.00000000000E+00 0.  1.
</event>
<event>
 7    1  0.2472338E-008  0.4614232E+02  0.7816164E-02  0.1320468E+00
        -11   -1    0    0    0    0  0.00000000000E+00  0.00000000000E+00  0.45593999997E+02  0.45594000000E+02  0.51100000000E-03 0.  1.
         11   -1    0    0    0    0 -0.00000000000E+00 -0.00000000000E+00 -0.45593999997E+02  0.45594000000E+02  0.51100000000E-03 0. -1.
    9900012    2    1    2    0    0 -0.32227143799E+02 -0.27604386873E+01  0.31351311939E+02  0.46142316749E+02  0.99999907745E+01 0.  0.
         12    1    1    2    0    0  0.32227143799E+02  0.27604386873E+01 -0.31351311939E+02  0.45045683251E+02  0.00000000000E+00 0. -1.
         11    1    3    3    0    0 -0.38627944911E+01 -0.15302575135E+01  0.10092114750E+01  0.42756727425E+01  0.51100000000E-03 0.  1.
        -11    1    3    3    0    0 -0.70509081052E+01 -0.16608823505E+01  0.10408292004E+02  0.12680945469E+02  0.51100000000E-03 0. -1.
        -12    1    3    3    0    0 -0.21313441203E+02  0.43070117666E+00  0.19933808460E+02  0.29185698538E+02  0.00000000000E+00 0.  1.
</event>
<event>
 7    1  0.2472338E-008  0.4614231E+02  0.7816164E-02  0.1320468E+00
        -11   -1    0    0    0    0  0.00000000000E+00  0.00000000000E+00  0.45593999997E+02  0.45594000000E+02  0.51100000000E-03 0. -1.
         11   -1    0    0    0    0 -0.00000000000E+00 -0.00000000000E+00 -0.45593999997E+02  0.45594000000E+02  0.51100000000E-03 0.  1.
    9900012    2    1    2    0    0 -0.19481916616E+02 -0.40579834560E+02  0.16869215727E+01  0.46142314831E+02  0.99999732806E+01 0.  0.
         12    1    1    2    0    0  0.19481916616E+02  0.40579834560E+02 -0.16869215727E+01  0.45045685169E+02  0.00000000000E+00 0. -1.
         11    1    3    3    0    0 -0.63683749879E+01 -0.12538530192E+02  0.28152269694E+01  0.14342121270E+02  0.51100000000E-03 0. -1.
        -11    1    3    3    0    0 -0.14610856915E+01 -0.11180515831E+02 -0.76425503356E+00  0.11301450865E+02  0.51100000000E-03 0.  1.
        -12    1    3    3    0    0 -0.11652455937E+02 -0.16860788537E+02 -0.36405036321E+00  0.20498742696E+02  0.00000000000E+00 0.  1.
</event>
<event>
 7    1  0.2472338E-008  0.4614232E+02  0.7816164E-02  0.1320468E+00
        -11   -1    0    0    0    0  0.00000000000E+00  0.00000000000E+00  0.45593999997E+02  0.45594000000E+02  0.51100000000E-03 0.  1.
         11   -1    0    0    0    0 -0.00000000000E+00 -0.00000000000E+00 -0.45593999997E+02  0.45594000000E+02  0.51100000000E-03 0. -1.
    9900012    2    1    2    0    0 -0.14173459490E+02  0.64489322227E+01  0.42268637852E+02  0.46142318446E+02  0.10000006250E+02 0.  0.
         12    1    1    2    0    0  0.14173459490E+02 -0.64489322227E+01 -0.42268637852E+02  0.45045681554E+02  0.00000000000E+00 0. -1.
         11    1    3    3    0    0 -0.56921183214E+01  0.24649747735E+01  0.28624086163E+02  0.29288472485E+02  0.51100000000E-03 0. -1.
        -11    1    3    3    0    0 -0.39349227319E+01  0.59435408857E+00  0.38561491633E+01  0.55413680909E+01  0.51100000000E-03 0.  1.
         12    1    3    3    0    0 -0.45464184368E+01  0.33896033607E+01  0.97884025263E+01  0.11312477870E+02  0.00000000000E+00 0. -1.
</event>
<event>
 7    1  0.2472338E-008  0.4614232E+02  0.7816164E-02  0.1320468E+00
        -11   -1    0    0    0    0  0.00000000000E+00  0.00000000000E+00  0.45593999997E+02  0.45594000000E+02  0.51100000000E-03 0.  1.
         11   -1    0    0    0    0 -0.00000000000E+00 -0.00000000000E+00 -0.45593999997E+02  0.45594000000E+02  0.51100000000E-03 0. -1.
    9900012    2    1    2    0    0  0.11890285214E+02  0.78316035774E+01  0.42736409190E+02  0.46142316883E+02  0.99999919911E+01 0.  0.
         12    1    1    2    0    0 -0.11890285214E+02 -0.78316035774E+01 -0.42736409190E+02  0.45045683117E+02  0.00000000000E+00 0. -1.
         11    1    3    3    0    0  0.33893210612E+01  0.35972975133E+01  0.12765626329E+02  0.13689019778E+02  0.51100000000E-03 0.  1.
        -11    1    3    3    0    0  0.26496954456E+01  0.48277628342E+01  0.21123317911E+02  0.21829400811E+02  0.51100000000E-03 0. -1.
         12    1    3    3    0    0  0.58512687069E+01 -0.59345677014E+00  0.88474649494E+01  0.10623896293E+02  0.00000000000E+00 0. -1.
</event>
<event>
 7    1  0.2472338E-008  0.4614232E+02  0.7816164E-02  0.1320468E+00
        -11   -1    0    0    0    0  0.00000000000E+00  0.00000000000E+00  0.45593999997E+02  0.45594000000E+02  0.51100000000E-03 0.  1.
         11   -1    0    0    0    0 -0.00000000000E+00 -0.00000000000E+00 -0.45593999997E+02  0.45594000000E+02  0.51100000000E-03 0. -1.
    9900012    2    1    2    0    0  0.30641204777E+02  0.16934749029E+02  0.28345094145E+02  0.46142317444E+02  0.99999971097E+01 0.  0.
         12    1    1    2    0    0 -0.30641204777E+02 -0.16934749029E+02 -0.28345094145E+02  0.45045682556E+02  0.00000000000E+00 0. -1.
         11    1    3    3    0    0  0.70675121789E+01  0.45044538979E+01  0.51904157694E+01  0.98580043334E+01  0.51100000000E-03 0. -1.
        -11    1    3    3    0    0  0.15685462227E+02  0.10370843536E+02  0.11435023715E+02  0.22007905137E+02  0.51100000000E-03 0.  1.
         12    1    3    3    0    0  0.78882303704E+01  0.20594515958E+01  0.11719654661E+02  0.14276407973E+02  0.00000000000E+00 0. -1.
</event>
<event>
 7    1  0.2472338E-008  0.4614232E+02  0.7816164E-02  0.1320468E+00
        -11   -1    0    0    0    0  0.00000000000E+00  0.00000000000E+00  0.45593999997E+02  0.45594000000E+02  0.51100000000E-03 0.  1.
         11   -1    0    0    0    0 -0.00000000000E+00 -0.00000000000E+00 -0.45593999997E+02  0.45594000000E+02  0.51100000000E-03 0. -1.
    9900012    2    1    2    0    0 -0.26950185853E+01 -0.43092767839E+02  0.12839926978E+02  0.46142317743E+02  0.99999998386E+01 0.  0.
         12    1    1    2    0    0  0.26950185853E+01  0.43092767839E+02 -0.12839926978E+02  0.45045682257E+02  0.00000000000E+00 0. -1.
         11    1    3    3    0    0  0.38242871013E+00 -0.51712936392E+01  0.75030501168E+00  0.52394167130E+01  0.51100000000E-03 0. -1.
        -11    1    3    3    0    0 -0.47648622360E+00 -0.26185768631E+02  0.42005553372E+01  0.26524822022E+02  0.51100000000E-03 0.  1.
        -12    1    3    3    0    0 -0.26009610718E+01 -0.11735705569E+02  0.78890666289E+01  0.14378079008E+02  0.00000000000E+00 0.  1.
</event>
<event>
 7    1  0.2472338E-008  0.4614232E+02  0.7816164E-02  0.1320468E+00
        -11   -1    0    0    0    0  0.00000000000E+00  0.00000000000E+00  0.45593999997E+02  0.45594000000E+02  0.51100000000E-03 0.  1.
         11   -1    0    0    0    0 -0.00000000000E+00 -0.00000000000E+00 -0.45593999997E+02  0.45594000000E+02  0.51100000000E-03 0. -1.
    9900012    2    1    2    0    0 -0.44215602964E+02 -0.75555784383E+01  0.41239788253E+01  0.46142317494E+02  0.99999975684E+01 0.  0.
         12    1    1    2    0    0  0.44215602964E+02  0.75555784383E+01 -0.41239788253E+01  0.45045682506E+02  0.00000000000E+00 0. -1.
         11    1    3    3    0    0 -0.72951727142E-01 -0.59920594053E+00  0.34095864386E+00  0.69326962403E+00  0.51100000000E-03 0.  1.
        -11    1    3    3    0    0 -0.12571476803E+01  0.36913416308E+00  0.13396095390E+01  0.18738287805E+01  0.51100000000E-03 0. -1.
        -12    1    3    3    0    0 -0.42885503557E+02 -0.73255066608E+01  0.24434106424E+01  0.43575219090E+02  0.00000000000E+00 0.  1.
</event>
<event>
 7    1  0.2472338E-008  0.4614232E+02  0.7816164E-02  0.1320468E+00
        -11   -1    0    0    0    0  0.00000000000E+00  0.00000000000E+00  0.45593999997E+02  0.45594000000E+02  0.51100000000E-03 0. -1.
         11   -1    0    0    0    0 -0.00000000000E+00 -0.00000000000E+00 -0.45593999997E+02  0.45594000000E+02  0.51100000000E-03 0.  1.
    9900012    2    1    2    0    0 -0.43370378612E+02 -0.37346915614E+01 -0.11583437383E+02  0.46142315594E+02  0.99999802413E+01 0.  0.
         12    1    1    2    0    0  0.43370378612E+02  0.37346915614E+01  0.11583437383E+02  0.45045684406E+02  0.00000000000E+00 0. -1.
         11    1    3    3    0    0 -0.90097684333E+01 -0.17793176828E+01  0.10223229333E+01  0.92405109750E+01  0.51100000000E-03 0. -1.
        -11    1    3    3    0    0 -0.97923455851E+01 -0.25030527301E+01 -0.37538462734E+01  0.10781774767E+02  0.51100000000E-03 0.  1.
         12    1    3    3    0    0 -0.24568264593E+02  0.54767885150E+00 -0.88519140428E+01  0.26120029852E+02  0.00000000000E+00 0. -1.
</event>
<event>
 7    1  0.2472338E-008  0.4614232E+02  0.7816164E-02  0.1320468E+00
        -11   -1    0    0    0    0  0.00000000000E+00  0.00000000000E+00  0.45593999997E+02  0.45594000000E+02  0.51100000000E-03 0.  1.
         11   -1    0    0    0    0 -0.00000000000E+00 -0.00000000000E+00 -0.45593999997E+02  0.45594000000E+02  0.51100000000E-03 0. -1.
    9900012    2    1    2    0    0 -0.36868193139E+01 -0.38269702277E+02  0.23472341525E+02  0.46142316903E+02  0.99999921739E+01 0.  0.
         12    1    1    2    0    0  0.36868193139E+01  0.38269702277E+02 -0.23472341525E+02  0.45045683097E+02  0.00000000000E+00 0. -1.
         11    1    3    3    0    0 -0.17392585140E+01 -0.10176674767E+02  0.72557045111E+01  0.12618834245E+02  0.51100000000E-03 0. -1.
        -11    1    3    3    0    0 -0.44336696702E+01 -0.24614481764E+02  0.14546658438E+02  0.28933292436E+02  0.51100000000E-03 0.  1.
         12    1    3    3    0    0  0.24861088703E+01 -0.34785457463E+01  0.16699785757E+01  0.45901902213E+01  0.00000000000E+00 0. -1.
</event>
<event>
 7    1  0.2472338E-008  0.4614232E+02  0.7816164E-02  0.1320468E+00
        -11   -1    0    0    0    0  0.00000000000E+00  0.00000000000E+00  0.45593999997E+02  0.45594000000E+02  0.51100000000E-03 0. -1.
         11   -1    0    0    0    0 -0.00000000000E+00 -0.00000000000E+00 -0.45593999997E+02  0.45594000000E+02  0.51100000000E-03 0.  1.
    9900012    2    1    2    0    0  0.21430050605E+02 -0.39583617139E+02 -0.17331260351E+01  0.46142317182E+02  0.99999947154E+01 0.  0.
         12    1    1    2    0    0 -0.21430050605E+02  0.39583617139E+02  0.17331260351E+01  0.45045682818E+02  0.00000000000E+00 0. -1.
         11    1    3    3    0    0  0.76335785962E+01 -0.20887905122E+02  0.19714629235E+01  0.22326279781E+02  0.51100000000E-03 0.  1.
        -11    1    3    3    0    0  0.94728276750E+01 -0.12567899938E+02 -0.75157884419E+00  0.15755997082E+02  0.51100000000E-03 0. -1.
        -12    1    3    3    0    0  0.43236443343E+01 -0.61278120783E+01 -0.29530101143E+01  0.80600403182E+01  0.00000000000E+00 0.  1.
</event>
<event>
 7    1  0.2472338E-008  0.4614232E+02  0.7816164E-02  0.1320468E+00
        -11   -1    0    0    0    0  0.00000000000E+00  0.00000000000E+00  0.45593999997E+02  0.45594000000E+02  0.51100000000E-03 0.  1.
         11   -1    0    0    0    0 -0.00000000000E+00 -0.00000000000E+00 -0.45593999997E+02  0.45594000000E+02  0.51100000000E-03 0. -1.
    9900012    2    1    2    0    0  0.66645159236E+01 -0.31339992551E+02  0.31662321648E+02  0.46142317435E+02  0.99999970254E+01 0.  0.
         12    1    1    2    0    0 -0.66645159236E+01  0.31339992551E+02 -0.31662321648E+02  0.45045682565E+02  0.00000000000E+00 0. -1.
         11    1    3    3    0    0  0.27835142722E+01 -0.10647497428E+02  0.10619887847E+02  0.15293762498E+02  0.51100000000E-03 0. -1.
        -11    1    3    3    0    0  0.32751472597E+01 -0.15131504507E+02  0.19772069640E+02  0.25112223245E+02  0.51100000000E-03 0.  1.
         12    1    3    3    0    0  0.60585439177E+00 -0.55609906162E+01  0.12703641608E+01  0.57363316919E+01  0.00000000000E+00 0. -1.
</event>
<event>
 7    1  0.2472338E-008  0.4614232E+02  0.7816164E-02  0.1320468E+00
        -11   -1    0    0    0    0  0.00000000000E+00  0.00000000000E+00  0.45593999997E+02  0.45594000000E+02  0.51100000000E-03 0.  1.
         11   -1    0    0    0    0 -0.00000000000E+00 -0.00000000000E+00 -0.45593999997E+02  0.45594000000E+02  0.51100000000E-03 0. -1.
    9900012    2    1    2    0    0 -0.35797685529E+02 -0.26368978804E+02 -0.72329977415E+01  0.46142316647E+02  0.99999898420E+01 0.  0.
         12    1    1    2    0    0  0.35797685529E+02  0.26368978804E+02  0.72329977415E+01  0.45045683353E+02  0.00000000000E+00 0. -1.
         11    1    3    3    0    0 -0.31871838016E+01 -0.47256678501E+01 -0.23761229075E+01  0.61754382474E+01  0.51100000000E-03 0.  1.
        -11    1    3    3    0    0 -0.85612241856E+00  0.51038774917E-01 -0.99845009401E+00  0.13162269574E+01  0.51100000000E-03 0. -1.
        -12    1    3    3    0    0 -0.31754379309E+02 -0.21694349729E+02 -0.38584247401E+01  0.38650651442E+02  0.00000000000E+00 0.  1.
</event>
<event>
 7    1  0.2472338E-008  0.4614232E+02  0.7816164E-02  0.1320468E+00
        -11   -1    0    0    0    0  0.00000000000E+00  0.00000000000E+00  0.45593999997E+02  0.45594000000E+02  0.51100000000E-03 0.  1.
         11   -1    0    0    0    0 -0.00000000000E+00 -0.00000000000E+00 -0.45593999997E+02  0.45594000000E+02  0.51100000000E-03 0. -1.
    9900012    2    1    2    0    0 -0.52290433554E+01 -0.84522248653E+01  0.43935526787E+02  0.46142317481E+02  0.99999974418E+01 0.  0.
         12    1    1    2    0    0  0.52290433554E+01  0.84522248653E+01 -0.43935526787E+02  0.45045682519E+02  0.00000000000E+00 0. -1.
         11    1    3    3    0    0 -0.30536847642E+01 -0.19526409780E+01  0.10138803203E+02  0.10767224716E+02  0.51100000000E-03 0. -1.
        -11    1    3    3    0    0  0.20283826443E+01 -0.35065576636E+01  0.70142192695E+01  0.80999725322E+01  0.51100000000E-03 0.  1.
        -12    1    3    3    0    0 -0.42037412355E+01 -0.29930262237E+01  0.26782504314E+02  0.27275120233E+02  0.00000000000E+00 0.  1.
</event>
<event>
 7    1  0.2472338E-008  0.4614232E+02  0.7816164E-02  0.1320468E+00
        -11   -1    0    0    0    0  0.00000000000E+00  0.00000000000E+00  0.45593999997E+02  0.45594000000E+02  0.51100000000E-03 0.  1.
         11   -1    0    0    0    0 -0.00000000000E+00 -0.00000000000E+00 -0.45593999997E+02  0.45594000000E+02  0.51100000000E-03 0. -1.
    9900012    2    1    2    0    0 -0.11904914434E+02  0.15380073728E+02  0.40630527604E+02  0.46142318421E+02  0.10000006020E+02 0.  0.
         12    1    1    2    0    0  0.11904914434E+02 -0.15380073728E+02 -0.40630527604E+02  0.45045681579E+02  0.00000000000E+00 0. -1.
         11    1    3    3    0    0 -0.34499069288E+01  0.41647547485E+00  0.87042544070E+01  0.93722651842E+01  0.51100000000E-03 0. -1.
        -11    1    3    3    0    0 -0.15435461001E+01  0.39359801602E+01  0.13954098978E+02  0.14580512780E+02  0.51100000000E-03 0.  1.
        -12    1    3    3    0    0 -0.69114614049E+01  0.11027618092E+02  0.17972174219E+02  0.22189540457E+02  0.00000000000E+00 0.  1.
</event>
<event>
 7    1  0.2472338E-008  0.4614231E+02  0.7816164E-02  0.1320468E+00
        -11   -1    0    0    0    0  0.00000000000E+00  0.00000000000E+00  0.45593999997E+02  0.45594000000E+02  0.51100000000E-03 0. -1.
         11   -1    0    0    0    0 -0.00000000000E+00 -0.00000000000E+00 -0.45593999997E+02  0.45594000000E+02  0.51100000000E-03 0.  1.
    9900012    2    1    2    0    0 -0.60425442261E+01  0.32419333077E+01 -0.44520685287E+02  0.46142313295E+02  0.99999592746E+01 0.  0.
         12    1    1    2    0    0  0.60425442261E+01 -0.32419333077E+01  0.44520685287E+02  0.45045686705E+02  0.00000000000E+00 0. -1.
         11    1    3    3    0    0 -0.83833453141E+00 -0.29918559825E+00 -0.63412874878E+00  0.10929027129E+01  0.51100000000E-03 0. -1.
        -11    1    3    3    0    0 -0.15838689146E+01  0.57170803689E+01 -0.24495028939E+02  0.25203176221E+02  0.51100000000E-03 0.  1.
         12    1    3    3    0    0 -0.36203407801E+01 -0.21759614629E+01 -0.19391527600E+02  0.19846234361E+02  0.00000000000E+00 0. -1.
</event>
<event>
 7    1  0.2472338E-008  0.4614232E+02  0.7816164E-02  0.1320468E+00
        -11   -1    0    0    0    0  0.00000000000E+00  0.00000000000E+00  0.45593999997E+02  0.45594000000E+02  0.51100000000E-03 0.  1.
         11   -1    0    0    0    0 -0.00000000000E+00 -0.00000000000E+00 -0.45593999997E+02  0.45594000000E+02  0.51100000000E-03 0. -1.
    9900012    2    1    2    0    0  0.39156133120E+00  0.30281095873E+02  0.33346896829E+02  0.46142316348E+02  0.99999871134E+01 0.  0.
         12    1    1    2    0    0 -0.39156133120E+00 -0.30281095873E+02 -0.33346896829E+02  0.45045683652E+02  0.00000000000E+00 0. -1.
         11    1    3    3    0    0  0.23227901351E+01  0.92342151165E+01  0.15317559253E+02  0.18035900437E+02  0.51100000000E-03 0. -1.
        -11    1    3    3    0    0 -0.17825234384E+01  0.14214698806E+02  0.14621443032E+02  0.20470018284E+02  0.51100000000E-03 0.  1.
        -12    1    3    3    0    0 -0.14870536555E+00  0.68321819512E+01  0.34078945436E+01  0.76363976271E+01  0.00000000000E+00 0.  1.
</event>
<event>
 7    1  0.2472338E-008  0.4614232E+02  0.7816164E-02  0.1320468E+00
        -11   -1    0    0    0    0  0.00000000000E+00  0.00000000000E+00  0.45593999997E+02  0.45594000000E+02  0.51100000000E-03 0.  1.
         11   -1    0    0    0    0 -0.00000000000E+00 -0.00000000000E+00 -0.45593999997E+02  0.45594000000E+02  0.51100000000E-03 0. -1.
    9900012    2    1    2    0    0 -0.30576959515E+02  0.23447332612E+02  0.23332073203E+02  0.46142317635E+02  0.99999988472E+01 0.  0.
         12    1    1    2    0    0  0.30576959515E+02 -0.23447332612E+02 -0.23332073203E+02  0.45045682365E+02  0.00000000000E+00 0. -1.
         11    1    3    3    0    0 -0.52502951426E+01  0.41313689367E+01  0.61514981789E+01  0.90815603550E+01  0.51100000000E-03 0.  1.
        -11    1    3    3    0    0 -0.12952177374E+02  0.12027931652E+02  0.53890615475E+01  0.18478961636E+02  0.51100000000E-03 0. -1.
         12    1    3    3    0    0 -0.12374486999E+02  0.72880320238E+01  0.11791513476E+02  0.18581795643E+02  0.00000000000E+00 0. -1.
</event>
<event>
 7    1  0.2472338E-008  0.4614232E+02  0.7816164E-02  0.1320468E+00
        -11   -1    0    0    0    0  0.00000000000E+00  0.00000000000E+00  0.45593999997E+02  0.45594000000E+02  0.51100000000E-03 0.  1.
         11   -1    0    0    0    0 -0.00000000000E+00 -0.00000000000E+00 -0.45593999997E+02  0.45594000000E+02  0.51100000000E-03 0. -1.
    9900012    2    1    2    0    0  0.38021753555E+01  0.42559894786E+02  0.14258753101E+02  0.46142320722E+02  0.10000026996E+02 0.  0.
         12    1    1    2    0    0 -0.38021753555E+01 -0.42559894786E+02 -0.14258753101E+02  0.45045679278E+02  0.00000000000E+00 0. -1.
         11    1    3    3    0    0  0.22090913102E+01  0.23750584587E+01 -0.92405398963E-01  0.32449231298E+01  0.51100000000E-03 0. -1.
        -11    1    3    3    0    0  0.19063280151E+00  0.69257549117E+00  0.90465809053E+00  0.11551658746E+01  0.51100000000E-03 0.  1.
        -12    1    3    3    0    0  0.14024512437E+01  0.39492260836E+02  0.13446500410E+02  0.41742231717E+02  0.00000000000E+00 0.  1.
</event>
<event>
 7    1  0.2472338E-008  0.4614232E+02  0.7816164E-02  0.1320468E+00
        -11   -1    0    0    0    0  0.00000000000E+00  0.00000000000E+00  0.45593999997E+02  0.45594000000E+02  0.51100000000E-03 0. -1.
         11   -1    0    0    0    0 -0.00000000000E+00 -0.00000000000E+00 -0.45593999997E+02  0.45594000000E+02  0.51100000000E-03 0.  1.
    9900012    2    1    2    0    0 -0.41649238858E+02 -0.12173644576E+01 -0.17116437200E+02  0.46142317676E+02  0.99999992203E+01 0.  0.
         12    1    1    2    0    0  0.41649238858E+02  0.12173644576E+01  0.17116437200E+02  0.45045682324E+02  0.00000000000E+00 0. -1.
         11    1    3    3    0    0 -0.76459954949E+01  0.25195675636E+01 -0.58288023842E+01  0.99390344254E+01  0.51100000000E-03 0. -1.
        -11    1    3    3    0    0 -0.20366844809E+02 -0.33217854426E+01 -0.53082055263E+01  0.21307737378E+02  0.51100000000E-03 0.  1.
        -12    1    3    3    0    0 -0.13636398553E+02 -0.41514657864E+00 -0.59794292897E+01  0.14895545872E+02  0.00000000000E+00 0.  1.
</event>
<event>
 7    1  0.2472338E-008  0.4614232E+02  0.7816164E-02  0.1320468E+00
        -11   -1    0    0    0    0  0.00000000000E+00  0.00000000000E+00  0.45593999997E+02  0.45594000000E+02  0.51100000000E-03 0. -1.
         11   -1    0    0    0    0 -0.00000000000E+00 -0.00000000000E+00 -0.45593999997E+02  0.45594000000E+02  0.51100000000E-03 0.  1.
    9900012    2    1    2    0    0 -0.35023290004E+02 -0.22044059185E+02 -0.17791628647E+02  0.46142318320E+02  0.10000005101E+02 0.  0.
         12    1    1    2    0    0  0.35023290004E+02  0.22044059185E+02  0.17791628647E+02  0.45045681680E+02  0.00000000000E+00 0. -1.
         11    1    3    3    0    0 -0.96520808609E+01 -0.82941419549E+01 -0.63434138040E+01  0.14219506133E+02  0.51100000000E-03 0. -1.
        -11    1    3    3    0    0 -0.16964688353E+02 -0.52239538326E+01 -0.79431317644E+01  0.19446945443E+02  0.51100000000E-03 0.  1.
         12    1    3    3    0    0 -0.84065207898E+01 -0.85259633978E+01 -0.35050830791E+01  0.12475866745E+02  0.00000000000E+00 0. -1.
</event>
<event>
 7    1  0.2472338E-008  0.4614232E+02  0.7816164E-02  0.1320468E+00
        -11   -1    0    0    0    0  0.00000000000E+00  0.00000000000E+00  0.45593999997E+02  0.45594000000E+02  0.51100000000E-03 0. -1.
         11   -1    0    0    0    0 -0.00000000000E+00 -0.00000000000E+00 -0.45593999997E+02  0.45594000000E+02  0.51100000000E-03 0.  1.
    9900012    2    1    2    0    0  0.11442697402E+02  0.30291695502E+02  0.31314394625E+02  0.46142318177E+02  0.10000003790E+02 0.  0.
         12    1    1    2    0    0 -0.11442697402E+02 -0.30291695502E+02 -0.31314394625E+02  0.45045681823E+02  0.00000000000E+00 0. -1.
         11    1    3    3    0    0  0.28553078847E+00  0.21278987648E+01  0.18205023121E+01  0.28149085090E+01  0.51100000000E-03 0. -1.
        -11    1    3    3    0    0  0.12853604867E+02  0.24402543655E+02  0.26291501951E+02  0.38104361561E+02  0.51100000000E-03 0.  1.
         12    1    3    3    0    0 -0.16964382531E+01  0.37612530819E+01  0.32023903622E+01  0.52230481067E+01  0.00000000000E+00 0. -1.
</event>
<event>
 7    1  0.2472338E-008  0.4614232E+02  0.7816164E-02  0.1320468E+00
        -11   -1    0    0    0    0  0.00000000000E+00  0.00000000000E+00  0.45593999997E+02  0.45594000000E+02  0.51100000000E-03 0.  1.
         11   -1    0    0    0    0 -0.00000000000E+00 -0.00000000000E+00 -0.45593999997E+02  0.45594000000E+02  0.51100000000E-03 0. -1.
    9900012    2    1    2    0    0 -0.14699380259E+02 -0.41190936375E+02  0.10786494127E+02  0.46142317910E+02  0.10000001356E+02 0.  0.
         12    1    1    2    0    0  0.14699380259E+02  0.41190936375E+02 -0.10786494127E+02  0.45045682090E+02  0.00000000000E+00 0. -1.
         11    1    3    3    0    0 -0.12373511941E+01 -0.88402350887E+01  0.15781013744E+01  0.90648330713E+01  0.51100000000E-03 0. -1.
        -11    1    3    3    0    0 -0.10928744094E+02 -0.31317855057E+02  0.87382000457E+01  0.34301627267E+02  0.51100000000E-03 0.  1.
         12    1    3    3    0    0 -0.25332849711E+01 -0.10328462290E+01  0.47019270651E+00  0.27758575718E+01  0.00000000000E+00 0. -1.
</event>
<event>
 7    1 -0.2472338E-008  0.4614232E+02  0.7816164E-02  0.1320468E+00
        -11   -1    0    0    0    0  0.00000000000E+00  0.00000000000E+00  0.45593999997E+02  0.45594000000E+02  0.51100000000E-03 0.  1.
         11   -1    0    0    0    0 -0.00000000000E+00 -0.00000000000E+00 -0.45593999997E+02  0.45594000000E+02  0.51100000000E-03 0. -1.
    9900012    2    1    2    0    0 -0.35901464779E+02 -0.24490785738E+02  0.11849037429E+02  0.46142318217E+02  0.10000004155E+02 0.  0.
         12    1    1    2    0    0  0.35901464779E+02  0.24490785738E+02 -0.11849037429E+02  0.45045681783E+02  0.00000000000E+00 0. -1.
         11    1    3    3    0    0 -0.20113033761E+02 -0.87260923455E+01  0.81278844422E+01  0.23382500304E+02  0.51100000000E-03 0. -1.
        -11    1    3    3    0    0 -0.15411138569E+02 -0.15784357959E+02  0.37663032664E+01  0.22379325029E+02  0.51100000000E-03 0.  1.
         12    1    3    3    0    0 -0.37729244886E+00  0.19664566822E-01 -0.45150279954E-01  0.38049288421E+00  0.00000000000E+00 0. -1.
</event>
<event>
 7    1  0.2472338E-008  0.4614232E+02  0.7816164E-02  0.1320468E+00
        -11   -1    0    0    0    0  0.00000000000E+00  0.00000000000E+00  0.45593999997E+02  0.45594000000E+02  0.51100000000E-03 0.  1.
         11   -1    0    0    0    0 -0.00000000000E+00 -0.00000000000E+00 -0.45593999997E+02  0.45594000000E+02  0.51100000000E-03 0. -1.
    9900012    2    1    2    0    0  0.39735873884E+02  0.15957565477E+02  0.13983200888E+02  0.46142317894E+02  0.10000001213E+02 0.  0.
         12    1    1    2    0    0 -0.39735873884E+02 -0.15957565477E+02 -0.13983200888E+02  0.45045682106E+02  0.00000000000E+00 0. -1.
         11    1    3    3    0    0  0.10193179567E+02  0.40816089593E+01  0.48850872244E+01  0.12017675267E+02  0.51100000000E-03 0. -1.
        -11    1    3    3    0    0  0.23392314351E+02  0.12788460585E+02  0.70153487085E+01  0.27567375874E+02  0.51100000000E-03 0.  1.
         12    1    3    3    0    0  0.61503799669E+01 -0.91250406731E+00  0.20827649552E+01  0.65572667529E+01  0.00000000000E+00 0. -1.
</event>
<event>
 7    1  0.2472338E-008  0.4614232E+02  0.7816164E-02  0.1320468E+00
        -11   -1    0    0    0    0  0.00000000000E+00  0.00000000000E+00  0.45593999997E+02  0.45594000000E+02  0.51100000000E-03 0.  1.
         11   -1    0    0    0    0 -0.00000000000E+00 -0.00000000000E+00 -0.45593999997E+02  0.45594000000E+02  0.51100000000E-03 0. -1.
    9900012    2    1    2    0    0 -0.34195300884E+02  0.27195849284E+02  0.10962700331E+02  0.46142316307E+02  0.99999867366E+01 0.  0.
         12    1    1    2    0    0  0.34195300884E+02 -0.27195849284E+02 -0.10962700331E+02  0.45045683693E+02  0.00000000000E+00 0. -1.
         11    1    3    3    0    0 -0.36545672391E+01  0.23429263608E+01  0.11127216773E+01  0.44814412224E+01  0.51100000000E-03 0. -1.
        -11    1    3    3    0    0 -0.30811060065E+02  0.23573121324E+02  0.83727011850E+01  0.39687726020E+02  0.51100000000E-03 0.  1.
         12    1    3    3    0    0  0.27032642008E+00  0.12798015998E+01  0.14772774687E+01  0.19731490637E+01  0.00000000000E+00 0. -1.
</event>
<event>
 7    1  0.2472338E-008  0.4614232E+02  0.7816164E-02  0.1320468E+00
        -11   -1    0    0    0    0  0.00000000000E+00  0.00000000000E+00  0.45593999997E+02  0.45594000000E+02  0.51100000000E-03 0. -1.
         11   -1    0    0    0    0 -0.00000000000E+00 -0.00000000000E+00 -0.45593999997E+02  0.45594000000E+02  0.51100000000E-03 0.  1.
    9900012    2    1    2    0    0 -0.28667973899E+01  0.21037098453E+02 -0.39728270320E+02  0.46142317618E+02  0.99999986963E+01 0.  0.
         12    1    1    2    0    0  0.28667973899E+01 -0.21037098453E+02  0.39728270320E+02  0.45045682382E+02  0.00000000000E+00 0. -1.
         11    1    3    3    0    0  0.51382772015E+00  0.12877590802E+01 -0.33760037251E+00  0.14269956718E+01  0.51100000000E-03 0. -1.
        -11    1    3    3    0    0 -0.43443205839E+01  0.12387124527E+02 -0.19715609925E+02  0.23685844936E+02  0.51100000000E-03 0.  1.
         12    1    3    3    0    0  0.96369547387E+00  0.73622148461E+01 -0.19675060023E+02  0.21029477010E+02  0.00000000000E+00 0. -1.
</event>
<event>
 7    1  0.2472338E-008  0.4614232E+02  0.7816164E-02  0.1320468E+00
        -11   -1    0    0    0    0  0.00000000000E+00  0.00000000000E+00  0.45593999997E+02  0.45594000000E+02  0.51100000000E-03 0.  1.
         11   -1    0    0    0    0 -0.00000000000E+00 -0.00000000000E+00 -0.45593999997E+02  0.45594000000E+02  0.51100000000E-03 0. -1.
    9900012    2    1    2    0    0  0.39430551553E+02 -0.21603563988E+02  0.27624493788E+01  0.46142317640E+02  0.99999988936E+01 0.  0.
         12    1    1    2    0    0 -0.39430551553E+02  0.21603563988E+02 -0.27624493788E+01  0.45045682360E+02  0.00000000000E+00 0. -1.
         11    1    3    3    0    0  0.24561773561E+02 -0.87263992682E+01  0.24245546290E+01  0.26178411526E+02  0.51100000000E-03 0. -1.
        -11    1    3    3    0    0  0.68431043088E+01 -0.47961611921E+01 -0.13017018822E+01  0.84572848370E+01  0.51100000000E-03 0.  1.
         12    1    3    3    0    0  0.80256736829E+01 -0.80810035277E+01  0.16395966320E+01  0.11506621276E+02  0.00000000000E+00 0. -1.
</event>
<event>
 7    1  0.2472338E-008  0.4614232E+02  0.7816164E-02  0.1320468E+00
        -11   -1    0    0    0    0  0.00000000000E+00  0.00000000000E+00  0.45593999997E+02  0.45594000000E+02  0.51100000000E-03 0.  1.
         11   -1    0    0    0    0 -0.00000000000E+00 -0.00000000000E+00 -0.45593999997E+02  0.45594000000E+02  0.51100000000E-03 0. -1.
    9900012    2    1    2    0    0  0.23417075077E+00  0.40224083011E+02  0.20275151641E+02  0.46142318031E+02  0.10000002457E+02 0.  0.
         12    1    1    2    0    0 -0.23417075077E+00 -0.40224083011E+02 -0.20275151641E+02  0.45045681969E+02  0.00000000000E+00 0. -1.
         11    1    3    3    0    0 -0.22204845000E+01  0.23130503019E+01  0.11257704949E+01  0.33982514007E+01  0.51100000000E-03 0. -1.
        -11    1    3    3    0    0  0.10353121395E+01  0.12070046006E+02  0.40078700575E+01  0.12760129485E+02  0.51100000000E-03 0.  1.
         12    1    3    3    0    0  0.14193431113E+01  0.25840986703E+02  0.15141511089E+02  0.29983937145E+02  0.00000000000E+00 0. -1.
</event>
<event>
 7    1  0.2472338E-008  0.4614232E+02  0.7816164E-02  0.1320468E+00
        -11   -1    0    0    0    0  0.00000000000E+00  0.00000000000E+00  0.45593999997E+02  0.45594000000E+02  0.51100000000E-03 0.  1.
         11   -1    0    0    0    0 -0.00000000000E+00 -0.00000000000E+00 -0.45593999997E+02  0.45594000000E+02  0.51100000000E-03 0. -1.
    9900012    2    1    2    0    0 -0.23451291018E+02 -0.18337182871E+01  0.38415984723E+02  0.46142318127E+02  0.10000003336E+02 0.  0.
         12    1    1    2    0    0  0.23451291018E+02  0.18337182871E+01 -0.38415984723E+02  0.45045681873E+02  0.00000000000E+00 0. -1.
         11    1    3    3    0    0 -0.28078761004E+01 -0.14376930030E+01  0.13036971437E+01  0.34133203585E+01  0.51100000000E-03 0. -1.
        -11    1    3    3    0    0 -0.17414779864E+02 -0.19687991838E+01  0.31936868117E+02  0.36429579647E+02  0.51100000000E-03 0.  1.
         12    1    3    3    0    0 -0.32286350534E+01  0.15727738997E+01  0.51754194629E+01  0.62994181211E+01  0.00000000000E+00 0. -1.
</event>
<event>
 7    1  0.2472338E-008  0.4614232E+02  0.7816164E-02  0.1320468E+00
        -11   -1    0    0    0    0  0.00000000000E+00  0.00000000000E+00  0.45593999997E+02  0.45594000000E+02  0.51100000000E-03 0.  1.
         11   -1    0    0    0    0 -0.00000000000E+00 -0.00000000000E+00 -0.45593999997E+02  0.45594000000E+02  0.51100000000E-03 0. -1.
    9900012    2    1    2    0    0  0.41401195852E+02  0.10974114032E+02  0.13950746184E+02  0.46142317456E+02  0.99999972161E+01 0.  0.
         12    1    1    2    0    0 -0.41401195852E+02 -0.10974114032E+02 -0.13950746184E+02  0.45045682544E+02  0.00000000000E+00 0. -1.
         11    1    3    3    0    0  0.60305284801E+01  0.37984958472E+01  0.30916480944E+01  0.77687922260E+01  0.51100000000E-03 0. -1.
        -11    1    3    3    0    0  0.13367046161E+02 -0.58137283483E+00  0.26429682949E+01  0.13638225658E+02  0.51100000000E-03 0.  1.
        -12    1    3    3    0    0  0.22003621212E+02  0.77569910192E+01  0.82161297942E+01  0.24735299572E+02  0.00000000000E+00 0.  1.
</event>
<event>
 7    1  0.2472338E-008  0.4614232E+02  0.7816164E-02  0.1320468E+00
        -11   -1    0    0    0    0  0.00000000000E+00  0.00000000000E+00  0.45593999997E+02  0.45594000000E+02  0.51100000000E-03 0. -1.
         11   -1    0    0    0    0 -0.00000000000E+00 -0.00000000000E+00 -0.45593999997E+02  0.45594000000E+02  0.51100000000E-03 0.  1.
    9900012    2    1    2    0    0 -0.25510486170E+02 -0.19538397000E+02 -0.31568648999E+02  0.46142318059E+02  0.10000002712E+02 0.  0.
         12    1    1    2    0    0  0.25510486170E+02  0.19538397000E+02  0.31568648999E+02  0.45045681941E+02  0.00000000000E+00 0. -1.
         11    1    3    3    0    0 -0.58354270649E+01 -0.44614569613E+01 -0.54607566110E+01  0.91529596456E+01  0.51100000000E-03 0. -1.
        -11    1    3    3    0    0 -0.17856611262E+02 -0.16120180739E+02 -0.23351325387E+02  0.33526156810E+02  0.51100000000E-03 0.  1.
         12    1    3    3    0    0 -0.18184478430E+01  0.10432407004E+01 -0.27565670002E+01  0.34632016030E+01  0.00000000000E+00 0. -1.
</event>
<event>
 7    1  0.2472338E-008  0.4614232E+02  0.7816164E-02  0.1320468E+00
        -11   -1    0    0    0    0  0.00000000000E+00  0.00000000000E+00  0.45593999997E+02  0.45594000000E+02  0.51100000000E-03 0. -1.
         11   -1    0    0    0    0 -0.00000000000E+00 -0.00000000000E+00 -0.45593999997E+02  0.45594000000E+02  0.51100000000E-03 0.  1.
    9900012    2    1    2    0    0 -0.30688581914E+02  0.24723884245E+02 -0.21818661921E+02  0.46142317409E+02  0.99999967885E+01 0.  0.
         12    1    1    2    0    0  0.30688581914E+02 -0.24723884245E+02  0.21818661921E+02  0.45045682591E+02  0.00000000000E+00 0. -1.
         11    1    3    3    0    0 -0.76745878845E+00  0.18123516278E+01  0.37049844760E-01  0.19684979976E+01  0.51100000000E-03 0. -1.
        -11    1    3    3    0    0 -0.26762480227E+02  0.19671191091E+02 -0.16269916758E+02  0.36985082107E+02  0.51100000000E-03 0.  1.
        -12    1    3    3    0    0 -0.31586428984E+01  0.32403415261E+01 -0.55857950076E+01  0.71887373045E+01  0.00000000000E+00 0.  1.
</event>
<event>
 7    1  0.2472338E-008  0.4614233E+02  0.7816164E-02  0.1320468E+00
        -11   -1    0    0    0    0  0.00000000000E+00  0.00000000000E+00  0.45593999997E+02  0.45594000000E+02  0.51100000000E-03 0. -1.
         11   -1    0    0    0    0 -0.00000000000E+00 -0.00000000000E+00 -0.45593999997E+02  0.45594000000E+02  0.51100000000E-03 0.  1.
    9900012    2    1    2    0    0  0.44458375365E+02 -0.58463550728E+01  0.42878688653E+01  0.46142325100E+02  0.10000066925E+02 0.  0.
         12    1    1    2    0    0 -0.44458375365E+02  0.58463550728E+01 -0.42878688653E+01  0.45045674900E+02  0.00000000000E+00 0. -1.
         11    1    3    3    0    0  0.13253905947E+02 -0.20823751247E+01  0.97251352996E+00  0.13451694757E+02  0.51100000000E-03 0.  1.
        -11    1    3    3    0    0  0.15167423770E+02  0.91769548385E+00  0.47563179906E+01  0.15922169133E+02  0.51100000000E-03 0. -1.
         12    1    3    3    0    0  0.16037045648E+02 -0.46816754319E+01 -0.14409626553E+01  0.16768461210E+02  0.00000000000E+00 0. -1.
</event>
<event>
 7    1  0.2472338E-008  0.4614233E+02  0.7816164E-02  0.1320468E+00
        -11   -1    0    0    0    0  0.00000000000E+00  0.00000000000E+00  0.45593999997E+02  0.45594000000E+02  0.51100000000E-03 0. -1.
         11   -1    0    0    0    0 -0.00000000000E+00 -0.00000000000E+00 -0.45593999997E+02  0.45594000000E+02  0.51100000000E-03 0.  1.
    9900012    2    1    2    0    0  0.38355499395E+02  0.15545215985E+02  0.17785225739E+02  0.46142330636E+02  0.10000117405E+02 0.  0.
         12    1    1    2    0    0 -0.38355499395E+02 -0.15545215985E+02 -0.17785225739E+02  0.45045669364E+02  0.00000000000E+00 0. -1.
         11    1    3    3    0    0  0.11167125860E+01 -0.72736739500E+00  0.17433706335E+01  0.21944137609E+01  0.51100000000E-03 0.  1.
        -11    1    3    3    0    0  0.25354187382E+02  0.11221582112E+02  0.85318893719E+01  0.29009513257E+02  0.51100000000E-03 0. -1.
        -12    1    3    3    0    0  0.11884599427E+02  0.50510012679E+01  0.75099657333E+01  0.14938403619E+02  0.00000000000E+00 0.  1.
</event>
<event>
 7    1  0.2472338E-008  0.4614232E+02  0.7816164E-02  0.1320468E+00
        -11   -1    0    0    0    0  0.00000000000E+00  0.00000000000E+00  0.45593999997E+02  0.45594000000E+02  0.51100000000E-03 0. -1.
         11   -1    0    0    0    0 -0.00000000000E+00 -0.00000000000E+00 -0.45593999997E+02  0.45594000000E+02  0.51100000000E-03 0.  1.
    9900012    2    1    2    0    0 -0.14945528401E+02  0.40404999564E+02  0.13159816500E+02  0.46142316752E+02  0.99999907948E+01 0.  0.
         12    1    1    2    0    0  0.14945528401E+02 -0.40404999564E+02 -0.13159816500E+02  0.45045683248E+02  0.00000000000E+00 0. -1.
         11    1    3    3    0    0 -0.54900416894E+01  0.13410211103E+02  0.62248268672E+01  0.15770947637E+02  0.51100000000E-03 0.  1.
        -11    1    3    3    0    0 -0.95016242340E+01  0.19656756599E+02  0.73089307308E+01  0.23023670684E+02  0.51100000000E-03 0. -1.
         12    1    3    3    0    0  0.46137521864E-01  0.73380318619E+01 -0.37394109819E+00  0.73476984302E+01  0.00000000000E+00 0. -1.
</event>
<event>
 7    1  0.2472338E-008  0.4614232E+02  0.7816164E-02  0.1320468E+00
        -11   -1    0    0    0    0  0.00000000000E+00  0.00000000000E+00  0.45593999997E+02  0.45594000000E+02  0.51100000000E-03 0.  1.
         11   -1    0    0    0    0 -0.00000000000E+00 -0.00000000000E+00 -0.45593999997E+02  0.45594000000E+02  0.51100000000E-03 0. -1.
    9900012    2    1    2    0    0 -0.13587273134E+02 -0.88180884896E+01  0.42032613336E+02  0.46142320299E+02  0.10000023142E+02 0.  0.
         12    1    1    2    0    0  0.13587273134E+02  0.88180884896E+01 -0.42032613336E+02  0.45045679701E+02  0.00000000000E+00 0. -1.
         11    1    3    3    0    0 -0.40785452676E+01  0.16285397537E+00  0.39593612999E+01  0.56866154329E+01  0.51100000000E-03 0. -1.
        -11    1    3    3    0    0 -0.30544305301E+01 -0.49028470429E+01  0.12560747213E+02  0.13825332756E+02  0.51100000000E-03 0.  1.
        -12    1    3    3    0    0 -0.64542973366E+01 -0.40780954220E+01  0.25512504823E+02  0.26630372110E+02  0.00000000000E+00 0.  1.
</event>
<event>
 7    1  0.2472338E-008  0.4614232E+02  0.7816164E-02  0.1320468E+00
        -11   -1    0    0    0    0  0.00000000000E+00  0.00000000000E+00  0.45593999997E+02  0.45594000000E+02  0.51100000000E-03 0.  1.
         11   -1    0    0    0    0 -0.00000000000E+00 -0.00000000000E+00 -0.45593999997E+02  0.45594000000E+02  0.51100000000E-03 0. -1.
    9900012    2    1    2    0    0 -0.22270097679E+02 -0.34007460061E+02  0.19407444272E+02  0.46142317814E+02  0.10000000482E+02 0.  0.
         12    1    1    2    0    0  0.22270097679E+02  0.34007460061E+02 -0.19407444272E+02  0.45045682186E+02  0.00000000000E+00 0. -1.
         11    1    3    3    0    0 -0.14492410075E+02 -0.17242469378E+02  0.14353375857E+02  0.26708652133E+02  0.51100000000E-03 0. -1.
        -11    1    3    3    0    0 -0.40718789345E+01 -0.52010015463E+01  0.21693706202E+01  0.69524660582E+01  0.51100000000E-03 0.  1.
         12    1    3    3    0    0 -0.37058086700E+01 -0.11563989137E+02  0.28846977951E+01  0.12481199623E+02  0.00000000000E+00 0. -1.
</event>
<event>
 7    1  0.2472338E-008  0.4614232E+02  0.7816164E-02  0.1320468E+00
        -11   -1    0    0    0    0  0.00000000000E+00  0.00000000000E+00  0.45593999997E+02  0.45594000000E+02  0.51100000000E-03 0.  1.
         11   -1    0    0    0    0 -0.00000000000E+00 -0.00000000000E+00 -0.45593999997E+02  0.45594000000E+02  0.51100000000E-03 0. -1.
    9900012    2    1    2    0    0 -0.39053906686E+02 -0.61642039553E+01  0.21584910002E+02  0.46142318990E+02  0.10000011207E+02 0.  0.
         12    1    1    2    0    0  0.39053906686E+02  0.61642039553E+01 -0.21584910002E+02  0.45045681010E+02  0.00000000000E+00 0. -1.
         11    1    3    3    0    0 -0.60653641961E+01 -0.18020665972E+01  0.61658946349E+01  0.88348369403E+01  0.51100000000E-03 0. -1.
        -11    1    3    3    0    0 -0.12554665947E+02 -0.23002559179E+01  0.95708328217E+01  0.15953421435E+02  0.51100000000E-03 0.  1.
        -12    1    3    3    0    0 -0.20433876543E+02 -0.20618814401E+01  0.58481825457E+01  0.21354060614E+02  0.00000000000E+00 0.  1.
</event>
<event>
 7    1  0.2472338E-008  0.4614232E+02  0.7816164E-02  0.1320468E+00
        -11   -1    0    0    0    0  0.00000000000E+00  0.00000000000E+00  0.45593999997E+02  0.45594000000E+02  0.51100000000E-03 0.  1.
         11   -1    0    0    0    0 -0.00000000000E+00 -0.00000000000E+00 -0.45593999997E+02  0.45594000000E+02  0.51100000000E-03 0. -1.
    9900012    2    1    2    0    0  0.24833471296E+02 -0.27744236921E+02  0.25350926395E+02  0.46142318209E+02  0.10000004081E+02 0.  0.
         12    1    1    2    0    0 -0.24833471296E+02  0.27744236921E+02 -0.25350926395E+02  0.45045681791E+02  0.00000000000E+00 0. -1.
         11    1    3    3    0    0  0.13915884283E+02 -0.14715876561E+02  0.92710666252E+01  0.22274683723E+02  0.51100000000E-03 0. -1.
        -11    1    3    3    0    0  0.18061406715E+01 -0.40645341599E+01  0.65803529922E+01  0.79425202439E+01  0.51100000000E-03 0.  1.
        -12    1    3    3    0    0  0.91114463417E+01 -0.89638262001E+01  0.94995067774E+01  0.15925114241E+02  0.00000000000E+00 0.  1.
</event>
<event>
 7    1  0.2472338E-008  0.4614232E+02  0.7816164E-02  0.1320468E+00
        -11   -1    0    0    0    0  0.00000000000E+00  0.00000000000E+00  0.45593999997E+02  0.45594000000E+02  0.51100000000E-03 0.  1.
         11   -1    0    0    0    0 -0.00000000000E+00 -0.00000000000E+00 -0.45593999997E+02  0.45594000000E+02  0.51100000000E-03 0. -1.
    9900012    2    1    2    0    0  0.33584501782E+02  0.45254190810E+01  0.29676850368E+02  0.46142316238E+02  0.99999861140E+01 0.  0.
         12    1    1    2    0    0 -0.33584501782E+02 -0.45254190810E+01 -0.29676850368E+02  0.45045683762E+02  0.00000000000E+00 0. -1.
         11    1    3    3    0    0  0.18246722508E+01  0.69475240631E+00 -0.35974397919E+00  0.19853276104E+01  0.51100000000E-03 0. -1.
        -11    1    3    3    0    0  0.15920911185E+02  0.26330898186E+01  0.11914927784E+02  0.20059264177E+02  0.51100000000E-03 0.  1.
        -12    1    3    3    0    0  0.15838918346E+02  0.11975768561E+01  0.18121666563E+02  0.24097724451E+02  0.00000000000E+00 0.  1.
</event>
<event>
 7    1  0.2472338E-008  0.4614232E+02  0.7816164E-02  0.1320468E+00
        -11   -1    0    0    0    0  0.00000000000E+00  0.00000000000E+00  0.45593999997E+02  0.45594000000E+02  0.51100000000E-03 0.  1.
         11   -1    0    0    0    0 -0.00000000000E+00 -0.00000000000E+00 -0.45593999997E+02  0.45594000000E+02  0.51100000000E-03 0. -1.
    9900012    2    1    2    0    0  0.19657659837E+01  0.44986969933E+02 -0.11924020241E+01  0.46142317385E+02  0.99999965679E+01 0.  0.
         12    1    1    2    0    0 -0.19657659837E+01 -0.44986969933E+02  0.11924020241E+01  0.45045682615E+02  0.00000000000E+00 0. -1.
         11    1    3    3    0    0  0.12796619738E+01  0.80616607413E+01 -0.17486385827E+01  0.83477928717E+01  0.51100000000E-03 0. -1.
        -11    1    3    3    0    0 -0.91197846571E+00  0.33164518090E+02 -0.15183976464E+01  0.33211782496E+02  0.51100000000E-03 0.  1.
         12    1    3    3    0    0  0.15980824757E+01  0.37607911015E+01  0.20746342050E+01  0.45827420169E+01  0.00000000000E+00 0. -1.
</event>
<event>
 7    1  0.2472338E-008  0.4614232E+02  0.7816164E-02  0.1320468E+00
        -11   -1    0    0    0    0  0.00000000000E+00  0.00000000000E+00  0.45593999997E+02  0.45594000000E+02  0.51100000000E-03 0.  1.
         11   -1    0    0    0    0 -0.00000000000E+00 -0.00000000000E+00 -0.45593999997E+02  0.45594000000E+02  0.51100000000E-03 0. -1.
    9900012    2    1    2    0    0 -0.15727062785E+02 -0.17770513570E+02  0.38288139805E+02  0.46142319784E+02  0.10000018449E+02 0.  0.
         12    1    1    2    0    0  0.15727062785E+02  0.17770513570E+02 -0.38288139805E+02  0.45045680216E+02  0.00000000000E+00 0. -1.
         11    1    3    3    0    0 -0.31656151660E+01 -0.22958717851E+01  0.46972629204E+01  0.61119903335E+01  0.51100000000E-03 0. -1.
        -11    1    3    3    0    0 -0.73112791837E+01 -0.68609806065E+01  0.24415770454E+02  0.26394274101E+02  0.51100000000E-03 0.  1.
         12    1    3    3    0    0 -0.52501684356E+01 -0.86136611782E+01  0.91751064299E+01  0.13636055350E+02  0.00000000000E+00 0. -1.
</event>
<event>
 7    1  0.2472338E-008  0.4614232E+02  0.7816164E-02  0.1320468E+00
        -11   -1    0    0    0    0  0.00000000000E+00  0.00000000000E+00  0.45593999997E+02  0.45594000000E+02  0.51100000000E-03 0.  1.
         11   -1    0    0    0    0 -0.00000000000E+00 -0.00000000000E+00 -0.45593999997E+02  0.45594000000E+02  0.51100000000E-03 0. -1.
    9900012    2    1    2    0    0  0.33846076233E+02  0.27647991489E+02 -0.10915362829E+02  0.46142318127E+02  0.10000003333E+02 0.  0.
         12    1    1    2    0    0 -0.33846076233E+02 -0.27647991489E+02  0.10915362829E+02  0.45045681873E+02  0.00000000000E+00 0. -1.
         11    1    3    3    0    0  0.25214477153E+02  0.21162986924E+02 -0.90961839686E+01  0.34152341599E+02  0.51100000000E-03 0. -1.
        -11    1    3    3    0    0  0.80833137331E+01  0.37965381814E+01 -0.22574418206E+01  0.92113900637E+01  0.51100000000E-03 0.  1.
         12    1    3    3    0    0  0.54828534709E+00  0.26884663833E+01  0.43826295979E+00  0.27785864640E+01  0.00000000000E+00 0. -1.
</event>
<event>
 7    1  0.2472338E-008  0.4614232E+02  0.7816164E-02  0.1320468E+00
        -11   -1    0    0    0    0  0.00000000000E+00  0.00000000000E+00  0.45593999997E+02  0.45594000000E+02  0.51100000000E-03 0. -1.
         11   -1    0    0    0    0 -0.00000000000E+00 -0.00000000000E+00 -0.45593999997E+02  0.45594000000E+02  0.51100000000E-03 0.  1.
    9900012    2    1    2    0    0 -0.31796068508E+02  0.30983957026E+02 -0.76235117079E+01  0.46142317673E+02  0.99999991961E+01 0.  0.
         12    1    1    2    0    0  0.31796068508E+02 -0.30983957026E+02  0.76235117079E+01  0.45045682327E+02  0.00000000000E+00 0. -1.
         11    1    3    3    0    0 -0.12452452561E+02  0.79401063743E+01 -0.41662169120E+01  0.15344908851E+02  0.51100000000E-03 0. -1.
        -11    1    3    3    0    0 -0.17092015557E+02  0.16835653921E+02 -0.29943013936E+01  0.24177305058E+02  0.51100000000E-03 0.  1.
        -12    1    3    3    0    0 -0.22516003898E+01  0.62081967308E+01 -0.46299340227E+00  0.66201037646E+01  0.00000000000E+00 0.  1.
</event>
<event>
 7    1  0.2472338E-008  0.4614232E+02  0.7816164E-02  0.1320468E+00
        -11   -1    0    0    0    0  0.00000000000E+00  0.00000000000E+00  0.45593999997E+02  0.45594000000E+02  0.51100000000E-03 0.  1.
         11   -1    0    0    0    0 -0.00000000000E+00 -0.00000000000E+00 -0.45593999997E+02  0.45594000000E+02  0.51100000000E-03 0. -1.
    9900012    2    1    2    0    0 -0.15957578411E+02  0.21595174922E+02  0.36167908108E+02  0.46142318014E+02  0.10000002307E+02 0.  0.
         12    1    1    2    0    0  0.15957578411E+02 -0.21595174922E+02 -0.36167908108E+02  0.45045681986E+02  0.00000000000E+00 0. -1.
         11    1    3    3    0    0 -0.13250626545E+02  0.13527709413E+02  0.20978081425E+02  0.28260536554E+02  0.51100000000E-03 0. -1.
        -11    1    3    3    0    0 -0.25390302175E+01  0.17310857500E+01  0.55686370305E+01  0.63602712959E+01  0.51100000000E-03 0.  1.
         12    1    3    3    0    0 -0.16792164923E+00  0.63363797588E+01  0.96211896530E+01  0.11521510164E+02  0.00000000000E+00 0. -1.
</event>
<event>
 7    1  0.2472338E-008  0.4614232E+02  0.7816164E-02  0.1320468E+00
        -11   -1    0    0    0    0  0.00000000000E+00  0.00000000000E+00  0.45593999997E+02  0.45594000000E+02  0.51100000000E-03 0.  1.
         11   -1    0    0    0    0 -0.00000000000E+00 -0.00000000000E+00 -0.45593999997E+02  0.45594000000E+02  0.51100000000E-03 0. -1.
    9900012    2    1    2    0    0  0.11866820873E+02  0.25686950941E+02  0.35049572517E+02  0.46142318521E+02  0.10000006928E+02 0.  0.
         12    1    1    2    0    0 -0.11866820873E+02 -0.25686950941E+02 -0.35049572517E+02  0.45045681479E+02  0.00000000000E+00 0. -1.
         11    1    3    3    0    0  0.34052040497E+01  0.81624595647E+01  0.10323199640E+02  0.13593734286E+02  0.51100000000E-03 0.  1.
        -11    1    3    3    0    0 -0.86760011190E+00  0.59242894046E+01  0.47900994794E+01  0.76677890025E+01  0.51100000000E-03 0. -1.
         12    1    3    3    0    0  0.93292169355E+01  0.11600201972E+02  0.19936273398E+02  0.24880795233E+02  0.00000000000E+00 0. -1.
</event>
<event>
 7    1  0.2472338E-008  0.4614232E+02  0.7816164E-02  0.1320468E+00
        -11   -1    0    0    0    0  0.00000000000E+00  0.00000000000E+00  0.45593999997E+02  0.45594000000E+02  0.51100000000E-03 0. -1.
         11   -1    0    0    0    0 -0.00000000000E+00 -0.00000000000E+00 -0.45593999997E+02  0.45594000000E+02  0.51100000000E-03 0.  1.
    9900012    2    1    2    0    0  0.81632395246E+01  0.17850774517E+02  0.40544109853E+02  0.46142317919E+02  0.10000001436E+02 0.  0.
         12    1    1    2    0    0 -0.81632395246E+01 -0.17850774517E+02 -0.40544109853E+02  0.45045682081E+02  0.00000000000E+00 0. -1.
         11    1    3    3    0    0 -0.14252126766E+01  0.44605613876E+01  0.63497753623E+01  0.78897076295E+01  0.51100000000E-03 0. -1.
        -11    1    3    3    0    0  0.28023740740E+00  0.35416224827E+01  0.60561243432E+01  0.70212723303E+01  0.51100000000E-03 0.  1.
         12    1    3    3    0    0  0.93082147939E+01  0.98485906463E+01  0.28138210148E+02  0.31231337959E+02  0.00000000000E+00 0. -1.
</event>
<event>
 7    1  0.2472338E-008  0.4614232E+02  0.7816164E-02  0.1320468E+00
        -11   -1    0    0    0    0  0.00000000000E+00  0.00000000000E+00  0.45593999997E+02  0.45594000000E+02  0.51100000000E-03 0.  1.
         11   -1    0    0    0    0 -0.00000000000E+00 -0.00000000000E+00 -0.45593999997E+02  0.45594000000E+02  0.51100000000E-03 0. -1.
    9900012    2    1    2    0    0  0.18674067212E+02 -0.35049350015E+02  0.21258777200E+02  0.46142319510E+02  0.10000015951E+02 0.  0.
         12    1    1    2    0    0 -0.18674067212E+02  0.35049350015E+02 -0.21258777200E+02  0.45045680490E+02  0.00000000000E+00 0. -1.
         11    1    3    3    0    0  0.13539149601E+02 -0.15268229571E+02  0.10312502089E+02  0.22864275753E+02  0.51100000000E-03 0. -1.
        -11    1    3    3    0    0  0.81921815577E+00 -0.55594855275E+01  0.38265863459E+01  0.67986587678E+01  0.51100000000E-03 0.  1.
         12    1    3    3    0    0  0.43156994560E+01 -0.14221634917E+02  0.71196887646E+01  0.16479384989E+02  0.00000000000E+00 0. -1.
</event>
<event>
 7    1  0.2472338E-008  0.4614232E+02  0.7816164E-02  0.1320468E+00
        -11   -1    0    0    0    0  0.00000000000E+00  0.00000000000E+00  0.45593999997E+02  0.45594000000E+02  0.51100000000E-03 0.  1.
         11   -1    0    0    0    0 -0.00000000000E+00 -0.00000000000E+00 -0.45593999997E+02  0.45594000000E+02  0.51100000000E-03 0. -1.
    9900012    2    1    2    0    0 -0.17171008663E+02 -0.31450249850E+02  0.27297467632E+02  0.46142317707E+02  0.99999995078E+01 0.  0.
         12    1    1    2    0    0  0.17171008663E+02  0.31450249850E+02 -0.27297467632E+02  0.45045682293E+02  0.00000000000E+00 0. -1.
         11    1    3    3    0    0 -0.25353337234E+01 -0.12968543081E+02  0.10054970692E+02  0.16604621725E+02  0.51100000000E-03 0. -1.
        -11    1    3    3    0    0 -0.78682096665E+01 -0.80485152487E+01  0.10494426909E+02  0.15388967394E+02  0.51100000000E-03 0.  1.
        -12    1    3    3    0    0 -0.67674652732E+01 -0.10433191520E+02  0.67480700308E+01  0.14148728588E+02  0.00000000000E+00 0.  1.
</event>
<event>
 7    1  0.2472338E-008  0.4614233E+02  0.7816164E-02  0.1320468E+00
        -11   -1    0    0    0    0  0.00000000000E+00  0.00000000000E+00  0.45593999997E+02  0.45594000000E+02  0.51100000000E-03 0.  1.
         11   -1    0    0    0    0 -0.00000000000E+00 -0.00000000000E+00 -0.45593999997E+02  0.45594000000E+02  0.51100000000E-03 0. -1.
    9900012    2    1    2    0    0 -0.30568407448E+02  0.32237213184E+02 -0.74462936506E+01  0.46142326102E+02  0.10000076059E+02 0.  0.
         12    1    1    2    0    0  0.30568407448E+02 -0.32237213184E+02  0.74462936506E+01  0.45045673898E+02  0.00000000000E+00 0. -1.
         11    1    3    3    0    0 -0.21497858924E+02  0.27957449463E+02 -0.69370103411E+01  0.35942996975E+02  0.51100000000E-03 0.  1.
        -11    1    3    3    0    0 -0.82001508075E+01  0.42509236805E+01 -0.82436282238E+00  0.92732087072E+01  0.51100000000E-03 0. -1.
        -12    1    3    3    0    0 -0.87039771638E+00  0.28840040467E-01  0.31507951286E+00  0.92612041983E+00  0.00000000000E+00 0.  1.
</event>
<event>
 7    1  0.2472338E-008  0.4614232E+02  0.7816164E-02  0.1320468E+00
        -11   -1    0    0    0    0  0.00000000000E+00  0.00000000000E+00  0.45593999997E+02  0.45594000000E+02  0.51100000000E-03 0.  1.
         11   -1    0    0    0    0 -0.00000000000E+00 -0.00000000000E+00 -0.45593999997E+02  0.45594000000E+02  0.51100000000E-03 0. -1.
    9900012    2    1    2    0    0 -0.38227164024E+02  0.10854840567E+02  0.21212492272E+02  0.46142318059E+02  0.10000002721E+02 0.  0.
         12    1    1    2    0    0  0.38227164024E+02 -0.10854840567E+02 -0.21212492272E+02  0.45045681941E+02  0.00000000000E+00 0. -1.
         11    1    3    3    0    0 -0.10612890615E+02  0.35132149255E+00  0.24712193997E+01  0.10902467592E+02  0.51100000000E-03 0. -1.
        -11    1    3    3    0    0 -0.11119180193E+02  0.21562331155E+01  0.63589275437E+01  0.12989282859E+02  0.51100000000E-03 0.  1.
         12    1    3    3    0    0 -0.16495093216E+02  0.83472859592E+01  0.12382345329E+02  0.22250567609E+02  0.00000000000E+00 0. -1.
</event>
<event>
 7    1  0.2472338E-008  0.4614232E+02  0.7816164E-02  0.1320468E+00
        -11   -1    0    0    0    0  0.00000000000E+00  0.00000000000E+00  0.45593999997E+02  0.45594000000E+02  0.51100000000E-03 0. -1.
         11   -1    0    0    0    0 -0.00000000000E+00 -0.00000000000E+00 -0.45593999997E+02  0.45594000000E+02  0.51100000000E-03 0.  1.
    9900012    2    1    2    0    0  0.24567267177E+00 -0.20445235075E+02 -0.40137831121E+02  0.46142317860E+02  0.10000000901E+02 0.  0.
         12    1    1    2    0    0 -0.24567267177E+00  0.20445235075E+02  0.40137831121E+02  0.45045682140E+02  0.00000000000E+00 0. -1.
         11    1    3    3    0    0  0.16633328649E+00  0.93194288134E-01  0.41723364279E+00  0.45873315918E+00  0.51100000000E-03 0. -1.
        -11    1    3    3    0    0 -0.12419044187E+01 -0.54217933951E+01 -0.77544392081E+01  0.95430339985E+01  0.51100000000E-03 0.  1.
         12    1    3    3    0    0  0.13212438040E+01 -0.15116635969E+02 -0.32800625556E+02  0.36140550702E+02  0.00000000000E+00 0. -1.
</event>
<event>
 7    1  0.2472338E-008  0.4614232E+02  0.7816164E-02  0.1320468E+00
        -11   -1    0    0    0    0  0.00000000000E+00  0.00000000000E+00  0.45593999997E+02  0.45594000000E+02  0.51100000000E-03 0.  1.
         11   -1    0    0    0    0 -0.00000000000E+00 -0.00000000000E+00 -0.45593999997E+02  0.45594000000E+02  0.51100000000E-03 0. -1.
    9900012    2    1    2    0    0  0.64553770760E+00  0.33916787339E+02  0.29636941352E+02  0.46142317909E+02  0.10000001348E+02 0.  0.
         12    1    1    2    0    0 -0.64553770760E+00 -0.33916787339E+02 -0.29636941352E+02  0.45045682091E+02  0.00000000000E+00 0. -1.
         11    1    3    3    0    0  0.28934317825E+01  0.72879341518E+01  0.67091298803E+01  0.10319804053E+02  0.51100000000E-03 0. -1.
        -11    1    3    3    0    0 -0.17706694376E+01  0.67041431081E+01  0.27449733040E+01  0.74575923576E+01  0.51100000000E-03 0.  1.
        -12    1    3    3    0    0 -0.47722463732E+00  0.19924710079E+02  0.20182838168E+02  0.28364921498E+02  0.00000000000E+00 0.  1.
</event>
<event>
 7    1  0.2472338E-008  0.4614231E+02  0.7816164E-02  0.1320468E+00
        -11   -1    0    0    0    0  0.00000000000E+00  0.00000000000E+00  0.45593999997E+02  0.45594000000E+02  0.51100000000E-03 0.  1.
         11   -1    0    0    0    0 -0.00000000000E+00 -0.00000000000E+00 -0.45593999997E+02  0.45594000000E+02  0.51100000000E-03 0. -1.
    9900012    2    1    2    0    0 -0.23297976623E+02 -0.18032547987E+02  0.34075585860E+02  0.46142311490E+02  0.99999428156E+01 0.  0.
         12    1    1    2    0    0  0.23297976623E+02  0.18032547987E+02 -0.34075585860E+02  0.45045688510E+02  0.00000000000E+00 0. -1.
         11    1    3    3    0    0 -0.90924149435E+01 -0.11181896952E+02  0.18165287369E+02  0.23188024806E+02  0.51100000000E-03 0. -1.
        -11    1    3    3    0    0 -0.10497878131E+02 -0.52036526298E+01  0.14537181967E+02  0.18671183833E+02  0.51100000000E-03 0.  1.
         12    1    3    3    0    0 -0.37076835486E+01 -0.16469984051E+01  0.13731165251E+01  0.42831028513E+01  0.00000000000E+00 0. -1.
</event>
<event>
 7    1  0.2472338E-008  0.4614232E+02  0.7816164E-02  0.1320468E+00
        -11   -1    0    0    0    0  0.00000000000E+00  0.00000000000E+00  0.45593999997E+02  0.45594000000E+02  0.51100000000E-03 0.  1.
         11   -1    0    0    0    0 -0.00000000000E+00 -0.00000000000E+00 -0.45593999997E+02  0.45594000000E+02  0.51100000000E-03 0. -1.
    9900012    2    1    2    0    0  0.38206295538E+02 -0.20223848002E+02  0.12664456120E+02  0.46142317681E+02  0.99999992739E+01 0.  0.
         12    1    1    2    0    0 -0.38206295538E+02  0.20223848002E+02 -0.12664456120E+02  0.45045682319E+02  0.00000000000E+00 0. -1.
         11    1    3    3    0    0  0.19764444774E+02 -0.78825204757E+01  0.35633925101E+01  0.21574641891E+02  0.51100000000E-03 0. -1.
        -11    1    3    3    0    0  0.52913218811E+01 -0.59034328568E+01  0.14925186610E+01  0.80669832626E+01  0.51100000000E-03 0.  1.
        -12    1    3    3    0    0  0.13150528883E+02 -0.64378946695E+01  0.76085449485E+01  0.16500692528E+02  0.00000000000E+00 0.  1.
</event>
<event>
 7    1  0.2472338E-008  0.4614232E+02  0.7816164E-02  0.1320468E+00
        -11   -1    0    0    0    0  0.00000000000E+00  0.00000000000E+00  0.45593999997E+02  0.45594000000E+02  0.51100000000E-03 0.  1.
         11   -1    0    0    0    0 -0.00000000000E+00 -0.00000000000E+00 -0.45593999997E+02  0.45594000000E+02  0.51100000000E-03 0. -1.
    9900012    2    1    2    0    0 -0.38500707869E+01 -0.38368388532E+02  0.23284274183E+02  0.46142315324E+02  0.99999777801E+01 0.  0.
         12    1    1    2    0    0  0.38500707869E+01  0.38368388532E+02 -0.23284274183E+02  0.45045684676E+02  0.00000000000E+00 0. -1.
         11    1    3    3    0    0 -0.78719234807E+00 -0.34469406032E+01  0.21873728861E+00  0.35424451411E+01  0.51100000000E-03 0. -1.
        -11    1    3    3    0    0 -0.18983144525E+01 -0.30745440501E+02  0.22669513887E+02  0.38246471334E+02  0.51100000000E-03 0.  1.
        -12    1    3    3    0    0 -0.11645639864E+01 -0.41760074283E+01  0.39602300782E+00  0.43533988494E+01  0.00000000000E+00 0.  1.
</event>
<event>
 7    1  0.2472338E-008  0.4614232E+02  0.7816164E-02  0.1320468E+00
        -11   -1    0    0    0    0  0.00000000000E+00  0.00000000000E+00  0.45593999997E+02  0.45594000000E+02  0.51100000000E-03 0. -1.
         11   -1    0    0    0    0 -0.00000000000E+00 -0.00000000000E+00 -0.45593999997E+02  0.45594000000E+02  0.51100000000E-03 0.  1.
    9900012    2    1    2    0    0 -0.31192652439E+02  0.31756790817E+02 -0.69020409160E+01  0.46142317654E+02  0.99999990257E+01 0.  0.
         12    1    1    2    0    0  0.31192652439E+02 -0.31756790817E+02  0.69020409160E+01  0.45045682346E+02  0.00000000000E+00 0. -1.
         11    1    3    3    0    0 -0.22553053680E+02  0.19754609210E+02 -0.79829268923E+01  0.31025988096E+02  0.51100000000E-03 0. -1.
        -11    1    3    3    0    0 -0.74713446950E+01  0.86946603028E+01  0.15838680532E+01  0.11572672449E+02  0.51100000000E-03 0.  1.
         12    1    3    3    0    0 -0.11682540639E+01  0.33075213044E+01 -0.50298207688E+00  0.35436571091E+01  0.00000000000E+00 0. -1.
</event>
<event>
 7    1  0.2472338E-008  0.4614232E+02  0.7816164E-02  0.1320468E+00
        -11   -1    0    0    0    0  0.00000000000E+00  0.00000000000E+00  0.45593999997E+02  0.45594000000E+02  0.51100000000E-03 0.  1.
         11   -1    0    0    0    0 -0.00000000000E+00 -0.00000000000E+00 -0.45593999997E+02  0.45594000000E+02  0.51100000000E-03 0. -1.
    9900012    2    1    2    0    0 -0.18075443380E+02  0.20033339085E+02  0.36070170622E+02  0.46142317222E+02  0.99999950811E+01 0.  0.
         12    1    1    2    0    0  0.18075443380E+02 -0.20033339085E+02 -0.36070170622E+02  0.45045682778E+02  0.00000000000E+00 0. -1.
         11    1    3    3    0    0 -0.57170400370E+01  0.16495428133E+01  0.71700630323E+01  0.93174751101E+01  0.51100000000E-03 0. -1.
        -11    1    3    3    0    0 -0.10156264992E+01  0.38086076532E+01  0.27327877801E+01  0.47963651606E+01  0.51100000000E-03 0.  1.
        -12    1    3    3    0    0 -0.11342776844E+02  0.14575188619E+02  0.26167319809E+02  0.32028476951E+02  0.00000000000E+00 0.  1.
</event>
<event>
 7    1  0.2472338E-008  0.4614233E+02  0.7816164E-02  0.1320468E+00
        -11   -1    0    0    0    0  0.00000000000E+00  0.00000000000E+00  0.45593999997E+02  0.45594000000E+02  0.51100000000E-03 0.  1.
         11   -1    0    0    0    0 -0.00000000000E+00 -0.00000000000E+00 -0.45593999997E+02  0.45594000000E+02  0.51100000000E-03 0. -1.
    9900012    2    1    2    0    0 -0.13265300372E+02  0.42902255366E+02 -0.35412933732E+01  0.46142329085E+02  0.10000103261E+02 0.  0.
         12    1    1    2    0    0  0.13265300372E+02 -0.42902255366E+02  0.35412933732E+01  0.45045670915E+02  0.00000000000E+00 0. -1.
         11    1    3    3    0    0  0.14502395268E+00 -0.39047398049E+00  0.29020146096E+00  0.50766034447E+00  0.51100000000E-03 0. -1.
        -11    1    3    3    0    0 -0.81579475939E+01  0.20516105344E+02 -0.11748713304E+01  0.22109794443E+02  0.51100000000E-03 0.  1.
        -12    1    3    3    0    0 -0.52523767305E+01  0.22776624003E+02 -0.26566235038E+01  0.23524874298E+02  0.00000000000E+00 0.  1.
</event>
<event>
 7    1  0.2472338E-008  0.4614232E+02  0.7816164E-02  0.1320468E+00
        -11   -1    0    0    0    0  0.00000000000E+00  0.00000000000E+00  0.45593999997E+02  0.45594000000E+02  0.51100000000E-03 0.  1.
         11   -1    0    0    0    0 -0.00000000000E+00 -0.00000000000E+00 -0.45593999997E+02  0.45594000000E+02  0.51100000000E-03 0. -1.
    9900012    2    1    2    0    0 -0.11850966437E+02 -0.45924315613E+01  0.43215479381E+02  0.46142317729E+02  0.99999997084E+01 0.  0.
         12    1    1    2    0    0  0.11850966437E+02  0.45924315613E+01 -0.43215479381E+02  0.45045682271E+02  0.00000000000E+00 0. -1.
         11    1    3    3    0    0  0.33802881315E+00 -0.26214411842E+01  0.41422981392E+01  0.49137410896E+01  0.51100000000E-03 0. -1.
        -11    1    3    3    0    0 -0.71481137961E+01  0.87023371886E+00  0.18338310402E+02  0.19701433100E+02  0.51100000000E-03 0.  1.
         12    1    3    3    0    0 -0.50408814545E+01 -0.28412240959E+01  0.20734870840E+02  0.21527143539E+02  0.00000000000E+00 0. -1.
</event>
<event>
 7    1  0.2472338E-008  0.4614232E+02  0.7816164E-02  0.1320468E+00
        -11   -1    0    0    0    0  0.00000000000E+00  0.00000000000E+00  0.45593999997E+02  0.45594000000E+02  0.51100000000E-03 0. -1.
         11   -1    0    0    0    0 -0.00000000000E+00 -0.00000000000E+00 -0.45593999997E+02  0.45594000000E+02  0.51100000000E-03 0.  1.
    9900012    2    1    2    0    0 -0.18337642140E+02 -0.30039465887E+02 -0.28115384041E+02  0.46142318189E+02  0.10000003902E+02 0.  0.
         12    1    1    2    0    0  0.18337642140E+02  0.30039465887E+02  0.28115384041E+02  0.45045681811E+02  0.00000000000E+00 0. -1.
         11    1    3    3    0    0 -0.13919802083E+02 -0.18581193957E+02 -0.15358803711E+02  0.27837286337E+02  0.51100000000E-03 0.  1.
        -11    1    3    3    0    0 -0.21706476038E+01 -0.39184295593E+01 -0.18258776938E+01  0.48373164921E+01  0.51100000000E-03 0. -1.
         12    1    3    3    0    0 -0.22471924533E+01 -0.75398423711E+01 -0.10930702636E+02  0.13467715360E+02  0.00000000000E+00 0. -1.
</event>
<event>
 7    1  0.2472338E-008  0.4614232E+02  0.7816164E-02  0.1320468E+00
        -11   -1    0    0    0    0  0.00000000000E+00  0.00000000000E+00  0.45593999997E+02  0.45594000000E+02  0.51100000000E-03 0.  1.
         11   -1    0    0    0    0 -0.00000000000E+00 -0.00000000000E+00 -0.45593999997E+02  0.45594000000E+02  0.51100000000E-03 0. -1.
    9900012    2    1    2    0    0 -0.29117325485E+02 -0.28473479641E+02  0.19249825585E+02  0.46142317950E+02  0.10000001724E+02 0.  0.
         12    1    1    2    0    0  0.29117325485E+02  0.28473479641E+02 -0.19249825585E+02  0.45045682050E+02  0.00000000000E+00 0. -1.
         11    1    3    3    0    0 -0.19015769982E+01 -0.47635628850E+01  0.90664093142E+00  0.52086010098E+01  0.51100000000E-03 0. -1.
        -11    1    3    3    0    0 -0.72578060923E+01 -0.38929944761E+01  0.22850116662E+01  0.85470716530E+01  0.51100000000E-03 0.  1.
         12    1    3    3    0    0 -0.19957942394E+02 -0.19816922280E+02  0.16058172988E+02  0.32386645287E+02  0.00000000000E+00 0. -1.
</event>
<event>
 7    1  0.2472338E-008  0.4614232E+02  0.7816164E-02  0.1320468E+00
        -11   -1    0    0    0    0  0.00000000000E+00  0.00000000000E+00  0.45593999997E+02  0.45594000000E+02  0.51100000000E-03 0.  1.
         11   -1    0    0    0    0 -0.00000000000E+00 -0.00000000000E+00 -0.45593999997E+02  0.45594000000E+02  0.51100000000E-03 0. -1.
    9900012    2    1    2    0    0 -0.29987454822E+02  0.88758493889E+01  0.32420446425E+02  0.46142317683E+02  0.99999992849E+01 0.  0.
         12    1    1    2    0    0  0.29987454822E+02 -0.88758493889E+01 -0.32420446425E+02  0.45045682317E+02  0.00000000000E+00 0. -1.
         11    1    3    3    0    0 -0.69206481063E+01 -0.26462266689E-01  0.32964585896E+01  0.76656839197E+01  0.51100000000E-03 0. -1.
        -11    1    3    3    0    0 -0.85651048594E+01  0.52204119127E+01  0.13794780980E+02  0.17056075291E+02  0.51100000000E-03 0.  1.
         12    1    3    3    0    0 -0.14501701856E+02  0.36818997428E+01  0.15329206855E+02  0.21420558471E+02  0.00000000000E+00 0. -1.
</event>
<event>
 7    1  0.2472338E-008  0.4614232E+02  0.7816164E-02  0.1320468E+00
        -11   -1    0    0    0    0  0.00000000000E+00  0.00000000000E+00  0.45593999997E+02  0.45594000000E+02  0.51100000000E-03 0.  1.
         11   -1    0    0    0    0 -0.00000000000E+00 -0.00000000000E+00 -0.45593999997E+02  0.45594000000E+02  0.51100000000E-03 0. -1.
    9900012    2    1    2    0    0 -0.11094098639E+01 -0.44862201354E+02 -0.39071199558E+01  0.46142317778E+02  0.10000000150E+02 0.  0.
         12    1    1    2    0    0  0.11094098639E+01  0.44862201354E+02  0.39071199558E+01  0.45045682222E+02  0.00000000000E+00 0. -1.
         11    1    3    3    0    0  0.27824279524E+00 -0.10866194487E+02  0.19154364679E+01  0.11037232389E+02  0.51100000000E-03 0. -1.
        -11    1    3    3    0    0 -0.13876721561E+01 -0.19188243007E+02 -0.12426485680E+00  0.19238756346E+02  0.51100000000E-03 0.  1.
         12    1    3    3    0    0  0.19496963604E-04 -0.14807763859E+02 -0.56982915668E+01  0.15866329043E+02  0.00000000000E+00 0. -1.
</event>
<event>
 7    1  0.2472338E-008  0.4614232E+02  0.7816164E-02  0.1320468E+00
        -11   -1    0    0    0    0  0.00000000000E+00  0.00000000000E+00  0.45593999997E+02  0.45594000000E+02  0.51100000000E-03 0.  1.
         11   -1    0    0    0    0 -0.00000000000E+00 -0.00000000000E+00 -0.45593999997E+02  0.45594000000E+02  0.51100000000E-03 0. -1.
    9900012    2    1    2    0    0  0.34297659110E+02  0.23032464004E+02  0.17952426659E+02  0.46142318282E+02  0.10000004746E+02 0.  0.
         12    1    1    2    0    0 -0.34297659110E+02 -0.23032464004E+02 -0.17952426659E+02  0.45045681718E+02  0.00000000000E+00 0. -1.
         11    1    3    3    0    0  0.64832965510E+01  0.15383779533E+01  0.60377311655E+01  0.89918818266E+01  0.51100000000E-03 0. -1.
        -11    1    3    3    0    0  0.11727915566E+02  0.95283589097E+01  0.43815431863E+01  0.15733135351E+02  0.51100000000E-03 0.  1.
         12    1    3    3    0    0  0.16086446994E+02  0.11965727141E+02  0.75331523069E+01  0.21417301104E+02  0.00000000000E+00 0. -1.
</event>
<event>
 7    1  0.2472338E-008  0.4614232E+02  0.7816164E-02  0.1320468E+00
        -11   -1    0    0    0    0  0.00000000000E+00  0.00000000000E+00  0.45593999997E+02  0.45594000000E+02  0.51100000000E-03 0.  1.
         11   -1    0    0    0    0 -0.00000000000E+00 -0.00000000000E+00 -0.45593999997E+02  0.45594000000E+02  0.51100000000E-03 0. -1.
    9900012    2    1    2    0    0  0.31132639902E+01  0.24794241223E+02  0.37478882952E+02  0.46142317878E+02  0.10000001062E+02 0.  0.
         12    1    1    2    0    0 -0.31132639902E+01 -0.24794241223E+02 -0.37478882952E+02  0.45045682122E+02  0.00000000000E+00 0. -1.
         11    1    3    3    0    0  0.97669939091E-01  0.59910850914E+01  0.12182088088E+02  0.13575931292E+02  0.51100000000E-03 0. -1.
        -11    1    3    3    0    0  0.27158273941E+01  0.22455540856E+01  0.73221353840E+01  0.81260013801E+01  0.51100000000E-03 0.  1.
         12    1    3    3    0    0  0.29976665706E+00  0.16557602046E+02  0.17974659480E+02  0.24440385205E+02  0.00000000000E+00 0. -1.
</event>
<event>
 7    1  0.2472338E-008  0.4614232E+02  0.7816164E-02  0.1320468E+00
        -11   -1    0    0    0    0  0.00000000000E+00  0.00000000000E+00  0.45593999997E+02  0.45594000000E+02  0.51100000000E-03 0.  1.
         11   -1    0    0    0    0 -0.00000000000E+00 -0.00000000000E+00 -0.45593999997E+02  0.45594000000E+02  0.51100000000E-03 0. -1.
    9900012    2    1    2    0    0  0.24564181787E+02 -0.36488192571E+02  0.97121656112E+01  0.46142318911E+02  0.10000010482E+02 0.  0.
         12    1    1    2    0    0 -0.24564181787E+02  0.36488192571E+02 -0.97121656112E+01  0.45045681089E+02  0.00000000000E+00 0. -1.
         11    1    3    3    0    0  0.59769468227E+01 -0.50910556675E+01 -0.48941618724E-01  0.78514416940E+01  0.51100000000E-03 0. -1.
        -11    1    3    3    0    0  0.21957726263E+01 -0.87720143657E+01  0.31986172670E+01  0.95917050695E+01  0.51100000000E-03 0.  1.
         12    1    3    3    0    0  0.16391462338E+02 -0.22625122538E+02  0.65624899629E+01  0.28699172147E+02  0.00000000000E+00 0. -1.
</event>
<event>
 7    1  0.2472338E-008  0.4614232E+02  0.7816164E-02  0.1320468E+00
        -11   -1    0    0    0    0  0.00000000000E+00  0.00000000000E+00  0.45593999997E+02  0.45594000000E+02  0.51100000000E-03 0.  1.
         11   -1    0    0    0    0 -0.00000000000E+00 -0.00000000000E+00 -0.45593999997E+02  0.45594000000E+02  0.51100000000E-03 0. -1.
    9900012    2    1    2    0    0 -0.25572998163E+02  0.34764235498E+02  0.12906709981E+02  0.46142317995E+02  0.10000002129E+02 0.  0.
         12    1    1    2    0    0  0.25572998163E+02 -0.34764235498E+02 -0.12906709981E+02  0.45045682005E+02  0.00000000000E+00 0. -1.
         11    1    3    3    0    0 -0.51638314350E+01  0.84332130109E+01  0.60818975618E+00  0.99072767104E+01  0.51100000000E-03 0. -1.
        -11    1    3    3    0    0 -0.17888180264E+02  0.25525801662E+02  0.10013829796E+02  0.32738819940E+02  0.51100000000E-03 0.  1.
         12    1    3    3    0    0 -0.25209864640E+01  0.80522082506E+00  0.22846904288E+01  0.34962213437E+01  0.00000000000E+00 0. -1.
</event>
<event>
 7    1  0.2472338E-008  0.4614232E+02  0.7816164E-02  0.1320468E+00
        -11   -1    0    0    0    0  0.00000000000E+00  0.00000000000E+00  0.45593999997E+02  0.45594000000E+02  0.51100000000E-03 0. -1.
         11   -1    0    0    0    0 -0.00000000000E+00 -0.00000000000E+00 -0.45593999997E+02  0.45594000000E+02  0.51100000000E-03 0.  1.
    9900012    2    1    2    0    0 -0.40581918907E+02  0.17158259126E+02  0.93709911522E+01  0.46142317926E+02  0.10000001499E+02 0.  0.
         12    1    1    2    0    0  0.40581918907E+02 -0.17158259126E+02 -0.93709911522E+01  0.45045682074E+02  0.00000000000E+00 0. -1.
         11    1    3    3    0    0 -0.10266356028E+02  0.15909568123E+01  0.42777977191E+00  0.10397701932E+02  0.51100000000E-03 0. -1.
        -11    1    3    3    0    0 -0.83099816920E+01  0.71348799623E+01  0.16523970098E+01  0.11076674769E+02  0.51100000000E-03 0.  1.
        -12    1    3    3    0    0 -0.22005581186E+02  0.84324223515E+01  0.72908143705E+01  0.24667941224E+02  0.00000000000E+00 0.  1.
</event>
<event>
 7    1  0.2472338E-008  0.4614232E+02  0.7816164E-02  0.1320468E+00
        -11   -1    0    0    0    0  0.00000000000E+00  0.00000000000E+00  0.45593999997E+02  0.45594000000E+02  0.51100000000E-03 0.  1.
         11   -1    0    0    0    0 -0.00000000000E+00 -0.00000000000E+00 -0.45593999997E+02  0.45594000000E+02  0.51100000000E-03 0. -1.
    9900012    2    1    2    0    0 -0.49533679294E+01 -0.19389663752E+02  0.40356147126E+02  0.46142317353E+02  0.99999962773E+01 0.  0.
         12    1    1    2    0    0  0.49533679294E+01  0.19389663752E+02 -0.40356147126E+02  0.45045682647E+02  0.00000000000E+00 0. -1.
         11    1    3    3    0    0  0.22833351855E+01 -0.22322059132E+01  0.31785227708E+01  0.45054822243E+01  0.51100000000E-03 0. -1.
        -11    1    3    3    0    0 -0.36029258154E+01 -0.99967188778E+01  0.23178100681E+02  0.25497839403E+02  0.51100000000E-03 0.  1.
         12    1    3    3    0    0 -0.36337772995E+01 -0.71607389609E+01  0.13999523675E+02  0.16138995726E+02  0.00000000000E+00 0. -1.
</event>
<event>
 7    1  0.2472338E-008  0.4614232E+02  0.7816164E-02  0.1320468E+00
        -11   -1    0    0    0    0  0.00000000000E+00  0.00000000000E+00  0.45593999997E+02  0.45594000000E+02  0.51100000000E-03 0. -1.
         11   -1    0    0    0    0 -0.00000000000E+00 -0.00000000000E+00 -0.45593999997E+02  0.45594000000E+02  0.51100000000E-03 0.  1.
    9900012    2    1    2    0    0 -0.58621740299E+01  0.44520965242E+02  0.35541604208E+01  0.46142317779E+02  0.10000000165E+02 0.  0.
         12    1    1    2    0    0  0.58621740299E+01 -0.44520965242E+02 -0.35541604208E+01  0.45045682221E+02  0.00000000000E+00 0. -1.
         11    1    3    3    0    0  0.99519442991E+00  0.27849046455E+01 -0.13008691197E+01  0.32308461067E+01  0.51100000000E-03 0. -1.
        -11    1    3    3    0    0 -0.65892735390E+01  0.25945534503E+02  0.18308233562E+01  0.26831720050E+02  0.51100000000E-03 0.  1.
         12    1    3    3    0    0 -0.26809492081E+00  0.15790526094E+02  0.30242061842E+01  0.16079751623E+02  0.00000000000E+00 0. -1.
</event>
<event>
 7    1  0.2472338E-008  0.4614232E+02  0.7816164E-02  0.1320468E+00
        -11   -1    0    0    0    0  0.00000000000E+00  0.00000000000E+00  0.45593999997E+02  0.45594000000E+02  0.51100000000E-03 0.  1.
         11   -1    0    0    0    0 -0.00000000000E+00 -0.00000000000E+00 -0.45593999997E+02  0.45594000000E+02  0.51100000000E-03 0. -1.
    9900012    2    1    2    0    0 -0.24896984915E+02  0.31824145570E+02  0.19911741382E+02  0.46142317144E+02  0.99999943745E+01 0.  0.
         12    1    1    2    0    0  0.24896984915E+02 -0.31824145570E+02 -0.19911741382E+02  0.45045682856E+02  0.00000000000E+00 0. -1.
         11    1    3    3    0    0 -0.68201756505E+01  0.86390324516E+01  0.93261269571E+01  0.14426514544E+02  0.51100000000E-03 0. -1.
        -11    1    3    3    0    0 -0.15082463957E+02  0.19863066486E+02  0.10929859733E+02  0.27230203145E+02  0.51100000000E-03 0.  1.
         12    1    3    3    0    0 -0.29943453071E+01  0.33220466320E+01 -0.34424530866E+00  0.44855994556E+01  0.00000000000E+00 0. -1.
</event>
<event>
 7    1  0.2472338E-008  0.4614232E+02  0.7816164E-02  0.1320468E+00
        -11   -1    0    0    0    0  0.00000000000E+00  0.00000000000E+00  0.45593999997E+02  0.45594000000E+02  0.51100000000E-03 0.  1.
         11   -1    0    0    0    0 -0.00000000000E+00 -0.00000000000E+00 -0.45593999997E+02  0.45594000000E+02  0.51100000000E-03 0. -1.
    9900012    2    1    2    0    0  0.31794190016E+02  0.20853386430E+02 -0.24153244093E+02  0.46142318247E+02  0.10000004431E+02 0.  0.
         12    1    1    2    0    0 -0.31794190016E+02 -0.20853386430E+02  0.24153244093E+02  0.45045681753E+02  0.00000000000E+00 0. -1.
         11    1    3    3    0    0  0.12652671241E+02  0.95421508903E+01 -0.99514480437E+01  0.18712938080E+02  0.51100000000E-03 0. -1.
        -11    1    3    3    0    0  0.64447316466E+01  0.22383488170E+01 -0.81865917975E+00  0.68713153426E+01  0.51100000000E-03 0.  1.
         12    1    3    3    0    0  0.12696787128E+02  0.90728867231E+01 -0.13383136869E+02  0.20558064825E+02  0.00000000000E+00 0. -1.
</event>
<event>
 7    1  0.2472338E-008  0.4614232E+02  0.7816164E-02  0.1320468E+00
        -11   -1    0    0    0    0  0.00000000000E+00  0.00000000000E+00  0.45593999997E+02  0.45594000000E+02  0.51100000000E-03 0. -1.
         11   -1    0    0    0    0 -0.00000000000E+00 -0.00000000000E+00 -0.45593999997E+02  0.45594000000E+02  0.51100000000E-03 0.  1.
    9900012    2    1    2    0    0 -0.35918921459E+02 -0.97823239700E+01 -0.25362390111E+02  0.46142316376E+02  0.99999873696E+01 0.  0.
         12    1    1    2    0    0  0.35918921459E+02  0.97823239700E+01  0.25362390111E+02  0.45045683624E+02  0.00000000000E+00 0. -1.
         11    1    3    3    0    0 -0.80738797347E+01 -0.28193322965E-01 -0.31725383307E+01  0.86748676390E+01  0.51100000000E-03 0. -1.
        -11    1    3    3    0    0 -0.22870663409E+02 -0.53055405241E+01 -0.16478802219E+02  0.28683914096E+02  0.51100000000E-03 0.  1.
         12    1    3    3    0    0 -0.49743783153E+01 -0.44485901229E+01 -0.57110495613E+01  0.87835346414E+01  0.00000000000E+00 0. -1.
</event>
<event>
 7    1  0.2472338E-008  0.4614231E+02  0.7816164E-02  0.1320468E+00
        -11   -1    0    0    0    0  0.00000000000E+00  0.00000000000E+00  0.45593999997E+02  0.45594000000E+02  0.51100000000E-03 0. -1.
         11   -1    0    0    0    0 -0.00000000000E+00 -0.00000000000E+00 -0.45593999997E+02  0.45594000000E+02  0.51100000000E-03 0.  1.
    9900012    2    1    2    0    0  0.81905059298E+00  0.27396444136E+02 -0.35747416045E+02  0.46142314867E+02  0.99999736135E+01 0.  0.
         12    1    1    2    0    0 -0.81905059298E+00 -0.27396444136E+02  0.35747416045E+02  0.45045685133E+02  0.00000000000E+00 0. -1.
         11    1    3    3    0    0  0.10035874004E+00  0.12243186283E+02 -0.10998683247E+02  0.16458332712E+02  0.51100000000E-03 0. -1.
        -11    1    3    3    0    0  0.34370796818E+01  0.82471254174E+01 -0.14460632093E+02  0.16998190350E+02  0.51100000000E-03 0.  1.
         12    1    3    3    0    0 -0.27183878289E+01  0.69061324354E+01 -0.10288100705E+02  0.12685791805E+02  0.00000000000E+00 0. -1.
</event>
<event>
 7    1  0.2472338E-008  0.4614232E+02  0.7816164E-02  0.1320468E+00
        -11   -1    0    0    0    0  0.00000000000E+00  0.00000000000E+00  0.45593999997E+02  0.45594000000E+02  0.51100000000E-03 0. -1.
         11   -1    0    0    0    0 -0.00000000000E+00 -0.00000000000E+00 -0.45593999997E+02  0.45594000000E+02  0.51100000000E-03 0.  1.
    9900012    2    1    2    0    0  0.35712063917E+02  0.13293037610E+02 -0.24022014445E+02  0.46142317231E+02  0.99999951648E+01 0.  0.
         12    1    1    2    0    0 -0.35712063917E+02 -0.13293037610E+02  0.24022014445E+02  0.45045682769E+02  0.00000000000E+00 0. -1.
         11    1    3    3    0    0  0.24637235296E+01  0.13935234670E+01 -0.44582793508E+01  0.52809181318E+01  0.51100000000E-03 0. -1.
        -11    1    3    3    0    0  0.45123624404E+01  0.22331780906E+01 -0.54480625438E+01  0.74182130544E+01  0.51100000000E-03 0.  1.
        -12    1    3    3    0    0  0.28735977947E+02  0.96663360523E+01 -0.14115672550E+02  0.33443186045E+02  0.00000000000E+00 0.  1.
</event>
<event>
 7    1  0.2472338E-008  0.4614232E+02  0.7816164E-02  0.1320468E+00
        -11   -1    0    0    0    0  0.00000000000E+00  0.00000000000E+00  0.45593999997E+02  0.45594000000E+02  0.51100000000E-03 0. -1.
         11   -1    0    0    0    0 -0.00000000000E+00 -0.00000000000E+00 -0.45593999997E+02  0.45594000000E+02  0.51100000000E-03 0.  1.
    9900012    2    1    2    0    0  0.53675746991E+01  0.44633910637E+02  0.28489647635E+01  0.46142318329E+02  0.10000005183E+02 0.  0.
         12    1    1    2    0    0 -0.53675746991E+01 -0.44633910637E+02 -0.28489647635E+01  0.45045681671E+02  0.00000000000E+00 0. -1.
         11    1    3    3    0    0  0.29960021387E+01  0.14384100814E+02 -0.25865204912E+01  0.14918728952E+02  0.51100000000E-03 0. -1.
        -11    1    3    3    0    0  0.33364214130E+01  0.16752738141E+02  0.15862364532E+01  0.17155235044E+02  0.51100000000E-03 0.  1.
         12    1    3    3    0    0 -0.96484885257E+00  0.13497071682E+02  0.38492488014E+01  0.14068354333E+02  0.00000000000E+00 0. -1.
</event>
<event>
 7    1  0.2472338E-008  0.4614232E+02  0.7816164E-02  0.1320468E+00
        -11   -1    0    0    0    0  0.00000000000E+00  0.00000000000E+00  0.45593999997E+02  0.45594000000E+02  0.51100000000E-03 0.  1.
         11   -1    0    0    0    0 -0.00000000000E+00 -0.00000000000E+00 -0.45593999997E+02  0.45594000000E+02  0.51100000000E-03 0. -1.
    9900012    2    1    2    0    0 -0.14119541295E+02  0.41842442391E+02 -0.88860641923E+01  0.46142316872E+02  0.99999918922E+01 0.  0.
         12    1    1    2    0    0  0.14119541295E+02 -0.41842442391E+02  0.88860641923E+01  0.45045683128E+02  0.00000000000E+00 0. -1.
         11    1    3    3    0    0 -0.76212345020E+01  0.19499291271E+02 -0.42586440828E+01  0.21364494496E+02  0.51100000000E-03 0.  1.
        -11    1    3    3    0    0 -0.34923609688E+01  0.18036306084E+02 -0.10071872414E+01  0.18398895312E+02  0.51100000000E-03 0. -1.
         12    1    3    3    0    0 -0.30059458244E+01  0.43068450360E+01 -0.36202328682E+01  0.63789270637E+01  0.00000000000E+00 0. -1.
</event>
<event>
 7    1  0.2472338E-008  0.4614232E+02  0.7816164E-02  0.1320468E+00
        -11   -1    0    0    0    0  0.00000000000E+00  0.00000000000E+00  0.45593999997E+02  0.45594000000E+02  0.51100000000E-03 0.  1.
         11   -1    0    0    0    0 -0.00000000000E+00 -0.00000000000E+00 -0.45593999997E+02  0.45594000000E+02  0.51100000000E-03 0. -1.
    9900012    2    1    2    0    0  0.61326960122E+01 -0.36210207924E+02  0.26083027503E+02  0.46142318276E+02  0.10000004695E+02 0.  0.
         12    1    1    2    0    0 -0.61326960122E+01  0.36210207924E+02 -0.26083027503E+02  0.45045681724E+02  0.00000000000E+00 0. -1.
         11    1    3    3    0    0  0.18111275695E+01 -0.32836707716E+01  0.47041074787E+01  0.60159208972E+01  0.51100000000E-03 0. -1.
        -11    1    3    3    0    0  0.41371024065E+01 -0.20083993680E+02  0.16738413376E+02  0.26469924463E+02  0.51100000000E-03 0.  1.
         12    1    3    3    0    0  0.18446603623E+00 -0.12842543472E+02  0.46405066483E+01  0.13656472916E+02  0.00000000000E+00 0. -1.
</event>
<event>
 7    1  0.2472338E-008  0.4614232E+02  0.7816164E-02  0.1320468E+00
        -11   -1    0    0    0    0  0.00000000000E+00  0.00000000000E+00  0.45593999997E+02  0.45594000000E+02  0.51100000000E-03 0.  1.
         11   -1    0    0    0    0 -0.00000000000E+00 -0.00000000000E+00 -0.45593999997E+02  0.45594000000E+02  0.51100000000E-03 0. -1.
    9900012    2    1    2    0    0  0.25065224961E+02 -0.56143563872E+01  0.37004417800E+02  0.46142318334E+02  0.10000005226E+02 0.  0.
         12    1    1    2    0    0 -0.25065224961E+02  0.56143563872E+01 -0.37004417800E+02  0.45045681666E+02  0.00000000000E+00 0. -1.
         11    1    3    3    0    0  0.14886001885E+02 -0.13649982076E+01  0.20567115956E+02  0.25425627450E+02  0.51100000000E-03 0. -1.
        -11    1    3    3    0    0  0.10288069893E+02 -0.44778637575E+01  0.16843222569E+02  0.20238324850E+02  0.51100000000E-03 0.  1.
         12    1    3    3    0    0 -0.10884681666E+00  0.22850557794E+00 -0.40592072437E+00  0.47836603466E+00  0.00000000000E+00 0. -1.
</event>
<event>
 7    1  0.2472338E-008  0.4614231E+02  0.7816164E-02  0.1320468E+00
        -11   -1    0    0    0    0  0.00000000000E+00  0.00000000000E+00  0.45593999997E+02  0.45594000000E+02  0.51100000000E-03 0.  1.
         11   -1    0    0    0    0 -0.00000000000E+00 -0.00000000000E+00 -0.45593999997E+02  0.45594000000E+02  0.51100000000E-03 0. -1.
    9900012    2    1    2    0    0  0.29757221284E+02 -0.19631777759E+02  0.27535701330E+02  0.46142314699E+02  0.99999720740E+01 0.  0.
         12    1    1    2    0    0 -0.29757221284E+02  0.19631777759E+02 -0.27535701330E+02  0.45045685301E+02  0.00000000000E+00 0. -1.
         11    1    3    3    0    0  0.39353083855E+00 -0.69407646312E+00  0.10927646287E+01  0.13530496858E+01  0.51100000000E-03 0. -1.
        -11    1    3    3    0    0  0.15873791679E+02 -0.11420350335E+02  0.20250009901E+02  0.28150747154E+02  0.51100000000E-03 0.  1.
        -12    1    3    3    0    0  0.13489898767E+02 -0.75173509604E+01  0.61929268001E+01  0.16638517859E+02  0.00000000000E+00 0.  1.
</event>
<event>
 7    1  0.2472338E-008  0.4614232E+02  0.7816164E-02  0.1320468E+00
        -11   -1    0    0    0    0  0.00000000000E+00  0.00000000000E+00  0.45593999997E+02  0.45594000000E+02  0.51100000000E-03 0.  1.
         11   -1    0    0    0    0 -0.00000000000E+00 -0.00000000000E+00 -0.45593999997E+02  0.45594000000E+02  0.51100000000E-03 0. -1.
    9900012    2    1    2    0    0 -0.84265657171E+01  0.24713922908E+02  0.36705973835E+02  0.46142317516E+02  0.99999977687E+01 0.  0.
         12    1    1    2    0    0  0.84265657171E+01 -0.24713922908E+02 -0.36705973835E+02  0.45045682484E+02  0.00000000000E+00 0. -1.
         11    1    3    3    0    0 -0.11509799509E+01  0.20680006847E+00  0.57772409411E+01  0.58944070328E+01  0.51100000000E-03 0. -1.
        -11    1    3    3    0    0 -0.72818131026E+01  0.20837926640E+02  0.26081192435E+02  0.34168297994E+02  0.51100000000E-03 0.  1.
        -12    1    3    3    0    0  0.62273363989E-02  0.36691961994E+01  0.48475404581E+01  0.60796124895E+01  0.00000000000E+00 0.  1.
</event>
<event>
 7    1  0.2472338E-008  0.4614231E+02  0.7816164E-02  0.1320468E+00
        -11   -1    0    0    0    0  0.00000000000E+00  0.00000000000E+00  0.45593999997E+02  0.45594000000E+02  0.51100000000E-03 0.  1.
         11   -1    0    0    0    0 -0.00000000000E+00 -0.00000000000E+00 -0.45593999997E+02  0.45594000000E+02  0.51100000000E-03 0. -1.
    9900012    2    1    2    0    0  0.35807145481E+02  0.22763827844E+02  0.15125154573E+02  0.46142314008E+02  0.99999657794E+01 0.  0.
         12    1    1    2    0    0 -0.35807145481E+02 -0.22763827844E+02 -0.15125154573E+02  0.45045685992E+02  0.00000000000E+00 0. -1.
         11    1    3    3    0    0  0.75697565182E+00  0.15812195272E+01  0.13625294479E+01  0.22203049539E+01  0.51100000000E-03 0. -1.
        -11    1    3    3    0    0  0.13069218636E+02  0.10829523362E+02  0.25536957152E+01  0.17164044222E+02  0.51100000000E-03 0.  1.
        -12    1    3    3    0    0  0.21980951193E+02  0.10353084955E+02  0.11208929410E+02  0.26757964832E+02  0.00000000000E+00 0.  1.
</event>
<event>
 7    1  0.2472338E-008  0.4614232E+02  0.7816164E-02  0.1320468E+00
        -11   -1    0    0    0    0  0.00000000000E+00  0.00000000000E+00  0.45593999997E+02  0.45594000000E+02  0.51100000000E-03 0. -1.
         11   -1    0    0    0    0 -0.00000000000E+00 -0.00000000000E+00 -0.45593999997E+02  0.45594000000E+02  0.51100000000E-03 0.  1.
    9900012    2    1    2    0    0 -0.12995754583E+02 -0.31441561230E+02 -0.29523754312E+02  0.46142317872E+02  0.10000001009E+02 0.  0.
         12    1    1    2    0    0  0.12995754583E+02  0.31441561230E+02  0.29523754312E+02  0.45045682128E+02  0.00000000000E+00 0. -1.
         11    1    3    3    0    0 -0.94611426577E+00 -0.13365930174E+01 -0.17443888837E+00  0.16468279464E+01  0.51100000000E-03 0. -1.
        -11    1    3    3    0    0 -0.69946041605E+01 -0.17614446881E+02 -0.11635450275E+02  0.22239085630E+02  0.51100000000E-03 0.  1.
         12    1    3    3    0    0 -0.50550361572E+01 -0.12490521331E+02 -0.17713865148E+02  0.22256404295E+02  0.00000000000E+00 0. -1.
</event>
<event>
 7    1  0.2472338E-008  0.4614232E+02  0.7816164E-02  0.1320468E+00
        -11   -1    0    0    0    0  0.00000000000E+00  0.00000000000E+00  0.45593999997E+02  0.45594000000E+02  0.51100000000E-03 0.  1.
         11   -1    0    0    0    0 -0.00000000000E+00 -0.00000000000E+00 -0.45593999997E+02  0.45594000000E+02  0.51100000000E-03 0. -1.
    9900012    2    1    2    0    0  0.17247326304E+02 -0.30470911276E+02  0.28340196088E+02  0.46142318598E+02  0.10000007634E+02 0.  0.
         12    1    1    2    0    0 -0.17247326304E+02  0.30470911276E+02 -0.28340196088E+02  0.45045681402E+02  0.00000000000E+00 0. -1.
         11    1    3    3    0    0  0.28144540767E+01 -0.67041749763E+01  0.59874547422E+01  0.94189558027E+01  0.51100000000E-03 0. -1.
        -11    1    3    3    0    0  0.32367002609E+01 -0.26253144282E+01  0.28631460093E+00  0.41773772558E+01  0.51100000000E-03 0.  1.
        -12    1    3    3    0    0  0.11196171967E+02 -0.21141421871E+02  0.22066426745E+02  0.32545985540E+02  0.00000000000E+00 0.  1.
</event>
<event>
 7    1  0.2472338E-008  0.4614232E+02  0.7816164E-02  0.1320468E+00
        -11   -1    0    0    0    0  0.00000000000E+00  0.00000000000E+00  0.45593999997E+02  0.45594000000E+02  0.51100000000E-03 0.  1.
         11   -1    0    0    0    0 -0.00000000000E+00 -0.00000000000E+00 -0.45593999997E+02  0.45594000000E+02  0.51100000000E-03 0. -1.
    9900012    2    1    2    0    0 -0.10538815265E+02  0.39082327293E+02  0.19764072311E+02  0.46142317763E+02  0.10000000018E+02 0.  0.
         12    1    1    2    0    0  0.10538815265E+02 -0.39082327293E+02 -0.19764072311E+02  0.45045682237E+02  0.00000000000E+00 0. -1.
         11    1    3    3    0    0 -0.12119406365E+01  0.76075913958E+00  0.82071375798E+00  0.16495835561E+01  0.51100000000E-03 0.  1.
        -11    1    3    3    0    0 -0.91474362641E+01  0.20794314958E+02  0.10131034992E+02  0.24874022494E+02  0.51100000000E-03 0. -1.
         12    1    3    3    0    0 -0.17943836445E+00  0.17527253196E+02  0.88123235613E+01  0.19618711713E+02  0.00000000000E+00 0. -1.
</event>
<event>
 7    1  0.2472338E-008  0.4614233E+02  0.7816164E-02  0.1320468E+00
        -11   -1    0    0    0    0  0.00000000000E+00  0.00000000000E+00  0.45593999997E+02  0.45594000000E+02  0.51100000000E-03 0. -1.
         11   -1    0    0    0    0 -0.00000000000E+00 -0.00000000000E+00 -0.45593999997E+02  0.45594000000E+02  0.51100000000E-03 0.  1.
    9900012    2    1    2    0    0  0.17306297287E+02 -0.40209756384E+02  0.10619804127E+02  0.46142326802E+02  0.10000082438E+02 0.  0.
         12    1    1    2    0    0 -0.17306297287E+02  0.40209756384E+02 -0.10619804127E+02  0.45045673198E+02  0.00000000000E+00 0. -1.
         11    1    3    3    0    0 -0.53867207393E+00 -0.20940367168E+01  0.22387950896E+01  0.31124525841E+01  0.51100000000E-03 0. -1.
        -11    1    3    3    0    0  0.71772643517E+01 -0.18788204158E+02  0.33804229088E+01  0.20394533541E+02  0.51100000000E-03 0.  1.
         12    1    3    3    0    0  0.10667705009E+02 -0.19327515509E+02  0.50005861289E+01  0.22635340676E+02  0.00000000000E+00 0. -1.
</event>
<event>
 7    1  0.2472338E-008  0.4614231E+02  0.7816164E-02  0.1320468E+00
        -11   -1    0    0    0    0  0.00000000000E+00  0.00000000000E+00  0.45593999997E+02  0.45594000000E+02  0.51100000000E-03 0. -1.
         11   -1    0    0    0    0 -0.00000000000E+00 -0.00000000000E+00 -0.45593999997E+02  0.45594000000E+02  0.51100000000E-03 0.  1.
    9900012    2    1    2    0    0 -0.93380625285E+01  0.37663570291E+02 -0.22877285310E+02  0.46142310728E+02  0.99999358653E+01 0.  0.
         12    1    1    2    0    0  0.93380625285E+01 -0.37663570291E+02  0.22877285310E+02  0.45045689272E+02  0.00000000000E+00 0. -1.
         11    1    3    3    0    0 -0.63724147125E+01  0.90083451611E+01 -0.51973535142E+01  0.12197148668E+02  0.51100000000E-03 0. -1.
        -11    1    3    3    0    0 -0.21650036966E+01  0.78120893298E+01 -0.53977898404E+01  0.97392051075E+01  0.51100000000E-03 0.  1.
        -12    1    3    3    0    0 -0.80064411938E+00  0.20843135800E+02 -0.12282141956E+02  0.24205956953E+02  0.00000000000E+00 0.  1.
</event>
<event>
 7    1  0.2472338E-008  0.4614232E+02  0.7816164E-02  0.1320468E+00
        -11   -1    0    0    0    0  0.00000000000E+00  0.00000000000E+00  0.45593999997E+02  0.45594000000E+02  0.51100000000E-03 0.  1.
         11   -1    0    0    0    0 -0.00000000000E+00 -0.00000000000E+00 -0.45593999997E+02  0.45594000000E+02  0.51100000000E-03 0. -1.
    9900012    2    1    2    0    0 -0.15729416821E+02  0.28502186567E+02  0.31133973524E+02  0.46142317632E+02  0.99999988200E+01 0.  0.
         12    1    1    2    0    0  0.15729416821E+02 -0.28502186567E+02 -0.31133973524E+02  0.45045682368E+02  0.00000000000E+00 0. -1.
         11    1    3    3    0    0 -0.34023995817E+01  0.39369538265E+01  0.99205351458E+01  0.11202363420E+02  0.51100000000E-03 0. -1.
        -11    1    3    3    0    0 -0.52691319922E+01  0.14830877058E+02  0.12099014287E+02  0.19852073273E+02  0.51100000000E-03 0.  1.
        -12    1    3    3    0    0 -0.70578852473E+01  0.97343556828E+01  0.91144240911E+01  0.15087880939E+02  0.00000000000E+00 0.  1.
</event>
<event>
 7    1  0.2472338E-008  0.4614232E+02  0.7816164E-02  0.1320468E+00
        -11   -1    0    0    0    0  0.00000000000E+00  0.00000000000E+00  0.45593999997E+02  0.45594000000E+02  0.51100000000E-03 0.  1.
         11   -1    0    0    0    0 -0.00000000000E+00 -0.00000000000E+00 -0.45593999997E+02  0.45594000000E+02  0.51100000000E-03 0. -1.
    9900012    2    1    2    0    0 -0.29704605228E+02 -0.31112043766E+02  0.13371262167E+02  0.46142317732E+02  0.99999997310E+01 0.  0.
         12    1    1    2    0    0  0.29704605228E+02  0.31112043766E+02 -0.13371262167E+02  0.45045682268E+02  0.00000000000E+00 0. -1.
         11    1    3    3    0    0 -0.61979385428E+01 -0.26128872810E+01  0.18291555144E+00  0.67286759830E+01  0.51100000000E-03 0. -1.
        -11    1    3    3    0    0 -0.18812319719E+02 -0.24604798306E+02  0.10105860446E+02  0.32579562436E+02  0.51100000000E-03 0.  1.
         12    1    3    3    0    0 -0.46943469662E+01 -0.38943581794E+01  0.30824861693E+01  0.68340793127E+01  0.00000000000E+00 0. -1.
</event>
<event>
 7    1  0.2472338E-008  0.4614232E+02  0.7816164E-02  0.1320468E+00
        -11   -1    0    0    0    0  0.00000000000E+00  0.00000000000E+00  0.45593999997E+02  0.45594000000E+02  0.51100000000E-03 0. -1.
         11   -1    0    0    0    0 -0.00000000000E+00 -0.00000000000E+00 -0.45593999997E+02  0.45594000000E+02  0.51100000000E-03 0.  1.
    9900012    2    1    2    0    0  0.32925857914E+02 -0.27320572863E+01 -0.30619230620E+02  0.46142317187E+02  0.99999947605E+01 0.  0.
         12    1    1    2    0    0 -0.32925857914E+02  0.27320572863E+01  0.30619230620E+02  0.45045682813E+02  0.00000000000E+00 0. -1.
         11    1    3    3    0    0  0.15238590440E+01  0.73038273587E+00 -0.21495155729E+01  0.27342316629E+01  0.51100000000E-03 0. -1.
        -11    1    3    3    0    0  0.14459289979E+02 -0.59057813025E+01 -0.12640291293E+02  0.20092941142E+02  0.51100000000E-03 0.  1.
        -12    1    3    3    0    0  0.16942708891E+02  0.24433412803E+01 -0.15829423754E+02  0.23315144382E+02  0.00000000000E+00 0.  1.
</event>
<event>
 7    1  0.2472338E-008  0.4614231E+02  0.7816164E-02  0.1320468E+00
        -11   -1    0    0    0    0  0.00000000000E+00  0.00000000000E+00  0.45593999997E+02  0.45594000000E+02  0.51100000000E-03 0.  1.
         11   -1    0    0    0    0 -0.00000000000E+00 -0.00000000000E+00 -0.45593999997E+02  0.45594000000E+02  0.51100000000E-03 0. -1.
    9900012    2    1    2    0    0  0.36568393829E+02 -0.16867186260E+02  0.20183274651E+02  0.46142312357E+02  0.99999507228E+01 0.  0.
         12    1    1    2    0    0 -0.36568393829E+02  0.16867186260E+02 -0.20183274651E+02  0.45045687643E+02  0.00000000000E+00 0. -1.
         11    1    3    3    0    0  0.13747831305E+02 -0.10844515181E+02  0.71852832389E+01  0.18927088276E+02  0.51100000000E-03 0. -1.
        -11    1    3    3    0    0  0.16652600436E+01 -0.14923232354E+01  0.77717734161E+00  0.23673032195E+01  0.51100000000E-03 0.  1.
        -12    1    3    3    0    0  0.21155302481E+02 -0.45303478435E+01  0.12220814070E+02  0.24847920862E+02  0.00000000000E+00 0.  1.
</event>
<event>
 7    1  0.2472338E-008  0.4614232E+02  0.7816164E-02  0.1320468E+00
        -11   -1    0    0    0    0  0.00000000000E+00  0.00000000000E+00  0.45593999997E+02  0.45594000000E+02  0.51100000000E-03 0. -1.
         11   -1    0    0    0    0 -0.00000000000E+00 -0.00000000000E+00 -0.45593999997E+02  0.45594000000E+02  0.51100000000E-03 0.  1.
    9900012    2    1    2    0    0  0.18015105639E+02  0.39187343752E+01 -0.41100036382E+02  0.46142317622E+02  0.99999987318E+01 0.  0.
         12    1    1    2    0    0 -0.18015105639E+02 -0.39187343752E+01  0.41100036382E+02  0.45045682378E+02  0.00000000000E+00 0. -1.
         11    1    3    3    0    0  0.68141708742E+01  0.55848868353E+01 -0.18118039509E+02  0.20146643432E+02  0.51100000000E-03 0. -1.
        -11    1    3    3    0    0  0.59525631871E+01  0.13385001145E+01 -0.11648171844E+02  0.13149315519E+02  0.51100000000E-03 0.  1.
        -12    1    3    3    0    0  0.52483715772E+01 -0.30046525746E+01 -0.11333825030E+02  0.12846358671E+02  0.00000000000E+00 0.  1.
</event>
<event>
 7    1  0.2472338E-008  0.4614232E+02  0.7816164E-02  0.1320468E+00
        -11   -1    0    0    0    0  0.00000000000E+00  0.00000000000E+00  0.45593999997E+02  0.45594000000E+02  0.51100000000E-03 0. -1.
         11   -1    0    0    0    0 -0.00000000000E+00 -0.00000000000E+00 -0.45593999997E+02  0.45594000000E+02  0.51100000000E-03 0.  1.
    9900012    2    1    2    0    0  0.43896866334E+01  0.34869659356E+02 -0.28177135396E+02  0.46142318171E+02  0.10000003735E+02 0.  0.
         12    1    1    2    0    0 -0.43896866334E+01 -0.34869659356E+02  0.28177135396E+02  0.45045681829E+02  0.00000000000E+00 0. -1.
         11    1    3    3    0    0 -0.17130148094E+01  0.75562745171E+01 -0.31143316609E+01  0.83504949716E+01  0.51100000000E-03 0. -1.
        -11    1    3    3    0    0  0.86306259392E+00  0.38333338791E+01 -0.56326880932E+01  0.68677872045E+01  0.51100000000E-03 0.  1.
        -12    1    3    3    0    0  0.52396388489E+01  0.23480050960E+02 -0.19430115642E+02  0.30924035995E+02  0.00000000000E+00 0.  1.
</event>
<event>
 7    1  0.2472338E-008  0.4614232E+02  0.7816164E-02  0.1320468E+00
        -11   -1    0    0    0    0  0.00000000000E+00  0.00000000000E+00  0.45593999997E+02  0.45594000000E+02  0.51100000000E-03 0. -1.
         11   -1    0    0    0    0 -0.00000000000E+00 -0.00000000000E+00 -0.45593999997E+02  0.45594000000E+02  0.51100000000E-03 0.  1.
    9900012    2    1    2    0    0  0.28564981074E+02  0.59067060411E+01 -0.34325882733E+02  0.46142317128E+02  0.99999942246E+01 0.  0.
         12    1    1    2    0    0 -0.28564981074E+02 -0.59067060411E+01  0.34325882733E+02  0.45045682872E+02  0.00000000000E+00 0. -1.
         11    1    3    3    0    0  0.68853946837E+01 -0.19194201462E+01 -0.59944231608E+01  0.93287696369E+01  0.51100000000E-03 0. -1.
        -11    1    3    3    0    0  0.86770809776E+01  0.22174634060E+01 -0.78244130044E+01  0.11892447913E+02  0.51100000000E-03 0.  1.
         12    1    3    3    0    0  0.13002505412E+02  0.56086627812E+01 -0.20507046568E+02  0.24921099577E+02  0.00000000000E+00 0. -1.
</event>
<event>
 7    1  0.2472338E-008  0.4614232E+02  0.7816164E-02  0.1320468E+00
        -11   -1    0    0    0    0  0.00000000000E+00  0.00000000000E+00  0.45593999997E+02  0.45594000000E+02  0.51100000000E-03 0.  1.
         11   -1    0    0    0    0 -0.00000000000E+00 -0.00000000000E+00 -0.45593999997E+02  0.45594000000E+02  0.51100000000E-03 0. -1.
    9900012    2    1    2    0    0  0.27791108601E+02  0.72892007428E+01  0.34693447893E+02  0.46142317727E+02  0.99999996901E+01 0.  0.
         12    1    1    2    0    0 -0.27791108601E+02 -0.72892007428E+01 -0.34693447893E+02  0.45045682273E+02  0.00000000000E+00 0. -1.
         11    1    3    3    0    0 -0.40681715015E+00 -0.52821912279E+00  0.12472186467E+01  0.14142383990E+01  0.51100000000E-03 0. -1.
        -11    1    3    3    0    0  0.15905609845E+02  0.66249281054E+01  0.17500024703E+02  0.24558684041E+02  0.51100000000E-03 0.  1.
        -12    1    3    3    0    0  0.12292315906E+02  0.11924917601E+01  0.15946204543E+02  0.20169395287E+02  0.00000000000E+00 0.  1.
</event>
<event>
 7    1  0.2472338E-008  0.4614232E+02  0.7816164E-02  0.1320468E+00
        -11   -1    0    0    0    0  0.00000000000E+00  0.00000000000E+00  0.45593999997E+02  0.45594000000E+02  0.51100000000E-03 0. -1.
         11   -1    0    0    0    0 -0.00000000000E+00 -0.00000000000E+00 -0.45593999997E+02  0.45594000000E+02  0.51100000000E-03 0.  1.
    9900012    2    1    2    0    0 -0.17693278414E+02 -0.38367032959E+02 -0.15621526973E+02  0.46142318474E+02  0.10000006504E+02 0.  0.
         12    1    1    2    0    0  0.17693278414E+02  0.38367032959E+02  0.15621526973E+02  0.45045681526E+02  0.00000000000E+00 0. -1.
         11    1    3    3    0    0 -0.20429126199E+00 -0.11537995793E+01  0.81492748753E+00  0.14272685312E+01  0.51100000000E-03 0. -1.
        -11    1    3    3    0    0 -0.10393181210E+02 -0.27419617854E+02 -0.13432980647E+02  0.32253660695E+02  0.51100000000E-03 0.  1.
         12    1    3    3    0    0 -0.70958059423E+01 -0.97936155258E+01 -0.30034738136E+01  0.12461389248E+02  0.00000000000E+00 0. -1.
</event>
<event>
 7    1  0.2472338E-008  0.4614232E+02  0.7816164E-02  0.1320468E+00
        -11   -1    0    0    0    0  0.00000000000E+00  0.00000000000E+00  0.45593999997E+02  0.45594000000E+02  0.51100000000E-03 0.  1.
         11   -1    0    0    0    0 -0.00000000000E+00 -0.00000000000E+00 -0.45593999997E+02  0.45594000000E+02  0.51100000000E-03 0. -1.
    9900012    2    1    2    0    0 -0.32005634252E+02  0.55701179767E+01  0.31204591609E+02  0.46142319013E+02  0.10000011417E+02 0.  0.
         12    1    1    2    0    0  0.32005634252E+02 -0.55701179767E+01 -0.31204591609E+02  0.45045680987E+02  0.00000000000E+00 0. -1.
         11    1    3    3    0    0 -0.97546598233E+01  0.53364282702E+01  0.10924024366E+02  0.15587339849E+02  0.51100000000E-03 0. -1.
        -11    1    3    3    0    0 -0.17105541952E+02  0.14785768235E+01  0.17722843629E+02  0.24675594045E+02  0.51100000000E-03 0.  1.
         12    1    3    3    0    0 -0.51454324760E+01 -0.12448871170E+01  0.25577236130E+01  0.58793851192E+01  0.00000000000E+00 0. -1.
</event>
<event>
 7    1  0.2472338E-008  0.4614232E+02  0.7816164E-02  0.1320468E+00
        -11   -1    0    0    0    0  0.00000000000E+00  0.00000000000E+00  0.45593999997E+02  0.45594000000E+02  0.51100000000E-03 0.  1.
         11   -1    0    0    0    0 -0.00000000000E+00 -0.00000000000E+00 -0.45593999997E+02  0.45594000000E+02  0.51100000000E-03 0. -1.
    9900012    2    1    2    0    0 -0.13612848284E+02 -0.11865878492E+02  0.41267478464E+02  0.46142317748E+02  0.99999998779E+01 0.  0.
         12    1    1    2    0    0  0.13612848284E+02  0.11865878492E+02 -0.41267478464E+02  0.45045682252E+02  0.00000000000E+00 0. -1.
         11    1    3    3    0    0  0.19363388869E+00  0.11374454012E+01  0.18482171703E+01  0.21788031332E+01  0.51100000000E-03 0. -1.
        -11    1    3    3    0    0  0.10459278390E+00 -0.12486731622E+01  0.24807529134E+01  0.27792552231E+01  0.51100000000E-03 0.  1.
        -12    1    3    3    0    0 -0.13911074957E+02 -0.11754650731E+02  0.36938508380E+02  0.41184259391E+02  0.00000000000E+00 0.  1.
</event>
<event>
 7    1  0.2472338E-008  0.4614232E+02  0.7816164E-02  0.1320468E+00
        -11   -1    0    0    0    0  0.00000000000E+00  0.00000000000E+00  0.45593999997E+02  0.45594000000E+02  0.51100000000E-03 0. -1.
         11   -1    0    0    0    0 -0.00000000000E+00 -0.00000000000E+00 -0.45593999997E+02  0.45594000000E+02  0.51100000000E-03 0.  1.
    9900012    2    1    2    0    0 -0.39200079310E+02  0.22144979561E+02 -0.14377754062E+01  0.46142317235E+02  0.99999952022E+01 0.  0.
         12    1    1    2    0    0  0.39200079310E+02 -0.22144979561E+02  0.14377754062E+01  0.45045682765E+02  0.00000000000E+00 0. -1.
         11    1    3    3    0    0 -0.11077808424E+01  0.25125180629E+01  0.11214200129E+01  0.29660594258E+01  0.51100000000E-03 0. -1.
        -11    1    3    3    0    0 -0.15833273347E+02  0.74755803638E+01  0.11354445924E+01  0.17546112998E+02  0.51100000000E-03 0.  1.
         12    1    3    3    0    0 -0.22259025120E+02  0.12156881134E+02 -0.36946400115E+01  0.25630144811E+02  0.00000000000E+00 0. -1.
</event>
<event>
 7    1  0.2472338E-008  0.4614232E+02  0.7816164E-02  0.1320468E+00
        -11   -1    0    0    0    0  0.00000000000E+00  0.00000000000E+00  0.45593999997E+02  0.45594000000E+02  0.51100000000E-03 0. -1.
         11   -1    0    0    0    0 -0.00000000000E+00 -0.00000000000E+00 -0.45593999997E+02  0.45594000000E+02  0.51100000000E-03 0.  1.
    9900012    2    1    2    0    0  0.31868484449E+02  0.20311679818E+02 -0.24514257605E+02  0.46142318031E+02  0.10000002462E+02 0.  0.
         12    1    1    2    0    0 -0.31868484449E+02 -0.20311679818E+02  0.24514257605E+02  0.45045681969E+02  0.00000000000E+00 0. -1.
         11    1    3    3    0    0  0.63365993480E+00 -0.37886359762E+00 -0.17113727621E+01  0.18638292654E+01  0.51100000000E-03 0. -1.
        -11    1    3    3    0    0  0.80939595672E+01  0.68622885577E+01 -0.93842066042E+01  0.14165681049E+02  0.51100000000E-03 0.  1.
        -12    1    3    3    0    0  0.23140864947E+02  0.13828254858E+02 -0.13418678239E+02  0.30112807717E+02  0.00000000000E+00 0.  1.
</event>
<event>
 7    1  0.2472338E-008  0.4614232E+02  0.7816164E-02  0.1320468E+00
        -11   -1    0    0    0    0  0.00000000000E+00  0.00000000000E+00  0.45593999997E+02  0.45594000000E+02  0.51100000000E-03 0.  1.
         11   -1    0    0    0    0 -0.00000000000E+00 -0.00000000000E+00 -0.45593999997E+02  0.45594000000E+02  0.51100000000E-03 0. -1.
    9900012    2    1    2    0    0 -0.19470293806E+02 -0.12200283072E+02  0.38744991340E+02  0.46142316501E+02  0.99999885106E+01 0.  0.
         12    1    1    2    0    0  0.19470293806E+02  0.12200283072E+02 -0.38744991340E+02  0.45045683499E+02  0.00000000000E+00 0. -1.
         11    1    3    3    0    0 -0.11759141444E+02 -0.34913323712E+01  0.23057918793E+02  0.26117703355E+02  0.51100000000E-03 0. -1.
        -11    1    3    3    0    0 -0.16320418859E+01 -0.16280036446E+01  0.77311876386E+00  0.24313924958E+01  0.51100000000E-03 0.  1.
        -12    1    3    3    0    0 -0.60791104760E+01 -0.70809470564E+01  0.14913953783E+02  0.17593220650E+02  0.00000000000E+00 0.  1.
</event>
<event>
 7    1  0.2472338E-008  0.4614232E+02  0.7816164E-02  0.1320468E+00
        -11   -1    0    0    0    0  0.00000000000E+00  0.00000000000E+00  0.45593999997E+02  0.45594000000E+02  0.51100000000E-03 0.  1.
         11   -1    0    0    0    0 -0.00000000000E+00 -0.00000000000E+00 -0.45593999997E+02  0.45594000000E+02  0.51100000000E-03 0. -1.
    9900012    2    1    2    0    0  0.63853127701E+01 -0.51711467922E+01  0.44289958449E+02  0.46142318767E+02  0.10000009172E+02 0.  0.
         12    1    1    2    0    0 -0.63853127701E+01  0.51711467922E+01 -0.44289958449E+02  0.45045681233E+02  0.00000000000E+00 0. -1.
         11    1    3    3    0    0  0.62387000745E+00  0.91179662036E+00  0.61083588728E+00  0.12624213264E+01  0.51100000000E-03 0.  1.
        -11    1    3    3    0    0  0.16944483204E+01 -0.52300332314E+01  0.16674651523E+02  0.17557574046E+02  0.51100000000E-03 0. -1.
        -12    1    3    3    0    0  0.40669944422E+01 -0.85291018124E+00  0.27004471039E+02  0.27322323394E+02  0.00000000000E+00 0.  1.
</event>
<event>
 7    1  0.2472338E-008  0.4614232E+02  0.7816164E-02  0.1320468E+00
        -11   -1    0    0    0    0  0.00000000000E+00  0.00000000000E+00  0.45593999997E+02  0.45594000000E+02  0.51100000000E-03 0.  1.
         11   -1    0    0    0    0 -0.00000000000E+00 -0.00000000000E+00 -0.45593999997E+02  0.45594000000E+02  0.51100000000E-03 0. -1.
    9900012    2    1    2    0    0 -0.70904919231E+01 -0.25075341140E+02  0.36743239880E+02  0.46142317789E+02  0.10000000252E+02 0.  0.
         12    1    1    2    0    0  0.70904919231E+01  0.25075341140E+02 -0.36743239880E+02  0.45045682211E+02  0.00000000000E+00 0. -1.
         11    1    3    3    0    0 -0.37548616955E+01 -0.12770696106E+02  0.20930344668E+02  0.24804616376E+02  0.51100000000E-03 0. -1.
        -11    1    3    3    0    0  0.62656880832E+00 -0.13956382370E+01  0.58343853342E+01  0.60316205989E+01  0.51100000000E-03 0.  1.
         12    1    3    3    0    0 -0.39621990359E+01 -0.10909006797E+02  0.99785098784E+01  0.15306080814E+02  0.00000000000E+00 0. -1.
</event>
<event>
 7    1  0.2472338E-008  0.4614232E+02  0.7816164E-02  0.1320468E+00
        -11   -1    0    0    0    0  0.00000000000E+00  0.00000000000E+00  0.45593999997E+02  0.45594000000E+02  0.51100000000E-03 0. -1.
         11   -1    0    0    0    0 -0.00000000000E+00 -0.00000000000E+00 -0.45593999997E+02  0.45594000000E+02  0.51100000000E-03 0.  1.
    9900012    2    1    2    0    0  0.31757032917E+02  0.31903767874E+02  0.16594859355E+01  0.46142318322E+02  0.10000005111E+02 0.  0.
         12    1    1    2    0    0 -0.31757032917E+02 -0.31903767874E+02 -0.16594859355E+01  0.45045681678E+02  0.00000000000E+00 0. -1.
         11    1    3    3    0    0  0.92394859270E+01  0.58866042588E+01  0.27460392734E+01  0.11294288019E+02  0.51100000000E-03 0. -1.
        -11    1    3    3    0    0  0.13813646911E+02  0.12156853194E+02 -0.16225224134E+01  0.18472641928E+02  0.51100000000E-03 0.  1.
        -12    1    3    3    0    0  0.87039000788E+01  0.13860310422E+02  0.53596907560E+00  0.16375388375E+02  0.00000000000E+00 0.  1.
</event>
<event>
 7    1  0.2472338E-008  0.4614232E+02  0.7816164E-02  0.1320468E+00
        -11   -1    0    0    0    0  0.00000000000E+00  0.00000000000E+00  0.45593999997E+02  0.45594000000E+02  0.51100000000E-03 0.  1.
         11   -1    0    0    0    0 -0.00000000000E+00 -0.00000000000E+00 -0.45593999997E+02  0.45594000000E+02  0.51100000000E-03 0. -1.
    9900012    2    1    2    0    0 -0.19492466722E+02 -0.13995398881E+02  0.38121989088E+02  0.46142317623E+02  0.99999987423E+01 0.  0.
         12    1    1    2    0    0  0.19492466722E+02  0.13995398881E+02 -0.38121989088E+02  0.45045682377E+02  0.00000000000E+00 0. -1.
         11    1    3    3    0    0  0.28787788147E+00  0.78276067388E+00  0.82380310776E+00  0.11722797314E+01  0.51100000000E-03 0. -1.
        -11    1    3    3    0    0 -0.14078386631E+02 -0.78470546273E+01  0.22891985848E+02  0.27996790044E+02  0.51100000000E-03 0.  1.
        -12    1    3    3    0    0 -0.57019579726E+01 -0.69311049271E+01  0.14406200132E+02  0.16973247847E+02  0.00000000000E+00 0.  1.
</event>
<event>
 7    1  0.2472338E-008  0.4614232E+02  0.7816164E-02  0.1320468E+00
        -11   -1    0    0    0    0  0.00000000000E+00  0.00000000000E+00  0.45593999997E+02  0.45594000000E+02  0.51100000000E-03 0.  1.
         11   -1    0    0    0    0 -0.00000000000E+00 -0.00000000000E+00 -0.45593999997E+02  0.45594000000E+02  0.51100000000E-03 0. -1.
    9900012    2    1    2    0    0  0.23476189004E+02  0.11120913518E+02  0.36800913952E+02  0.46142318350E+02  0.10000005372E+02 0.  0.
         12    1    1    2    0    0 -0.23476189004E+02 -0.11120913518E+02 -0.36800913952E+02  0.45045681650E+02  0.00000000000E+00 0. -1.
         11    1    3    3    0    0  0.26670485997E+01 -0.71338533804E+00  0.45337220152E+01  0.53081731741E+01  0.51100000000E-03 0. -1.
        -11    1    3    3    0    0  0.10150445873E+02  0.99256870191E+01  0.18325690875E+02  0.23181496081E+02  0.51100000000E-03 0.  1.
        -12    1    3    3    0    0  0.10658694531E+02  0.19086118372E+01  0.13941501061E+02  0.17652649095E+02  0.00000000000E+00 0.  1.
</event>
<event>
 7    1  0.2472338E-008  0.4614232E+02  0.7816164E-02  0.1320468E+00
        -11   -1    0    0    0    0  0.00000000000E+00  0.00000000000E+00  0.45593999997E+02  0.45594000000E+02  0.51100000000E-03 0.  1.
         11   -1    0    0    0    0 -0.00000000000E+00 -0.00000000000E+00 -0.45593999997E+02  0.45594000000E+02  0.51100000000E-03 0. -1.
    9900012    2    1    2    0    0 -0.23889647376E+01  0.18301280856E+02  0.41090989121E+02  0.46142318516E+02  0.10000006879E+02 0.  0.
         12    1    1    2    0    0  0.23889647376E+01 -0.18301280856E+02 -0.41090989121E+02  0.45045681484E+02  0.00000000000E+00 0. -1.
         11    1    3    3    0    0  0.16504476990E+01  0.45159946396E+00  0.76878807988E+01  0.78760034993E+01  0.51100000000E-03 0. -1.
        -11    1    3    3    0    0 -0.36664646493E+01  0.85486942763E+01  0.18216409265E+02  0.20453867694E+02  0.51100000000E-03 0.  1.
         12    1    3    3    0    0 -0.37294778725E+00  0.93009871158E+01  0.15186699057E+02  0.17812447323E+02  0.00000000000E+00 0. -1.
</event>
<event>
 7    1  0.2472338E-008  0.4614232E+02  0.7816164E-02  0.1320468E+00
        -11   -1    0    0    0    0  0.00000000000E+00  0.00000000000E+00  0.45593999997E+02  0.45594000000E+02  0.51100000000E-03 0. -1.
         11   -1    0    0    0    0 -0.00000000000E+00 -0.00000000000E+00 -0.45593999997E+02  0.45594000000E+02  0.51100000000E-03 0.  1.
    9900012    2    1    2    0    0  0.31708201367E+02 -0.24754357595E+02  0.20271290476E+02  0.46142317949E+02  0.10000001710E+02 0.  0.
         12    1    1    2    0    0 -0.31708201367E+02  0.24754357595E+02 -0.20271290476E+02  0.45045682051E+02  0.00000000000E+00 0. -1.
         11    1    3    3    0    0  0.10440839226E+02 -0.69195844856E+01  0.10777784085E+02  0.16524297360E+02  0.51100000000E-03 0. -1.
        -11    1    3    3    0    0  0.21567358125E+01 -0.27934349613E+01  0.51444343770E-01  0.35295091769E+01  0.51100000000E-03 0.  1.
        -12    1    3    3    0    0  0.19110626329E+02 -0.15041338148E+02  0.94420620474E+01  0.26088511412E+02  0.00000000000E+00 0.  1.
</event>
<event>
 7    1  0.2472338E-008  0.4614232E+02  0.7816164E-02  0.1320468E+00
        -11   -1    0    0    0    0  0.00000000000E+00  0.00000000000E+00  0.45593999997E+02  0.45594000000E+02  0.51100000000E-03 0.  1.
         11   -1    0    0    0    0 -0.00000000000E+00 -0.00000000000E+00 -0.45593999997E+02  0.45594000000E+02  0.51100000000E-03 0. -1.
    9900012    2    1    2    0    0 -0.32706736404E+02 -0.27642523163E+02  0.13974035953E+02  0.46142319033E+02  0.10000011595E+02 0.  0.
         12    1    1    2    0    0  0.32706736404E+02  0.27642523163E+02 -0.13974035953E+02  0.45045680967E+02  0.00000000000E+00 0. -1.
         11    1    3    3    0    0 -0.13493932571E+01  0.19612821702E+00 -0.10785462324E+00  0.13678308816E+01  0.51100000000E-03 0. -1.
        -11    1    3    3    0    0 -0.12883688472E+02 -0.98343104441E+01  0.21412300822E+01  0.16348943607E+02  0.51100000000E-03 0.  1.
        -12    1    3    3    0    0 -0.18473654675E+02 -0.18004340936E+02  0.11940660494E+02  0.28425544544E+02  0.00000000000E+00 0.  1.
</event>
<event>
 7    1  0.2472338E-008  0.4614232E+02  0.7816164E-02  0.1320468E+00
        -11   -1    0    0    0    0  0.00000000000E+00  0.00000000000E+00  0.45593999997E+02  0.45594000000E+02  0.51100000000E-03 0.  1.
         11   -1    0    0    0    0 -0.00000000000E+00 -0.00000000000E+00 -0.45593999997E+02  0.45594000000E+02  0.51100000000E-03 0. -1.
    9900012    2    1    2    0    0  0.40916208985E+02 -0.16052342580E+02  0.98640532837E+01  0.46142318662E+02  0.10000008217E+02 0.  0.
         12    1    1    2    0    0 -0.40916208985E+02  0.16052342580E+02 -0.98640532837E+01  0.45045681338E+02  0.00000000000E+00 0. -1.
         11    1    3    3    0    0  0.21318647738E+02 -0.10505987280E+02  0.58414282785E+01  0.24474125004E+02  0.51100000000E-03 0. -1.
        -11    1    3    3    0    0  0.13889389261E+02 -0.32368203501E+01  0.55837492335E+01  0.15315691163E+02  0.51100000000E-03 0.  1.
         12    1    3    3    0    0  0.57081719855E+01 -0.23095349502E+01 -0.15611242283E+01  0.63525024958E+01  0.00000000000E+00 0. -1.
</event>
<event>
 7    1  0.2472338E-008  0.4614232E+02  0.7816164E-02  0.1320468E+00
        -11   -1    0    0    0    0  0.00000000000E+00  0.00000000000E+00  0.45593999997E+02  0.45594000000E+02  0.51100000000E-03 0. -1.
         11   -1    0    0    0    0 -0.00000000000E+00 -0.00000000000E+00 -0.45593999997E+02  0.45594000000E+02  0.51100000000E-03 0.  1.
    9900012    2    1    2    0    0 -0.20993446702E+02 -0.96802072606E+01 -0.38661121878E+02  0.46142316945E+02  0.99999925557E+01 0.  0.
         12    1    1    2    0    0  0.20993446702E+02  0.96802072606E+01  0.38661121878E+02  0.45045683055E+02  0.00000000000E+00 0. -1.
         11    1    3    3    0    0 -0.45604290567E+01 -0.64626164759E+01 -0.12241936353E+02  0.14574907575E+02  0.51100000000E-03 0. -1.
        -11    1    3    3    0    0 -0.13799316003E+02 -0.31039931780E+01 -0.18948973126E+02  0.23645707404E+02  0.51100000000E-03 0.  1.
        -12    1    3    3    0    0 -0.26337016423E+01 -0.11359760673E+00 -0.74702123989E+01  0.79217019662E+01  0.00000000000E+00 0.  1.
</event>
<event>
 7    1  0.2472338E-008  0.4614232E+02  0.7816164E-02  0.1320468E+00
        -11   -1    0    0    0    0  0.00000000000E+00  0.00000000000E+00  0.45593999997E+02  0.45594000000E+02  0.51100000000E-03 0. -1.
         11   -1    0    0    0    0 -0.00000000000E+00 -0.00000000000E+00 -0.45593999997E+02  0.45594000000E+02  0.51100000000E-03 0.  1.
    9900012    2    1    2    0    0 -0.26285965578E+02 -0.22952591775E+02 -0.28484028270E+02  0.46142319607E+02  0.10000016830E+02 0.  0.
         12    1    1    2    0    0  0.26285965578E+02  0.22952591775E+02  0.28484028270E+02  0.45045680393E+02  0.00000000000E+00 0. -1.
         11    1    3    3    0    0 -0.14093624994E+02 -0.15043422826E+02 -0.13757120050E+02  0.24782921299E+02  0.51100000000E-03 0. -1.
        -11    1    3    3    0    0 -0.98795420729E+01 -0.60485795540E+01 -0.82102375104E+01  0.14198544518E+02  0.51100000000E-03 0.  1.
         12    1    3    3    0    0 -0.23127985111E+01 -0.18605893952E+01 -0.65166707099E+01  0.71608537893E+01  0.00000000000E+00 0. -1.
</event>
<event>
 7    1  0.2472338E-008  0.4614232E+02  0.7816164E-02  0.1320468E+00
        -11   -1    0    0    0    0  0.00000000000E+00  0.00000000000E+00  0.45593999997E+02  0.45594000000E+02  0.51100000000E-03 0.  1.
         11   -1    0    0    0    0 -0.00000000000E+00 -0.00000000000E+00 -0.45593999997E+02  0.45594000000E+02  0.51100000000E-03 0. -1.
    9900012    2    1    2    0    0  0.29924565509E+02  0.31818817001E+02 -0.11008939741E+02  0.46142317738E+02  0.99999997893E+01 0.  0.
         12    1    1    2    0    0 -0.29924565509E+02 -0.31818817001E+02  0.11008939741E+02  0.45045682262E+02  0.00000000000E+00 0. -1.
         11    1    3    3    0    0  0.14321484905E+02  0.11248936377E+02 -0.56102932320E+01  0.19055678679E+02  0.51100000000E-03 0. -1.
        -11    1    3    3    0    0  0.15685581324E+02  0.20501452935E+02 -0.45260485620E+01  0.26207482706E+02  0.51100000000E-03 0.  1.
        -12    1    3    3    0    0 -0.82500720384E-01  0.68427689000E-01 -0.87259794668E+00  0.87915635357E+00  0.00000000000E+00 0.  1.
</event>
<event>
 7    1  0.2472338E-008  0.4614232E+02  0.7816164E-02  0.1320468E+00
        -11   -1    0    0    0    0  0.00000000000E+00  0.00000000000E+00  0.45593999997E+02  0.45594000000E+02  0.51100000000E-03 0.  1.
         11   -1    0    0    0    0 -0.00000000000E+00 -0.00000000000E+00 -0.45593999997E+02  0.45594000000E+02  0.51100000000E-03 0. -1.
    9900012    2    1    2    0    0  0.25501871491E+02  0.41351248826E+01  0.36900796316E+02  0.46142317898E+02  0.10000001245E+02 0.  0.
         12    1    1    2    0    0 -0.25501871491E+02 -0.41351248826E+01 -0.36900796316E+02  0.45045682102E+02  0.00000000000E+00 0. -1.
         11    1    3    3    0    0  0.57364584931E+01  0.26135875123E+01  0.77425170565E+01  0.99842058452E+01  0.51100000000E-03 0. -1.
        -11    1    3    3    0    0  0.17907456273E+02  0.39244685854E+01  0.24570861333E+02  0.30656250109E+02  0.51100000000E-03 0.  1.
         12    1    3    3    0    0  0.18579567255E+01 -0.24029312150E+01  0.45874179258E+01  0.55018619434E+01  0.00000000000E+00 0. -1.
</event>
<event>
 7    1  0.2472338E-008  0.4614232E+02  0.7816164E-02  0.1320468E+00
        -11   -1    0    0    0    0  0.00000000000E+00  0.00000000000E+00  0.45593999997E+02  0.45594000000E+02  0.51100000000E-03 0.  1.
         11   -1    0    0    0    0 -0.00000000000E+00 -0.00000000000E+00 -0.45593999997E+02  0.45594000000E+02  0.51100000000E-03 0. -1.
    9900012    2    1    2    0    0 -0.41199271762E+02 -0.46031337515E+01  0.17622278448E+02  0.46142317279E+02  0.99999956055E+01 0.  0.
         12    1    1    2    0    0  0.41199271762E+02  0.46031337515E+01 -0.17622278448E+02  0.45045682721E+02  0.00000000000E+00 0. -1.
         11    1    3    3    0    0 -0.12136753603E+02 -0.67042171797E+00  0.85714651975E+01  0.14873475357E+02  0.51100000000E-03 0. -1.
        -11    1    3    3    0    0 -0.15960039337E+01  0.32071864461E+00 -0.75688312220E+00  0.17952607964E+01  0.51100000000E-03 0.  1.
        -12    1    3    3    0    0 -0.27466514226E+02 -0.42534306781E+01  0.98076963726E+01  0.29473581126E+02  0.00000000000E+00 0.  1.
</event>
<event>
 7    1  0.2472338E-008  0.4614231E+02  0.7816164E-02  0.1320468E+00
        -11   -1    0    0    0    0  0.00000000000E+00  0.00000000000E+00  0.45593999997E+02  0.45594000000E+02  0.51100000000E-03 0.  1.
         11   -1    0    0    0    0 -0.00000000000E+00 -0.00000000000E+00 -0.45593999997E+02  0.45594000000E+02  0.51100000000E-03 0. -1.
    9900012    2    1    2    0    0  0.25798313596E+02 -0.34981317816E+02  0.11826624669E+02  0.46142305072E+02  0.99998842891E+01 0.  0.
         12    1    1    2    0    0 -0.25798313596E+02  0.34981317816E+02 -0.11826624669E+02  0.45045694928E+02  0.00000000000E+00 0. -1.
         11    1    3    3    0    0  0.15978432689E+00 -0.29045848265E+01  0.15426503620E+01  0.32927062496E+01  0.51100000000E-03 0. -1.
        -11    1    3    3    0    0  0.14284455255E+01 -0.26617459986E+01 -0.88764291624E+00  0.31485327675E+01  0.51100000000E-03 0.  1.
        -12    1    3    3    0    0  0.24210083743E+02 -0.29414986990E+02  0.11171617223E+02  0.39701066055E+02  0.00000000000E+00 0.  1.
</event>
<event>
 7    1  0.2472338E-008  0.4614232E+02  0.7816164E-02  0.1320468E+00
        -11   -1    0    0    0    0  0.00000000000E+00  0.00000000000E+00  0.45593999997E+02  0.45594000000E+02  0.51100000000E-03 0.  1.
         11   -1    0    0    0    0 -0.00000000000E+00 -0.00000000000E+00 -0.45593999997E+02  0.45594000000E+02  0.51100000000E-03 0. -1.
    9900012    2    1    2    0    0  0.28954694777E+01 -0.38792135621E+02  0.22713431367E+02  0.46142317698E+02  0.99999994261E+01 0.  0.
         12    1    1    2    0    0 -0.28954694777E+01  0.38792135621E+02 -0.22713431367E+02  0.45045682302E+02  0.00000000000E+00 0. -1.
         11    1    3    3    0    0  0.57571925654E+00 -0.47527995491E+00 -0.43167915879E+00  0.86237512438E+00  0.51100000000E-03 0. -1.
        -11    1    3    3    0    0  0.31897891062E+01 -0.14100840607E+02  0.11055884434E+02  0.18200028606E+02  0.51100000000E-03 0.  1.
        -12    1    3    3    0    0 -0.87003888506E+00 -0.24216015059E+02  0.12089226092E+02  0.27079913968E+02  0.00000000000E+00 0.  1.
</event>
<event>
 7    1  0.2472338E-008  0.4614232E+02  0.7816164E-02  0.1320468E+00
        -11   -1    0    0    0    0  0.00000000000E+00  0.00000000000E+00  0.45593999997E+02  0.45594000000E+02  0.51100000000E-03 0.  1.
         11   -1    0    0    0    0 -0.00000000000E+00 -0.00000000000E+00 -0.45593999997E+02  0.45594000000E+02  0.51100000000E-03 0. -1.
    9900012    2    1    2    0    0 -0.77370754979E+01  0.28016137540E+02  0.34414345338E+02  0.46142318021E+02  0.10000002369E+02 0.  0.
         12    1    1    2    0    0  0.77370754979E+01 -0.28016137540E+02 -0.34414345338E+02  0.45045681979E+02  0.00000000000E+00 0. -1.
         11    1    3    3    0    0 -0.26990004582E+01  0.12627058832E+02  0.17179321026E+02  0.21490841989E+02  0.51100000000E-03 0. -1.
        -11    1    3    3    0    0 -0.63934070648E+01  0.13356308624E+02  0.16335383035E+02  0.22047933534E+02  0.51100000000E-03 0.  1.
         12    1    3    3    0    0  0.13553320252E+01  0.20327700832E+01  0.89964127704E+00  0.26035424976E+01  0.00000000000E+00 0. -1.
</event>
<event>
 7    1  0.2472338E-008  0.4614232E+02  0.7816164E-02  0.1320468E+00
        -11   -1    0    0    0    0  0.00000000000E+00  0.00000000000E+00  0.45593999997E+02  0.45594000000E+02  0.51100000000E-03 0.  1.
         11   -1    0    0    0    0 -0.00000000000E+00 -0.00000000000E+00 -0.45593999997E+02  0.45594000000E+02  0.51100000000E-03 0. -1.
    9900012    2    1    2    0    0 -0.25264784949E+02 -0.11483145306E+02  0.35481561745E+02  0.46142320867E+02  0.10000028326E+02 0.  0.
         12    1    1    2    0    0  0.25264784949E+02  0.11483145306E+02 -0.35481561745E+02  0.45045679133E+02  0.00000000000E+00 0. -1.
         11    1    3    3    0    0 -0.39074571186E+01 -0.71648603712E+00  0.96536698073E+00  0.40882156308E+01  0.51100000000E-03 0. -1.
        -11    1    3    3    0    0 -0.38992914274E+01 -0.25089592943E+01  0.54314537031E+01  0.71414312268E+01  0.51100000000E-03 0.  1.
        -12    1    3    3    0    0 -0.17458036403E+02 -0.82576999748E+01  0.29084741061E+02  0.34912674010E+02  0.00000000000E+00 0.  1.
</event>
<event>
 7    1  0.2472338E-008  0.4614232E+02  0.7816164E-02  0.1320468E+00
        -11   -1    0    0    0    0  0.00000000000E+00  0.00000000000E+00  0.45593999997E+02  0.45594000000E+02  0.51100000000E-03 0. -1.
         11   -1    0    0    0    0 -0.00000000000E+00 -0.00000000000E+00 -0.45593999997E+02  0.45594000000E+02  0.51100000000E-03 0.  1.
    9900012    2    1    2    0    0  0.60162977349E+01 -0.42615488631E+02  0.13298038609E+02  0.46142317182E+02  0.99999947203E+01 0.  0.
         12    1    1    2    0    0 -0.60162977349E+01  0.42615488631E+02 -0.13298038609E+02  0.45045682818E+02  0.00000000000E+00 0. -1.
         11    1    3    3    0    0 -0.11149995529E+01 -0.19063150766E+01 -0.84816259827E+00  0.23657221368E+01  0.51100000000E-03 0. -1.
        -11    1    3    3    0    0  0.10696721790E+01 -0.34523248236E+01  0.19600762693E+01  0.41115258118E+01  0.51100000000E-03 0.  1.
        -12    1    3    3    0    0  0.60616251089E+01 -0.37256848731E+02  0.12186124938E+02  0.39665069234E+02  0.00000000000E+00 0.  1.
</event>
<event>
 7    1  0.2472338E-008  0.4614232E+02  0.7816164E-02  0.1320468E+00
        -11   -1    0    0    0    0  0.00000000000E+00  0.00000000000E+00  0.45593999997E+02  0.45594000000E+02  0.51100000000E-03 0.  1.
         11   -1    0    0    0    0 -0.00000000000E+00 -0.00000000000E+00 -0.45593999997E+02  0.45594000000E+02  0.51100000000E-03 0. -1.
    9900012    2    1    2    0    0  0.33797594896E+02 -0.22853299963E+02  0.19093526195E+02  0.46142317826E+02  0.10000000590E+02 0.  0.
         12    1    1    2    0    0 -0.33797594896E+02  0.22853299963E+02 -0.19093526195E+02  0.45045682174E+02  0.00000000000E+00 0. -1.
         11    1    3    3    0    0  0.54516437523E+01 -0.45178926557E+01  0.18482390642E+01  0.73176336032E+01  0.51100000000E-03 0. -1.
        -11    1    3    3    0    0  0.18816589470E+02 -0.12425629301E+02  0.69335877777E+01  0.23590992827E+02  0.51100000000E-03 0.  1.
        -12    1    3    3    0    0  0.95293616739E+01 -0.59097780060E+01  0.10311699353E+02  0.15233691396E+02  0.00000000000E+00 0.  1.
</event>
<event>
 7    1  0.2472338E-008  0.4614232E+02  0.7816164E-02  0.1320468E+00
        -11   -1    0    0    0    0  0.00000000000E+00  0.00000000000E+00  0.45593999997E+02  0.45594000000E+02  0.51100000000E-03 0.  1.
         11   -1    0    0    0    0 -0.00000000000E+00 -0.00000000000E+00 -0.45593999997E+02  0.45594000000E+02  0.51100000000E-03 0. -1.
    9900012    2    1    2    0    0  0.41965603067E+02  0.16046636993E+02  0.32414638562E+01  0.46142317771E+02  0.10000000087E+02 0.  0.
         12    1    1    2    0    0 -0.41965603067E+02 -0.16046636993E+02 -0.32414638562E+01  0.45045682229E+02  0.00000000000E+00 0. -1.
         11    1    3    3    0    0 -0.12678435745E+00  0.62452120957E-01  0.28930957518E+00  0.32198576384E+00  0.51100000000E-03 0. -1.
        -11    1    3    3    0    0  0.19367194927E+02  0.36273801574E+01 -0.58208627027E+00  0.19712558201E+02  0.51100000000E-03 0.  1.
        -12    1    3    3    0    0  0.22725192498E+02  0.12356804715E+02  0.35342405513E+01  0.26107773806E+02  0.00000000000E+00 0.  1.
</event>
<event>
 7    1  0.2472338E-008  0.4614232E+02  0.7816164E-02  0.1320468E+00
        -11   -1    0    0    0    0  0.00000000000E+00  0.00000000000E+00  0.45593999997E+02  0.45594000000E+02  0.51100000000E-03 0.  1.
         11   -1    0    0    0    0 -0.00000000000E+00 -0.00000000000E+00 -0.45593999997E+02  0.45594000000E+02  0.51100000000E-03 0. -1.
    9900012    2    1    2    0    0 -0.35327507885E+02 -0.53514576357E+01  0.27430685224E+02  0.46142318697E+02  0.10000008532E+02 0.  0.
         12    1    1    2    0    0  0.35327507885E+02  0.53514576357E+01 -0.27430685224E+02  0.45045681303E+02  0.00000000000E+00 0. -1.
         11    1    3    3    0    0 -0.19037866928E+01 -0.20651324586E-02 -0.65847538763E+00  0.20144473519E+01  0.51100000000E-03 0. -1.
        -11    1    3    3    0    0 -0.17800302223E+02 -0.39312106524E+01  0.13271302667E+02  0.22548451192E+02  0.51100000000E-03 0.  1.
         12    1    3    3    0    0 -0.15623418970E+02 -0.14181818508E+01  0.14817857945E+02  0.21579420153E+02  0.00000000000E+00 0. -1.
</event>
<event>
 7    1  0.2472338E-008  0.4614231E+02  0.7816164E-02  0.1320468E+00
        -11   -1    0    0    0    0  0.00000000000E+00  0.00000000000E+00  0.45593999997E+02  0.45594000000E+02  0.51100000000E-03 0.  1.
         11   -1    0    0    0    0 -0.00000000000E+00 -0.00000000000E+00 -0.45593999997E+02  0.45594000000E+02  0.51100000000E-03 0. -1.
    9900012    2    1    2    0    0  0.19864019690E+02  0.21949772832E+02  0.33952055107E+02  0.46142313729E+02  0.99999632331E+01 0.  0.
         12    1    1    2    0    0 -0.19864019690E+02 -0.21949772832E+02 -0.33952055107E+02  0.45045686271E+02  0.00000000000E+00 0. -1.
         11    1    3    3    0    0  0.39348175790E+01  0.24235322959E+01  0.80489337233E+01  0.92812516673E+01  0.51100000000E-03 0. -1.
        -11    1    3    3    0    0  0.15247106782E+02  0.18359586563E+02  0.21046317704E+02  0.31819745020E+02  0.51100000000E-03 0.  1.
         12    1    3    3    0    0  0.68209532889E+00  0.11666539733E+01  0.48568036799E+01  0.50413170418E+01  0.00000000000E+00 0. -1.
</event>
<event>
 7    1  0.2472338E-008  0.4614232E+02  0.7816164E-02  0.1320468E+00
        -11   -1    0    0    0    0  0.00000000000E+00  0.00000000000E+00  0.45593999997E+02  0.45594000000E+02  0.51100000000E-03 0. -1.
         11   -1    0    0    0    0 -0.00000000000E+00 -0.00000000000E+00 -0.45593999997E+02  0.45594000000E+02  0.51100000000E-03 0.  1.
    9900012    2    1    2    0    0  0.58508112588E+01  0.32118585508E+02 -0.31036719757E+02  0.46142317625E+02  0.99999987567E+01 0.  0.
         12    1    1    2    0    0 -0.58508112588E+01 -0.32118585508E+02  0.31036719757E+02  0.45045682375E+02  0.00000000000E+00 0. -1.
         11    1    3    3    0    0 -0.13269506424E+01  0.13035360375E+02 -0.82324553556E+01  0.15474325173E+02  0.51100000000E-03 0. -1.
        -11    1    3    3    0    0  0.49386823676E+01  0.12419532521E+02 -0.13393257613E+02  0.18921276948E+02  0.51100000000E-03 0.  1.
         12    1    3    3    0    0  0.22390795336E+01  0.66636926114E+01 -0.94110067882E+01  0.11746715505E+02  0.00000000000E+00 0. -1.
</event>
<event>
 7    1  0.2472338E-008  0.4614232E+02  0.7816164E-02  0.1320468E+00
        -11   -1    0    0    0    0  0.00000000000E+00  0.00000000000E+00  0.45593999997E+02  0.45594000000E+02  0.51100000000E-03 0. -1.
         11   -1    0    0    0    0 -0.00000000000E+00 -0.00000000000E+00 -0.45593999997E+02  0.45594000000E+02  0.51100000000E-03 0.  1.
    9900012    2    1    2    0    0  0.36317772788E+02 -0.10152447075E+02 -0.24638603167E+02  0.46142316878E+02  0.99999919476E+01 0.  0.
         12    1    1    2    0    0 -0.36317772788E+02  0.10152447075E+02  0.24638603167E+02  0.45045683122E+02  0.00000000000E+00 0. -1.
         11    1    3    3    0    0  0.16772485877E+02 -0.36854464313E+01 -0.12443383279E+02  0.21206993790E+02  0.51100000000E-03 0. -1.
        -11    1    3    3    0    0  0.12688584300E+02 -0.70531780387E+01 -0.10291929792E+02  0.17795260917E+02  0.51100000000E-03 0.  1.
         12    1    3    3    0    0  0.68567026102E+01  0.58617739485E+00 -0.19032900961E+01  0.71400621715E+01  0.00000000000E+00 0. -1.
</event>
<event>
 7    1  0.2472338E-008  0.4614232E+02  0.7816164E-02  0.1320468E+00
        -11   -1    0    0    0    0  0.00000000000E+00  0.00000000000E+00  0.45593999997E+02  0.45594000000E+02  0.51100000000E-03 0.  1.
         11   -1    0    0    0    0 -0.00000000000E+00 -0.00000000000E+00 -0.45593999997E+02  0.45594000000E+02  0.51100000000E-03 0. -1.
    9900012    2    1    2    0    0  0.36448412223E+02  0.13394742807E+02  0.22829967467E+02  0.46142319819E+02  0.10000018763E+02 0.  0.
         12    1    1    2    0    0 -0.36448412223E+02 -0.13394742807E+02 -0.22829967467E+02  0.45045680181E+02  0.00000000000E+00 0. -1.
         11    1    3    3    0    0  0.99361064924E+01  0.60530006515E+01  0.27062599033E+01  0.11945244746E+02  0.51100000000E-03 0. -1.
        -11    1    3    3    0    0  0.10694084128E+02  0.42744252889E+01  0.90252727282E+01  0.14631804228E+02  0.51100000000E-03 0.  1.
         12    1    3    3    0    0  0.15818221603E+02  0.30673168665E+01  0.11098434836E+02  0.19565270845E+02  0.00000000000E+00 0. -1.
</event>
<event>
 7    1  0.2472338E-008  0.4614232E+02  0.7816164E-02  0.1320468E+00
        -11   -1    0    0    0    0  0.00000000000E+00  0.00000000000E+00  0.45593999997E+02  0.45594000000E+02  0.51100000000E-03 0.  1.
         11   -1    0    0    0    0 -0.00000000000E+00 -0.00000000000E+00 -0.45593999997E+02  0.45594000000E+02  0.51100000000E-03 0. -1.
    9900012    2    1    2    0    0 -0.30924485734E+02  0.18564384631E+02  0.26984312307E+02  0.46142319793E+02  0.10000018524E+02 0.  0.
         12    1    1    2    0    0  0.30924485734E+02 -0.18564384631E+02 -0.26984312307E+02  0.45045680207E+02  0.00000000000E+00 0. -1.
         11    1    3    3    0    0 -0.79016905523E+01  0.48639102691E+01  0.70838265178E+01  0.11673685583E+02  0.51100000000E-03 0. -1.
        -11    1    3    3    0    0 -0.22427798211E+02  0.14739160424E+02  0.18355576817E+02  0.32514245849E+02  0.51100000000E-03 0.  1.
         12    1    3    3    0    0 -0.59499697098E+00 -0.10386860619E+01  0.15449089724E+01  0.19543883606E+01  0.00000000000E+00 0. -1.
</event>
<event>
 7    1  0.2472338E-008  0.4614232E+02  0.7816164E-02  0.1320468E+00
        -11   -1    0    0    0    0  0.00000000000E+00  0.00000000000E+00  0.45593999997E+02  0.45594000000E+02  0.51100000000E-03 0.  1.
         11   -1    0    0    0    0 -0.00000000000E+00 -0.00000000000E+00 -0.45593999997E+02  0.45594000000E+02  0.51100000000E-03 0. -1.
    9900012    2    1    2    0    0 -0.29657778257E+02  0.20868703789E+02  0.26721280876E+02  0.46142318069E+02  0.10000002809E+02 0.  0.
         12    1    1    2    0    0  0.29657778257E+02 -0.20868703789E+02 -0.26721280876E+02  0.45045681931E+02  0.00000000000E+00 0. -1.
         11    1    3    3    0    0 -0.88787042355E+00  0.72958512255E+00 -0.19203990435E+00  0.11651128383E+01  0.51100000000E-03 0. -1.
        -11    1    3    3    0    0 -0.73094766219E+01  0.82702557749E+01  0.51118932507E+01  0.12163758956E+02  0.51100000000E-03 0.  1.
        -12    1    3    3    0    0 -0.21460431211E+02  0.11868862892E+02  0.21801427530E+02  0.32813446275E+02  0.00000000000E+00 0.  1.
</event>
<event>
 7    1  0.2472338E-008  0.4614232E+02  0.7816164E-02  0.1320468E+00
        -11   -1    0    0    0    0  0.00000000000E+00  0.00000000000E+00  0.45593999997E+02  0.45594000000E+02  0.51100000000E-03 0.  1.
         11   -1    0    0    0    0 -0.00000000000E+00 -0.00000000000E+00 -0.45593999997E+02  0.45594000000E+02  0.51100000000E-03 0. -1.
    9900012    2    1    2    0    0  0.22058356094E+02 -0.21420521969E+02  0.32919654871E+02  0.46142317501E+02  0.99999976271E+01 0.  0.
         12    1    1    2    0    0 -0.22058356094E+02  0.21420521969E+02 -0.32919654871E+02  0.45045682499E+02  0.00000000000E+00 0. -1.
         11    1    3    3    0    0  0.97625504649E+01 -0.95856807602E+01  0.15419451290E+02  0.20614367455E+02  0.51100000000E-03 0. -1.
        -11    1    3    3    0    0  0.73001051457E+01 -0.11201729139E+02  0.14217172744E+02  0.19516615278E+02  0.51100000000E-03 0.  1.
         12    1    3    3    0    0  0.49957004831E+01 -0.63311206992E+00  0.32830308373E+01  0.60113347677E+01  0.00000000000E+00 0. -1.
</event>
<event>
 7    1  0.2472338E-008  0.4614232E+02  0.7816164E-02  0.1320468E+00
        -11   -1    0    0    0    0  0.00000000000E+00  0.00000000000E+00  0.45593999997E+02  0.45594000000E+02  0.51100000000E-03 0. -1.
         11   -1    0    0    0    0 -0.00000000000E+00 -0.00000000000E+00 -0.45593999997E+02  0.45594000000E+02  0.51100000000E-03 0.  1.
    9900012    2    1    2    0    0 -0.23980457626E+02 -0.36899722043E+02 -0.96156990167E+01  0.46142317605E+02  0.99999985758E+01 0.  0.
         12    1    1    2    0    0  0.23980457626E+02  0.36899722043E+02  0.96156990167E+01  0.45045682395E+02  0.00000000000E+00 0. -1.
         11    1    3    3    0    0 -0.63710300935E+00 -0.33916467167E+01 -0.29221712133E+01  0.45219744091E+01  0.51100000000E-03 0. -1.
        -11    1    3    3    0    0 -0.44515441445E+01 -0.78889127634E+01  0.15916427262E+00  0.90596094500E+01  0.51100000000E-03 0.  1.
        -12    1    3    3    0    0 -0.18891810473E+02 -0.25619162563E+02 -0.68526920760E+01  0.32560733746E+02  0.00000000000E+00 0.  1.
</event>
<event>
 7    1  0.2472338E-008  0.4614232E+02  0.7816164E-02  0.1320468E+00
        -11   -1    0    0    0    0  0.00000000000E+00  0.00000000000E+00  0.45593999997E+02  0.45594000000E+02  0.51100000000E-03 0.  1.
         11   -1    0    0    0    0 -0.00000000000E+00 -0.00000000000E+00 -0.45593999997E+02  0.45594000000E+02  0.51100000000E-03 0. -1.
    9900012    2    1    2    0    0  0.28099176652E+02 -0.17395863314E+02  0.30609374390E+02  0.46142316639E+02  0.99999897634E+01 0.  0.
         12    1    1    2    0    0 -0.28099176652E+02  0.17395863314E+02 -0.30609374390E+02  0.45045683361E+02  0.00000000000E+00 0. -1.
         11    1    3    3    0    0  0.71510920269E+00 -0.28089223710E+01  0.13656838044E+01  0.32041408478E+01  0.51100000000E-03 0. -1.
        -11    1    3    3    0    0  0.18887061817E+01 -0.46415005375E-01  0.75271831954E+00  0.20337036468E+01  0.51100000000E-03 0.  1.
        -12    1    3    3    0    0  0.25495361268E+02 -0.14540525938E+02  0.28490972266E+02  0.40904472144E+02  0.00000000000E+00 0.  1.
</event>
<event>
 7    1  0.2472338E-008  0.4614232E+02  0.7816164E-02  0.1320468E+00
        -11   -1    0    0    0    0  0.00000000000E+00  0.00000000000E+00  0.45593999997E+02  0.45594000000E+02  0.51100000000E-03 0.  1.
         11   -1    0    0    0    0 -0.00000000000E+00 -0.00000000000E+00 -0.45593999997E+02  0.45594000000E+02  0.51100000000E-03 0. -1.
    9900012    2    1    2    0    0  0.16868346510E+02  0.41766402340E+02  0.37417341667E+00  0.46142317808E+02  0.10000000429E+02 0.  0.
         12    1    1    2    0    0 -0.16868346510E+02 -0.41766402340E+02 -0.37417341667E+00  0.45045682192E+02  0.00000000000E+00 0. -1.
         11    1    3    3    0    0  0.15173097867E+02  0.32035658648E+02  0.16802019824E+01  0.35487031475E+02  0.51100000000E-03 0. -1.
        -11    1    3    3    0    0  0.87780989960E+00  0.88695302618E+01 -0.30897357633E-01  0.89129160319E+01  0.51100000000E-03 0.  1.
        -12    1    3    3    0    0  0.81743874293E+00  0.86121342972E+00 -0.12751312081E+01  0.17423703016E+01  0.00000000000E+00 0.  1.
</event>
<event>
 7    1  0.2472338E-008  0.4614231E+02  0.7816164E-02  0.1320468E+00
        -11   -1    0    0    0    0  0.00000000000E+00  0.00000000000E+00  0.45593999997E+02  0.45594000000E+02  0.51100000000E-03 0. -1.
         11   -1    0    0    0    0 -0.00000000000E+00 -0.00000000000E+00 -0.45593999997E+02  0.45594000000E+02  0.51100000000E-03 0.  1.
    9900012    2    1    2    0    0  0.38873621967E+02  0.48116981364E+00 -0.22753545315E+02  0.46142313929E+02  0.99999650582E+01 0.  0.
         12    1    1    2    0    0 -0.38873621967E+02 -0.48116981364E+00  0.22753545315E+02  0.45045686071E+02  0.00000000000E+00 0. -1.
         11    1    3    3    0    0  0.37182459183E+01  0.77695418101E+00 -0.84065199130E+00  0.38904635380E+01  0.51100000000E-03 0. -1.
        -11    1    3    3    0    0  0.33426301678E+02  0.99073669516E-01 -0.18020761541E+02  0.37974666638E+02  0.51100000000E-03 0.  1.
         12    1    3    3    0    0  0.17290743698E+01 -0.39485803689E+00 -0.38921317829E+01  0.42771837535E+01  0.00000000000E+00 0. -1.
</event>
<event>
 7    1  0.2472338E-008  0.4614232E+02  0.7816164E-02  0.1320468E+00
        -11   -1    0    0    0    0  0.00000000000E+00  0.00000000000E+00  0.45593999997E+02  0.45594000000E+02  0.51100000000E-03 0.  1.
         11   -1    0    0    0    0 -0.00000000000E+00 -0.00000000000E+00 -0.45593999997E+02  0.45594000000E+02  0.51100000000E-03 0. -1.
    9900012    2    1    2    0    0 -0.33680080510E+02 -0.14629003236E+02  0.26091341365E+02  0.46142315933E+02  0.99999833328E+01 0.  0.
         12    1    1    2    0    0  0.33680080510E+02  0.14629003236E+02 -0.26091341365E+02  0.45045684067E+02  0.00000000000E+00 0. -1.
         11    1    3    3    0    0 -0.13494501651E+01 -0.27024851794E+01  0.13037924918E+01  0.32900329809E+01  0.51100000000E-03 0. -1.
        -11    1    3    3    0    0 -0.30262964195E+02 -0.12471928094E+02  0.22492093853E+02  0.39715113980E+02  0.51100000000E-03 0.  1.
        -12    1    3    3    0    0 -0.20676661491E+01  0.54541003743E+00  0.22954550201E+01  0.31371689726E+01  0.00000000000E+00 0.  1.
</event>
<event>
 7    1  0.2472338E-008  0.4614232E+02  0.7816164E-02  0.1320468E+00
        -11   -1    0    0    0    0  0.00000000000E+00  0.00000000000E+00  0.45593999997E+02  0.45594000000E+02  0.51100000000E-03 0. -1.
         11   -1    0    0    0    0 -0.00000000000E+00 -0.00000000000E+00 -0.45593999997E+02  0.45594000000E+02  0.51100000000E-03 0.  1.
    9900012    2    1    2    0    0 -0.39014778109E+02  0.22383067148E+02 -0.24410814161E+01  0.46142317806E+02  0.10000000412E+02 0.  0.
         12    1    1    2    0    0  0.39014778109E+02 -0.22383067148E+02  0.24410814161E+01  0.45045682194E+02  0.00000000000E+00 0. -1.
         11    1    3    3    0    0 -0.30947448911E+02  0.13939953673E+02 -0.39450214603E+01  0.34170602820E+02  0.51100000000E-03 0. -1.
        -11    1    3    3    0    0 -0.20486101496E+01  0.35523074983E+01  0.18357086402E+00  0.41048009246E+01  0.51100000000E-03 0.  1.
         12    1    3    3    0    0 -0.60187190480E+01  0.48908059769E+01  0.13203691802E+01  0.78669140617E+01  0.00000000000E+00 0. -1.
</event>
<event>
 7    1  0.2472338E-008  0.4614232E+02  0.7816164E-02  0.1320468E+00
        -11   -1    0    0    0    0  0.00000000000E+00  0.00000000000E+00  0.45593999997E+02  0.45594000000E+02  0.51100000000E-03 0.  1.
         11   -1    0    0    0    0 -0.00000000000E+00 -0.00000000000E+00 -0.45593999997E+02  0.45594000000E+02  0.51100000000E-03 0. -1.
    9900012    2    1    2    0    0  0.37815019011E+02  0.17025968790E+02  0.17585625109E+02  0.46142317782E+02  0.10000000189E+02 0.  0.
         12    1    1    2    0    0 -0.37815019011E+02 -0.17025968790E+02 -0.17585625109E+02  0.45045682218E+02  0.00000000000E+00 0. -1.
         11    1    3    3    0    0  0.23400059256E+02  0.14384495695E+02  0.92944579658E+01  0.28997645399E+02  0.51100000000E-03 0. -1.
        -11    1    3    3    0    0  0.11333171500E+02  0.27291348172E+01  0.51524896780E+01  0.12745081531E+02  0.51100000000E-03 0.  1.
         12    1    3    3    0    0  0.30817882552E+01 -0.87661722222E-01  0.31386774655E+01  0.43995908515E+01  0.00000000000E+00 0. -1.
</event>
<event>
 7    1  0.2472338E-008  0.4614232E+02  0.7816164E-02  0.1320468E+00
        -11   -1    0    0    0    0  0.00000000000E+00  0.00000000000E+00  0.45593999997E+02  0.45594000000E+02  0.51100000000E-03 0.  1.
         11   -1    0    0    0    0 -0.00000000000E+00 -0.00000000000E+00 -0.45593999997E+02  0.45594000000E+02  0.51100000000E-03 0. -1.
    9900012    2    1    2    0    0  0.28376519890E+02  0.15099031163E+02  0.31557975806E+02  0.46142318075E+02  0.10000002863E+02 0.  0.
         12    1    1    2    0    0 -0.28376519890E+02 -0.15099031163E+02 -0.31557975806E+02  0.45045681925E+02  0.00000000000E+00 0. -1.
         11    1    3    3    0    0  0.79455534385E+01  0.65824092068E+01  0.87313653006E+01  0.13516533235E+02  0.51100000000E-03 0. -1.
        -11    1    3    3    0    0  0.75240917461E+01  0.20844755567E+01  0.13036880820E+02  0.15195961856E+02  0.51100000000E-03 0.  1.
        -12    1    3    3    0    0  0.12906874705E+02  0.64321463995E+01  0.97897296855E+01  0.17429822985E+02  0.00000000000E+00 0.  1.
</event>
<event>
 7    1  0.2472338E-008  0.4614232E+02  0.7816164E-02  0.1320468E+00
        -11   -1    0    0    0    0  0.00000000000E+00  0.00000000000E+00  0.45593999997E+02  0.45594000000E+02  0.51100000000E-03 0.  1.
         11   -1    0    0    0    0 -0.00000000000E+00 -0.00000000000E+00 -0.45593999997E+02  0.45594000000E+02  0.51100000000E-03 0. -1.
    9900012    2    1    2    0    0  0.32060368335E+02  0.15561342908E+02 -0.27551603664E+02  0.46142317906E+02  0.10000001317E+02 0.  0.
         12    1    1    2    0    0 -0.32060368335E+02 -0.15561342908E+02  0.27551603664E+02  0.45045682094E+02  0.00000000000E+00 0. -1.
         11    1    3    3    0    0  0.20690031112E+02  0.13237524953E+02 -0.18292950713E+02  0.30625830607E+02  0.51100000000E-03 0.  1.
        -11    1    3    3    0    0  0.85764157179E+01  0.34643346708E+01 -0.80625696481E+01  0.12270352516E+02  0.51100000000E-03 0. -1.
         12    1    3    3    0    0  0.27939215054E+01 -0.11405167165E+01 -0.11960833030E+01  0.32461347826E+01  0.00000000000E+00 0. -1.
</event>
<event>
 7    1  0.2472338E-008  0.4614232E+02  0.7816164E-02  0.1320468E+00
        -11   -1    0    0    0    0  0.00000000000E+00  0.00000000000E+00  0.45593999997E+02  0.45594000000E+02  0.51100000000E-03 0. -1.
         11   -1    0    0    0    0 -0.00000000000E+00 -0.00000000000E+00 -0.45593999997E+02  0.45594000000E+02  0.51100000000E-03 0.  1.
    9900012    2    1    2    0    0 -0.40139550077E+02  0.11870366841E+02 -0.16644051660E+02  0.46142317133E+02  0.99999942722E+01 0.  0.
         12    1    1    2    0    0  0.40139550077E+02 -0.11870366841E+02  0.16644051660E+02  0.45045682867E+02  0.00000000000E+00 0. -1.
         11    1    3    3    0    0 -0.36260019660E+01  0.47101343807E+00 -0.27091441715E+01  0.45507368985E+01  0.51100000000E-03 0.  1.
        -11    1    3    3    0    0 -0.23376153494E+02  0.55435138208E+01 -0.46462445256E+01  0.24469627830E+02  0.51100000000E-03 0. -1.
         12    1    3    3    0    0 -0.13137394617E+02  0.58558395819E+01 -0.92886629624E+01  0.17121952405E+02  0.00000000000E+00 0. -1.
</event>
<event>
 7    1  0.2472338E-008  0.4614232E+02  0.7816164E-02  0.1320468E+00
        -11   -1    0    0    0    0  0.00000000000E+00  0.00000000000E+00  0.45593999997E+02  0.45594000000E+02  0.51100000000E-03 0.  1.
         11   -1    0    0    0    0 -0.00000000000E+00 -0.00000000000E+00 -0.45593999997E+02  0.45594000000E+02  0.51100000000E-03 0. -1.
    9900012    2    1    2    0    0  0.30707628614E+02 -0.32271899872E+02  0.66842869356E+01  0.46142315764E+02  0.99999817900E+01 0.  0.
         12    1    1    2    0    0 -0.30707628614E+02  0.32271899872E+02 -0.66842869356E+01  0.45045684236E+02  0.00000000000E+00 0. -1.
         11    1    3    3    0    0  0.71284134617E+01 -0.10892845440E+02  0.24633102843E+01  0.13249009702E+02  0.51100000000E-03 0. -1.
        -11    1    3    3    0    0  0.17719536177E+02 -0.19332896707E+02  0.47970179494E+01  0.26659974473E+02  0.51100000000E-03 0.  1.
         12    1    3    3    0    0  0.58596789748E+01 -0.20461577243E+01 -0.57604129805E+00  0.62333315890E+01  0.00000000000E+00 0. -1.
</event>
<event>
 7    1  0.2472338E-008  0.4614232E+02  0.7816164E-02  0.1320468E+00
        -11   -1    0    0    0    0  0.00000000000E+00  0.00000000000E+00  0.45593999997E+02  0.45594000000E+02  0.51100000000E-03 0. -1.
         11   -1    0    0    0    0 -0.00000000000E+00 -0.00000000000E+00 -0.45593999997E+02  0.45594000000E+02  0.51100000000E-03 0.  1.
    9900012    2    1    2    0    0 -0.30249747317E+02 -0.29226670306E+01 -0.33249424826E+02  0.46142318225E+02  0.10000004232E+02 0.  0.
         12    1    1    2    0    0  0.30249747317E+02  0.29226670306E+01  0.33249424826E+02  0.45045681775E+02  0.00000000000E+00 0. -1.
         11    1    3    3    0    0 -0.11046722458E+02  0.28415676929E+01 -0.14669578581E+02  0.18582279731E+02  0.51100000000E-03 0. -1.
        -11    1    3    3    0    0 -0.16195287782E+02 -0.52522900601E+01 -0.17232989107E+02  0.24224983200E+02  0.51100000000E-03 0.  1.
         12    1    3    3    0    0 -0.30077370772E+01 -0.51194466337E+00 -0.13468571380E+01  0.33350552940E+01  0.00000000000E+00 0. -1.
</event>
<event>
 7    1  0.2472338E-008  0.4614232E+02  0.7816164E-02  0.1320468E+00
        -11   -1    0    0    0    0  0.00000000000E+00  0.00000000000E+00  0.45593999997E+02  0.45594000000E+02  0.51100000000E-03 0.  1.
         11   -1    0    0    0    0 -0.00000000000E+00 -0.00000000000E+00 -0.45593999997E+02  0.45594000000E+02  0.51100000000E-03 0. -1.
    9900012    2    1    2    0    0  0.40385346074E+02 -0.10894587750E+02  0.16716610234E+02  0.46142320102E+02  0.10000021347E+02 0.  0.
         12    1    1    2    0    0 -0.40385346074E+02  0.10894587750E+02 -0.16716610234E+02  0.45045679898E+02  0.00000000000E+00 0. -1.
         11    1    3    3    0    0  0.12479074928E+02 -0.11502209638E+01  0.79196417404E+01  0.14824676889E+02  0.51100000000E-03 0. -1.
        -11    1    3    3    0    0  0.92758485854E+01 -0.12415370383E+01  0.10294570294E+01  0.94150179624E+01  0.51100000000E-03 0.  1.
         12    1    3    3    0    0  0.18630422561E+02 -0.85028297475E+01  0.77675114646E+01  0.21902625250E+02  0.00000000000E+00 0. -1.
</event>
<event>
 7    1  0.2472338E-008  0.4614232E+02  0.7816164E-02  0.1320468E+00
        -11   -1    0    0    0    0  0.00000000000E+00  0.00000000000E+00  0.45593999997E+02  0.45594000000E+02  0.51100000000E-03 0. -1.
         11   -1    0    0    0    0 -0.00000000000E+00 -0.00000000000E+00 -0.45593999997E+02  0.45594000000E+02  0.51100000000E-03 0.  1.
    9900012    2    1    2    0    0  0.39215429607E+02 -0.15900309767E+02 -0.15441623695E+02  0.46142317495E+02  0.99999975778E+01 0.  0.
         12    1    1    2    0    0 -0.39215429607E+02  0.15900309767E+02  0.15441623695E+02  0.45045682505E+02  0.00000000000E+00 0. -1.
         11    1    3    3    0    0  0.32232216255E+02 -0.14060135294E+02 -0.15082881748E+02  0.38263513839E+02  0.51100000000E-03 0.  1.
        -11    1    3    3    0    0  0.16200066205E+01 -0.18800494948E+01  0.18118562174E+00  0.24883400178E+01  0.51100000000E-03 0. -1.
         12    1    3    3    0    0  0.53632067314E+01  0.39875021727E-01 -0.53992756816E+00  0.53904636386E+01  0.00000000000E+00 0. -1.
</event>
<event>
 7    1  0.2472338E-008  0.4614231E+02  0.7816164E-02  0.1320468E+00
        -11   -1    0    0    0    0  0.00000000000E+00  0.00000000000E+00  0.45593999997E+02  0.45594000000E+02  0.51100000000E-03 0. -1.
         11   -1    0    0    0    0 -0.00000000000E+00 -0.00000000000E+00 -0.45593999997E+02  0.45594000000E+02  0.51100000000E-03 0.  1.
    9900012    2    1    2    0    0  0.28557890067E+01  0.43150238482E+02 -0.12610123219E+02  0.46142314086E+02  0.99999664835E+01 0.  0.
         12    1    1    2    0    0 -0.28557890067E+01 -0.43150238482E+02  0.12610123219E+02  0.45045685914E+02  0.00000000000E+00 0. -1.
         11    1    3    3    0    0  0.46980059663E+00 -0.21858604641E+00 -0.19928505335E+00  0.55516416842E+00  0.51100000000E-03 0. -1.
        -11    1    3    3    0    0  0.32166783272E+01  0.14241195628E+02 -0.57820817046E+01  0.15703220736E+02  0.51100000000E-03 0.  1.
        -12    1    3    3    0    0 -0.83068991715E+00  0.29127628901E+02 -0.66287564608E+01  0.29883929182E+02  0.00000000000E+00 0.  1.
</event>
<event>
 7    1  0.2472338E-008  0.4614231E+02  0.7816164E-02  0.1320468E+00
        -11   -1    0    0    0    0  0.00000000000E+00  0.00000000000E+00  0.45593999997E+02  0.45594000000E+02  0.51100000000E-03 0.  1.
         11   -1    0    0    0    0 -0.00000000000E+00 -0.00000000000E+00 -0.45593999997E+02  0.45594000000E+02  0.51100000000E-03 0. -1.
    9900012    2    1    2    0    0 -0.12280457042E+02  0.25756404974E+02  0.34855585625E+02  0.46142313508E+02  0.99999612124E+01 0.  0.
         12    1    1    2    0    0  0.12280457042E+02 -0.25756404974E+02 -0.34855585625E+02  0.45045686492E+02  0.00000000000E+00 0. -1.
         11    1    3    3    0    0 -0.38796716615E+00  0.14281451811E+01  0.53651343805E+01  0.55654994710E+01  0.51100000000E-03 0. -1.
        -11    1    3    3    0    0  0.15486069953E-01  0.55900381100E+01  0.47552286661E+01  0.73390030534E+01  0.51100000000E-03 0.  1.
        -12    1    3    3    0    0 -0.11907975946E+02  0.18738221683E+02  0.24735222578E+02  0.33237810983E+02  0.00000000000E+00 0.  1.
</event>
<event>
 7    1  0.2472338E-008  0.4614232E+02  0.7816164E-02  0.1320468E+00
        -11   -1    0    0    0    0  0.00000000000E+00  0.00000000000E+00  0.45593999997E+02  0.45594000000E+02  0.51100000000E-03 0.  1.
         11   -1    0    0    0    0 -0.00000000000E+00 -0.00000000000E+00 -0.45593999997E+02  0.45594000000E+02  0.51100000000E-03 0. -1.
    9900012    2    1    2    0    0  0.27883945853E+02 -0.32120567396E+02  0.14827955419E+02  0.46142317098E+02  0.99999939523E+01 0.  0.
         12    1    1    2    0    0 -0.27883945853E+02  0.32120567396E+02 -0.14827955419E+02  0.45045682902E+02  0.00000000000E+00 0. -1.
         11    1    3    3    0    0  0.16581053328E+02 -0.15988182064E+02  0.61583888778E+01  0.23842798683E+02  0.51100000000E-03 0.  1.
        -11    1    3    3    0    0  0.60215986194E+01 -0.12644146859E+02  0.44585278895E+01  0.14697366122E+02  0.51100000000E-03 0. -1.
        -12    1    3    3    0    0  0.52812939058E+01 -0.34882384732E+01  0.42110386515E+01  0.76021522933E+01  0.00000000000E+00 0.  1.
</event>
<event>
 7    1  0.2472338E-008  0.4614232E+02  0.7816164E-02  0.1320468E+00
        -11   -1    0    0    0    0  0.00000000000E+00  0.00000000000E+00  0.45593999997E+02  0.45594000000E+02  0.51100000000E-03 0.  1.
         11   -1    0    0    0    0 -0.00000000000E+00 -0.00000000000E+00 -0.45593999997E+02  0.45594000000E+02  0.51100000000E-03 0. -1.
    9900012    2    1    2    0    0 -0.13326444622E+02  0.23980865818E+02  0.35727261354E+02  0.46142320345E+02  0.10000023566E+02 0.  0.
         12    1    1    2    0    0  0.13326444622E+02 -0.23980865818E+02 -0.35727261354E+02  0.45045679655E+02  0.00000000000E+00 0. -1.
         11    1    3    3    0    0 -0.74759254401E+01  0.77735044934E+01  0.19219238245E+02  0.22038510664E+02  0.51100000000E-03 0.  1.
        -11    1    3    3    0    0 -0.38030494652E+01  0.59795237501E+01  0.75454333634E+01  0.10351398669E+02  0.51100000000E-03 0. -1.
        -12    1    3    3    0    0 -0.20474697170E+01  0.10227837575E+02  0.89625897460E+01  0.13752411012E+02  0.00000000000E+00 0.  1.
</event>
<event>
 7    1  0.2472338E-008  0.4614232E+02  0.7816164E-02  0.1320468E+00
        -11   -1    0    0    0    0  0.00000000000E+00  0.00000000000E+00  0.45593999997E+02  0.45594000000E+02  0.51100000000E-03 0. -1.
         11   -1    0    0    0    0 -0.00000000000E+00 -0.00000000000E+00 -0.45593999997E+02  0.45594000000E+02  0.51100000000E-03 0.  1.
    9900012    2    1    2    0    0  0.35658039299E+02 -0.25757523747E+02  0.97040030605E+01  0.46142317947E+02  0.10000001696E+02 0.  0.
         12    1    1    2    0    0 -0.35658039299E+02  0.25757523747E+02 -0.97040030605E+01  0.45045682053E+02  0.00000000000E+00 0. -1.
         11    1    3    3    0    0  0.49564973910E+01 -0.41717404044E+01 -0.16251384149E+01  0.66791735655E+01  0.51100000000E-03 0. -1.
        -11    1    3    3    0    0  0.63018770936E+01 -0.38726457831E+01  0.41013398487E+01  0.84576609697E+01  0.51100000000E-03 0.  1.
        -12    1    3    3    0    0  0.24399664814E+02 -0.17713137560E+02  0.72278016268E+01  0.31005483412E+02  0.00000000000E+00 0.  1.
</event>
<event>
 7    1  0.2472338E-008  0.4614232E+02  0.7816164E-02  0.1320468E+00
        -11   -1    0    0    0    0  0.00000000000E+00  0.00000000000E+00  0.45593999997E+02  0.45594000000E+02  0.51100000000E-03 0. -1.
         11   -1    0    0    0    0 -0.00000000000E+00 -0.00000000000E+00 -0.45593999997E+02  0.45594000000E+02  0.51100000000E-03 0.  1.
    9900012    2    1    2    0    0  0.16532449551E+02  0.30302427248E+02 -0.28940534621E+02  0.46142317305E+02  0.99999958446E+01 0.  0.
         12    1    1    2    0    0 -0.16532449551E+02 -0.30302427248E+02  0.28940534621E+02  0.45045682695E+02  0.00000000000E+00 0. -1.
         11    1    3    3    0    0  0.83334258858E+00  0.78822188631E+01 -0.43046741525E+01  0.90196482136E+01  0.51100000000E-03 0. -1.
        -11    1    3    3    0    0  0.11931716532E+02  0.16930684148E+02 -0.15757568269E+02  0.26025273930E+02  0.51100000000E-03 0.  1.
         12    1    3    3    0    0  0.37673904305E+01  0.54895242373E+01 -0.88782921993E+01  0.11097395162E+02  0.00000000000E+00 0. -1.
</event>
<event>
 7    1  0.2472338E-008  0.4614232E+02  0.7816164E-02  0.1320468E+00
        -11   -1    0    0    0    0  0.00000000000E+00  0.00000000000E+00  0.45593999997E+02  0.45594000000E+02  0.51100000000E-03 0. -1.
         11   -1    0    0    0    0 -0.00000000000E+00 -0.00000000000E+00 -0.45593999997E+02  0.45594000000E+02  0.51100000000E-03 0.  1.
    9900012    2    1    2    0    0 -0.35357169693E+02  0.95201883708E+01 -0.26236426354E+02  0.46142317596E+02  0.99999984988E+01 0.  0.
         12    1    1    2    0    0  0.35357169693E+02 -0.95201883708E+01  0.26236426354E+02  0.45045682404E+02  0.00000000000E+00 0. -1.
         11    1    3    3    0    0 -0.52760796834E+01  0.27853111948E+01 -0.26088298713E+01  0.65116026319E+01  0.51100000000E-03 0. -1.
        -11    1    3    3    0    0 -0.20362560408E+01  0.25133149024E+01 -0.11168866706E+01  0.34220646630E+01  0.51100000000E-03 0.  1.
        -12    1    3    3    0    0 -0.28044833969E+02  0.42215622736E+01 -0.22510709812E+02  0.36208650302E+02  0.00000000000E+00 0.  1.
</event>
<event>
 7    1  0.2472338E-008  0.4614232E+02  0.7816164E-02  0.1320468E+00
        -11   -1    0    0    0    0  0.00000000000E+00  0.00000000000E+00  0.45593999997E+02  0.45594000000E+02  0.51100000000E-03 0. -1.
         11   -1    0    0    0    0 -0.00000000000E+00 -0.00000000000E+00 -0.45593999997E+02  0.45594000000E+02  0.51100000000E-03 0.  1.
    9900012    2    1    2    0    0  0.21578905544E+02 -0.10458801426E+02 -0.38132370432E+02  0.46142319114E+02  0.10000012335E+02 0.  0.
         12    1    1    2    0    0 -0.21578905544E+02  0.10458801426E+02  0.38132370432E+02  0.45045680886E+02  0.00000000000E+00 0. -1.
         11    1    3    3    0    0  0.37012276679E+01 -0.46963219745E+01 -0.12074716763E+02  0.13474172016E+02  0.51100000000E-03 0. -1.
        -11    1    3    3    0    0  0.39160743606E+01  0.27058549820E+00 -0.25898826171E+01  0.47028020521E+01  0.51100000000E-03 0.  1.
         12    1    3    3    0    0  0.13961603515E+02 -0.60330649494E+01 -0.23467771052E+02  0.27965345046E+02  0.00000000000E+00 0. -1.
</event>
<event>
 7    1  0.2472338E-008  0.4614232E+02  0.7816164E-02  0.1320468E+00
        -11   -1    0    0    0    0  0.00000000000E+00  0.00000000000E+00  0.45593999997E+02  0.45594000000E+02  0.51100000000E-03 0. -1.
         11   -1    0    0    0    0 -0.00000000000E+00 -0.00000000000E+00 -0.45593999997E+02  0.45594000000E+02  0.51100000000E-03 0.  1.
    9900012    2    1    2    0    0  0.31399514341E+02 -0.88278830356E+01 -0.31068512560E+02  0.46142317715E+02  0.99999995829E+01 0.  0.
         12    1    1    2    0    0 -0.31399514341E+02  0.88278830356E+01  0.31068512560E+02  0.45045682285E+02  0.00000000000E+00 0. -1.
         11    1    3    3    0    0  0.16793866602E+02 -0.48031664406E+01 -0.19121562673E+02  0.25898620090E+02  0.51100000000E-03 0. -1.
        -11    1    3    3    0    0  0.14779556805E+02 -0.30799461095E+01 -0.10106519439E+02  0.18167638890E+02  0.51100000000E-03 0.  1.
        -12    1    3    3    0    0 -0.17390906566E+00 -0.94477048548E+00 -0.18404304491E+01  0.20760587350E+01  0.00000000000E+00 0.  1.
</event>
<event>
 7    1  0.2472338E-008  0.4614231E+02  0.7816164E-02  0.1320468E+00
        -11   -1    0    0    0    0  0.00000000000E+00  0.00000000000E+00  0.45593999997E+02  0.45594000000E+02  0.51100000000E-03 0. -1.
         11   -1    0    0    0    0 -0.00000000000E+00 -0.00000000000E+00 -0.45593999997E+02  0.45594000000E+02  0.51100000000E-03 0.  1.
    9900012    2    1    2    0    0  0.16897279150E+02  0.41205370189E+02 -0.67611553855E+01  0.46142314333E+02  0.99999687376E+01 0.  0.
         12    1    1    2    0    0 -0.16897279150E+02 -0.41205370189E+02  0.67611553855E+01  0.45045685667E+02  0.00000000000E+00 0. -1.
         11    1    3    3    0    0  0.10630498507E+02  0.31278727517E+02 -0.49283085956E+01  0.33401414932E+02  0.51100000000E-03 0. -1.
        -11    1    3    3    0    0  0.55657252056E+01  0.10353133176E+02 -0.19399144516E+01  0.11913350996E+02  0.51100000000E-03 0.  1.
         12    1    3    3    0    0  0.70105543815E+00 -0.42649050410E+00  0.10706766175E+00  0.82754840440E+00  0.00000000000E+00 0. -1.
</event>
<event>
 7    1  0.2472338E-008  0.4614232E+02  0.7816164E-02  0.1320468E+00
        -11   -1    0    0    0    0  0.00000000000E+00  0.00000000000E+00  0.45593999997E+02  0.45594000000E+02  0.51100000000E-03 0.  1.
         11   -1    0    0    0    0 -0.00000000000E+00 -0.00000000000E+00 -0.45593999997E+02  0.45594000000E+02  0.51100000000E-03 0. -1.
    9900012    2    1    2    0    0 -0.27191533856E+01 -0.50855263001E+01  0.44675016232E+02  0.46142318207E+02  0.10000004062E+02 0.  0.
         12    1    1    2    0    0  0.27191533856E+01  0.50855263001E+01 -0.44675016232E+02  0.45045681793E+02  0.00000000000E+00 0. -1.
         11    1    3    3    0    0  0.24691485333E+01 -0.35231172888E+01  0.14232923595E+02  0.14868932855E+02  0.51100000000E-03 0.  1.
        -11    1    3    3    0    0  0.69465720039E+00  0.51847818637E+00  0.26042642713E+01  0.27447333043E+01  0.51100000000E-03 0. -1.
        -12    1    3    3    0    0 -0.58829591194E+01 -0.20808871977E+01  0.27837828366E+02  0.28528652048E+02  0.00000000000E+00 0.  1.
</event>
<event>
 7    1  0.2472338E-008  0.4614231E+02  0.7816164E-02  0.1320468E+00
        -11   -1    0    0    0    0  0.00000000000E+00  0.00000000000E+00  0.45593999997E+02  0.45594000000E+02  0.51100000000E-03 0.  1.
         11   -1    0    0    0    0 -0.00000000000E+00 -0.00000000000E+00 -0.45593999997E+02  0.45594000000E+02  0.51100000000E-03 0. -1.
    9900012    2    1    2    0    0  0.18372422672E+02 -0.25373859025E+02  0.32368736496E+02  0.46142314979E+02  0.99999746341E+01 0.  0.
         12    1    1    2    0    0 -0.18372422672E+02  0.25373859025E+02 -0.32368736496E+02  0.45045685021E+02  0.00000000000E+00 0. -1.
         11    1    3    3    0    0  0.14783662222E+02 -0.21896925699E+02  0.27308692177E+02  0.37997324806E+02  0.51100000000E-03 0. -1.
        -11    1    3    3    0    0  0.29479799039E+01 -0.37015595050E+01  0.55605148859E+01  0.73014693275E+01  0.51100000000E-03 0.  1.
         12    1    3    3    0    0  0.64078054587E+00  0.22462617980E+00 -0.50047056671E+00  0.84352084548E+00  0.00000000000E+00 0. -1.
</event>
<event>
 7    1  0.2472338E-008  0.4614232E+02  0.7816164E-02  0.1320468E+00
        -11   -1    0    0    0    0  0.00000000000E+00  0.00000000000E+00  0.45593999997E+02  0.45594000000E+02  0.51100000000E-03 0.  1.
         11   -1    0    0    0    0 -0.00000000000E+00 -0.00000000000E+00 -0.45593999997E+02  0.45594000000E+02  0.51100000000E-03 0. -1.
    9900012    2    1    2    0    0 -0.17673623071E+02 -0.15064236578E+02  0.38598255280E+02  0.46142317778E+02  0.10000000156E+02 0.  0.
         12    1    1    2    0    0  0.17673623071E+02  0.15064236578E+02 -0.38598255280E+02  0.45045682222E+02  0.00000000000E+00 0. -1.
         11    1    3    3    0    0 -0.48131613157E+00  0.12704698626E+00 -0.29505794526E+00  0.57867573598E+00  0.51100000000E-03 0. -1.
        -11    1    3    3    0    0 -0.15750722847E+02 -0.10891886552E+02  0.30224475457E+02  0.35780404970E+02  0.51100000000E-03 0.  1.
         12    1    3    3    0    0 -0.14415840926E+01 -0.42993970120E+01  0.86688377684E+01  0.97832370725E+01  0.00000000000E+00 0. -1.
</event>
<event>
 7    1  0.2472338E-008  0.4614232E+02  0.7816164E-02  0.1320468E+00
        -11   -1    0    0    0    0  0.00000000000E+00  0.00000000000E+00  0.45593999997E+02  0.45594000000E+02  0.51100000000E-03 0. -1.
         11   -1    0    0    0    0 -0.00000000000E+00 -0.00000000000E+00 -0.45593999997E+02  0.45594000000E+02  0.51100000000E-03 0.  1.
    9900012    2    1    2    0    0  0.28487486038E+02  0.23183429439E+01 -0.34816690547E+02  0.46142317461E+02  0.99999972624E+01 0.  0.
         12    1    1    2    0    0 -0.28487486038E+02 -0.23183429439E+01  0.34816690547E+02  0.45045682539E+02  0.00000000000E+00 0. -1.
         11    1    3    3    0    0  0.23514801534E+01  0.13312187801E+01 -0.45043659911E+00  0.27394334712E+01  0.51100000000E-03 0. -1.
        -11    1    3    3    0    0  0.11898918900E+02 -0.82917768177E-01 -0.19078110849E+02  0.22484782858E+02  0.51100000000E-03 0.  1.
        -12    1    3    3    0    0  0.14237086984E+02  0.10700419319E+01 -0.15288143099E+02  0.20918101131E+02  0.00000000000E+00 0.  1.
</event>
<event>
 7    1  0.2472338E-008  0.4614232E+02  0.7816164E-02  0.1320468E+00
        -11   -1    0    0    0    0  0.00000000000E+00  0.00000000000E+00  0.45593999997E+02  0.45594000000E+02  0.51100000000E-03 0. -1.
         11   -1    0    0    0    0 -0.00000000000E+00 -0.00000000000E+00 -0.45593999997E+02  0.45594000000E+02  0.51100000000E-03 0.  1.
    9900012    2    1    2    0    0  0.31781525662E+01  0.25312118617E+02 -0.37125590364E+02  0.46142318048E+02  0.10000002617E+02 0.  0.
         12    1    1    2    0    0 -0.31781525662E+01 -0.25312118617E+02  0.37125590364E+02  0.45045681952E+02  0.00000000000E+00 0. -1.
         11    1    3    3    0    0  0.10615667533E+01 -0.21926971291E+00 -0.65476389931E+00  0.12663803551E+01  0.51100000000E-03 0. -1.
        -11    1    3    3    0    0  0.29740439685E+01  0.13061222680E+02 -0.21966438366E+02  0.25728678360E+02  0.51100000000E-03 0.  1.
        -12    1    3    3    0    0 -0.85745815566E+00  0.12470165650E+02 -0.14504388099E+02  0.19147259333E+02  0.00000000000E+00 0.  1.
</event>
<event>
 7    1  0.2472338E-008  0.4614232E+02  0.7816164E-02  0.1320468E+00
        -11   -1    0    0    0    0  0.00000000000E+00  0.00000000000E+00  0.45593999997E+02  0.45594000000E+02  0.51100000000E-03 0.  1.
         11   -1    0    0    0    0 -0.00000000000E+00 -0.00000000000E+00 -0.45593999997E+02  0.45594000000E+02  0.51100000000E-03 0. -1.
    9900012    2    1    2    0    0  0.18712707532E+02  0.20240808678E+02  0.35626641061E+02  0.46142319714E+02  0.10000017809E+02 0.  0.
         12    1    1    2    0    0 -0.18712707532E+02 -0.20240808678E+02 -0.35626641061E+02  0.45045680286E+02  0.00000000000E+00 0. -1.
         11    1    3    3    0    0  0.61846816083E+01  0.47300846528E+01  0.62422075217E+01  0.99794359772E+01  0.51100000000E-03 0. -1.
        -11    1    3    3    0    0  0.12477505128E+02  0.11691619359E+02  0.25605132228E+02  0.30789688113E+02  0.51100000000E-03 0.  1.
        -12    1    3    3    0    0  0.50520795113E-01  0.38191046662E+01  0.37793013120E+01  0.53731956235E+01  0.00000000000E+00 0.  1.
</event>
<event>
 7    1  0.2472338E-008  0.4614232E+02  0.7816164E-02  0.1320468E+00
        -11   -1    0    0    0    0  0.00000000000E+00  0.00000000000E+00  0.45593999997E+02  0.45594000000E+02  0.51100000000E-03 0. -1.
         11   -1    0    0    0    0 -0.00000000000E+00 -0.00000000000E+00 -0.45593999997E+02  0.45594000000E+02  0.51100000000E-03 0.  1.
    9900012    2    1    2    0    0  0.93584880353E+01 -0.43899656418E+02  0.37884337904E+01  0.46142319158E+02  0.10000012735E+02 0.  0.
         12    1    1    2    0    0 -0.93584880353E+01  0.43899656418E+02 -0.37884337904E+01  0.45045680842E+02  0.00000000000E+00 0. -1.
         11    1    3    3    0    0  0.81376471825E+01 -0.24875490957E+02 -0.10530599491E+00  0.26172933378E+02  0.51100000000E-03 0.  1.
        -11    1    3    3    0    0  0.23256788850E+01 -0.12315859787E+02  0.97728555592E+00  0.12571566008E+02  0.51100000000E-03 0. -1.
         12    1    3    3    0    0 -0.11048380322E+01 -0.67083056745E+01  0.29164542294E+01  0.73978197716E+01  0.00000000000E+00 0. -1.
</event>
<event>
 7    1  0.2472338E-008  0.4614232E+02  0.7816164E-02  0.1320468E+00
        -11   -1    0    0    0    0  0.00000000000E+00  0.00000000000E+00  0.45593999997E+02  0.45594000000E+02  0.51100000000E-03 0.  1.
         11   -1    0    0    0    0 -0.00000000000E+00 -0.00000000000E+00 -0.45593999997E+02  0.45594000000E+02  0.51100000000E-03 0. -1.
    9900012    2    1    2    0    0 -0.44114005311E+02 -0.91136428252E+01 -0.98106807787E-01  0.46142316798E+02  0.99999912220E+01 0.  0.
         12    1    1    2    0    0  0.44114005311E+02  0.91136428252E+01  0.98106807787E-01  0.45045683202E+02  0.00000000000E+00 0. -1.
         11    1    3    3    0    0 -0.36128820431E+01 -0.14649771910E+01 -0.21868221975E+01  0.44700409855E+01  0.51100000000E-03 0. -1.
        -11    1    3    3    0    0 -0.19938566138E+02 -0.65600084472E+01  0.19507912538E+01  0.21080458184E+02  0.51100000000E-03 0.  1.
        -12    1    3    3    0    0 -0.20562557130E+02 -0.10886571870E+01  0.13792413595E+00  0.20591817629E+02  0.00000000000E+00 0.  1.
</event>
<event>
 7    1  0.2472338E-008  0.4614232E+02  0.7816164E-02  0.1320468E+00
        -11   -1    0    0    0    0  0.00000000000E+00  0.00000000000E+00  0.45593999997E+02  0.45594000000E+02  0.51100000000E-03 0. -1.
         11   -1    0    0    0    0 -0.00000000000E+00 -0.00000000000E+00 -0.45593999997E+02  0.45594000000E+02  0.51100000000E-03 0.  1.
    9900012    2    1    2    0    0 -0.42743453570E+02 -0.10946918090E+02  0.90705940668E+01  0.46142317460E+02  0.99999972527E+01 0.  0.
         12    1    1    2    0    0  0.42743453570E+02  0.10946918090E+02 -0.90705940668E+01  0.45045682540E+02  0.00000000000E+00 0. -1.
         11    1    3    3    0    0 -0.32628818974E+00 -0.11064503746E+01  0.12077357644E+01  0.16701264479E+01  0.51100000000E-03 0. -1.
        -11    1    3    3    0    0 -0.37178274150E+01 -0.12829853435E+01 -0.50207015210E+00  0.39648917738E+01  0.51100000000E-03 0.  1.
        -12    1    3    3    0    0 -0.38699337966E+02 -0.85574823717E+01  0.83649284546E+01  0.40507299238E+02  0.00000000000E+00 0.  1.
</event>
<event>
 7    1  0.2472338E-008  0.4614232E+02  0.7816164E-02  0.1320468E+00
        -11   -1    0    0    0    0  0.00000000000E+00  0.00000000000E+00  0.45593999997E+02  0.45594000000E+02  0.51100000000E-03 0. -1.
         11   -1    0    0    0    0 -0.00000000000E+00 -0.00000000000E+00 -0.45593999997E+02  0.45594000000E+02  0.51100000000E-03 0.  1.
    9900012    2    1    2    0    0  0.20167227619E+02  0.33674915791E+02 -0.22099685015E+02  0.46142322060E+02  0.10000039199E+02 0.  0.
         12    1    1    2    0    0 -0.20167227619E+02 -0.33674915791E+02  0.22099685015E+02  0.45045677940E+02  0.00000000000E+00 0. -1.
         11    1    3    3    0    0  0.11612807795E+01  0.16985734036E+01  0.23638361238E+00  0.20711354687E+01  0.51100000000E-03 0. -1.
        -11    1    3    3    0    0  0.17613985187E+02  0.26487404059E+02 -0.21384117952E+02  0.38329043150E+02  0.51100000000E-03 0.  1.
        -12    1    3    3    0    0  0.13919616517E+01  0.54889383280E+01 -0.95195067565E+00  0.57421434410E+01  0.00000000000E+00 0.  1.
</event>
<event>
 7    1  0.2472338E-008  0.4614232E+02  0.7816164E-02  0.1320468E+00
        -11   -1    0    0    0    0  0.00000000000E+00  0.00000000000E+00  0.45593999997E+02  0.45594000000E+02  0.51100000000E-03 0.  1.
         11   -1    0    0    0    0 -0.00000000000E+00 -0.00000000000E+00 -0.45593999997E+02  0.45594000000E+02  0.51100000000E-03 0. -1.
    9900012    2    1    2    0    0  0.31888431945E+02  0.18145071630E+02  0.26134217900E+02  0.46142322498E+02  0.10000043198E+02 0.  0.
         12    1    1    2    0    0 -0.31888431945E+02 -0.18145071630E+02 -0.26134217900E+02  0.45045677502E+02  0.00000000000E+00 0. -1.
         11    1    3    3    0    0  0.10789749378E+01  0.39089947234E+01  0.23805824538E+01  0.47022972837E+01  0.51100000000E-03 0. -1.
        -11    1    3    3    0    0  0.19833572991E+02  0.90032818425E+01  0.15842862474E+02  0.26933733368E+02  0.51100000000E-03 0.  1.
         12    1    3    3    0    0  0.10975884016E+02  0.52327950639E+01  0.79107729719E+01  0.14506291846E+02  0.00000000000E+00 0. -1.
</event>
<event>
 7    1  0.2472338E-008  0.4614232E+02  0.7816164E-02  0.1320468E+00
        -11   -1    0    0    0    0  0.00000000000E+00  0.00000000000E+00  0.45593999997E+02  0.45594000000E+02  0.51100000000E-03 0. -1.
         11   -1    0    0    0    0 -0.00000000000E+00 -0.00000000000E+00 -0.45593999997E+02  0.45594000000E+02  0.51100000000E-03 0.  1.
    9900012    2    1    2    0    0 -0.19875306332E+02  0.35522530430E+02 -0.19293403548E+02  0.46142318848E+02  0.10000009913E+02 0.  0.
         12    1    1    2    0    0  0.19875306332E+02 -0.35522530430E+02  0.19293403548E+02  0.45045681152E+02  0.00000000000E+00 0. -1.
         11    1    3    3    0    0 -0.21704881562E+00  0.10026374443E+01 -0.84558494942E+00  0.13294383028E+01  0.51100000000E-03 0. -1.
        -11    1    3    3    0    0 -0.14271757195E+02  0.29624804347E+02 -0.18078008380E+02  0.37525011303E+02  0.51100000000E-03 0.  1.
         12    1    3    3    0    0 -0.53865003217E+01  0.48950886384E+01 -0.36981021850E+00  0.72878692422E+01  0.00000000000E+00 0. -1.
</event>
<event>
 7    1  0.2472338E-008  0.4614232E+02  0.7816164E-02  0.1320468E+00
        -11   -1    0    0    0    0  0.00000000000E+00  0.00000000000E+00  0.45593999997E+02  0.45594000000E+02  0.51100000000E-03 0. -1.
         11   -1    0    0    0    0 -0.00000000000E+00 -0.00000000000E+00 -0.45593999997E+02  0.45594000000E+02  0.51100000000E-03 0.  1.
    9900012    2    1    2    0    0 -0.33410828555E+02  0.27683970167E+02  0.12100736770E+02  0.46142317639E+02  0.99999988908E+01 0.  0.
         12    1    1    2    0    0  0.33410828555E+02 -0.27683970167E+02 -0.12100736770E+02  0.45045682361E+02  0.00000000000E+00 0. -1.
         11    1    3    3    0    0 -0.92322269013E+01  0.62934293040E+01  0.52003058124E+01  0.12324140812E+02  0.51100000000E-03 0. -1.
        -11    1    3    3    0    0 -0.77490268876E+01  0.26758009052E+01  0.14453037301E+01  0.83244357960E+01  0.51100000000E-03 0.  1.
        -12    1    3    3    0    0 -0.16429574766E+02  0.18714739958E+02  0.54551272278E+01  0.25493741031E+02  0.00000000000E+00 0.  1.
</event>
<event>
 7    1  0.2472338E-008  0.4614232E+02  0.7816164E-02  0.1320468E+00
        -11   -1    0    0    0    0  0.00000000000E+00  0.00000000000E+00  0.45593999997E+02  0.45594000000E+02  0.51100000000E-03 0.  1.
         11   -1    0    0    0    0 -0.00000000000E+00 -0.00000000000E+00 -0.45593999997E+02  0.45594000000E+02  0.51100000000E-03 0. -1.
    9900012    2    1    2    0    0  0.69819085704E+01 -0.42911018468E+02 -0.11790291422E+02  0.46142317354E+02  0.99999962834E+01 0.  0.
         12    1    1    2    0    0 -0.69819085704E+01  0.42911018468E+02  0.11790291422E+02  0.45045682646E+02  0.00000000000E+00 0. -1.
         11    1    3    3    0    0  0.47138638600E+01 -0.19875917424E+02 -0.44508273830E+01  0.20906517419E+02  0.51100000000E-03 0. -1.
        -11    1    3    3    0    0 -0.18749355722E+00 -0.17551747372E+02 -0.29590490737E+01  0.17800420257E+02  0.51100000000E-03 0.  1.
         12    1    3    3    0    0  0.24555382675E+01 -0.54833536724E+01 -0.43804149659E+01  0.74353796778E+01  0.00000000000E+00 0. -1.
</event>
<event>
 7    1  0.2472338E-008  0.4614232E+02  0.7816164E-02  0.1320468E+00
        -11   -1    0    0    0    0  0.00000000000E+00  0.00000000000E+00  0.45593999997E+02  0.45594000000E+02  0.51100000000E-03 0. -1.
         11   -1    0    0    0    0 -0.00000000000E+00 -0.00000000000E+00 -0.45593999997E+02  0.45594000000E+02  0.51100000000E-03 0.  1.
    9900012    2    1    2    0    0 -0.33971634666E+02 -0.20203395507E+02 -0.21607044820E+02  0.46142317214E+02  0.99999950067E+01 0.  0.
         12    1    1    2    0    0  0.33971634666E+02  0.20203395507E+02  0.21607044820E+02  0.45045682786E+02  0.00000000000E+00 0. -1.
         11    1    3    3    0    0 -0.20854046400E+02 -0.15941156097E+02 -0.16829732054E+02  0.31180949155E+02  0.51100000000E-03 0. -1.
        -11    1    3    3    0    0 -0.16519879632E+01 -0.42034810541E+00 -0.18586413652E+01  0.25219644617E+01  0.51100000000E-03 0.  1.
         12    1    3    3    0    0 -0.11465600303E+02 -0.38418913050E+01 -0.29186714002E+01  0.12439403597E+02  0.00000000000E+00 0. -1.
</event>
<event>
 7    1  0.2472338E-008  0.4614232E+02  0.7816164E-02  0.1320468E+00
        -11   -1    0    0    0    0  0.00000000000E+00  0.00000000000E+00  0.45593999997E+02  0.45594000000E+02  0.51100000000E-03 0.  1.
         11   -1    0    0    0    0 -0.00000000000E+00 -0.00000000000E+00 -0.45593999997E+02  0.45594000000E+02  0.51100000000E-03 0. -1.
    9900012    2    1    2    0    0  0.23771531511E+02  0.33503146717E+02  0.18481528746E+02  0.46142318130E+02  0.10000003363E+02 0.  0.
         12    1    1    2    0    0 -0.23771531511E+02 -0.33503146717E+02 -0.18481528746E+02  0.45045681870E+02  0.00000000000E+00 0. -1.
         11    1    3    3    0    0  0.38683214893E+01  0.27143033827E+01  0.40785218065E+00  0.47431737962E+01  0.51100000000E-03 0. -1.
        -11    1    3    3    0    0  0.46722308167E+01  0.41942581392E+01  0.52215246063E+01  0.81661411706E+01  0.51100000000E-03 0.  1.
        -12    1    3    3    0    0  0.15230979205E+02  0.26594585195E+02  0.12852151959E+02  0.33233003163E+02  0.00000000000E+00 0.  1.
</event>
<event>
 7    1  0.2472338E-008  0.4614232E+02  0.7816164E-02  0.1320468E+00
        -11   -1    0    0    0    0  0.00000000000E+00  0.00000000000E+00  0.45593999997E+02  0.45594000000E+02  0.51100000000E-03 0. -1.
         11   -1    0    0    0    0 -0.00000000000E+00 -0.00000000000E+00 -0.45593999997E+02  0.45594000000E+02  0.51100000000E-03 0.  1.
    9900012    2    1    2    0    0  0.31342760431E+01 -0.14412811983E+01 -0.44913388044E+02  0.46142318704E+02  0.10000008599E+02 0.  0.
         12    1    1    2    0    0 -0.31342760431E+01  0.14412811983E+01  0.44913388044E+02  0.45045681296E+02  0.00000000000E+00 0. -1.
         11    1    3    3    0    0  0.19647211682E+01 -0.11264280521E+01 -0.41854324828E+02  0.41915551726E+02  0.51100000000E-03 0.  1.
        -11    1    3    3    0    0  0.30560814937E+00  0.10783120789E+01 -0.19447492181E+01  0.22445941866E+01  0.51100000000E-03 0. -1.
        -12    1    3    3    0    0  0.86394672553E+00 -0.13931652250E+01 -0.11143139980E+01  0.19821727914E+01  0.00000000000E+00 0.  1.
</event>
<event>
 7    1  0.2472338E-008  0.4614232E+02  0.7816164E-02  0.1320468E+00
        -11   -1    0    0    0    0  0.00000000000E+00  0.00000000000E+00  0.45593999997E+02  0.45594000000E+02  0.51100000000E-03 0.  1.
         11   -1    0    0    0    0 -0.00000000000E+00 -0.00000000000E+00 -0.45593999997E+02  0.45594000000E+02  0.51100000000E-03 0. -1.
    9900012    2    1    2    0    0  0.25393776273E+02 -0.32237182229E+02 -0.18575082920E+02  0.46142317666E+02  0.99999991282E+01 0.  0.
         12    1    1    2    0    0 -0.25393776273E+02  0.32237182229E+02  0.18575082920E+02  0.45045682334E+02  0.00000000000E+00 0. -1.
         11    1    3    3    0    0  0.83418940659E+01 -0.70118158095E+01 -0.82866085072E+01  0.13690165754E+02  0.51100000000E-03 0. -1.
        -11    1    3    3    0    0  0.15277796686E+01 -0.80093204969E+00 -0.12597134353E+01  0.21359965038E+01  0.51100000000E-03 0.  1.
        -12    1    3    3    0    0  0.15524102539E+02 -0.24424434370E+02 -0.90287609775E+01  0.30316155408E+02  0.00000000000E+00 0.  1.
</event>
<event>
 7    1  0.2472338E-008  0.4614232E+02  0.7816164E-02  0.1320468E+00
        -11   -1    0    0    0    0  0.00000000000E+00  0.00000000000E+00  0.45593999997E+02  0.45594000000E+02  0.51100000000E-03 0.  1.
         11   -1    0    0    0    0 -0.00000000000E+00 -0.00000000000E+00 -0.45593999997E+02  0.45594000000E+02  0.51100000000E-03 0. -1.
    9900012    2    1    2    0    0  0.38087264642E+02 -0.23137726251E+02 -0.65665354348E+01  0.46142317726E+02  0.99999996777E+01 0.  0.
         12    1    1    2    0    0 -0.38087264642E+02  0.23137726251E+02  0.65665354348E+01  0.45045682274E+02  0.00000000000E+00 0. -1.
         11    1    3    3    0    0  0.13030470657E+02 -0.72088307164E+01 -0.17024031701E+01  0.14988615101E+02  0.51100000000E-03 0. -1.
        -11    1    3    3    0    0  0.25383501238E+02 -0.14428753382E+02 -0.42742975117E+01  0.29508993184E+02  0.51100000000E-03 0.  1.
         12    1    3    3    0    0 -0.32670725349E+00 -0.15001421526E+01 -0.58983475307E+00  0.16447094404E+01  0.00000000000E+00 0. -1.
</event>
<event>
 7    1  0.2472338E-008  0.4614232E+02  0.7816164E-02  0.1320468E+00
        -11   -1    0    0    0    0  0.00000000000E+00  0.00000000000E+00  0.45593999997E+02  0.45594000000E+02  0.51100000000E-03 0. -1.
         11   -1    0    0    0    0 -0.00000000000E+00 -0.00000000000E+00 -0.45593999997E+02  0.45594000000E+02  0.51100000000E-03 0.  1.
    9900012    2    1    2    0    0  0.18427609773E+01 -0.18329843820E+02 -0.41106381188E+02  0.46142317445E+02  0.99999971156E+01 0.  0.
         12    1    1    2    0    0 -0.18427609773E+01  0.18329843820E+02  0.41106381188E+02  0.45045682555E+02  0.00000000000E+00 0. -1.
         11    1    3    3    0    0  0.34623387692E+01 -0.28580390334E+01 -0.60921079339E+01  0.75676916037E+01  0.51100000000E-03 0. -1.
        -11    1    3    3    0    0  0.11638417537E+01 -0.19811350672E+01 -0.67921281658E+01  0.71702460951E+01  0.51100000000E-03 0.  1.
        -12    1    3    3    0    0 -0.27834195456E+01 -0.13490669719E+02 -0.28222145089E+02  0.31404379746E+02  0.00000000000E+00 0.  1.
</event>
<event>
 7    1  0.2472338E-008  0.4614232E+02  0.7816164E-02  0.1320468E+00
        -11   -1    0    0    0    0  0.00000000000E+00  0.00000000000E+00  0.45593999997E+02  0.45594000000E+02  0.51100000000E-03 0. -1.
         11   -1    0    0    0    0 -0.00000000000E+00 -0.00000000000E+00 -0.45593999997E+02  0.45594000000E+02  0.51100000000E-03 0.  1.
    9900012    2    1    2    0    0  0.26225849297E+02 -0.18267628894E+02 -0.31742905333E+02  0.46142317901E+02  0.10000001277E+02 0.  0.
         12    1    1    2    0    0 -0.26225849297E+02  0.18267628894E+02  0.31742905333E+02  0.45045682099E+02  0.00000000000E+00 0. -1.
         11    1    3    3    0    0  0.60179558704E+01 -0.21051170873E+01 -0.38124213988E+01  0.74284499051E+01  0.51100000000E-03 0. -1.
        -11    1    3    3    0    0  0.17398266351E+02 -0.12484597411E+02 -0.18879669988E+02  0.28548323658E+02  0.51100000000E-03 0.  1.
        -12    1    3    3    0    0  0.28096270754E+01 -0.36779143957E+01 -0.90508139460E+01  0.10165544338E+02  0.00000000000E+00 0.  1.
</event>
<event>
 7    1  0.2472338E-008  0.4614232E+02  0.7816164E-02  0.1320468E+00
        -11   -1    0    0    0    0  0.00000000000E+00  0.00000000000E+00  0.45593999997E+02  0.45594000000E+02  0.51100000000E-03 0.  1.
         11   -1    0    0    0    0 -0.00000000000E+00 -0.00000000000E+00 -0.45593999997E+02  0.45594000000E+02  0.51100000000E-03 0. -1.
    9900012    2    1    2    0    0  0.26129062462E+02 -0.12072686618E+02  0.34650192128E+02  0.46142317834E+02  0.10000000666E+02 0.  0.
         12    1    1    2    0    0 -0.26129062462E+02  0.12072686618E+02 -0.34650192128E+02  0.45045682166E+02  0.00000000000E+00 0. -1.
         11    1    3    3    0    0  0.26567355782E+01  0.17128001551E+01  0.30248501931E+01  0.43751168277E+01  0.51100000000E-03 0. -1.
        -11    1    3    3    0    0  0.11229684326E+02 -0.56437404173E+01  0.13966703826E+02  0.18788997631E+02  0.51100000000E-03 0.  1.
         12    1    3    3    0    0  0.12242642557E+02 -0.81417463555E+01  0.17658638109E+02  0.22978203375E+02  0.00000000000E+00 0. -1.
</event>
<event>
 7    1  0.2472338E-008  0.4614233E+02  0.7816164E-02  0.1320468E+00
        -11   -1    0    0    0    0  0.00000000000E+00  0.00000000000E+00  0.45593999997E+02  0.45594000000E+02  0.51100000000E-03 0.  1.
         11   -1    0    0    0    0 -0.00000000000E+00 -0.00000000000E+00 -0.45593999997E+02  0.45594000000E+02  0.51100000000E-03 0. -1.
    9900012    2    1    2    0    0  0.44017534666E+02 -0.80509000035E+01 -0.51722629881E+01  0.46142327029E+02  0.10000084513E+02 0.  0.
         12    1    1    2    0    0 -0.44017534666E+02  0.80509000035E+01  0.51722629881E+01  0.45045672971E+02  0.00000000000E+00 0. -1.
         11    1    3    3    0    0  0.11486308497E+01 -0.11261853723E+00  0.65222364865E+00  0.13256816031E+01  0.51100000000E-03 0. -1.
        -11    1    3    3    0    0  0.55470751798E+01 -0.29254930910E+01 -0.32714021695E+01  0.70732330155E+01  0.51100000000E-03 0.  1.
        -12    1    3    3    0    0  0.37321828637E+02 -0.50127883754E+01 -0.25530844672E+01  0.37743412411E+02  0.00000000000E+00 0.  1.
</event>
<event>
 7    1  0.2472338E-008  0.4614232E+02  0.7816164E-02  0.1320468E+00
        -11   -1    0    0    0    0  0.00000000000E+00  0.00000000000E+00  0.45593999997E+02  0.45594000000E+02  0.51100000000E-03 0.  1.
         11   -1    0    0    0    0 -0.00000000000E+00 -0.00000000000E+00 -0.45593999997E+02  0.45594000000E+02  0.51100000000E-03 0. -1.
    9900012    2    1    2    0    0 -0.22831223311E+02  0.23905172372E+02  0.30600511034E+02  0.46142319857E+02  0.10000019111E+02 0.  0.
         12    1    1    2    0    0  0.22831223311E+02 -0.23905172372E+02 -0.30600511034E+02  0.45045680143E+02  0.00000000000E+00 0. -1.
         11    1    3    3    0    0 -0.59123835471E+01  0.97480885163E+01  0.79915548960E+01  0.13922875380E+02  0.51100000000E-03 0. -1.
        -11    1    3    3    0    0 -0.11484344157E+02  0.73936858897E+01  0.17322242912E+02  0.22059393725E+02  0.51100000000E-03 0.  1.
        -12    1    3    3    0    0 -0.54344956069E+01  0.67633979658E+01  0.52867132263E+01  0.10160050752E+02  0.00000000000E+00 0.  1.
</event>
<event>
 7    1  0.2472338E-008  0.4614232E+02  0.7816164E-02  0.1320468E+00
        -11   -1    0    0    0    0  0.00000000000E+00  0.00000000000E+00  0.45593999997E+02  0.45594000000E+02  0.51100000000E-03 0.  1.
         11   -1    0    0    0    0 -0.00000000000E+00 -0.00000000000E+00 -0.45593999997E+02  0.45594000000E+02  0.51100000000E-03 0. -1.
    9900012    2    1    2    0    0 -0.18997011742E+02 -0.20413353059E+02  0.35376858241E+02  0.46142317219E+02  0.99999950549E+01 0.  0.
         12    1    1    2    0    0  0.18997011742E+02  0.20413353059E+02 -0.35376858241E+02  0.45045682781E+02  0.00000000000E+00 0. -1.
         11    1    3    3    0    0 -0.10857522104E+02 -0.75985087464E+01  0.10924439093E+02  0.17174588530E+02  0.51100000000E-03 0.  1.
        -11    1    3    3    0    0 -0.13686390489E+01 -0.21983741652E+01  0.68667650083E+01  0.73388339507E+01  0.51100000000E-03 0. -1.
        -12    1    3    3    0    0 -0.67708505894E+01 -0.10616470147E+02  0.17585654139E+02  0.21628894738E+02  0.00000000000E+00 0.  1.
</event>
<event>
 7    1  0.2472338E-008  0.4614232E+02  0.7816164E-02  0.1320468E+00
        -11   -1    0    0    0    0  0.00000000000E+00  0.00000000000E+00  0.45593999997E+02  0.45594000000E+02  0.51100000000E-03 0. -1.
         11   -1    0    0    0    0 -0.00000000000E+00 -0.00000000000E+00 -0.45593999997E+02  0.45594000000E+02  0.51100000000E-03 0.  1.
    9900012    2    1    2    0    0  0.26343786305E+02  0.20260060513E+02 -0.30408032139E+02  0.46142317106E+02  0.99999940269E+01 0.  0.
         12    1    1    2    0    0 -0.26343786305E+02 -0.20260060513E+02  0.30408032139E+02  0.45045682894E+02  0.00000000000E+00 0. -1.
         11    1    3    3    0    0  0.90297909239E+01  0.60394701881E+01 -0.46315074855E+01  0.11809453253E+02  0.51100000000E-03 0. -1.
        -11    1    3    3    0    0  0.92875695217E+01  0.60701555231E+01 -0.14626239205E+02  0.18358447899E+02  0.51100000000E-03 0.  1.
         12    1    3    3    0    0  0.80264258590E+01  0.81504348013E+01 -0.11150285448E+02  0.15974415955E+02  0.00000000000E+00 0. -1.
</event>
<event>
 7    1  0.2472338E-008  0.4614232E+02  0.7816164E-02  0.1320468E+00
        -11   -1    0    0    0    0  0.00000000000E+00  0.00000000000E+00  0.45593999997E+02  0.45594000000E+02  0.51100000000E-03 0. -1.
         11   -1    0    0    0    0 -0.00000000000E+00 -0.00000000000E+00 -0.45593999997E+02  0.45594000000E+02  0.51100000000E-03 0.  1.
    9900012    2    1    2    0    0  0.72849256921E+00 -0.40291375092E+02 -0.20129279590E+02  0.46142317577E+02  0.99999983170E+01 0.  0.
         12    1    1    2    0    0 -0.72849256921E+00  0.40291375092E+02  0.20129279590E+02  0.45045682423E+02  0.00000000000E+00 0. -1.
         11    1    3    3    0    0  0.31057307082E+01 -0.64169059897E+01 -0.26803005641E+01  0.76161838927E+01  0.51100000000E-03 0. -1.
        -11    1    3    3    0    0  0.16512877388E+01 -0.97114494990E+01 -0.51220548805E+01  0.11102902730E+02  0.51100000000E-03 0.  1.
        -12    1    3    3    0    0 -0.40285258778E+01 -0.24163019603E+02 -0.12326924145E+02  0.27423230954E+02  0.00000000000E+00 0.  1.
</event>
<event>
 7    1  0.2472338E-008  0.4614232E+02  0.7816164E-02  0.1320468E+00
        -11   -1    0    0    0    0  0.00000000000E+00  0.00000000000E+00  0.45593999997E+02  0.45594000000E+02  0.51100000000E-03 0. -1.
         11   -1    0    0    0    0 -0.00000000000E+00 -0.00000000000E+00 -0.45593999997E+02  0.45594000000E+02  0.51100000000E-03 0.  1.
    9900012    2    1    2    0    0  0.42139112044E+01  0.40396309318E+02 -0.19480621999E+02  0.46142317769E+02  0.10000000076E+02 0.  0.
         12    1    1    2    0    0 -0.42139112044E+01 -0.40396309318E+02  0.19480621999E+02  0.45045682231E+02  0.00000000000E+00 0. -1.
         11    1    3    3    0    0  0.62012281580E+00  0.88411686612E+01 -0.24135891889E+01  0.91856534137E+01  0.51100000000E-03 0. -1.
        -11    1    3    3    0    0 -0.24376031636E+01  0.11431210849E+02 -0.73746636619E+01  0.13820280571E+02  0.51100000000E-03 0.  1.
        -12    1    3    3    0    0  0.60313915522E+01  0.20123929807E+02 -0.96923691481E+01  0.23136383785E+02  0.00000000000E+00 0.  1.
</event>
<event>
 7    1  0.2472338E-008  0.4614232E+02  0.7816164E-02  0.1320468E+00
        -11   -1    0    0    0    0  0.00000000000E+00  0.00000000000E+00  0.45593999997E+02  0.45594000000E+02  0.51100000000E-03 0.  1.
         11   -1    0    0    0    0 -0.00000000000E+00 -0.00000000000E+00 -0.45593999997E+02  0.45594000000E+02  0.51100000000E-03 0. -1.
    9900012    2    1    2    0    0 -0.16895765291E+02  0.32736934525E+02  0.25921800860E+02  0.46142317336E+02  0.99999961234E+01 0.  0.
         12    1    1    2    0    0  0.16895765291E+02 -0.32736934525E+02 -0.25921800860E+02  0.45045682664E+02  0.00000000000E+00 0. -1.
         11    1    3    3    0    0 -0.63702317465E+01  0.57381734955E+01  0.49420596925E+01  0.98959810950E+01  0.51100000000E-03 0. -1.
        -11    1    3    3    0    0 -0.89489922824E+01  0.15185626075E+02  0.13048656342E+02  0.21930689336E+02  0.51100000000E-03 0.  1.
        -12    1    3    3    0    0 -0.15765412622E+01  0.11813134954E+02  0.79310848257E+01  0.14315646905E+02  0.00000000000E+00 0.  1.
</event>
<event>
 7    1  0.2472338E-008  0.4614232E+02  0.7816164E-02  0.1320468E+00
        -11   -1    0    0    0    0  0.00000000000E+00  0.00000000000E+00  0.45593999997E+02  0.45594000000E+02  0.51100000000E-03 0.  1.
         11   -1    0    0    0    0 -0.00000000000E+00 -0.00000000000E+00 -0.45593999997E+02  0.45594000000E+02  0.51100000000E-03 0. -1.
    9900012    2    1    2    0    0 -0.10512201131E+02  0.16352573284E+02  0.40634964954E+02  0.46142318715E+02  0.10000008700E+02 0.  0.
         12    1    1    2    0    0  0.10512201131E+02 -0.16352573284E+02 -0.40634964954E+02  0.45045681285E+02  0.00000000000E+00 0. -1.
         11    1    3    3    0    0  0.18142793060E+01  0.23244637819E+01  0.56207487521E+01  0.63472480705E+01  0.51100000000E-03 0. -1.
        -11    1    3    3    0    0 -0.26711045397E+00  0.46739532404E+00  0.28200663202E+00  0.60772887473E+00  0.51100000000E-03 0.  1.
        -12    1    3    3    0    0 -0.12059369982E+02  0.13560714178E+02  0.34732209570E+02  0.39187341770E+02  0.00000000000E+00 0.  1.
</event>
<event>
 7    1  0.2472338E-008  0.4614232E+02  0.7816164E-02  0.1320468E+00
        -11   -1    0    0    0    0  0.00000000000E+00  0.00000000000E+00  0.45593999997E+02  0.45594000000E+02  0.51100000000E-03 0. -1.
         11   -1    0    0    0    0 -0.00000000000E+00 -0.00000000000E+00 -0.45593999997E+02  0.45594000000E+02  0.51100000000E-03 0.  1.
    9900012    2    1    2    0    0 -0.77249934785E+01 -0.44188351495E+02  0.41021406436E+01  0.46142317743E+02  0.99999998387E+01 0.  0.
         12    1    1    2    0    0  0.77249934785E+01  0.44188351495E+02 -0.41021406436E+01  0.45045682257E+02  0.00000000000E+00 0. -1.
         11    1    3    3    0    0  0.87756005912E+00 -0.18326411170E+02  0.22311315803E+01  0.18482570342E+02  0.51100000000E-03 0. -1.
        -11    1    3    3    0    0 -0.44027216084E+01 -0.12022007347E+02 -0.12499557010E+01  0.12863708941E+02  0.51100000000E-03 0.  1.
        -12    1    3    3    0    0 -0.41998319292E+01 -0.13839932978E+02  0.31209647643E+01  0.14796038461E+02  0.00000000000E+00 0.  1.
</event>
<event>
 7    1  0.2472338E-008  0.4614232E+02  0.7816164E-02  0.1320468E+00
        -11   -1    0    0    0    0  0.00000000000E+00  0.00000000000E+00  0.45593999997E+02  0.45594000000E+02  0.51100000000E-03 0.  1.
         11   -1    0    0    0    0 -0.00000000000E+00 -0.00000000000E+00 -0.45593999997E+02  0.45594000000E+02  0.51100000000E-03 0. -1.
    9900012    2    1    2    0    0  0.29494427619E+02 -0.19736789371E+02  0.27742592570E+02  0.46142316991E+02  0.99999929758E+01 0.  0.
         12    1    1    2    0    0 -0.29494427619E+02  0.19736789371E+02 -0.27742592570E+02  0.45045683009E+02  0.00000000000E+00 0. -1.
         11    1    3    3    0    0  0.13925392721E+02 -0.62499688504E+01  0.15685657177E+02  0.21886491596E+02  0.51100000000E-03 0. -1.
        -11    1    3    3    0    0  0.96416050606E+01 -0.97496290605E+01  0.99402651563E+01  0.16935899344E+02  0.51100000000E-03 0.  1.
         12    1    3    3    0    0  0.59274298378E+01 -0.37371914604E+01  0.21166702371E+01  0.73199260506E+01  0.00000000000E+00 0. -1.
</event>
<event>
 7    1  0.2472338E-008  0.4614232E+02  0.7816164E-02  0.1320468E+00
        -11   -1    0    0    0    0  0.00000000000E+00  0.00000000000E+00  0.45593999997E+02  0.45594000000E+02  0.51100000000E-03 0. -1.
         11   -1    0    0    0    0 -0.00000000000E+00 -0.00000000000E+00 -0.45593999997E+02  0.45594000000E+02  0.51100000000E-03 0.  1.
    9900012    2    1    2    0    0  0.22376618568E+02 -0.37801309829E+02 -0.99730259488E+01  0.46142319520E+02  0.10000016043E+02 0.  0.
         12    1    1    2    0    0 -0.22376618568E+02  0.37801309829E+02  0.99730259488E+01  0.45045680480E+02  0.00000000000E+00 0. -1.
         11    1    3    3    0    0  0.98037065373E+00 -0.12320690756E+01  0.14450275454E+01  0.21371068513E+01  0.51100000000E-03 0. -1.
        -11    1    3    3    0    0  0.13841725460E+01 -0.20324269994E+01 -0.14828067745E+01  0.28714820802E+01  0.51100000000E-03 0.  1.
        -12    1    3    3    0    0  0.20012075368E+02 -0.34536813754E+02 -0.99352467197E+01  0.41133730589E+02  0.00000000000E+00 0.  1.
</event>
<event>
 7    1  0.2472338E-008  0.4614232E+02  0.7816164E-02  0.1320468E+00
        -11   -1    0    0    0    0  0.00000000000E+00  0.00000000000E+00  0.45593999997E+02  0.45594000000E+02  0.51100000000E-03 0. -1.
         11   -1    0    0    0    0 -0.00000000000E+00 -0.00000000000E+00 -0.45593999997E+02  0.45594000000E+02  0.51100000000E-03 0.  1.
    9900012    2    1    2    0    0  0.44952847249E+02 -0.28373264123E+01 -0.55196746650E+00  0.46142316910E+02  0.99999922358E+01 0.  0.
         12    1    1    2    0    0 -0.44952847249E+02  0.28373264123E+01  0.55196746650E+00  0.45045683090E+02  0.00000000000E+00 0. -1.
         11    1    3    3    0    0  0.92836549139E+01 -0.81224240293E+00  0.25624312247E+01  0.96649904461E+01  0.51100000000E-03 0. -1.
        -11    1    3    3    0    0  0.19010296404E+02  0.20053344971E+01 -0.29142577189E+01  0.19336639680E+02  0.51100000000E-03 0.  1.
         12    1    3    3    0    0  0.16658895932E+02 -0.40304185065E+01 -0.20014097225E+00  0.17140686784E+02  0.00000000000E+00 0. -1.
</event>
<event>
 7    1  0.2472338E-008  0.4614232E+02  0.7816164E-02  0.1320468E+00
        -11   -1    0    0    0    0  0.00000000000E+00  0.00000000000E+00  0.45593999997E+02  0.45594000000E+02  0.51100000000E-03 0.  1.
         11   -1    0    0    0    0 -0.00000000000E+00 -0.00000000000E+00 -0.45593999997E+02  0.45594000000E+02  0.51100000000E-03 0. -1.
    9900012    2    1    2    0    0  0.68676369676E+01 -0.44016332699E+02  0.66716942155E+01  0.46142317793E+02  0.10000000293E+02 0.  0.
         12    1    1    2    0    0 -0.68676369676E+01  0.44016332699E+02 -0.66716942155E+01  0.45045682207E+02  0.00000000000E+00 0. -1.
         11    1    3    3    0    0  0.10889935320E+01 -0.11001181620E+02 -0.15976392105E+01  0.11169796563E+02  0.51100000000E-03 0. -1.
        -11    1    3    3    0    0  0.15311073355E+01 -0.23472652107E+02  0.52765106262E+01  0.24107078862E+02  0.51100000000E-03 0.  1.
        -12    1    3    3    0    0  0.42475361002E+01 -0.95424989723E+01  0.29928227997E+01  0.10865442369E+02  0.00000000000E+00 0.  1.
</event>
<event>
 7    1  0.2472338E-008  0.4614232E+02  0.7816164E-02  0.1320468E+00
        -11   -1    0    0    0    0  0.00000000000E+00  0.00000000000E+00  0.45593999997E+02  0.45594000000E+02  0.51100000000E-03 0.  1.
         11   -1    0    0    0    0 -0.00000000000E+00 -0.00000000000E+00 -0.45593999997E+02  0.45594000000E+02  0.51100000000E-03 0. -1.
    9900012    2    1    2    0    0  0.42581559204E+02 -0.48704000104E+00  0.14686286794E+02  0.46142318608E+02  0.10000007727E+02 0.  0.
         12    1    1    2    0    0 -0.42581559204E+02  0.48704000104E+00 -0.14686286794E+02  0.45045681392E+02  0.00000000000E+00 0. -1.
         11    1    3    3    0    0  0.17867208095E+02 -0.14492470029E+01  0.30819958897E+01  0.18188901586E+02  0.51100000000E-03 0. -1.
        -11    1    3    3    0    0  0.32658396235E+01  0.13832360964E+01 -0.34604749471E-01  0.35468645724E+01  0.51100000000E-03 0.  1.
        -12    1    3    3    0    0  0.21448511486E+02 -0.42102909456E+00  0.11638895653E+02  0.24406552450E+02  0.00000000000E+00 0.  1.
</event>
<event>
 7    1  0.2472338E-008  0.4614232E+02  0.7816164E-02  0.1320468E+00
        -11   -1    0    0    0    0  0.00000000000E+00  0.00000000000E+00  0.45593999997E+02  0.45594000000E+02  0.51100000000E-03 0. -1.
         11   -1    0    0    0    0 -0.00000000000E+00 -0.00000000000E+00 -0.45593999997E+02  0.45594000000E+02  0.51100000000E-03 0.  1.
    9900012    2    1    2    0    0  0.41678872338E+02  0.16243432932E+02 -0.53043402869E+01  0.46142317203E+02  0.99999949074E+01 0.  0.
         12    1    1    2    0    0 -0.41678872338E+02 -0.16243432932E+02  0.53043402869E+01  0.45045682797E+02  0.00000000000E+00 0. -1.
         11    1    3    3    0    0  0.14800408154E+02  0.58145399306E+01 -0.23086221714E+01  0.16068313313E+02  0.51100000000E-03 0. -1.
        -11    1    3    3    0    0  0.11637983021E+02  0.80989687918E+01 -0.36554550188E+01  0.14642345985E+02  0.51100000000E-03 0.  1.
         12    1    3    3    0    0  0.15240481163E+02  0.23299242096E+01  0.65973690330E+00  0.15431657905E+02  0.00000000000E+00 0. -1.
</event>
<event>
 7    1  0.2472338E-008  0.4614233E+02  0.7816164E-02  0.1320468E+00
        -11   -1    0    0    0    0  0.00000000000E+00  0.00000000000E+00  0.45593999997E+02  0.45594000000E+02  0.51100000000E-03 0.  1.
         11   -1    0    0    0    0 -0.00000000000E+00 -0.00000000000E+00 -0.45593999997E+02  0.45594000000E+02  0.51100000000E-03 0. -1.
    9900012    2    1    2    0    0  0.14342941786E+02  0.20881416470E+02  0.37247267411E+02  0.46142329149E+02  0.10000103841E+02 0.  0.
         12    1    1    2    0    0 -0.14342941786E+02 -0.20881416470E+02 -0.37247267411E+02  0.45045670851E+02  0.00000000000E+00 0. -1.
         11    1    3    3    0    0  0.97954671019E+01  0.82642582029E+01  0.14272109915E+02  0.19181821109E+02  0.51100000000E-03 0. -1.
        -11    1    3    3    0    0  0.90340274418E+00  0.65672165272E+01  0.78991941490E+01  0.10312213046E+02  0.51100000000E-03 0.  1.
        -12    1    3    3    0    0  0.36440719394E+01  0.60499417394E+01  0.15075963347E+02  0.16648294994E+02  0.00000000000E+00 0.  1.
</event>
<event>
 7    1  0.2472338E-008  0.4614232E+02  0.7816164E-02  0.1320468E+00
        -11   -1    0    0    0    0  0.00000000000E+00  0.00000000000E+00  0.45593999997E+02  0.45594000000E+02  0.51100000000E-03 0.  1.
         11   -1    0    0    0    0 -0.00000000000E+00 -0.00000000000E+00 -0.45593999997E+02  0.45594000000E+02  0.51100000000E-03 0. -1.
    9900012    2    1    2    0    0 -0.23807845797E+02 -0.36050489338E+02  0.12753909505E+02  0.46142317513E+02  0.99999977413E+01 0.  0.
         12    1    1    2    0    0  0.23807845797E+02  0.36050489338E+02 -0.12753909505E+02  0.45045682487E+02  0.00000000000E+00 0. -1.
         11    1    3    3    0    0 -0.16427494427E+02 -0.19165339369E+02  0.78081559918E+01  0.26422341050E+02  0.51100000000E-03 0. -1.
        -11    1    3    3    0    0 -0.67661203740E+01 -0.14766014919E+02  0.25128794068E+01  0.16435636425E+02  0.51100000000E-03 0.  1.
         12    1    3    3    0    0 -0.61423099596E+00 -0.21191350496E+01  0.24328741060E+01  0.32843400388E+01  0.00000000000E+00 0. -1.
</event>
<event>
 7    1  0.2472338E-008  0.4614232E+02  0.7816164E-02  0.1320468E+00
        -11   -1    0    0    0    0  0.00000000000E+00  0.00000000000E+00  0.45593999997E+02  0.45594000000E+02  0.51100000000E-03 0.  1.
         11   -1    0    0    0    0 -0.00000000000E+00 -0.00000000000E+00 -0.45593999997E+02  0.45594000000E+02  0.51100000000E-03 0. -1.
    9900012    2    1    2    0    0 -0.22604494598E+02  0.24241851984E+02  0.30503817549E+02  0.46142318201E+02  0.10000004014E+02 0.  0.
         12    1    1    2    0    0  0.22604494598E+02 -0.24241851984E+02 -0.30503817549E+02  0.45045681799E+02  0.00000000000E+00 0. -1.
         11    1    3    3    0    0 -0.98127469140E+01  0.77014588397E+01  0.80356845676E+01  0.14838284840E+02  0.51100000000E-03 0. -1.
        -11    1    3    3    0    0 -0.97037614775E+01  0.80330211136E+01  0.14855663851E+02  0.19477760748E+02  0.51100000000E-03 0.  1.
         12    1    3    3    0    0 -0.30879862066E+01  0.85073720303E+01  0.76124691306E+01  0.11826272614E+02  0.00000000000E+00 0. -1.
</event>
<event>
 7    1  0.2472338E-008  0.4614232E+02  0.7816164E-02  0.1320468E+00
        -11   -1    0    0    0    0  0.00000000000E+00  0.00000000000E+00  0.45593999997E+02  0.45594000000E+02  0.51100000000E-03 0.  1.
         11   -1    0    0    0    0 -0.00000000000E+00 -0.00000000000E+00 -0.45593999997E+02  0.45594000000E+02  0.51100000000E-03 0. -1.
    9900012    2    1    2    0    0  0.28521652355E+02 -0.10001571789E+02  0.33400561488E+02  0.46142316533E+02  0.99999888032E+01 0.  0.
         12    1    1    2    0    0 -0.28521652355E+02  0.10001571789E+02 -0.33400561488E+02  0.45045683467E+02  0.00000000000E+00 0. -1.
         11    1    3    3    0    0  0.59106516438E+01 -0.45661312996E+01  0.10155889739E+02  0.12606643271E+02  0.51100000000E-03 0. -1.
        -11    1    3    3    0    0  0.12853391780E+02 -0.59563921067E+01  0.16007911715E+02  0.21376190608E+02  0.51100000000E-03 0.  1.
         12    1    3    3    0    0  0.97576089310E+01  0.52095161761E+00  0.72367600335E+01  0.12159482654E+02  0.00000000000E+00 0. -1.
</event>
<event>
 7    1  0.2472338E-008  0.4614232E+02  0.7816164E-02  0.1320468E+00
        -11   -1    0    0    0    0  0.00000000000E+00  0.00000000000E+00  0.45593999997E+02  0.45594000000E+02  0.51100000000E-03 0.  1.
         11   -1    0    0    0    0 -0.00000000000E+00 -0.00000000000E+00 -0.45593999997E+02  0.45594000000E+02  0.51100000000E-03 0. -1.
    9900012    2    1    2    0    0  0.11019684456E+02 -0.40658097139E+02  0.15956166355E+02  0.46142317042E+02  0.99999934388E+01 0.  0.
         12    1    1    2    0    0 -0.11019684456E+02  0.40658097139E+02 -0.15956166355E+02  0.45045682958E+02  0.00000000000E+00 0. -1.
         11    1    3    3    0    0  0.34957527439E+01 -0.93679574155E+01  0.41674727876E+01  0.10832670173E+02  0.51100000000E-03 0. -1.
        -11    1    3    3    0    0  0.72920373416E+01 -0.30592924620E+02  0.94212329336E+01  0.32830785486E+02  0.51100000000E-03 0.  1.
         12    1    3    3    0    0  0.23189437029E+00 -0.69721510339E+00  0.23674606340E+01  0.24788613824E+01  0.00000000000E+00 0. -1.
</event>
<event>
 7    1  0.2472338E-008  0.4614232E+02  0.7816164E-02  0.1320468E+00
        -11   -1    0    0    0    0  0.00000000000E+00  0.00000000000E+00  0.45593999997E+02  0.45594000000E+02  0.51100000000E-03 0.  1.
         11   -1    0    0    0    0 -0.00000000000E+00 -0.00000000000E+00 -0.45593999997E+02  0.45594000000E+02  0.51100000000E-03 0. -1.
    9900012    2    1    2    0    0 -0.54205426012E+01 -0.36037789645E+02  0.26476573793E+02  0.46142317361E+02  0.99999963525E+01 0.  0.
         12    1    1    2    0    0  0.54205426012E+01  0.36037789645E+02 -0.26476573793E+02  0.45045682639E+02  0.00000000000E+00 0. -1.
         11    1    3    3    0    0 -0.43468903314E+01 -0.10292265524E+02  0.68575405321E+01  0.13109235202E+02  0.51100000000E-03 0. -1.
        -11    1    3    3    0    0 -0.23605505582E+01 -0.16554973356E+02  0.15772781590E+02  0.22987387435E+02  0.51100000000E-03 0.  1.
         12    1    3    3    0    0  0.12868982884E+01 -0.91905507649E+01  0.38462516712E+01  0.10045694724E+02  0.00000000000E+00 0. -1.
</event>
<event>
 7    1  0.2472338E-008  0.4614232E+02  0.7816164E-02  0.1320468E+00
        -11   -1    0    0    0    0  0.00000000000E+00  0.00000000000E+00  0.45593999997E+02  0.45594000000E+02  0.51100000000E-03 0.  1.
         11   -1    0    0    0    0 -0.00000000000E+00 -0.00000000000E+00 -0.45593999997E+02  0.45594000000E+02  0.51100000000E-03 0. -1.
    9900012    2    1    2    0    0 -0.14572970484E+02 -0.41035241314E+02  0.11526096063E+02  0.46142318866E+02  0.10000010072E+02 0.  0.
         12    1    1    2    0    0  0.14572970484E+02  0.41035241314E+02 -0.11526096063E+02  0.45045681134E+02  0.00000000000E+00 0. -1.
         11    1    3    3    0    0  0.48654003701E+00 -0.76966323788E+01  0.40503355053E+01  0.87109178132E+01  0.51100000000E-03 0. -1.
        -11    1    3    3    0    0 -0.94916449476E+01 -0.23206575376E+02  0.59608580462E+01  0.25771462772E+02  0.51100000000E-03 0.  1.
         12    1    3    3    0    0 -0.55678655738E+01 -0.10132033559E+02  0.15149025111E+01  0.11659938281E+02  0.00000000000E+00 0. -1.
</event>
<event>
 7    1  0.2472338E-008  0.4614231E+02  0.7816164E-02  0.1320468E+00
        -11   -1    0    0    0    0  0.00000000000E+00  0.00000000000E+00  0.45593999997E+02  0.45594000000E+02  0.51100000000E-03 0. -1.
         11   -1    0    0    0    0 -0.00000000000E+00 -0.00000000000E+00 -0.45593999997E+02  0.45594000000E+02  0.51100000000E-03 0.  1.
    9900012    2    1    2    0    0  0.31634620905E+01  0.18151779661E+02 -0.41104977660E+02  0.46142314461E+02  0.99999699038E+01 0.  0.
         12    1    1    2    0    0 -0.31634620905E+01 -0.18151779661E+02  0.41104977660E+02  0.45045685539E+02  0.00000000000E+00 0. -1.
         11    1    3    3    0    0  0.36678268135E+01  0.55156293796E+01 -0.18108918543E+02  0.19282324861E+02  0.51100000000E-03 0. -1.
        -11    1    3    3    0    0  0.17707081844E+00  0.13019871353E+02 -0.20917761102E+02  0.24639422353E+02  0.51100000000E-03 0.  1.
        -12    1    3    3    0    0 -0.68143554145E+00 -0.38372107067E+00 -0.20782980150E+01  0.22205672465E+01  0.00000000000E+00 0.  1.
</event>
<event>
 7    1  0.2472338E-008  0.4614232E+02  0.7816164E-02  0.1320468E+00
        -11   -1    0    0    0    0  0.00000000000E+00  0.00000000000E+00  0.45593999997E+02  0.45594000000E+02  0.51100000000E-03 0.  1.
         11   -1    0    0    0    0 -0.00000000000E+00 -0.00000000000E+00 -0.45593999997E+02  0.45594000000E+02  0.51100000000E-03 0. -1.
    9900012    2    1    2    0    0 -0.53518900561E+01  0.84996775490E+01  0.43911573234E+02  0.46142317527E+02  0.99999978631E+01 0.  0.
         12    1    1    2    0    0  0.53518900561E+01 -0.84996775490E+01 -0.43911573234E+02  0.45045682473E+02  0.00000000000E+00 0. -1.
         11    1    3    3    0    0 -0.48887986857E+01  0.61226880537E+01  0.21017911719E+02  0.22430788548E+02  0.51100000000E-03 0.  1.
        -11    1    3    3    0    0  0.91158653216E+00 -0.16403962484E+01  0.84964328472E+01  0.87012218249E+01  0.51100000000E-03 0. -1.
         12    1    3    3    0    0 -0.13746779025E+01  0.40173857438E+01  0.14397228667E+02  0.15010307154E+02  0.00000000000E+00 0. -1.
</event>
<event>
 7    1  0.2472338E-008  0.4614232E+02  0.7816164E-02  0.1320468E+00
        -11   -1    0    0    0    0  0.00000000000E+00  0.00000000000E+00  0.45593999997E+02  0.45594000000E+02  0.51100000000E-03 0. -1.
         11   -1    0    0    0    0 -0.00000000000E+00 -0.00000000000E+00 -0.45593999997E+02  0.45594000000E+02  0.51100000000E-03 0.  1.
    9900012    2    1    2    0    0 -0.42650154272E+02  0.22290060368E+01 -0.14321641928E+02  0.46142317023E+02  0.99999932675E+01 0.  0.
         12    1    1    2    0    0  0.42650154272E+02 -0.22290060368E+01  0.14321641928E+02  0.45045682977E+02  0.00000000000E+00 0. -1.
         11    1    3    3    0    0 -0.16261999756E+02 -0.11396464034E+01 -0.53252208974E+01  0.17149618301E+02  0.51100000000E-03 0. -1.
        -11    1    3    3    0    0 -0.26025179993E+02  0.20198342938E+01 -0.89499147296E+01  0.27595120913E+02  0.51100000000E-03 0.  1.
         12    1    3    3    0    0 -0.36297452243E+00  0.13488181464E+01 -0.46506301209E-01  0.13975778090E+01  0.00000000000E+00 0. -1.
</event>
<event>
 7    1  0.2472338E-008  0.4614232E+02  0.7816164E-02  0.1320468E+00
        -11   -1    0    0    0    0  0.00000000000E+00  0.00000000000E+00  0.45593999997E+02  0.45594000000E+02  0.51100000000E-03 0.  1.
         11   -1    0    0    0    0 -0.00000000000E+00 -0.00000000000E+00 -0.45593999997E+02  0.45594000000E+02  0.51100000000E-03 0. -1.
    9900012    2    1    2    0    0 -0.21070014303E+02  0.30284284310E+02  0.25846278779E+02  0.46142317570E+02  0.99999982582E+01 0.  0.
         12    1    1    2    0    0  0.21070014303E+02 -0.30284284310E+02 -0.25846278779E+02  0.45045682430E+02  0.00000000000E+00 0. -1.
         11    1    3    3    0    0 -0.88110075418E+01  0.10156022439E+02  0.47055599871E+01  0.14245032142E+02  0.51100000000E-03 0. -1.
        -11    1    3    3    0    0 -0.84966404295E+01  0.14533530326E+02  0.12664801339E+02  0.21066883860E+02  0.51100000000E-03 0.  1.
        -12    1    3    3    0    0 -0.37623663316E+01  0.55947315445E+01  0.84759174526E+01  0.10830401568E+02  0.00000000000E+00 0.  1.
</event>
<event>
 7    1  0.2472338E-008  0.4614232E+02  0.7816164E-02  0.1320468E+00
        -11   -1    0    0    0    0  0.00000000000E+00  0.00000000000E+00  0.45593999997E+02  0.45594000000E+02  0.51100000000E-03 0.  1.
         11   -1    0    0    0    0 -0.00000000000E+00 -0.00000000000E+00 -0.45593999997E+02  0.45594000000E+02  0.51100000000E-03 0. -1.
    9900012    2    1    2    0    0  0.17314260440E+02  0.20268669445E+02  0.36311306614E+02  0.46142316925E+02  0.99999923801E+01 0.  0.
         12    1    1    2    0    0 -0.17314260440E+02 -0.20268669445E+02 -0.36311306614E+02  0.45045683075E+02  0.00000000000E+00 0. -1.
         11    1    3    3    0    0  0.13224660432E+01  0.19987179248E+01  0.65340309814E+01  0.69596947423E+01  0.51100000000E-03 0.  1.
        -11    1    3    3    0    0  0.11136743918E+02  0.74829354743E+01  0.18379303009E+02  0.22755662323E+02  0.51100000000E-03 0. -1.
         12    1    3    3    0    0  0.48550504794E+01  0.10787016046E+02  0.11397972624E+02  0.16426959861E+02  0.00000000000E+00 0. -1.
</event>
<event>
 7    1  0.2472338E-008  0.4614232E+02  0.7816164E-02  0.1320468E+00
        -11   -1    0    0    0    0  0.00000000000E+00  0.00000000000E+00  0.45593999997E+02  0.45594000000E+02  0.51100000000E-03 0. -1.
         11   -1    0    0    0    0 -0.00000000000E+00 -0.00000000000E+00 -0.45593999997E+02  0.45594000000E+02  0.51100000000E-03 0.  1.
    9900012    2    1    2    0    0 -0.43645237193E+02 -0.31378176876E+01 -0.10693960578E+02  0.46142318494E+02  0.10000006680E+02 0.  0.
         12    1    1    2    0    0  0.43645237193E+02  0.31378176876E+01  0.10693960578E+02  0.45045681506E+02  0.00000000000E+00 0. -1.
         11    1    3    3    0    0 -0.10603806251E+02 -0.15389553572E+00 -0.18185171267E+01  0.10759711690E+02  0.51100000000E-03 0. -1.
        -11    1    3    3    0    0 -0.26344899604E+02  0.11940303002E-01 -0.41850963343E+01  0.26675249002E+02  0.51100000000E-03 0.  1.
        -12    1    3    3    0    0 -0.66965313384E+01 -0.29958624549E+01 -0.46903471172E+01  0.87073578022E+01  0.00000000000E+00 0.  1.
</event>
<event>
 7    1  0.2472338E-008  0.4614232E+02  0.7816164E-02  0.1320468E+00
        -11   -1    0    0    0    0  0.00000000000E+00  0.00000000000E+00  0.45593999997E+02  0.45594000000E+02  0.51100000000E-03 0. -1.
         11   -1    0    0    0    0 -0.00000000000E+00 -0.00000000000E+00 -0.45593999997E+02  0.45594000000E+02  0.51100000000E-03 0.  1.
    9900012    2    1    2    0    0 -0.91095773621E+01 -0.12889052625E+02 -0.42190062245E+02  0.46142318414E+02  0.10000005957E+02 0.  0.
         12    1    1    2    0    0  0.91095773621E+01  0.12889052625E+02  0.42190062245E+02  0.45045681586E+02  0.00000000000E+00 0. -1.
         11    1    3    3    0    0 -0.18372966332E+01 -0.12352124522E+01 -0.56743223295E+01  0.60909229909E+01  0.51100000000E-03 0. -1.
        -11    1    3    3    0    0 -0.70896689589E+01 -0.12575281438E+02 -0.28176143466E+02  0.31659061421E+02  0.51100000000E-03 0.  1.
        -12    1    3    3    0    0 -0.18261177002E+00  0.92144126581E+00 -0.83395964493E+01  0.83923340020E+01  0.00000000000E+00 0.  1.
</event>
<event>
 7    1  0.2472338E-008  0.4614232E+02  0.7816164E-02  0.1320468E+00
        -11   -1    0    0    0    0  0.00000000000E+00  0.00000000000E+00  0.45593999997E+02  0.45594000000E+02  0.51100000000E-03 0. -1.
         11   -1    0    0    0    0 -0.00000000000E+00 -0.00000000000E+00 -0.45593999997E+02  0.45594000000E+02  0.51100000000E-03 0.  1.
    9900012    2    1    2    0    0  0.93118280086E+01 -0.10151451675E+02 -0.42887659648E+02  0.46142318053E+02  0.10000002665E+02 0.  0.
         12    1    1    2    0    0 -0.93118280086E+01  0.10151451675E+02  0.42887659648E+02  0.45045681947E+02  0.00000000000E+00 0. -1.
         11    1    3    3    0    0  0.51960273832E+01 -0.14690353845E+01 -0.13732264259E+02  0.14755739476E+02  0.51100000000E-03 0. -1.
        -11    1    3    3    0    0  0.38504042767E+01 -0.11617057121E+01 -0.85125839512E+01  0.94148424864E+01  0.51100000000E-03 0.  1.
        -12    1    3    3    0    0  0.26539634868E+00 -0.75207105782E+01 -0.20642811438E+02  0.21971736091E+02  0.00000000000E+00 0.  1.
</event>
<event>
 7    1  0.2472338E-008  0.4614232E+02  0.7816164E-02  0.1320468E+00
        -11   -1    0    0    0    0  0.00000000000E+00  0.00000000000E+00  0.45593999997E+02  0.45594000000E+02  0.51100000000E-03 0.  1.
         11   -1    0    0    0    0 -0.00000000000E+00 -0.00000000000E+00 -0.45593999997E+02  0.45594000000E+02  0.51100000000E-03 0. -1.
    9900012    2    1    2    0    0  0.19681880627E+02 -0.32184774563E+02  0.24614576557E+02  0.46142317435E+02  0.99999970250E+01 0.  0.
         12    1    1    2    0    0 -0.19681880627E+02  0.32184774563E+02 -0.24614576557E+02  0.45045682565E+02  0.00000000000E+00 0. -1.
         11    1    3    3    0    0  0.29033762399E+01 -0.97243338826E+00  0.33982260618E+00  0.30806979647E+01  0.51100000000E-03 0. -1.
        -11    1    3    3    0    0  0.13856262827E+02 -0.24101390868E+02  0.17804092352E+02  0.33013009042E+02  0.51100000000E-03 0.  1.
         12    1    3    3    0    0  0.29222415603E+01 -0.71109503063E+01  0.64706615994E+01  0.10048610428E+02  0.00000000000E+00 0. -1.
</event>
<event>
 7    1  0.2472338E-008  0.4614231E+02  0.7816164E-02  0.1320468E+00
        -11   -1    0    0    0    0  0.00000000000E+00  0.00000000000E+00  0.45593999997E+02  0.45594000000E+02  0.51100000000E-03 0.  1.
         11   -1    0    0    0    0 -0.00000000000E+00 -0.00000000000E+00 -0.45593999997E+02  0.45594000000E+02  0.51100000000E-03 0. -1.
    9900012    2    1    2    0    0 -0.17415828230E+02 -0.15654669135E+02  0.38480308727E+02  0.46142313210E+02  0.99999584971E+01 0.  0.
         12    1    1    2    0    0  0.17415828230E+02  0.15654669135E+02 -0.38480308727E+02  0.45045686790E+02  0.00000000000E+00 0. -1.
         11    1    3    3    0    0 -0.76612660761E-01  0.72854231721E-01 -0.51023642376E+00  0.52107457060E+00  0.51100000000E-03 0. -1.
        -11    1    3    3    0    0 -0.47415577177E+01 -0.66084067375E+01  0.13575730492E+02  0.15825734354E+02  0.51100000000E-03 0.  1.
        -12    1    3    3    0    0 -0.12597657852E+02 -0.91191166287E+01  0.25414814659E+02  0.29795504285E+02  0.00000000000E+00 0.  1.
</event>
<event>
 7    1  0.2472338E-008  0.4614232E+02  0.7816164E-02  0.1320468E+00
        -11   -1    0    0    0    0  0.00000000000E+00  0.00000000000E+00  0.45593999997E+02  0.45594000000E+02  0.51100000000E-03 0.  1.
         11   -1    0    0    0    0 -0.00000000000E+00 -0.00000000000E+00 -0.45593999997E+02  0.45594000000E+02  0.51100000000E-03 0. -1.
    9900012    2    1    2    0    0 -0.18116859908E+02 -0.30562240307E+02  0.27691917811E+02  0.46142318103E+02  0.10000003119E+02 0.  0.
         12    1    1    2    0    0  0.18116859908E+02  0.30562240307E+02 -0.27691917811E+02  0.45045681897E+02  0.00000000000E+00 0. -1.
         11    1    3    3    0    0 -0.62598779819E+01 -0.60085910580E+01  0.52595415379E+01  0.10146527303E+02  0.51100000000E-03 0. -1.
        -11    1    3    3    0    0 -0.54985314448E+01 -0.15688306769E+02  0.97725598067E+01  0.19283665180E+02  0.51100000000E-03 0.  1.
        -12    1    3    3    0    0 -0.63584504815E+01 -0.88653424800E+01  0.12659816466E+02  0.16712125621E+02  0.00000000000E+00 0.  1.
</event>
<event>
 7    1  0.2472338E-008  0.4614232E+02  0.7816164E-02  0.1320468E+00
        -11   -1    0    0    0    0  0.00000000000E+00  0.00000000000E+00  0.45593999997E+02  0.45594000000E+02  0.51100000000E-03 0.  1.
         11   -1    0    0    0    0 -0.00000000000E+00 -0.00000000000E+00 -0.45593999997E+02  0.45594000000E+02  0.51100000000E-03 0. -1.
    9900012    2    1    2    0    0 -0.22945762459E+02  0.94191714469E+01  0.37601657242E+02  0.46142318377E+02  0.10000005614E+02 0.  0.
         12    1    1    2    0    0  0.22945762459E+02 -0.94191714469E+01 -0.37601657242E+02  0.45045681623E+02  0.00000000000E+00 0. -1.
         11    1    3    3    0    0 -0.94219561648E+01 -0.30988042400E+00  0.97341925227E+01  0.13550785519E+02  0.51100000000E-03 0. -1.
        -11    1    3    3    0    0 -0.26088733887E+01  0.32995167436E+01  0.61873591218E+01  0.74817407242E+01  0.51100000000E-03 0.  1.
         12    1    3    3    0    0 -0.10914932905E+02  0.64295351273E+01  0.21680105597E+02  0.25109792134E+02  0.00000000000E+00 0. -1.
</event>
<event>
 7    1  0.2472338E-008  0.4614232E+02  0.7816164E-02  0.1320468E+00
        -11   -1    0    0    0    0  0.00000000000E+00  0.00000000000E+00  0.45593999997E+02  0.45594000000E+02  0.51100000000E-03 0.  1.
         11   -1    0    0    0    0 -0.00000000000E+00 -0.00000000000E+00 -0.45593999997E+02  0.45594000000E+02  0.51100000000E-03 0. -1.
    9900012    2    1    2    0    0  0.40315121267E+02 -0.11637215359E+02  0.16382300282E+02  0.46142317114E+02  0.99999941021E+01 0.  0.
         12    1    1    2    0    0 -0.40315121267E+02  0.11637215359E+02 -0.16382300282E+02  0.45045682886E+02  0.00000000000E+00 0. -1.
         11    1    3    3    0    0  0.19645674640E+02 -0.88125491963E+01  0.11689078118E+02  0.24499961284E+02  0.51100000000E-03 0. -1.
        -11    1    3    3    0    0  0.12481561635E+01  0.43610746525E+00 -0.23278146807E+00  0.13424868724E+01  0.51100000000E-03 0.  1.
        -12    1    3    3    0    0  0.19421290464E+02 -0.32607736281E+01  0.49260036322E+01  0.20299868958E+02  0.00000000000E+00 0.  1.
</event>
<event>
 7    1  0.2472338E-008  0.4614232E+02  0.7816164E-02  0.1320468E+00
        -11   -1    0    0    0    0  0.00000000000E+00  0.00000000000E+00  0.45593999997E+02  0.45594000000E+02  0.51100000000E-03 0.  1.
         11   -1    0    0    0    0 -0.00000000000E+00 -0.00000000000E+00 -0.45593999997E+02  0.45594000000E+02  0.51100000000E-03 0. -1.
    9900012    2    1    2    0    0  0.11864490749E+02  0.32091999978E+01  0.43336455692E+02  0.46142317662E+02  0.99999990971E+01 0.  0.
         12    1    1    2    0    0 -0.11864490749E+02 -0.32091999978E+01 -0.43336455692E+02  0.45045682338E+02  0.00000000000E+00 0. -1.
         11    1    3    3    0    0  0.30605662136E+01  0.30464360505E+01  0.28717124261E+02  0.29039990776E+02  0.51100000000E-03 0. -1.
        -11    1    3    3    0    0  0.17173894087E+01 -0.40697008182E+00  0.28288449250E+01  0.33342787675E+01  0.51100000000E-03 0.  1.
         12    1    3    3    0    0  0.70865351265E+01  0.56973402910E+00  0.11790486506E+02  0.13768048119E+02  0.00000000000E+00 0. -1.
</event>
<event>
 7    1  0.2472338E-008  0.4614232E+02  0.7816164E-02  0.1320468E+00
        -11   -1    0    0    0    0  0.00000000000E+00  0.00000000000E+00  0.45593999997E+02  0.45594000000E+02  0.51100000000E-03 0. -1.
         11   -1    0    0    0    0 -0.00000000000E+00 -0.00000000000E+00 -0.45593999997E+02  0.45594000000E+02  0.51100000000E-03 0.  1.
    9900012    2    1    2    0    0  0.25678143745E+02  0.13223308484E+02 -0.34567188607E+02  0.46142317835E+02  0.10000000677E+02 0.  0.
         12    1    1    2    0    0 -0.25678143745E+02 -0.13223308484E+02  0.34567188607E+02  0.45045682165E+02  0.00000000000E+00 0. -1.
         11    1    3    3    0    0  0.96406468996E+01  0.87358092550E+01 -0.14760432434E+02  0.19675538160E+02  0.51100000000E-03 0. -1.
        -11    1    3    3    0    0  0.68202660986E+00 -0.13459440607E+00  0.29253215327E+00  0.75422229649E+00  0.51100000000E-03 0.  1.
        -12    1    3    3    0    0  0.15355470236E+02  0.46220936350E+01 -0.20099288327E+02  0.25712557379E+02  0.00000000000E+00 0.  1.
</event>
<event>
 7    1  0.2472338E-008  0.4614232E+02  0.7816164E-02  0.1320468E+00
        -11   -1    0    0    0    0  0.00000000000E+00  0.00000000000E+00  0.45593999997E+02  0.45594000000E+02  0.51100000000E-03 0.  1.
         11   -1    0    0    0    0 -0.00000000000E+00 -0.00000000000E+00 -0.45593999997E+02  0.45594000000E+02  0.51100000000E-03 0. -1.
    9900012    2    1    2    0    0 -0.42515619224E+02 -0.88574705184E+01 -0.11961641538E+02  0.46142317296E+02  0.99999957561E+01 0.  0.
         12    1    1    2    0    0  0.42515619224E+02  0.88574705184E+01  0.11961641538E+02  0.45045682704E+02  0.00000000000E+00 0. -1.
         11    1    3    3    0    0 -0.18741961360E+02 -0.32206180156E+01 -0.32867597243E+01  0.19298608390E+02  0.51100000000E-03 0. -1.
        -11    1    3    3    0    0 -0.15195176588E+02 -0.80554245654E+00 -0.30985458602E+01  0.15528788648E+02  0.51100000000E-03 0.  1.
         12    1    3    3    0    0 -0.85784812766E+01 -0.48313100462E+01 -0.55763359530E+01  0.11314920258E+02  0.00000000000E+00 0. -1.
</event>
<event>
 7    1  0.2472338E-008  0.4614232E+02  0.7816164E-02  0.1320468E+00
        -11   -1    0    0    0    0  0.00000000000E+00  0.00000000000E+00  0.45593999997E+02  0.45594000000E+02  0.51100000000E-03 0.  1.
         11   -1    0    0    0    0 -0.00000000000E+00 -0.00000000000E+00 -0.45593999997E+02  0.45594000000E+02  0.51100000000E-03 0. -1.
    9900012    2    1    2    0    0 -0.20378822189E+02 -0.46648994845E+00  0.40169633780E+02  0.46142317802E+02  0.10000000376E+02 0.  0.
         12    1    1    2    0    0  0.20378822189E+02  0.46648994845E+00 -0.40169633780E+02  0.45045682198E+02  0.00000000000E+00 0. -1.
         11    1    3    3    0    0 -0.82579858091E+01 -0.30364301041E+01  0.19488123580E+02  0.21382263639E+02  0.51100000000E-03 0. -1.
        -11    1    3    3    0    0 -0.11175293353E+02  0.36791672721E+00  0.16308605184E+02  0.19773546661E+02  0.51100000000E-03 0.  1.
         12    1    3    3    0    0 -0.94554302619E+00  0.22020234284E+01  0.43729050155E+01  0.49865075021E+01  0.00000000000E+00 0. -1.
</event>
<event>
 7    1  0.2472338E-008  0.4614232E+02  0.7816164E-02  0.1320468E+00
        -11   -1    0    0    0    0  0.00000000000E+00  0.00000000000E+00  0.45593999997E+02  0.45594000000E+02  0.51100000000E-03 0.  1.
         11   -1    0    0    0    0 -0.00000000000E+00 -0.00000000000E+00 -0.45593999997E+02  0.45594000000E+02  0.51100000000E-03 0. -1.
    9900012    2    1    2    0    0 -0.44106432029E+00  0.97782763155E+01  0.43969356489E+02  0.46142317238E+02  0.99999952266E+01 0.  0.
         12    1    1    2    0    0  0.44106432029E+00 -0.97782763155E+01 -0.43969356489E+02  0.45045682762E+02  0.00000000000E+00 0. -1.
         11    1    3    3    0    0  0.97948166035E+00  0.30327940791E+01  0.52395879996E+01  0.61327405714E+01  0.51100000000E-03 0. -1.
        -11    1    3    3    0    0 -0.33714756504E+01  0.26909038368E+01  0.28626150054E+02  0.28949339866E+02  0.51100000000E-03 0.  1.
        -12    1    3    3    0    0  0.19509296697E+01  0.40545783996E+01  0.10103618436E+02  0.11060236800E+02  0.00000000000E+00 0.  1.
</event>
<event>
 7    1  0.2472338E-008  0.4614232E+02  0.7816164E-02  0.1320468E+00
        -11   -1    0    0    0    0  0.00000000000E+00  0.00000000000E+00  0.45593999997E+02  0.45594000000E+02  0.51100000000E-03 0.  1.
         11   -1    0    0    0    0 -0.00000000000E+00 -0.00000000000E+00 -0.45593999997E+02  0.45594000000E+02  0.51100000000E-03 0. -1.
    9900012    2    1    2    0    0 -0.76888414223E+01 -0.20258680673E+02  0.39491531995E+02  0.46142317362E+02  0.99999963569E+01 0.  0.
         12    1    1    2    0    0  0.76888414223E+01  0.20258680673E+02 -0.39491531995E+02  0.45045682638E+02  0.00000000000E+00 0. -1.
         11    1    3    3    0    0 -0.34193270807E+01 -0.57012771303E+01  0.13762294135E+02  0.15283883627E+02  0.51100000000E-03 0. -1.
        -11    1    3    3    0    0 -0.29484251135E+01 -0.13216606220E+02  0.16056985224E+02  0.21004729596E+02  0.51100000000E-03 0.  1.
         12    1    3    3    0    0 -0.13210892281E+01 -0.13407973227E+01  0.96722526354E+01  0.98537041387E+01  0.00000000000E+00 0. -1.
</event>
<event>
 7    1  0.2472338E-008  0.4614232E+02  0.7816164E-02  0.1320468E+00
        -11   -1    0    0    0    0  0.00000000000E+00  0.00000000000E+00  0.45593999997E+02  0.45594000000E+02  0.51100000000E-03 0. -1.
         11   -1    0    0    0    0 -0.00000000000E+00 -0.00000000000E+00 -0.45593999997E+02  0.45594000000E+02  0.51100000000E-03 0.  1.
    9900012    2    1    2    0    0  0.26855805174E+01  0.28984022699E+02 -0.34377719725E+02  0.46142317321E+02  0.99999959839E+01 0.  0.
         12    1    1    2    0    0 -0.26855805174E+01 -0.28984022699E+02  0.34377719725E+02  0.45045682679E+02  0.00000000000E+00 0. -1.
         11    1    3    3    0    0  0.46240063720E+01  0.10020835925E+02 -0.11890426166E+02  0.16222848770E+02  0.51100000000E-03 0. -1.
        -11    1    3    3    0    0  0.93275798778E+00  0.40117792329E+01 -0.74956344012E+01  0.85527156748E+01  0.51100000000E-03 0.  1.
        -12    1    3    3    0    0 -0.28711838424E+01  0.14951407541E+02 -0.14991659158E+02  0.21366752875E+02  0.00000000000E+00 0.  1.
</event>
<event>
 7    1  0.2472338E-008  0.4614232E+02  0.7816164E-02  0.1320468E+00
        -11   -1    0    0    0    0  0.00000000000E+00  0.00000000000E+00  0.45593999997E+02  0.45594000000E+02  0.51100000000E-03 0.  1.
         11   -1    0    0    0    0 -0.00000000000E+00 -0.00000000000E+00 -0.45593999997E+02  0.45594000000E+02  0.51100000000E-03 0. -1.
    9900012    2    1    2    0    0 -0.92109688260E+01  0.40050398677E+02  0.18445515943E+02  0.46142318306E+02  0.10000004968E+02 0.  0.
         12    1    1    2    0    0  0.92109688260E+01 -0.40050398677E+02 -0.18445515943E+02  0.45045681694E+02  0.00000000000E+00 0. -1.
         11    1    3    3    0    0 -0.81823468188E+01  0.24908494248E+02  0.12706236674E+02  0.29134727317E+02  0.51100000000E-03 0. -1.
        -11    1    3    3    0    0 -0.18861814353E+01  0.14526472793E+02  0.43852253650E+01  0.15290725751E+02  0.51100000000E-03 0.  1.
         12    1    3    3    0    0  0.85755942819E+00  0.61543163543E+00  0.13540539041E+01  0.17168652381E+01  0.00000000000E+00 0. -1.
</event>
<event>
 7    1  0.2472338E-008  0.4614232E+02  0.7816164E-02  0.1320468E+00
        -11   -1    0    0    0    0  0.00000000000E+00  0.00000000000E+00  0.45593999997E+02  0.45594000000E+02  0.51100000000E-03 0.  1.
         11   -1    0    0    0    0 -0.00000000000E+00 -0.00000000000E+00 -0.45593999997E+02  0.45594000000E+02  0.51100000000E-03 0. -1.
    9900012    2    1    2    0    0 -0.43781987645E+02  0.62809199921E+01  0.85323548506E+01  0.46142317883E+02  0.10000001112E+02 0.  0.
         12    1    1    2    0    0  0.43781987645E+02 -0.62809199921E+01 -0.85323548506E+01  0.45045682117E+02  0.00000000000E+00 0. -1.
         11    1    3    3    0    0 -0.14804161120E+02  0.65152349495E+00  0.15124765672E+01  0.14895477668E+02  0.51100000000E-03 0. -1.
        -11    1    3    3    0    0 -0.27379684669E+02  0.42675580180E+01  0.46794648934E+01  0.28102607992E+02  0.51100000000E-03 0.  1.
        -12    1    3    3    0    0 -0.15981418558E+01  0.13618384792E+01  0.23404133900E+01  0.31442322228E+01  0.00000000000E+00 0.  1.
</event>
<event>
 7    1  0.2472338E-008  0.4614232E+02  0.7816164E-02  0.1320468E+00
        -11   -1    0    0    0    0  0.00000000000E+00  0.00000000000E+00  0.45593999997E+02  0.45594000000E+02  0.51100000000E-03 0.  1.
         11   -1    0    0    0    0 -0.00000000000E+00 -0.00000000000E+00 -0.45593999997E+02  0.45594000000E+02  0.51100000000E-03 0. -1.
    9900012    2    1    2    0    0 -0.29040682864E+01 -0.39457441813E+02  0.21535787526E+02  0.46142317950E+02  0.10000001722E+02 0.  0.
         12    1    1    2    0    0  0.29040682864E+01  0.39457441813E+02 -0.21535787526E+02  0.45045682050E+02  0.00000000000E+00 0. -1.
         11    1    3    3    0    0 -0.21297532126E+01 -0.19650999440E+02  0.66788863842E+01  0.20863967775E+02  0.51100000000E-03 0. -1.
        -11    1    3    3    0    0 -0.23551996292E+01 -0.12480347880E+02  0.11224416789E+02  0.16949736901E+02  0.51100000000E-03 0.  1.
         12    1    3    3    0    0  0.15808845553E+01 -0.73260944927E+01  0.36324843520E+01  0.83286132735E+01  0.00000000000E+00 0. -1.
</event>
<event>
 7    1  0.2472338E-008  0.4614232E+02  0.7816164E-02  0.1320468E+00
        -11   -1    0    0    0    0  0.00000000000E+00  0.00000000000E+00  0.45593999997E+02  0.45594000000E+02  0.51100000000E-03 0.  1.
         11   -1    0    0    0    0 -0.00000000000E+00 -0.00000000000E+00 -0.45593999997E+02  0.45594000000E+02  0.51100000000E-03 0. -1.
    9900012    2    1    2    0    0  0.40214196476E+02 -0.20132128513E+02 -0.25747279429E+01  0.46142318513E+02  0.10000006854E+02 0.  0.
         12    1    1    2    0    0 -0.40214196476E+02  0.20132128513E+02  0.25747279429E+01  0.45045681487E+02  0.00000000000E+00 0. -1.
         11    1    3    3    0    0  0.17636343892E+02 -0.66759274868E+01 -0.41752898538E+01  0.19314286922E+02  0.51100000000E-03 0. -1.
        -11    1    3    3    0    0  0.77676361643E+00 -0.23906486483E+00 -0.89802164313E+00  0.12111799445E+01  0.51100000000E-03 0.  1.
        -12    1    3    3    0    0  0.21801088967E+02 -0.13217136162E+02  0.24985835540E+01  0.25616851646E+02  0.00000000000E+00 0.  1.
</event>
<event>
 7    1  0.2472338E-008  0.4614232E+02  0.7816164E-02  0.1320468E+00
        -11   -1    0    0    0    0  0.00000000000E+00  0.00000000000E+00  0.45593999997E+02  0.45594000000E+02  0.51100000000E-03 0.  1.
         11   -1    0    0    0    0 -0.00000000000E+00 -0.00000000000E+00 -0.45593999997E+02  0.45594000000E+02  0.51100000000E-03 0. -1.
    9900012    2    1    2    0    0  0.34730330008E+02 -0.10550970951E+02  0.26675731914E+02  0.46142317814E+02  0.10000000479E+02 0.  0.
         12    1    1    2    0    0 -0.34730330008E+02  0.10550970951E+02 -0.26675731914E+02  0.45045682186E+02  0.00000000000E+00 0. -1.
         11    1    3    3    0    0  0.22866617648E+02 -0.10259605670E+02  0.15703142147E+02  0.29575841234E+02  0.51100000000E-03 0.  1.
        -11    1    3    3    0    0  0.45946769486E+01  0.43718871942E+00  0.20927299327E+01  0.50677124101E+01  0.51100000000E-03 0. -1.
        -12    1    3    3    0    0  0.72690354122E+01 -0.72855400061E+00  0.88798598345E+01  0.11498764170E+02  0.00000000000E+00 0.  1.
</event>
<event>
 7    1  0.2472338E-008  0.4614232E+02  0.7816164E-02  0.1320468E+00
        -11   -1    0    0    0    0  0.00000000000E+00  0.00000000000E+00  0.45593999997E+02  0.45594000000E+02  0.51100000000E-03 0. -1.
         11   -1    0    0    0    0 -0.00000000000E+00 -0.00000000000E+00 -0.45593999997E+02  0.45594000000E+02  0.51100000000E-03 0.  1.
    9900012    2    1    2    0    0  0.37136132248E+02  0.25337887790E+02  0.28306354251E+01  0.46142319043E+02  0.10000011689E+02 0.  0.
         12    1    1    2    0    0 -0.37136132248E+02 -0.25337887790E+02 -0.28306354251E+01  0.45045680957E+02  0.00000000000E+00 0. -1.
         11    1    3    3    0    0  0.34805296840E+01  0.50639116810E+01 -0.84344686755E+00  0.62023133808E+01  0.51100000000E-03 0. -1.
        -11    1    3    3    0    0  0.21945891651E+02  0.11268566187E+02 -0.19108840119E+00  0.24670615301E+02  0.51100000000E-03 0.  1.
        -12    1    3    3    0    0  0.11709710912E+02  0.90054099221E+01  0.38651706938E+01  0.15269390361E+02  0.00000000000E+00 0.  1.
</event>
<event>
 7    1  0.2472338E-008  0.4614232E+02  0.7816164E-02  0.1320468E+00
        -11   -1    0    0    0    0  0.00000000000E+00  0.00000000000E+00  0.45593999997E+02  0.45594000000E+02  0.51100000000E-03 0.  1.
         11   -1    0    0    0    0 -0.00000000000E+00 -0.00000000000E+00 -0.45593999997E+02  0.45594000000E+02  0.51100000000E-03 0. -1.
    9900012    2    1    2    0    0 -0.24816830452E+02 -0.25964842669E+02  0.27185755296E+02  0.46142318525E+02  0.10000006968E+02 0.  0.
         12    1    1    2    0    0  0.24816830452E+02  0.25964842669E+02 -0.27185755296E+02  0.45045681475E+02  0.00000000000E+00 0. -1.
         11    1    3    3    0    0 -0.94700232992E+01 -0.11448914655E+02  0.87814420452E+01  0.17258989331E+02  0.51100000000E-03 0.  1.
        -11    1    3    3    0    0 -0.14703117863E+01 -0.51256275860E+01  0.29746034235E+01  0.61059103078E+01  0.51100000000E-03 0. -1.
        -12    1    3    3    0    0 -0.13876495367E+02 -0.93903004282E+01  0.15429709827E+02  0.22777418887E+02  0.00000000000E+00 0.  1.
</event>
<event>
 7    1  0.2472338E-008  0.4614232E+02  0.7816164E-02  0.1320468E+00
        -11   -1    0    0    0    0  0.00000000000E+00  0.00000000000E+00  0.45593999997E+02  0.45594000000E+02  0.51100000000E-03 0.  1.
         11   -1    0    0    0    0 -0.00000000000E+00 -0.00000000000E+00 -0.45593999997E+02  0.45594000000E+02  0.51100000000E-03 0. -1.
    9900012    2    1    2    0    0 -0.37535378290E+02 -0.17524722052E+02  0.17694429827E+02  0.46142319261E+02  0.10000013674E+02 0.  0.
         12    1    1    2    0    0  0.37535378290E+02  0.17524722052E+02 -0.17694429827E+02  0.45045680739E+02  0.00000000000E+00 0. -1.
         11    1    3    3    0    0 -0.55124734907E+01 -0.48117830136E+01  0.92743354348E-02  0.73171514970E+01  0.51100000000E-03 0. -1.
        -11    1    3    3    0    0 -0.67471412746E+01 -0.32727882440E+01  0.27578768127E+01  0.79900527561E+01  0.51100000000E-03 0.  1.
         12    1    3    3    0    0 -0.25275763525E+02 -0.94401507946E+01  0.14927278678E+02  0.30835115008E+02  0.00000000000E+00 0. -1.
</event>
<event>
 7    1  0.2472338E-008  0.4614232E+02  0.7816164E-02  0.1320468E+00
        -11   -1    0    0    0    0  0.00000000000E+00  0.00000000000E+00  0.45593999997E+02  0.45594000000E+02  0.51100000000E-03 0. -1.
         11   -1    0    0    0    0 -0.00000000000E+00 -0.00000000000E+00 -0.45593999997E+02  0.45594000000E+02  0.51100000000E-03 0.  1.
    9900012    2    1    2    0    0 -0.11794116376E+02 -0.20268027384E+01 -0.43427000421E+02  0.46142317899E+02  0.10000001255E+02 0.  0.
         12    1    1    2    0    0  0.11794116376E+02  0.20268027384E+01  0.43427000421E+02  0.45045682101E+02  0.00000000000E+00 0. -1.
         11    1    3    3    0    0 -0.29814821622E+01 -0.38408165338E+01 -0.12419519620E+02  0.13337375131E+02  0.51100000000E-03 0. -1.
        -11    1    3    3    0    0 -0.49635064254E+01 -0.15967997609E+01 -0.11427555421E+02  0.12560859392E+02  0.51100000000E-03 0.  1.
        -12    1    3    3    0    0 -0.38491277887E+01  0.34108135563E+01 -0.19579925379E+02  0.20244083375E+02  0.00000000000E+00 0.  1.
</event>
<event>
 7    1  0.2472338E-008  0.4614231E+02  0.7816164E-02  0.1320468E+00
        -11   -1    0    0    0    0  0.00000000000E+00  0.00000000000E+00  0.45593999997E+02  0.45594000000E+02  0.51100000000E-03 0.  1.
         11   -1    0    0    0    0 -0.00000000000E+00 -0.00000000000E+00 -0.45593999997E+02  0.45594000000E+02  0.51100000000E-03 0. -1.
    9900012    2    1    2    0    0 -0.35865376101E+02  0.17125242966E+02  0.21201777238E+02  0.46142306448E+02  0.99998968382E+01 0.  0.
         12    1    1    2    0    0  0.35865376101E+02 -0.17125242966E+02 -0.21201777238E+02  0.45045693552E+02  0.00000000000E+00 0. -1.
         11    1    3    3    0    0 -0.42795295094E+01  0.26858449674E+01  0.42562579248E+01  0.66063505656E+01  0.51100000000E-03 0. -1.
        -11    1    3    3    0    0 -0.34357340014E+01 -0.96566463899E+00  0.24193255658E+01  0.43116021127E+01  0.51100000000E-03 0.  1.
        -12    1    3    3    0    0 -0.28150112590E+02  0.15405062638E+02  0.14526193747E+02  0.35224353770E+02  0.00000000000E+00 0.  1.
</event>
<event>
 7    1  0.2472338E-008  0.4614232E+02  0.7816164E-02  0.1320468E+00
        -11   -1    0    0    0    0  0.00000000000E+00  0.00000000000E+00  0.45593999997E+02  0.45594000000E+02  0.51100000000E-03 0.  1.
         11   -1    0    0    0    0 -0.00000000000E+00 -0.00000000000E+00 -0.45593999997E+02  0.45594000000E+02  0.51100000000E-03 0. -1.
    9900012    2    1    2    0    0  0.12196825683E+02  0.40520220349E+02  0.15442236210E+02  0.46142317931E+02  0.10000001551E+02 0.  0.
         12    1    1    2    0    0 -0.12196825683E+02 -0.40520220349E+02 -0.15442236210E+02  0.45045682069E+02  0.00000000000E+00 0. -1.
         11    1    3    3    0    0  0.68621892150E+01  0.27672335360E+02  0.11191516623E+02  0.30628382746E+02  0.51100000000E-03 0. -1.
        -11    1    3    3    0    0  0.20587359037E+01  0.10499693871E+02  0.19592814933E+01  0.10877534148E+02  0.51100000000E-03 0.  1.
         12    1    3    3    0    0  0.32759005643E+01  0.23481911182E+01  0.22914380938E+01  0.46364010367E+01  0.00000000000E+00 0. -1.
</event>
<event>
 7    1  0.2472338E-008  0.4614232E+02  0.7816164E-02  0.1320468E+00
        -11   -1    0    0    0    0  0.00000000000E+00  0.00000000000E+00  0.45593999997E+02  0.45594000000E+02  0.51100000000E-03 0. -1.
         11   -1    0    0    0    0 -0.00000000000E+00 -0.00000000000E+00 -0.45593999997E+02  0.45594000000E+02  0.51100000000E-03 0.  1.
    9900012    2    1    2    0    0  0.29950059243E+02 -0.26996128884E+02 -0.20082739752E+02  0.46142318083E+02  0.10000002937E+02 0.  0.
         12    1    1    2    0    0 -0.29950059243E+02  0.26996128884E+02  0.20082739752E+02  0.45045681917E+02  0.00000000000E+00 0. -1.
         11    1    3    3    0    0  0.20516006969E+02 -0.20536619534E+02 -0.15889710205E+02  0.33092932395E+02  0.51100000000E-03 0. -1.
        -11    1    3    3    0    0  0.84805611565E+01 -0.67378392078E+01 -0.48404443403E+01  0.11863738719E+02  0.51100000000E-03 0.  1.
         12    1    3    3    0    0  0.95349111754E+00  0.27832985799E+00  0.64741479300E+00  0.11856469691E+01  0.00000000000E+00 0. -1.
</event>
<event>
 7    1  0.2472338E-008  0.4614232E+02  0.7816164E-02  0.1320468E+00
        -11   -1    0    0    0    0  0.00000000000E+00  0.00000000000E+00  0.45593999997E+02  0.45594000000E+02  0.51100000000E-03 0.  1.
         11   -1    0    0    0    0 -0.00000000000E+00 -0.00000000000E+00 -0.45593999997E+02  0.45594000000E+02  0.51100000000E-03 0. -1.
    9900012    2    1    2    0    0  0.17147924491E+02 -0.31618547101E+02  0.27116961859E+02  0.46142318125E+02  0.10000003317E+02 0.  0.
         12    1    1    2    0    0 -0.17147924491E+02  0.31618547101E+02 -0.27116961859E+02  0.45045681875E+02  0.00000000000E+00 0. -1.
         11    1    3    3    0    0  0.87558297633E+01 -0.91252664712E+01  0.57489519182E+01  0.13891921805E+02  0.51100000000E-03 0. -1.
        -11    1    3    3    0    0  0.33252259183E+00 -0.14909868888E+01  0.22979234794E+01  0.27593596639E+01  0.51100000000E-03 0.  1.
        -12    1    3    3    0    0  0.80595721359E+01 -0.21002293741E+02  0.19070086462E+02  0.29491036656E+02  0.00000000000E+00 0.  1.
</event>
<event>
 7    1  0.2472338E-008  0.4614232E+02  0.7816164E-02  0.1320468E+00
        -11   -1    0    0    0    0  0.00000000000E+00  0.00000000000E+00  0.45593999997E+02  0.45594000000E+02  0.51100000000E-03 0.  1.
         11   -1    0    0    0    0 -0.00000000000E+00 -0.00000000000E+00 -0.45593999997E+02  0.45594000000E+02  0.51100000000E-03 0. -1.
    9900012    2    1    2    0    0 -0.18931919539E+02  0.37205107916E+01  0.40704467669E+02  0.46142318007E+02  0.10000002242E+02 0.  0.
         12    1    1    2    0    0  0.18931919539E+02 -0.37205107916E+01 -0.40704467669E+02  0.45045681993E+02  0.00000000000E+00 0. -1.
         11    1    3    3    0    0 -0.34323452607E+01  0.31450597952E+01  0.47431306068E+01  0.66460276345E+01  0.51100000000E-03 0. -1.
        -11    1    3    3    0    0 -0.12138667463E+02  0.83759191668E+00  0.32317847033E+02  0.34532478120E+02  0.51100000000E-03 0.  1.
         12    1    3    3    0    0 -0.33609068154E+01 -0.26214092023E+00  0.36434900293E+01  0.49638122524E+01  0.00000000000E+00 0. -1.
</event>
<event>
 7    1  0.2472338E-008  0.4614232E+02  0.7816164E-02  0.1320468E+00
        -11   -1    0    0    0    0  0.00000000000E+00  0.00000000000E+00  0.45593999997E+02  0.45594000000E+02  0.51100000000E-03 0.  1.
         11   -1    0    0    0    0 -0.00000000000E+00 -0.00000000000E+00 -0.45593999997E+02  0.45594000000E+02  0.51100000000E-03 0. -1.
    9900012    2    1    2    0    0  0.30638183316E+02  0.28551768545E+02  0.16589506215E+02  0.46142317850E+02  0.10000000807E+02 0.  0.
         12    1    1    2    0    0 -0.30638183316E+02 -0.28551768545E+02 -0.16589506215E+02  0.45045682150E+02  0.00000000000E+00 0. -1.
         11    1    3    3    0    0  0.17733318249E+02  0.11987960571E+02  0.86112788326E+01  0.23072405556E+02  0.51100000000E-03 0. -1.
        -11    1    3    3    0    0  0.20606202320E+01  0.55295761578E+00  0.17333728350E+01  0.27489087856E+01  0.51100000000E-03 0.  1.
        -12    1    3    3    0    0  0.10844244835E+02  0.16010850359E+02  0.62448545469E+01  0.20321003508E+02  0.00000000000E+00 0.  1.
</event>
<event>
 7    1  0.2472338E-008  0.4614232E+02  0.7816164E-02  0.1320468E+00
        -11   -1    0    0    0    0  0.00000000000E+00  0.00000000000E+00  0.45593999997E+02  0.45594000000E+02  0.51100000000E-03 0. -1.
         11   -1    0    0    0    0 -0.00000000000E+00 -0.00000000000E+00 -0.45593999997E+02  0.45594000000E+02  0.51100000000E-03 0.  1.
    9900012    2    1    2    0    0 -0.12423107833E+02 -0.35518091631E+02  0.24763785356E+02  0.46142317560E+02  0.99999981638E+01 0.  0.
         12    1    1    2    0    0  0.12423107833E+02  0.35518091631E+02 -0.24763785356E+02  0.45045682440E+02  0.00000000000E+00 0. -1.
         11    1    3    3    0    0 -0.88603687628E+01 -0.19533770587E+02  0.13565539446E+02  0.25379089595E+02  0.51100000000E-03 0. -1.
        -11    1    3    3    0    0 -0.56041872055E+00 -0.11137906901E+02  0.99089053619E+01  0.14918225263E+02  0.51100000000E-03 0.  1.
         12    1    3    3    0    0 -0.30023203497E+01 -0.48464141428E+01  0.12893405485E+01  0.58450027010E+01  0.00000000000E+00 0. -1.
</event>
<event>
 7    1  0.2472338E-008  0.4614232E+02  0.7816164E-02  0.1320468E+00
        -11   -1    0    0    0    0  0.00000000000E+00  0.00000000000E+00  0.45593999997E+02  0.45594000000E+02  0.51100000000E-03 0. -1.
         11   -1    0    0    0    0 -0.00000000000E+00 -0.00000000000E+00 -0.45593999997E+02  0.45594000000E+02  0.51100000000E-03 0.  1.
    9900012    2    1    2    0    0 -0.17739207430E+02 -0.39607473733E+02  0.12069880124E+02  0.46142318054E+02  0.10000002668E+02 0.  0.
         12    1    1    2    0    0  0.17739207430E+02  0.39607473733E+02 -0.12069880124E+02  0.45045681946E+02  0.00000000000E+00 0. -1.
         11    1    3    3    0    0 -0.34949238345E+01 -0.49192132466E+01  0.40606984136E+01  0.72734052164E+01  0.51100000000E-03 0. -1.
        -11    1    3    3    0    0 -0.12046879259E+02 -0.23794104759E+02  0.76668297475E+01  0.27750081077E+02  0.51100000000E-03 0.  1.
        -12    1    3    3    0    0 -0.21974043370E+01 -0.10894155728E+02  0.34235196324E+00  0.11118831760E+02  0.00000000000E+00 0.  1.
</event>
<event>
 7    1  0.2472338E-008  0.4614232E+02  0.7816164E-02  0.1320468E+00
        -11   -1    0    0    0    0  0.00000000000E+00  0.00000000000E+00  0.45593999997E+02  0.45594000000E+02  0.51100000000E-03 0.  1.
         11   -1    0    0    0    0 -0.00000000000E+00 -0.00000000000E+00 -0.45593999997E+02  0.45594000000E+02  0.51100000000E-03 0. -1.
    9900012    2    1    2    0    0  0.14277158253E+02  0.38319304634E+02  0.18891982208E+02  0.46142319328E+02  0.10000014293E+02 0.  0.
         12    1    1    2    0    0 -0.14277158253E+02 -0.38319304634E+02 -0.18891982208E+02  0.45045680672E+02  0.00000000000E+00 0. -1.
         11    1    3    3    0    0 -0.16038776868E+00  0.56778653393E+01  0.16936393355E+01  0.59272500797E+01  0.51100000000E-03 0. -1.
        -11    1    3    3    0    0 -0.36128029095E+00  0.40977296955E+01  0.28643572753E+01  0.50126295463E+01  0.51100000000E-03 0.  1.
        -12    1    3    3    0    0  0.14798826312E+02  0.28543709599E+02  0.14333985597E+02  0.35202439703E+02  0.00000000000E+00 0.  1.
</event>
<event>
 7    1  0.2472338E-008  0.4614232E+02  0.7816164E-02  0.1320468E+00
        -11   -1    0    0    0    0  0.00000000000E+00  0.00000000000E+00  0.45593999997E+02  0.45594000000E+02  0.51100000000E-03 0.  1.
         11   -1    0    0    0    0 -0.00000000000E+00 -0.00000000000E+00 -0.45593999997E+02  0.45594000000E+02  0.51100000000E-03 0. -1.
    9900012    2    1    2    0    0  0.35201191229E+02  0.18610341692E+02  0.21062881271E+02  0.46142315975E+02  0.99999837109E+01 0.  0.
         12    1    1    2    0    0 -0.35201191229E+02 -0.18610341692E+02 -0.21062881271E+02  0.45045684025E+02  0.00000000000E+00 0. -1.
         11    1    3    3    0    0  0.49155022983E+01  0.31019197247E+01  0.68742980254E+01  0.90022243044E+01  0.51100000000E-03 0. -1.
        -11    1    3    3    0    0  0.20472882019E+02  0.81100852777E+01  0.95953786277E+01  0.24020484438E+02  0.51100000000E-03 0.  1.
         12    1    3    3    0    0  0.98128069122E+01  0.73983366897E+01  0.45932046182E+01  0.13119607232E+02  0.00000000000E+00 0. -1.
</event>
<event>
 7    1  0.2472338E-008  0.4614232E+02  0.7816164E-02  0.1320468E+00
        -11   -1    0    0    0    0  0.00000000000E+00  0.00000000000E+00  0.45593999997E+02  0.45594000000E+02  0.51100000000E-03 0.  1.
         11   -1    0    0    0    0 -0.00000000000E+00 -0.00000000000E+00 -0.45593999997E+02  0.45594000000E+02  0.51100000000E-03 0. -1.
    9900012    2    1    2    0    0 -0.22407408938E+02  0.76394826141E+01  0.38323098778E+02  0.46142316856E+02  0.99999917505E+01 0.  0.
         12    1    1    2    0    0  0.22407408938E+02 -0.76394826141E+01 -0.38323098778E+02  0.45045683144E+02  0.00000000000E+00 0. -1.
         11    1    3    3    0    0 -0.54259246106E+01  0.58404380758E+00  0.45088673107E+01  0.70789582380E+01  0.51100000000E-03 0. -1.
        -11    1    3    3    0    0 -0.28907470307E+01  0.39833017225E+01  0.62592775130E+01  0.79625163267E+01  0.51100000000E-03 0.  1.
        -12    1    3    3    0    0 -0.14090737296E+02  0.30721370840E+01  0.27554953954E+02  0.31100842292E+02  0.00000000000E+00 0.  1.
</event>
<event>
 7    1  0.2472338E-008  0.4614231E+02  0.7816164E-02  0.1320468E+00
        -11   -1    0    0    0    0  0.00000000000E+00  0.00000000000E+00  0.45593999997E+02  0.45594000000E+02  0.51100000000E-03 0.  1.
         11   -1    0    0    0    0 -0.00000000000E+00 -0.00000000000E+00 -0.45593999997E+02  0.45594000000E+02  0.51100000000E-03 0. -1.
    9900012    2    1    2    0    0  0.26823967684E+02  0.27452272704E+02  0.23578832734E+02  0.46142313503E+02  0.99999611682E+01 0.  0.
         12    1    1    2    0    0 -0.26823967684E+02 -0.27452272704E+02 -0.23578832734E+02  0.45045686497E+02  0.00000000000E+00 0. -1.
         11    1    3    3    0    0  0.68805996270E+01  0.84741729425E+01  0.23416254953E+01  0.11164115214E+02  0.51100000000E-03 0. -1.
        -11    1    3    3    0    0  0.13467358998E+02  0.10689485413E+02  0.11870449612E+02  0.20893597847E+02  0.51100000000E-03 0.  1.
         12    1    3    3    0    0  0.64760090592E+01  0.82886143486E+01  0.93667576269E+01  0.14084600441E+02  0.00000000000E+00 0. -1.
</event>
<event>
 7    1  0.2472338E-008  0.4614232E+02  0.7816164E-02  0.1320468E+00
        -11   -1    0    0    0    0  0.00000000000E+00  0.00000000000E+00  0.45593999997E+02  0.45594000000E+02  0.51100000000E-03 0.  1.
         11   -1    0    0    0    0 -0.00000000000E+00 -0.00000000000E+00 -0.45593999997E+02  0.45594000000E+02  0.51100000000E-03 0. -1.
    9900012    2    1    2    0    0 -0.33857552296E+02 -0.22720518772E+02  0.19145694846E+02  0.46142318166E+02  0.10000003695E+02 0.  0.
         12    1    1    2    0    0  0.33857552296E+02  0.22720518772E+02 -0.19145694846E+02  0.45045681834E+02  0.00000000000E+00 0. -1.
         11    1    3    3    0    0 -0.14570850536E+02 -0.69806712792E+01  0.90652186761E+01  0.18526134155E+02  0.51100000000E-03 0. -1.
        -11    1    3    3    0    0 -0.18751416522E+02 -0.13199256821E+02  0.79913871170E+01  0.24283703806E+02  0.51100000000E-03 0.  1.
         12    1    3    3    0    0 -0.53528523837E+00 -0.25405906712E+01  0.20890890532E+01  0.33324802051E+01  0.00000000000E+00 0. -1.
</event>
<event>
 7    1  0.2472338E-008  0.4614231E+02  0.7816164E-02  0.1320468E+00
        -11   -1    0    0    0    0  0.00000000000E+00  0.00000000000E+00  0.45593999997E+02  0.45594000000E+02  0.51100000000E-03 0.  1.
         11   -1    0    0    0    0 -0.00000000000E+00 -0.00000000000E+00 -0.45593999997E+02  0.45594000000E+02  0.51100000000E-03 0. -1.
    9900012    2    1    2    0    0  0.22074829206E+01  0.41526764682E+02  0.17313826313E+02  0.46142314886E+02  0.99999737833E+01 0.  0.
         12    1    1    2    0    0 -0.22074829206E+01 -0.41526764682E+02 -0.17313826313E+02  0.45045685114E+02  0.00000000000E+00 0. -1.
         11    1    3    3    0    0  0.22622792569E+01  0.12316854719E+02  0.30056866597E+01  0.12878546897E+02  0.51100000000E-03 0. -1.
        -11    1    3    3    0    0  0.24749902685E+01  0.14249184826E+02  0.96702785982E+01  0.17397676094E+02  0.51100000000E-03 0.  1.
        -12    1    3    3    0    0 -0.25297866048E+01  0.14960725136E+02  0.46378610554E+01  0.15866091896E+02  0.00000000000E+00 0.  1.
</event>
<event>
 7    1  0.2472338E-008  0.4614232E+02  0.7816164E-02  0.1320468E+00
        -11   -1    0    0    0    0  0.00000000000E+00  0.00000000000E+00  0.45593999997E+02  0.45594000000E+02  0.51100000000E-03 0.  1.
         11   -1    0    0    0    0 -0.00000000000E+00 -0.00000000000E+00 -0.45593999997E+02  0.45594000000E+02  0.51100000000E-03 0. -1.
    9900012    2    1    2    0    0  0.30969944718E+02 -0.53215790774E+00  0.32706157446E+02  0.46142318711E+02  0.10000008665E+02 0.  0.
         12    1    1    2    0    0 -0.30969944718E+02  0.53215790774E+00 -0.32706157446E+02  0.45045681289E+02  0.00000000000E+00 0. -1.
         11    1    3    3    0    0  0.10465967646E+02 -0.52351579860E+00  0.73633994846E+01  0.12807427524E+02  0.51100000000E-03 0. -1.
        -11    1    3    3    0    0  0.70547398785E+01  0.28122943758E+01  0.11860225191E+02  0.14083440498E+02  0.51100000000E-03 0.  1.
         12    1    3    3    0    0  0.13449237194E+02 -0.28209364850E+01  0.13482532770E+02  0.19251450689E+02  0.00000000000E+00 0. -1.
</event>
<event>
 7    1  0.2472338E-008  0.4614232E+02  0.7816164E-02  0.1320468E+00
        -11   -1    0    0    0    0  0.00000000000E+00  0.00000000000E+00  0.45593999997E+02  0.45594000000E+02  0.51100000000E-03 0. -1.
         11   -1    0    0    0    0 -0.00000000000E+00 -0.00000000000E+00 -0.45593999997E+02  0.45594000000E+02  0.51100000000E-03 0.  1.
    9900012    2    1    2    0    0  0.30944137321E+02 -0.26101886904E+02 -0.19755133451E+02  0.46142318385E+02  0.10000005689E+02 0.  0.
         12    1    1    2    0    0 -0.30944137321E+02  0.26101886904E+02  0.19755133451E+02  0.45045681615E+02  0.00000000000E+00 0. -1.
         11    1    3    3    0    0  0.15373161282E+02 -0.10441351323E+02 -0.11538283614E+02  0.21874366146E+02  0.51100000000E-03 0. -1.
        -11    1    3    3    0    0  0.78365766247E+01 -0.66009185276E+01 -0.67410108217E+01  0.12264798643E+02  0.51100000000E-03 0.  1.
         12    1    3    3    0    0  0.77343994142E+01 -0.90596170530E+01 -0.14758390153E+01  0.12003153596E+02  0.00000000000E+00 0. -1.
</event>
<event>
 7    1  0.2472338E-008  0.4614232E+02  0.7816164E-02  0.1320468E+00
        -11   -1    0    0    0    0  0.00000000000E+00  0.00000000000E+00  0.45593999997E+02  0.45594000000E+02  0.51100000000E-03 0.  1.
         11   -1    0    0    0    0 -0.00000000000E+00 -0.00000000000E+00 -0.45593999997E+02  0.45594000000E+02  0.51100000000E-03 0. -1.
    9900012    2    1    2    0    0 -0.37761207955E+02  0.16057432500E+02  0.18583957425E+02  0.46142318317E+02  0.10000005066E+02 0.  0.
         12    1    1    2    0    0  0.37761207955E+02 -0.16057432500E+02 -0.18583957425E+02  0.45045681683E+02  0.00000000000E+00 0. -1.
         11    1    3    3    0    0 -0.10187664616E+01  0.29049165544E+01  0.12154897433E+01  0.33096587238E+01  0.51100000000E-03 0. -1.
        -11    1    3    3    0    0 -0.16733637198E+02  0.44281489813E+01  0.82800788677E+01  0.19188090671E+02  0.51100000000E-03 0.  1.
        -12    1    3    3    0    0 -0.20008804295E+02  0.87243669646E+01  0.90883888143E+01  0.23644568922E+02  0.00000000000E+00 0.  1.
</event>
<event>
 7    1  0.2472338E-008  0.4614232E+02  0.7816164E-02  0.1320468E+00
        -11   -1    0    0    0    0  0.00000000000E+00  0.00000000000E+00  0.45593999997E+02  0.45594000000E+02  0.51100000000E-03 0.  1.
         11   -1    0    0    0    0 -0.00000000000E+00 -0.00000000000E+00 -0.45593999997E+02  0.45594000000E+02  0.51100000000E-03 0. -1.
    9900012    2    1    2    0    0  0.23344205620E+02  0.37312453411E+02  0.95886609152E+01  0.46142317257E+02  0.99999954061E+01 0.  0.
         12    1    1    2    0    0 -0.23344205620E+02 -0.37312453411E+02 -0.95886609152E+01  0.45045682743E+02  0.00000000000E+00 0. -1.
         11    1    3    3    0    0  0.29311820565E+01  0.16788623977E+01 -0.10033031473E+01  0.35237798832E+01  0.51100000000E-03 0. -1.
        -11    1    3    3    0    0  0.11426011273E+02  0.19958923240E+02  0.37686363520E+01  0.23304827198E+02  0.51100000000E-03 0.  1.
        -12    1    3    3    0    0  0.89870122910E+01  0.15674667774E+02  0.68233277104E+01  0.19313710176E+02  0.00000000000E+00 0.  1.
</event>
<event>
 7    1  0.2472338E-008  0.4614232E+02  0.7816164E-02  0.1320468E+00
        -11   -1    0    0    0    0  0.00000000000E+00  0.00000000000E+00  0.45593999997E+02  0.45594000000E+02  0.51100000000E-03 0.  1.
         11   -1    0    0    0    0 -0.00000000000E+00 -0.00000000000E+00 -0.45593999997E+02  0.45594000000E+02  0.51100000000E-03 0. -1.
    9900012    2    1    2    0    0  0.44446250175E+02  0.10177209973E+01  0.72531771952E+01  0.46142317742E+02  0.99999998276E+01 0.  0.
         12    1    1    2    0    0 -0.44446250175E+02 -0.10177209973E+01 -0.72531771952E+01  0.45045682258E+02  0.00000000000E+00 0. -1.
         11    1    3    3    0    0  0.91824907974E+01  0.79592357030E+00 -0.15624440606E+01  0.93484150142E+01  0.51100000000E-03 0. -1.
        -11    1    3    3    0    0  0.30077324528E+02  0.12004814096E+01  0.56125762990E+01  0.30620052569E+02  0.51100000000E-03 0.  1.
         12    1    3    3    0    0  0.51864348501E+01 -0.97868398263E+00  0.32030449568E+01  0.61738501591E+01  0.00000000000E+00 0. -1.
</event>
<event>
 7    1  0.2472338E-008  0.4614232E+02  0.7816164E-02  0.1320468E+00
        -11   -1    0    0    0    0  0.00000000000E+00  0.00000000000E+00  0.45593999997E+02  0.45594000000E+02  0.51100000000E-03 0.  1.
         11   -1    0    0    0    0 -0.00000000000E+00 -0.00000000000E+00 -0.45593999997E+02  0.45594000000E+02  0.51100000000E-03 0. -1.
    9900012    2    1    2    0    0  0.61565651305E+00  0.20511532063E+02  0.40100019654E+02  0.46142317002E+02  0.99999930773E+01 0.  0.
         12    1    1    2    0    0 -0.61565651305E+00 -0.20511532063E+02 -0.40100019654E+02  0.45045682998E+02  0.00000000000E+00 0. -1.
         11    1    3    3    0    0  0.43438372392E+01  0.79073810696E+01  0.16241401100E+02  0.18578985637E+02  0.51100000000E-03 0. -1.
        -11    1    3    3    0    0 -0.12464757792E+01  0.39263104506E+01  0.11818130294E+02  0.12515503168E+02  0.51100000000E-03 0.  1.
         12    1    3    3    0    0 -0.24817049470E+01  0.86778405430E+01  0.12040488259E+02  0.15047828197E+02  0.00000000000E+00 0. -1.
</event>
<event>
 7    1  0.2472338E-008  0.4614232E+02  0.7816164E-02  0.1320468E+00
        -11   -1    0    0    0    0  0.00000000000E+00  0.00000000000E+00  0.45593999997E+02  0.45594000000E+02  0.51100000000E-03 0.  1.
         11   -1    0    0    0    0 -0.00000000000E+00 -0.00000000000E+00 -0.45593999997E+02  0.45594000000E+02  0.51100000000E-03 0. -1.
    9900012    2    1    2    0    0 -0.12062188944E+01  0.13765075754E+02  0.42874014226E+02  0.46142319070E+02  0.10000011937E+02 0.  0.
         12    1    1    2    0    0  0.12062188944E+01 -0.13765075754E+02 -0.42874014226E+02  0.45045680930E+02  0.00000000000E+00 0. -1.
         11    1    3    3    0    0 -0.41504870755E+01  0.71104950160E+01  0.14138215636E+02  0.16360770886E+02  0.51100000000E-03 0. -1.
        -11    1    3    3    0    0  0.32271415115E+00  0.19061001852E+00  0.24143806876E+00  0.44583540088E+00  0.51100000000E-03 0.  1.
        -12    1    3    3    0    0  0.26215540300E+01  0.64639707199E+01  0.28494360521E+02  0.29335712784E+02  0.00000000000E+00 0.  1.
</event>
<event>
 7    1  0.2472338E-008  0.4614232E+02  0.7816164E-02  0.1320468E+00
        -11   -1    0    0    0    0  0.00000000000E+00  0.00000000000E+00  0.45593999997E+02  0.45594000000E+02  0.51100000000E-03 0. -1.
         11   -1    0    0    0    0 -0.00000000000E+00 -0.00000000000E+00 -0.45593999997E+02  0.45594000000E+02  0.51100000000E-03 0.  1.
    9900012    2    1    2    0    0  0.42550103261E+02  0.10270379003E+02  0.10635858560E+02  0.46142318079E+02  0.10000002898E+02 0.  0.
         12    1    1    2    0    0 -0.42550103261E+02 -0.10270379003E+02 -0.10635858560E+02  0.45045681921E+02  0.00000000000E+00 0. -1.
         11    1    3    3    0    0  0.39104139287E+01  0.18276653014E+00  0.36614341810E+01  0.53601157843E+01  0.51100000000E-03 0. -1.
        -11    1    3    3    0    0  0.19931412689E+02  0.29354364075E+01  0.31397338530E+01  0.20389603419E+02  0.51100000000E-03 0.  1.
        -12    1    3    3    0    0  0.18708276644E+02  0.71521760651E+01  0.38346905262E+01  0.20392598875E+02  0.00000000000E+00 0.  1.
</event>
<event>
 7    1  0.2472338E-008  0.4614232E+02  0.7816164E-02  0.1320468E+00
        -11   -1    0    0    0    0  0.00000000000E+00  0.00000000000E+00  0.45593999997E+02  0.45594000000E+02  0.51100000000E-03 0. -1.
         11   -1    0    0    0    0 -0.00000000000E+00 -0.00000000000E+00 -0.45593999997E+02  0.45594000000E+02  0.51100000000E-03 0.  1.
    9900012    2    1    2    0    0  0.43388215691E+02 -0.29171593193E+01 -0.11750158621E+02  0.46142319775E+02  0.10000018361E+02 0.  0.
         12    1    1    2    0    0 -0.43388215691E+02  0.29171593193E+01  0.11750158621E+02  0.45045680225E+02  0.00000000000E+00 0. -1.
         11    1    3    3    0    0  0.70460986834E+01 -0.92307304024E-01 -0.46604565816E+01  0.84484248890E+01  0.51100000000E-03 0. -1.
        -11    1    3    3    0    0  0.19127900640E+02 -0.22244734135E+01 -0.53514730082E+00  0.19264247915E+02  0.51100000000E-03 0.  1.
        -12    1    3    3    0    0  0.17214216368E+02 -0.60037860183E+00 -0.65545547384E+01  0.18429646970E+02  0.00000000000E+00 0.  1.
</event>
<event>
 7    1  0.2472338E-008  0.4614232E+02  0.7816164E-02  0.1320468E+00
        -11   -1    0    0    0    0  0.00000000000E+00  0.00000000000E+00  0.45593999997E+02  0.45594000000E+02  0.51100000000E-03 0. -1.
         11   -1    0    0    0    0 -0.00000000000E+00 -0.00000000000E+00 -0.45593999997E+02  0.45594000000E+02  0.51100000000E-03 0.  1.
    9900012    2    1    2    0    0 -0.43839999114E+02 -0.45582518421E+01 -0.92946346797E+01  0.46142318564E+02  0.10000007325E+02 0.  0.
         12    1    1    2    0    0  0.43839999114E+02  0.45582518421E+01  0.92946346797E+01  0.45045681436E+02  0.00000000000E+00 0. -1.
         11    1    3    3    0    0 -0.24957689731E+02 -0.45762031211E+01 -0.21571347185E+01  0.25465292894E+02  0.51100000000E-03 0. -1.
        -11    1    3    3    0    0 -0.12880621790E+02  0.18281639987E+01 -0.36902678430E+01  0.13522968547E+02  0.51100000000E-03 0.  1.
        -12    1    3    3    0    0 -0.60016875936E+01 -0.18102127197E+01 -0.34472321182E+01  0.71540571243E+01  0.00000000000E+00 0.  1.
</event>
<event>
 7    1  0.2472338E-008  0.4614232E+02  0.7816164E-02  0.1320468E+00
        -11   -1    0    0    0    0  0.00000000000E+00  0.00000000000E+00  0.45593999997E+02  0.45594000000E+02  0.51100000000E-03 0.  1.
         11   -1    0    0    0    0 -0.00000000000E+00 -0.00000000000E+00 -0.45593999997E+02  0.45594000000E+02  0.51100000000E-03 0. -1.
    9900012    2    1    2    0    0 -0.31635408045E+02 -0.16609446802E+02  0.27430655129E+02  0.46142316455E+02  0.99999880912E+01 0.  0.
         12    1    1    2    0    0  0.31635408045E+02  0.16609446802E+02 -0.27430655129E+02  0.45045683545E+02  0.00000000000E+00 0. -1.
         11    1    3    3    0    0 -0.86769106786E+01 -0.13431357308E+01  0.50845698941E+01  0.10146213273E+02  0.51100000000E-03 0. -1.
        -11    1    3    3    0    0 -0.15662127314E+02 -0.12031960902E+02  0.12720719865E+02  0.23492275950E+02  0.51100000000E-03 0.  1.
        -12    1    3    3    0    0 -0.72963700521E+01 -0.32343501689E+01  0.96253653698E+01  0.12503827232E+02  0.00000000000E+00 0.  1.
</event>
<event>
 7    1  0.2472338E-008  0.4614232E+02  0.7816164E-02  0.1320468E+00
        -11   -1    0    0    0    0  0.00000000000E+00  0.00000000000E+00  0.45593999997E+02  0.45594000000E+02  0.51100000000E-03 0.  1.
         11   -1    0    0    0    0 -0.00000000000E+00 -0.00000000000E+00 -0.45593999997E+02  0.45594000000E+02  0.51100000000E-03 0. -1.
    9900012    2    1    2    0    0 -0.10319253240E+01  0.32321506780E+02  0.31358711327E+02  0.46142318226E+02  0.10000004243E+02 0.  0.
         12    1    1    2    0    0  0.10319253240E+01 -0.32321506780E+02 -0.31358711327E+02  0.45045681774E+02  0.00000000000E+00 0. -1.
         11    1    3    3    0    0 -0.21739020860E+01  0.90656764269E+01  0.14521528668E+02  0.17256509916E+02  0.51100000000E-03 0. -1.
        -11    1    3    3    0    0  0.25308142754E+00  0.42649866090E+01  0.45906104134E+01  0.62711932846E+01  0.51100000000E-03 0.  1.
         12    1    3    3    0    0  0.88889533442E+00  0.18990843744E+02  0.12246572245E+02  0.22614615026E+02  0.00000000000E+00 0. -1.
</event>
<event>
 7    1  0.2472338E-008  0.4614232E+02  0.7816164E-02  0.1320468E+00
        -11   -1    0    0    0    0  0.00000000000E+00  0.00000000000E+00  0.45593999997E+02  0.45594000000E+02  0.51100000000E-03 0.  1.
         11   -1    0    0    0    0 -0.00000000000E+00 -0.00000000000E+00 -0.45593999997E+02  0.45594000000E+02  0.51100000000E-03 0. -1.
    9900012    2    1    2    0    0 -0.32622594607E+01  0.66721634515E+01  0.44429190154E+02  0.46142322742E+02  0.10000045416E+02 0.  0.
         12    1    1    2    0    0  0.32622594607E+01 -0.66721634515E+01 -0.44429190154E+02  0.45045677258E+02  0.00000000000E+00 0. -1.
         11    1    3    3    0    0 -0.14625492615E+01  0.13417705879E+01  0.96009231918E+01  0.98039341618E+01  0.51100000000E-03 0.  1.
        -11    1    3    3    0    0 -0.27560651341E+01  0.68128350102E+01  0.18365386611E+02  0.19781254802E+02  0.51100000000E-03 0. -1.
         12    1    3    3    0    0  0.95635493490E+00 -0.14824421466E+01  0.16462880351E+02  0.16557133778E+02  0.00000000000E+00 0. -1.
</event>
<event>
 7    1  0.2472338E-008  0.4614232E+02  0.7816164E-02  0.1320468E+00
        -11   -1    0    0    0    0  0.00000000000E+00  0.00000000000E+00  0.45593999997E+02  0.45594000000E+02  0.51100000000E-03 0. -1.
         11   -1    0    0    0    0 -0.00000000000E+00 -0.00000000000E+00 -0.45593999997E+02  0.45594000000E+02  0.51100000000E-03 0.  1.
    9900012    2    1    2    0    0 -0.26363099764E+02 -0.25527324468E+02 -0.26123861629E+02  0.46142317964E+02  0.10000001854E+02 0.  0.
         12    1    1    2    0    0  0.26363099764E+02  0.25527324468E+02  0.26123861629E+02  0.45045682036E+02  0.00000000000E+00 0. -1.
         11    1    3    3    0    0 -0.18552810327E+02 -0.14578736923E+02 -0.14613505119E+02  0.27754294684E+02  0.51100000000E-03 0. -1.
        -11    1    3    3    0    0 -0.12273964167E+01 -0.44567711766E+01 -0.61747962179E+01  0.77134570640E+01  0.51100000000E-03 0.  1.
        -12    1    3    3    0    0 -0.65828930204E+01 -0.64918163682E+01 -0.53355602920E+01  0.10674566216E+02  0.00000000000E+00 0.  1.
</event>
<event>
 7    1  0.2472338E-008  0.4614232E+02  0.7816164E-02  0.1320468E+00
        -11   -1    0    0    0    0  0.00000000000E+00  0.00000000000E+00  0.45593999997E+02  0.45594000000E+02  0.51100000000E-03 0. -1.
         11   -1    0    0    0    0 -0.00000000000E+00 -0.00000000000E+00 -0.45593999997E+02  0.45594000000E+02  0.51100000000E-03 0.  1.
    9900012    2    1    2    0    0 -0.11946416895E+02 -0.35672327514E+02 -0.24776634334E+02  0.46142318344E+02  0.10000005315E+02 0.  0.
         12    1    1    2    0    0  0.11946416895E+02  0.35672327514E+02  0.24776634334E+02  0.45045681656E+02  0.00000000000E+00 0. -1.
         11    1    3    3    0    0 -0.70531919375E+00 -0.62819966313E+01 -0.19105994449E+01  0.66038888044E+01  0.51100000000E-03 0. -1.
        -11    1    3    3    0    0 -0.12089740985E+02 -0.27634864123E+02 -0.22288058621E+02  0.37504734495E+02  0.51100000000E-03 0.  1.
        -12    1    3    3    0    0  0.84864328357E+00 -0.17554667596E+01 -0.57797626868E+00  0.20336950444E+01  0.00000000000E+00 0.  1.
</event>
<event>
 7    1  0.2472338E-008  0.4614232E+02  0.7816164E-02  0.1320468E+00
        -11   -1    0    0    0    0  0.00000000000E+00  0.00000000000E+00  0.45593999997E+02  0.45594000000E+02  0.51100000000E-03 0.  1.
         11   -1    0    0    0    0 -0.00000000000E+00 -0.00000000000E+00 -0.45593999997E+02  0.45594000000E+02  0.51100000000E-03 0. -1.
    9900012    2    1    2    0    0 -0.31066936717E+02 -0.23400823098E+02  0.22723564336E+02  0.46142318134E+02  0.10000003402E+02 0.  0.
         12    1    1    2    0    0  0.31066936717E+02  0.23400823098E+02 -0.22723564336E+02  0.45045681866E+02  0.00000000000E+00 0. -1.
         11    1    3    3    0    0 -0.46133377921E+01 -0.38012030784E+00  0.38933013859E+01  0.60485678450E+01  0.51100000000E-03 0. -1.
        -11    1    3    3    0    0 -0.20838178816E+01 -0.20525794699E+01  0.18836631314E+00  0.29310171567E+01  0.51100000000E-03 0.  1.
        -12    1    3    3    0    0 -0.24369781043E+02 -0.20968123321E+02  0.18641896637E+02  0.37162733133E+02  0.00000000000E+00 0.  1.
</event>
<event>
 7    1  0.2472338E-008  0.4614232E+02  0.7816164E-02  0.1320468E+00
        -11   -1    0    0    0    0  0.00000000000E+00  0.00000000000E+00  0.45593999997E+02  0.45594000000E+02  0.51100000000E-03 0.  1.
         11   -1    0    0    0    0 -0.00000000000E+00 -0.00000000000E+00 -0.45593999997E+02  0.45594000000E+02  0.51100000000E-03 0. -1.
    9900012    2    1    2    0    0  0.24203648151E+02 -0.63426798727E+01  0.37457540853E+02  0.46142317204E+02  0.99999949234E+01 0.  0.
         12    1    1    2    0    0 -0.24203648151E+02  0.63426798727E+01 -0.37457540853E+02  0.45045682796E+02  0.00000000000E+00 0. -1.
         11    1    3    3    0    0  0.84985241016E+01 -0.55640263468E+01  0.15710520715E+02  0.18708387490E+02  0.51100000000E-03 0. -1.
        -11    1    3    3    0    0  0.13353634738E+02  0.10160703063E+01  0.19758926971E+02  0.23869795870E+02  0.51100000000E-03 0.  1.
         12    1    3    3    0    0  0.23514893120E+01 -0.17947238322E+01  0.19880931668E+01  0.35641338441E+01  0.00000000000E+00 0. -1.
</event>
<event>
 7    1  0.2472338E-008  0.4614231E+02  0.7816164E-02  0.1320468E+00
        -11   -1    0    0    0    0  0.00000000000E+00  0.00000000000E+00  0.45593999997E+02  0.45594000000E+02  0.51100000000E-03 0. -1.
         11   -1    0    0    0    0 -0.00000000000E+00 -0.00000000000E+00 -0.45593999997E+02  0.45594000000E+02  0.51100000000E-03 0.  1.
    9900012    2    1    2    0    0  0.16683606210E+02 -0.38934875519E+02 -0.15324703806E+02  0.46142314362E+02  0.99999690031E+01 0.  0.
         12    1    1    2    0    0 -0.16683606210E+02  0.38934875519E+02  0.15324703806E+02  0.45045685638E+02  0.00000000000E+00 0. -1.
         11    1    3    3    0    0  0.61177009152E+01 -0.99950273899E+01 -0.83391510819E+01  0.14382916187E+02  0.51100000000E-03 0.  1.
        -11    1    3    3    0    0  0.31346510145E+00 -0.12878986439E+00  0.12767349011E+00  0.36214359058E+00  0.51100000000E-03 0. -1.
        -12    1    3    3    0    0  0.10252440193E+02 -0.28811058265E+02 -0.71132262145E+01  0.31397254584E+02  0.00000000000E+00 0.  1.
</event>
<event>
 7    1  0.2472338E-008  0.4614233E+02  0.7816164E-02  0.1320468E+00
        -11   -1    0    0    0    0  0.00000000000E+00  0.00000000000E+00  0.45593999997E+02  0.45594000000E+02  0.51100000000E-03 0. -1.
         11   -1    0    0    0    0 -0.00000000000E+00 -0.00000000000E+00 -0.45593999997E+02  0.45594000000E+02  0.51100000000E-03 0.  1.
    9900012    2    1    2    0    0  0.31861555998E+02 -0.14058250756E+02 -0.28571306616E+02  0.46142326216E+02  0.10000077098E+02 0.  0.
         12    1    1    2    0    0 -0.31861555998E+02  0.14058250756E+02  0.28571306616E+02  0.45045673784E+02  0.00000000000E+00 0. -1.
         11    1    3    3    0    0  0.12346716342E+02 -0.10066218683E+02 -0.14954344537E+02  0.21849544247E+02  0.51100000000E-03 0. -1.
        -11    1    3    3    0    0  0.13830845746E+02 -0.23621236338E+01 -0.10988315963E+02  0.17821756650E+02  0.51100000000E-03 0.  1.
        -12    1    3    3    0    0  0.56839939087E+01 -0.16299084391E+01 -0.26286461159E+01  0.64710253188E+01  0.00000000000E+00 0.  1.
</event>
<event>
 7    1  0.2472338E-008  0.4614232E+02  0.7816164E-02  0.1320468E+00
        -11   -1    0    0    0    0  0.00000000000E+00  0.00000000000E+00  0.45593999997E+02  0.45594000000E+02  0.51100000000E-03 0.  1.
         11   -1    0    0    0    0 -0.00000000000E+00 -0.00000000000E+00 -0.45593999997E+02  0.45594000000E+02  0.51100000000E-03 0. -1.
    9900012    2    1    2    0    0  0.18798874776E+02  0.39236834150E+02  0.11669902448E+02  0.46142317964E+02  0.10000001852E+02 0.  0.
         12    1    1    2    0    0 -0.18798874776E+02 -0.39236834150E+02 -0.11669902448E+02  0.45045682036E+02  0.00000000000E+00 0. -1.
         11    1    3    3    0    0  0.15548259834E+01  0.32266170818E+01 -0.11514344578E+01  0.37622258309E+01  0.51100000000E-03 0. -1.
        -11    1    3    3    0    0  0.91922399352E+01  0.18049088361E+02  0.96741549286E+01  0.22446740065E+02  0.51100000000E-03 0.  1.
        -12    1    3    3    0    0  0.80518088571E+01  0.17961128707E+02  0.31471819775E+01  0.19933352068E+02  0.00000000000E+00 0.  1.
</event>
<event>
 7    1  0.2472338E-008  0.4614232E+02  0.7816164E-02  0.1320468E+00
        -11   -1    0    0    0    0  0.00000000000E+00  0.00000000000E+00  0.45593999997E+02  0.45594000000E+02  0.51100000000E-03 0.  1.
         11   -1    0    0    0    0 -0.00000000000E+00 -0.00000000000E+00 -0.45593999997E+02  0.45594000000E+02  0.51100000000E-03 0. -1.
    9900012    2    1    2    0    0  0.42449347468E+02 -0.52613239054E+01  0.14123910648E+02  0.46142317836E+02  0.10000000678E+02 0.  0.
         12    1    1    2    0    0 -0.42449347468E+02  0.52613239054E+01 -0.14123910648E+02  0.45045682164E+02  0.00000000000E+00 0. -1.
         11    1    3    3    0    0  0.27399357096E+00  0.75898716505E+00 -0.33266428115E+00  0.87281142220E+00  0.51100000000E-03 0. -1.
        -11    1    3    3    0    0  0.27183565633E+02 -0.20313427667E+01  0.10871359076E+02  0.29347215241E+02  0.51100000000E-03 0.  1.
        -12    1    3    3    0    0  0.14991788263E+02 -0.39889683037E+01  0.35852158532E+01  0.15922291172E+02  0.00000000000E+00 0.  1.
</event>
<event>
 7    1  0.2472338E-008  0.4614232E+02  0.7816164E-02  0.1320468E+00
        -11   -1    0    0    0    0  0.00000000000E+00  0.00000000000E+00  0.45593999997E+02  0.45594000000E+02  0.51100000000E-03 0. -1.
         11   -1    0    0    0    0 -0.00000000000E+00 -0.00000000000E+00 -0.45593999997E+02  0.45594000000E+02  0.51100000000E-03 0.  1.
    9900012    2    1    2    0    0 -0.88800629051E+01  0.38740453778E+02 -0.21199887694E+02  0.46142317473E+02  0.99999973683E+01 0.  0.
         12    1    1    2    0    0  0.88800629051E+01 -0.38740453778E+02  0.21199887694E+02  0.45045682527E+02  0.00000000000E+00 0. -1.
         11    1    3    3    0    0 -0.18320482431E+01  0.96029983740E+01 -0.89803825213E+01  0.13274835179E+02  0.51100000000E-03 0. -1.
        -11    1    3    3    0    0 -0.18597073574E+01  0.37826877848E+01  0.74296480779E-01  0.42157749657E+01  0.51100000000E-03 0.  1.
        -12    1    3    3    0    0 -0.51883073045E+01  0.25354767620E+02 -0.12293801653E+02  0.28651707328E+02  0.00000000000E+00 0.  1.
</event>
<event>
 7    1  0.2472338E-008  0.4614232E+02  0.7816164E-02  0.1320468E+00
        -11   -1    0    0    0    0  0.00000000000E+00  0.00000000000E+00  0.45593999997E+02  0.45594000000E+02  0.51100000000E-03 0.  1.
         11   -1    0    0    0    0 -0.00000000000E+00 -0.00000000000E+00 -0.45593999997E+02  0.45594000000E+02  0.51100000000E-03 0. -1.
    9900012    2    1    2    0    0  0.37731926595E+02  0.65296350700E+01 -0.23722965331E+02  0.46142317601E+02  0.99999985426E+01 0.  0.
         12    1    1    2    0    0 -0.37731926595E+02 -0.65296350700E+01  0.23722965331E+02  0.45045682399E+02  0.00000000000E+00 0. -1.
         11    1    3    3    0    0  0.33866594728E+01 -0.21009853902E+00 -0.56242074575E+01  0.65685092348E+01  0.51100000000E-03 0. -1.
        -11    1    3    3    0    0  0.21428524880E+02  0.26366922335E+01 -0.12137052051E+02  0.24767758421E+02  0.51100000000E-03 0.  1.
        -12    1    3    3    0    0  0.12916742242E+02  0.41030413755E+01 -0.59617058219E+01  0.14806049945E+02  0.00000000000E+00 0.  1.
</event>
<event>
 7    1  0.2472338E-008  0.4614232E+02  0.7816164E-02  0.1320468E+00
        -11   -1    0    0    0    0  0.00000000000E+00  0.00000000000E+00  0.45593999997E+02  0.45594000000E+02  0.51100000000E-03 0.  1.
         11   -1    0    0    0    0 -0.00000000000E+00 -0.00000000000E+00 -0.45593999997E+02  0.45594000000E+02  0.51100000000E-03 0. -1.
    9900012    2    1    2    0    0  0.57906827449E+01  0.17702443643E+02  0.41014691769E+02  0.46142318092E+02  0.10000003019E+02 0.  0.
         12    1    1    2    0    0 -0.57906827449E+01 -0.17702443643E+02 -0.41014691769E+02  0.45045681908E+02  0.00000000000E+00 0. -1.
         11    1    3    3    0    0  0.97331392164E-02 -0.18111893594E+00  0.12125114263E+01  0.12260028642E+01  0.51100000000E-03 0. -1.
        -11    1    3    3    0    0 -0.77156177906E-01  0.56180653553E+00  0.95531411174E+01  0.95699574256E+01  0.51100000000E-03 0.  1.
        -12    1    3    3    0    0  0.58581057836E+01  0.17321756044E+02  0.30249039226E+02  0.35346357802E+02  0.00000000000E+00 0.  1.
</event>
<event>
 7    1  0.2472338E-008  0.4614232E+02  0.7816164E-02  0.1320468E+00
        -11   -1    0    0    0    0  0.00000000000E+00  0.00000000000E+00  0.45593999997E+02  0.45594000000E+02  0.51100000000E-03 0.  1.
         11   -1    0    0    0    0 -0.00000000000E+00 -0.00000000000E+00 -0.45593999997E+02  0.45594000000E+02  0.51100000000E-03 0. -1.
    9900012    2    1    2    0    0  0.60233279889E+01  0.15634173845E+02  0.41813943381E+02  0.46142315046E+02  0.99999752416E+01 0.  0.
         12    1    1    2    0    0 -0.60233279889E+01 -0.15634173845E+02 -0.41813943381E+02  0.45045684954E+02  0.00000000000E+00 0. -1.
         11    1    3    3    0    0  0.42455697664E+00  0.30249653823E+01  0.21946223420E+01  0.37612540030E+01  0.51100000000E-03 0. -1.
        -11    1    3    3    0    0  0.39219989704E+01  0.51977891094E+01  0.11120600050E+02  0.12886692100E+02  0.51100000000E-03 0.  1.
        -12    1    3    3    0    0  0.16767720418E+01  0.74114193537E+01  0.28498720989E+02  0.29494368943E+02  0.00000000000E+00 0.  1.
</event>
<event>
 7    1  0.2472338E-008  0.4614232E+02  0.7816164E-02  0.1320468E+00
        -11   -1    0    0    0    0  0.00000000000E+00  0.00000000000E+00  0.45593999997E+02  0.45594000000E+02  0.51100000000E-03 0.  1.
         11   -1    0    0    0    0 -0.00000000000E+00 -0.00000000000E+00 -0.45593999997E+02  0.45594000000E+02  0.51100000000E-03 0. -1.
    9900012    2    1    2    0    0  0.16222661123E+02 -0.53238256869E+01  0.41684476113E+02  0.46142318713E+02  0.10000008677E+02 0.  0.
         12    1    1    2    0    0 -0.16222661123E+02  0.53238256869E+01 -0.41684476113E+02  0.45045681287E+02  0.00000000000E+00 0. -1.
         11    1    3    3    0    0  0.74012194854E+00  0.16637415138E+01  0.55155453037E+01  0.58083609204E+01  0.51100000000E-03 0. -1.
        -11    1    3    3    0    0  0.10930522134E+02 -0.53905721905E+01  0.30759549086E+02  0.33086015821E+02  0.51100000000E-03 0.  1.
         12    1    3    3    0    0  0.45520170400E+01 -0.15969950103E+01  0.54093817229E+01  0.72479419713E+01  0.00000000000E+00 0. -1.
</event>
<event>
 7    1  0.2472338E-008  0.4614232E+02  0.7816164E-02  0.1320468E+00
        -11   -1    0    0    0    0  0.00000000000E+00  0.00000000000E+00  0.45593999997E+02  0.45594000000E+02  0.51100000000E-03 0.  1.
         11   -1    0    0    0    0 -0.00000000000E+00 -0.00000000000E+00 -0.45593999997E+02  0.45594000000E+02  0.51100000000E-03 0. -1.
    9900012    2    1    2    0    0 -0.32049880763E+02 -0.31333029750E+02  0.44899855509E+01  0.46142316738E+02  0.99999906731E+01 0.  0.
         12    1    1    2    0    0  0.32049880763E+02  0.31333029750E+02 -0.44899855509E+01  0.45045683262E+02  0.00000000000E+00 0. -1.
         11    1    3    3    0    0 -0.46067897968E+01 -0.47081600616E+01 -0.18329694576E+01  0.68373284762E+01  0.51100000000E-03 0. -1.
        -11    1    3    3    0    0 -0.23224874253E+02 -0.21874228265E+02  0.27658291295E+01  0.32023842013E+02  0.51100000000E-03 0.  1.
         12    1    3    3    0    0 -0.42182167133E+01 -0.47506414237E+01  0.35571258790E+01  0.72811462487E+01  0.00000000000E+00 0. -1.
</event>
<event>
 7    1  0.2472338E-008  0.4614232E+02  0.7816164E-02  0.1320468E+00
        -11   -1    0    0    0    0  0.00000000000E+00  0.00000000000E+00  0.45593999997E+02  0.45594000000E+02  0.51100000000E-03 0.  1.
         11   -1    0    0    0    0 -0.00000000000E+00 -0.00000000000E+00 -0.45593999997E+02  0.45594000000E+02  0.51100000000E-03 0. -1.
    9900012    2    1    2    0    0  0.91178887018E+01  0.25871040758E+02  0.35730475292E+02  0.46142317534E+02  0.99999979246E+01 0.  0.
         12    1    1    2    0    0 -0.91178887018E+01 -0.25871040758E+02 -0.35730475292E+02  0.45045682466E+02  0.00000000000E+00 0. -1.
         11    1    3    3    0    0  0.43157254323E+01  0.18021505574E+02  0.24705954967E+02  0.30883399428E+02  0.51100000000E-03 0. -1.
        -11    1    3    3    0    0  0.51129884919E+01  0.72024944438E+01  0.11421632974E+02  0.14438569097E+02  0.51100000000E-03 0.  1.
         12    1    3    3    0    0 -0.31082522231E+00  0.64704074033E+00 -0.39711264897E+00  0.82034900771E+00  0.00000000000E+00 0. -1.
</event>
<event>
 7    1  0.2472338E-008  0.4614232E+02  0.7816164E-02  0.1320468E+00
        -11   -1    0    0    0    0  0.00000000000E+00  0.00000000000E+00  0.45593999997E+02  0.45594000000E+02  0.51100000000E-03 0. -1.
         11   -1    0    0    0    0 -0.00000000000E+00 -0.00000000000E+00 -0.45593999997E+02  0.45594000000E+02  0.51100000000E-03 0.  1.
    9900012    2    1    2    0    0 -0.69300673680E+01 -0.13412750928E+02 -0.42440378853E+02  0.46142317873E+02  0.10000001016E+02 0.  0.
         12    1    1    2    0    0  0.69300673680E+01  0.13412750928E+02  0.42440378853E+02  0.45045682127E+02  0.00000000000E+00 0. -1.
         11    1    3    3    0    0 -0.47315860073E+01 -0.86613960942E+01 -0.22610564425E+02  0.24670737977E+02  0.51100000000E-03 0. -1.
        -11    1    3    3    0    0 -0.25432913910E+01 -0.53285731182E+01 -0.99577788495E+01  0.11576674067E+02  0.51100000000E-03 0.  1.
         12    1    3    3    0    0  0.34481003025E+00  0.57721828436E+00 -0.98720355782E+01  0.98949058289E+01  0.00000000000E+00 0. -1.
</event>
<event>
 7    1  0.2472338E-008  0.4614232E+02  0.7816164E-02  0.1320468E+00
        -11   -1    0    0    0    0  0.00000000000E+00  0.00000000000E+00  0.45593999997E+02  0.45594000000E+02  0.51100000000E-03 0.  1.
         11   -1    0    0    0    0 -0.00000000000E+00 -0.00000000000E+00 -0.45593999997E+02  0.45594000000E+02  0.51100000000E-03 0. -1.
    9900012    2    1    2    0    0  0.28291720208E+02  0.32821236789E+02  0.12306846147E+02  0.46142317867E+02  0.10000000970E+02 0.  0.
         12    1    1    2    0    0 -0.28291720208E+02 -0.32821236789E+02 -0.12306846147E+02  0.45045682133E+02  0.00000000000E+00 0. -1.
         11    1    3    3    0    0  0.65768602121E+01  0.45363083903E+01  0.53116881539E+01  0.95941240021E+01  0.51100000000E-03 0.  1.
        -11    1    3    3    0    0  0.16302395025E+02  0.18250048275E+02  0.47648570397E+01  0.24930627919E+02  0.51100000000E-03 0. -1.
         12    1    3    3    0    0  0.54124649706E+01  0.10034880125E+02  0.22303009537E+01  0.11617565946E+02  0.00000000000E+00 0. -1.
</event>
<event>
 7    1  0.2472338E-008  0.4614232E+02  0.7816164E-02  0.1320468E+00
        -11   -1    0    0    0    0  0.00000000000E+00  0.00000000000E+00  0.45593999997E+02  0.45594000000E+02  0.51100000000E-03 0.  1.
         11   -1    0    0    0    0 -0.00000000000E+00 -0.00000000000E+00 -0.45593999997E+02  0.45594000000E+02  0.51100000000E-03 0. -1.
    9900012    2    1    2    0    0  0.43723658044E+02 -0.19849782169E+01  0.10649648664E+02  0.46142318432E+02  0.10000006119E+02 0.  0.
         12    1    1    2    0    0 -0.43723658044E+02  0.19849782169E+01 -0.10649648664E+02  0.45045681568E+02  0.00000000000E+00 0. -1.
         11    1    3    3    0    0  0.80587356812E+01 -0.22076500459E+01  0.62801966813E+00  0.83792212329E+01  0.51100000000E-03 0. -1.
        -11    1    3    3    0    0  0.22074007822E+02 -0.17330465842E+01  0.92925574211E+01  0.24012848550E+02  0.51100000000E-03 0.  1.
         12    1    3    3    0    0  0.13590914540E+02  0.19557184132E+01  0.72907157434E+00  0.13750248649E+02  0.00000000000E+00 0. -1.
</event>
<event>
 7    1  0.2472338E-008  0.4614232E+02  0.7816164E-02  0.1320468E+00
        -11   -1    0    0    0    0  0.00000000000E+00  0.00000000000E+00  0.45593999997E+02  0.45594000000E+02  0.51100000000E-03 0.  1.
         11   -1    0    0    0    0 -0.00000000000E+00 -0.00000000000E+00 -0.45593999997E+02  0.45594000000E+02  0.51100000000E-03 0. -1.
    9900012    2    1    2    0    0  0.59356263882E+01  0.50020750214E+01  0.44371851459E+02  0.46142316333E+02  0.99999869740E+01 0.  0.
         12    1    1    2    0    0 -0.59356263882E+01 -0.50020750214E+01 -0.44371851459E+02  0.45045683667E+02  0.00000000000E+00 0. -1.
         11    1    3    3    0    0  0.42764394464E+01  0.12444930829E+01  0.63952846541E+01  0.77933537993E+01  0.51100000000E-03 0. -1.
        -11    1    3    3    0    0  0.24303338010E+00 -0.41007669655E+00  0.96231787905E+00  0.10739106492E+01  0.51100000000E-03 0.  1.
        -12    1    3    3    0    0  0.14161535617E+01  0.41676586350E+01  0.37014248926E+02  0.37275051884E+02  0.00000000000E+00 0.  1.
</event>
<event>
 7    1  0.2472338E-008  0.4614232E+02  0.7816164E-02  0.1320468E+00
        -11   -1    0    0    0    0  0.00000000000E+00  0.00000000000E+00  0.45593999997E+02  0.45594000000E+02  0.51100000000E-03 0. -1.
         11   -1    0    0    0    0 -0.00000000000E+00 -0.00000000000E+00 -0.45593999997E+02  0.45594000000E+02  0.51100000000E-03 0.  1.
    9900012    2    1    2    0    0  0.27209319484E+02  0.11445751306E+02 -0.34025890842E+02  0.46142317217E+02  0.99999950419E+01 0.  0.
         12    1    1    2    0    0 -0.27209319484E+02 -0.11445751306E+02  0.34025890842E+02  0.45045682783E+02  0.00000000000E+00 0. -1.
         11    1    3    3    0    0  0.48372828720E+01  0.26050666739E+01 -0.54582206481E+01  0.77445368398E+01  0.51100000000E-03 0.  1.
        -11    1    3    3    0    0  0.18100329833E+02  0.39827823239E+01 -0.17025751424E+02  0.25166658636E+02  0.51100000000E-03 0. -1.
         12    1    3    3    0    0  0.42717067796E+01  0.48579023078E+01 -0.11541918770E+02  0.13231121742E+02  0.00000000000E+00 0. -1.
</event>
<event>
 7    1  0.2472338E-008  0.4614232E+02  0.7816164E-02  0.1320468E+00
        -11   -1    0    0    0    0  0.00000000000E+00  0.00000000000E+00  0.45593999997E+02  0.45594000000E+02  0.51100000000E-03 0.  1.
         11   -1    0    0    0    0 -0.00000000000E+00 -0.00000000000E+00 -0.45593999997E+02  0.45594000000E+02  0.51100000000E-03 0. -1.
    9900012    2    1    2    0    0  0.30475921654E+01  0.37939215437E+02  0.24092355501E+02  0.46142317859E+02  0.10000000894E+02 0.  0.
         12    1    1    2    0    0 -0.30475921654E+01 -0.37939215437E+02 -0.24092355501E+02  0.45045682141E+02  0.00000000000E+00 0. -1.
         11    1    3    3    0    0 -0.11930664130E+01  0.12072725425E+01  0.16940282361E+01  0.23980505382E+01  0.51100000000E-03 0. -1.
        -11    1    3    3    0    0  0.10960728440E+01  0.50477986955E+00  0.59834285225E+00  0.13469197549E+01  0.51100000000E-03 0.  1.
        -12    1    3    3    0    0  0.31445857343E+01  0.36227163025E+02  0.21799984412E+02  0.42397347566E+02  0.00000000000E+00 0.  1.
</event>
<event>
 7    1  0.2472338E-008  0.4614232E+02  0.7816164E-02  0.1320468E+00
        -11   -1    0    0    0    0  0.00000000000E+00  0.00000000000E+00  0.45593999997E+02  0.45594000000E+02  0.51100000000E-03 0.  1.
         11   -1    0    0    0    0 -0.00000000000E+00 -0.00000000000E+00 -0.45593999997E+02  0.45594000000E+02  0.51100000000E-03 0. -1.
    9900012    2    1    2    0    0 -0.10883299748E+02  0.19721666125E+02  0.39009270108E+02  0.46142317826E+02  0.10000000588E+02 0.  0.
         12    1    1    2    0    0  0.10883299748E+02 -0.19721666125E+02 -0.39009270108E+02  0.45045682174E+02  0.00000000000E+00 0. -1.
         11    1    3    3    0    0 -0.44207176519E+01  0.24947928879E+01  0.38118383246E+01  0.63479798192E+01  0.51100000000E-03 0. -1.
        -11    1    3    3    0    0 -0.14710078681E+01  0.33433460926E+01  0.92614679193E+01  0.99557327969E+01  0.51100000000E-03 0.  1.
         12    1    3    3    0    0 -0.49915742280E+01  0.13883527145E+02  0.25935963865E+02  0.29838605209E+02  0.00000000000E+00 0. -1.
</event>
<event>
 7    1  0.2472338E-008  0.4614231E+02  0.7816164E-02  0.1320468E+00
        -11   -1    0    0    0    0  0.00000000000E+00  0.00000000000E+00  0.45593999997E+02  0.45594000000E+02  0.51100000000E-03 0. -1.
         11   -1    0    0    0    0 -0.00000000000E+00 -0.00000000000E+00 -0.45593999997E+02  0.45594000000E+02  0.51100000000E-03 0.  1.
    9900012    2    1    2    0    0  0.17204661465E+02  0.10924284539E+02 -0.40171798369E+02  0.46142314824E+02  0.99999732156E+01 0.  0.
         12    1    1    2    0    0 -0.17204661465E+02 -0.10924284539E+02  0.40171798369E+02  0.45045685176E+02  0.00000000000E+00 0. -1.
         11    1    3    3    0    0  0.45328535698E+01  0.10790194673E+01 -0.80203317211E+01  0.92756005560E+01  0.51100000000E-03 0. -1.
        -11    1    3    3    0    0  0.11062820645E+02  0.37874824227E+01 -0.22531368317E+02  0.25384908553E+02  0.51100000000E-03 0.  1.
         12    1    3    3    0    0  0.16089872507E+01  0.60577826492E+01 -0.96200983301E+01  0.11481805715E+02  0.00000000000E+00 0. -1.
</event>
<event>
 7    1  0.2472338E-008  0.4614232E+02  0.7816164E-02  0.1320468E+00
        -11   -1    0    0    0    0  0.00000000000E+00  0.00000000000E+00  0.45593999997E+02  0.45594000000E+02  0.51100000000E-03 0.  1.
         11   -1    0    0    0    0 -0.00000000000E+00 -0.00000000000E+00 -0.45593999997E+02  0.45594000000E+02  0.51100000000E-03 0. -1.
    9900012    2    1    2    0    0  0.12605079480E+02 -0.21737470470E+02  0.37385930746E+02  0.46142317978E+02  0.10000001978E+02 0.  0.
         12    1    1    2    0    0 -0.12605079480E+02  0.21737470470E+02 -0.37385930746E+02  0.45045682022E+02  0.00000000000E+00 0. -1.
         11    1    3    3    0    0 -0.27751151190E+00  0.40297817784E+00  0.37909248299E+00  0.61896318375E+00  0.51100000000E-03 0. -1.
        -11    1    3    3    0    0  0.48693859772E+01 -0.14207393443E+02  0.23972474531E+02  0.28288522118E+02  0.51100000000E-03 0.  1.
        -12    1    3    3    0    0  0.80132050144E+01 -0.79330552039E+01  0.13034363732E+02  0.17234832676E+02  0.00000000000E+00 0.  1.
</event>
<event>
 7    1  0.2472338E-008  0.4614232E+02  0.7816164E-02  0.1320468E+00
        -11   -1    0    0    0    0  0.00000000000E+00  0.00000000000E+00  0.45593999997E+02  0.45594000000E+02  0.51100000000E-03 0.  1.
         11   -1    0    0    0    0 -0.00000000000E+00 -0.00000000000E+00 -0.45593999997E+02  0.45594000000E+02  0.51100000000E-03 0. -1.
    9900012    2    1    2    0    0  0.44721843352E+01 -0.53993050490E+01  0.44496748178E+02  0.46142317342E+02  0.99999961768E+01 0.  0.
         12    1    1    2    0    0 -0.44721843352E+01  0.53993050490E+01 -0.44496748178E+02  0.45045682658E+02  0.00000000000E+00 0. -1.
         11    1    3    3    0    0  0.41773035000E+01 -0.27352139933E+01  0.17842707797E+02  0.18528180750E+02  0.51100000000E-03 0. -1.
        -11    1    3    3    0    0  0.29878605953E+01 -0.17932593858E+01  0.21044190329E+02  0.21330753316E+02  0.51100000000E-03 0.  1.
         12    1    3    3    0    0 -0.26929797602E+01 -0.87083166988E+00  0.56098500521E+01  0.62833832760E+01  0.00000000000E+00 0. -1.
</event>
<event>
 7    1  0.2472338E-008  0.4614232E+02  0.7816164E-02  0.1320468E+00
        -11   -1    0    0    0    0  0.00000000000E+00  0.00000000000E+00  0.45593999997E+02  0.45594000000E+02  0.51100000000E-03 0.  1.
         11   -1    0    0    0    0 -0.00000000000E+00 -0.00000000000E+00 -0.45593999997E+02  0.45594000000E+02  0.51100000000E-03 0. -1.
    9900012    2    1    2    0    0  0.24415691358E+02  0.24887720432E+02  0.28523479728E+02  0.46142317536E+02  0.99999979508E+01 0.  0.
         12    1    1    2    0    0 -0.24415691358E+02 -0.24887720432E+02 -0.28523479728E+02  0.45045682464E+02  0.00000000000E+00 0. -1.
         11    1    3    3    0    0  0.13923601584E+01  0.20902623705E+01  0.59220165363E+01  0.64325845277E+01  0.51100000000E-03 0. -1.
        -11    1    3    3    0    0  0.70251636008E+01  0.94384694519E+01  0.91292835360E+01  0.14892328473E+02  0.51100000000E-03 0.  1.
        -12    1    3    3    0    0  0.15998167598E+02  0.13358988610E+02  0.13472179656E+02  0.24817404536E+02  0.00000000000E+00 0.  1.
</event>
<event>
 7    1  0.2472338E-008  0.4614232E+02  0.7816164E-02  0.1320468E+00
        -11   -1    0    0    0    0  0.00000000000E+00  0.00000000000E+00  0.45593999997E+02  0.45594000000E+02  0.51100000000E-03 0.  1.
         11   -1    0    0    0    0 -0.00000000000E+00 -0.00000000000E+00 -0.45593999997E+02  0.45594000000E+02  0.51100000000E-03 0. -1.
    9900012    2    1    2    0    0 -0.22679021798E+02 -0.36388457946E+02  0.13807809666E+02  0.46142317530E+02  0.99999978936E+01 0.  0.
         12    1    1    2    0    0  0.22679021798E+02  0.36388457946E+02 -0.13807809666E+02  0.45045682470E+02  0.00000000000E+00 0. -1.
         11    1    3    3    0    0 -0.12675000480E+02 -0.24264162182E+02  0.55746133260E+01  0.27937099305E+02  0.51100000000E-03 0. -1.
        -11    1    3    3    0    0 -0.14212710521E+01 -0.35622600052E+01  0.60762388450E+00  0.38831578379E+01  0.51100000000E-03 0.  1.
        -12    1    3    3    0    0 -0.85827502664E+01 -0.85620357583E+01  0.76255724557E+01  0.14322060387E+02  0.00000000000E+00 0.  1.
</event>
<event>
 7    1  0.2472338E-008  0.4614232E+02  0.7816164E-02  0.1320468E+00
        -11   -1    0    0    0    0  0.00000000000E+00  0.00000000000E+00  0.45593999997E+02  0.45594000000E+02  0.51100000000E-03 0.  1.
         11   -1    0    0    0    0 -0.00000000000E+00 -0.00000000000E+00 -0.45593999997E+02  0.45594000000E+02  0.51100000000E-03 0. -1.
    9900012    2    1    2    0    0  0.28409075321E+02  0.20075011127E+02  0.28618731606E+02  0.46142318397E+02  0.10000005795E+02 0.  0.
         12    1    1    2    0    0 -0.28409075321E+02 -0.20075011127E+02 -0.28618731606E+02  0.45045681603E+02  0.00000000000E+00 0. -1.
         11    1    3    3    0    0  0.83792941125E+00 -0.69927791452E+00  0.60735465385E-01  0.10930710672E+01  0.51100000000E-03 0. -1.
        -11    1    3    3    0    0  0.10024785513E+01  0.13676767115E+01  0.27612161995E+01  0.32403422650E+01  0.51100000000E-03 0.  1.
        -12    1    3    3    0    0  0.26568667359E+02  0.19406612330E+02  0.25796779942E+02  0.41808905065E+02  0.00000000000E+00 0.  1.
</event>
<event>
 7    1  0.2472338E-008  0.4614232E+02  0.7816164E-02  0.1320468E+00
        -11   -1    0    0    0    0  0.00000000000E+00  0.00000000000E+00  0.45593999997E+02  0.45594000000E+02  0.51100000000E-03 0.  1.
         11   -1    0    0    0    0 -0.00000000000E+00 -0.00000000000E+00 -0.45593999997E+02  0.45594000000E+02  0.51100000000E-03 0. -1.
    9900012    2    1    2    0    0  0.86878610955E+01  0.33286253772E+02  0.29080222472E+02  0.46142323630E+02  0.10000053520E+02 0.  0.
         12    1    1    2    0    0 -0.86878610955E+01 -0.33286253772E+02 -0.29080222472E+02  0.45045676370E+02  0.00000000000E+00 0. -1.
         11    1    3    3    0    0  0.47743630577E+01  0.15458227087E+02  0.14437287057E+02  0.21683786227E+02  0.51100000000E-03 0.  1.
        -11    1    3    3    0    0 -0.51116757436E+00  0.39629885251E+01  0.68989829193E+01  0.79726116123E+01  0.51100000000E-03 0. -1.
         12    1    3    3    0    0  0.44246656121E+01  0.13865038159E+02  0.77439524954E+01  0.16485925791E+02  0.00000000000E+00 0. -1.
</event>
<event>
 7    1  0.2472338E-008  0.4614232E+02  0.7816164E-02  0.1320468E+00
        -11   -1    0    0    0    0  0.00000000000E+00  0.00000000000E+00  0.45593999997E+02  0.45594000000E+02  0.51100000000E-03 0.  1.
         11   -1    0    0    0    0 -0.00000000000E+00 -0.00000000000E+00 -0.45593999997E+02  0.45594000000E+02  0.51100000000E-03 0. -1.
    9900012    2    1    2    0    0  0.24347274945E+02  0.64567271814E+01  0.37344803920E+02  0.46142317599E+02  0.99999985179E+01 0.  0.
         12    1    1    2    0    0 -0.24347274945E+02 -0.64567271814E+01 -0.37344803920E+02  0.45045682401E+02  0.00000000000E+00 0. -1.
         11    1    3    3    0    0  0.97597139376E+01  0.48339721510E+01  0.14505267074E+02  0.18138965683E+02  0.51100000000E-03 0. -1.
        -11    1    3    3    0    0  0.78855995089E+01 -0.25296016551E+01  0.10744464503E+02  0.13565584464E+02  0.51100000000E-03 0.  1.
        -12    1    3    3    0    0  0.67019614988E+01  0.41523566856E+01  0.12095072344E+02  0.14437767452E+02  0.00000000000E+00 0.  1.
</event>
<event>
 7    1  0.2472338E-008  0.4614232E+02  0.7816164E-02  0.1320468E+00
        -11   -1    0    0    0    0  0.00000000000E+00  0.00000000000E+00  0.45593999997E+02  0.45594000000E+02  0.51100000000E-03 0. -1.
         11   -1    0    0    0    0 -0.00000000000E+00 -0.00000000000E+00 -0.45593999997E+02  0.45594000000E+02  0.51100000000E-03 0.  1.
    9900012    2    1    2    0    0  0.34074210756E+02  0.29420393783E+02  0.15817898220E+01  0.46142317987E+02  0.10000002057E+02 0.  0.
         12    1    1    2    0    0 -0.34074210756E+02 -0.29420393783E+02 -0.15817898220E+01  0.45045682013E+02  0.00000000000E+00 0. -1.
         11    1    3    3    0    0  0.48795752123E+01  0.32282421310E+01 -0.23984485911E+00  0.58557089517E+01  0.51100000000E-03 0.  1.
        -11    1    3    3    0    0  0.17066768910E+02  0.99579722763E+01  0.30114358875E+01  0.19987610144E+02  0.51100000000E-03 0. -1.
         12    1    3    3    0    0  0.12127866634E+02  0.16234179375E+02 -0.11898012063E+01  0.20298998891E+02  0.00000000000E+00 0. -1.
</event>
<event>
 7    1  0.2472338E-008  0.4614232E+02  0.7816164E-02  0.1320468E+00
        -11   -1    0    0    0    0  0.00000000000E+00  0.00000000000E+00  0.45593999997E+02  0.45594000000E+02  0.51100000000E-03 0.  1.
         11   -1    0    0    0    0 -0.00000000000E+00 -0.00000000000E+00 -0.45593999997E+02  0.45594000000E+02  0.51100000000E-03 0. -1.
    9900012    2    1    2    0    0  0.18387591027E+02  0.23060279674E+02  0.34047518718E+02  0.46142317262E+02  0.99999954524E+01 0.  0.
         12    1    1    2    0    0 -0.18387591027E+02 -0.23060279674E+02 -0.34047518718E+02  0.45045682738E+02  0.00000000000E+00 0. -1.
         11    1    3    3    0    0  0.75004100435E+01  0.58771760117E+01  0.82359505008E+01  0.12594769931E+02  0.51100000000E-03 0. -1.
        -11    1    3    3    0    0  0.99046928213E+01  0.13631981618E+02  0.24287188173E+02  0.29560131466E+02  0.51100000000E-03 0.  1.
         12    1    3    3    0    0  0.98248816221E+00  0.35511220443E+01  0.15243800451E+01  0.39874158655E+01  0.00000000000E+00 0. -1.
</event>
<event>
 7    1  0.2472338E-008  0.4614232E+02  0.7816164E-02  0.1320468E+00
        -11   -1    0    0    0    0  0.00000000000E+00  0.00000000000E+00  0.45593999997E+02  0.45594000000E+02  0.51100000000E-03 0. -1.
         11   -1    0    0    0    0 -0.00000000000E+00 -0.00000000000E+00 -0.45593999997E+02  0.45594000000E+02  0.51100000000E-03 0.  1.
    9900012    2    1    2    0    0 -0.57454091371E+01 -0.26713911144E+02 -0.35811596195E+02  0.46142320998E+02  0.10000029517E+02 0.  0.
         12    1    1    2    0    0  0.57454091371E+01  0.26713911144E+02  0.35811596195E+02  0.45045679002E+02  0.00000000000E+00 0. -1.
         11    1    3    3    0    0 -0.63006704021E+01 -0.87372524155E+01 -0.14183339164E+02  0.17810253715E+02  0.51100000000E-03 0. -1.
        -11    1    3    3    0    0  0.17459181750E+01 -0.83305316297E+01 -0.11339077266E+02  0.14178175518E+02  0.51100000000E-03 0.  1.
         12    1    3    3    0    0 -0.11906569100E+01 -0.96461270983E+01 -0.10289179765E+02  0.14153891766E+02  0.00000000000E+00 0. -1.
</event>
<event>
 7    1  0.2472338E-008  0.4614232E+02  0.7816164E-02  0.1320468E+00
        -11   -1    0    0    0    0  0.00000000000E+00  0.00000000000E+00  0.45593999997E+02  0.45594000000E+02  0.51100000000E-03 0.  1.
         11   -1    0    0    0    0 -0.00000000000E+00 -0.00000000000E+00 -0.45593999997E+02  0.45594000000E+02  0.51100000000E-03 0. -1.
    9900012    2    1    2    0    0  0.20431265680E+02  0.36395027692E+01  0.39980381012E+02  0.46142318037E+02  0.10000002512E+02 0.  0.
         12    1    1    2    0    0 -0.20431265680E+02 -0.36395027692E+01 -0.39980381012E+02  0.45045681963E+02  0.00000000000E+00 0. -1.
         11    1    3    3    0    0  0.51032097562E+01  0.15026317512E+01  0.51940723093E+01  0.74349875193E+01  0.51100000000E-03 0. -1.
        -11    1    3    3    0    0  0.13053476385E+02  0.52619585312E+00  0.32738400563E+02  0.35248730466E+02  0.51100000000E-03 0.  1.
        -12    1    3    3    0    0  0.22745795387E+01  0.16106751649E+01  0.20479081397E+01  0.34586000511E+01  0.00000000000E+00 0.  1.
</event>
<event>
 7    1  0.2472338E-008  0.4614232E+02  0.7816164E-02  0.1320468E+00
        -11   -1    0    0    0    0  0.00000000000E+00  0.00000000000E+00  0.45593999997E+02  0.45594000000E+02  0.51100000000E-03 0. -1.
         11   -1    0    0    0    0 -0.00000000000E+00 -0.00000000000E+00 -0.45593999997E+02  0.45594000000E+02  0.51100000000E-03 0.  1.
    9900012    2    1    2    0    0 -0.35547865687E+02  0.20071242216E+02 -0.19042271716E+02  0.46142316177E+02  0.99999855538E+01 0.  0.
         12    1    1    2    0    0  0.35547865687E+02 -0.20071242216E+02  0.19042271716E+02  0.45045683823E+02  0.00000000000E+00 0. -1.
         11    1    3    3    0    0 -0.50085807007E+01  0.20755142559E+01 -0.49454268429E+00  0.54440988960E+01  0.51100000000E-03 0. -1.
        -11    1    3    3    0    0 -0.14910336127E+02  0.48994486741E+01 -0.98534878636E+01  0.18531431247E+02  0.51100000000E-03 0.  1.
         12    1    3    3    0    0 -0.15628948860E+02  0.13096279286E+02 -0.86942411679E+01  0.22166786034E+02  0.00000000000E+00 0. -1.
</event>
<event>
 7    1  0.2472338E-008  0.4614232E+02  0.7816164E-02  0.1320468E+00
        -11   -1    0    0    0    0  0.00000000000E+00  0.00000000000E+00  0.45593999997E+02  0.45594000000E+02  0.51100000000E-03 0.  1.
         11   -1    0    0    0    0 -0.00000000000E+00 -0.00000000000E+00 -0.45593999997E+02  0.45594000000E+02  0.51100000000E-03 0. -1.
    9900012    2    1    2    0    0 -0.15026277029E+02  0.37994636379E+02  0.18966603368E+02  0.46142318317E+02  0.10000005072E+02 0.  0.
         12    1    1    2    0    0  0.15026277029E+02 -0.37994636379E+02 -0.18966603368E+02  0.45045681683E+02  0.00000000000E+00 0. -1.
         11    1    3    3    0    0 -0.77241790661E+01  0.26116330070E+02  0.12142087011E+02  0.29818717541E+02  0.51100000000E-03 0.  1.
        -11    1    3    3    0    0  0.63367059618E+00  0.15568734311E+01  0.15155542955E+01  0.22632495197E+01  0.51100000000E-03 0. -1.
        -12    1    3    3    0    0 -0.79357685588E+01  0.10321432878E+02  0.53089620620E+01  0.14060351256E+02  0.00000000000E+00 0.  1.
</event>
<event>
 7    1  0.2472338E-008  0.4614232E+02  0.7816164E-02  0.1320468E+00
        -11   -1    0    0    0    0  0.00000000000E+00  0.00000000000E+00  0.45593999997E+02  0.45594000000E+02  0.51100000000E-03 0.  1.
         11   -1    0    0    0    0 -0.00000000000E+00 -0.00000000000E+00 -0.45593999997E+02  0.45594000000E+02  0.51100000000E-03 0. -1.
    9900012    2    1    2    0    0  0.34828203191E+02  0.54193873779E+01  0.28048880954E+02  0.46142320742E+02  0.10000027178E+02 0.  0.
         12    1    1    2    0    0 -0.34828203191E+02 -0.54193873779E+01 -0.28048880954E+02  0.45045679258E+02  0.00000000000E+00 0. -1.
         11    1    3    3    0    0  0.15280305643E+02  0.38275286449E+01  0.99921818039E+01  0.18654259930E+02  0.51100000000E-03 0. -1.
        -11    1    3    3    0    0  0.62904951680E+01 -0.92768741445E+00  0.97548023860E+01  0.11644187531E+02  0.51100000000E-03 0.  1.
        -12    1    3    3    0    0  0.13257402380E+02  0.25195461474E+01  0.83018967638E+01  0.15843873281E+02  0.00000000000E+00 0.  1.
</event>
<event>
 7    1  0.2472338E-008  0.4614232E+02  0.7816164E-02  0.1320468E+00
        -11   -1    0    0    0    0  0.00000000000E+00  0.00000000000E+00  0.45593999997E+02  0.45594000000E+02  0.51100000000E-03 0. -1.
         11   -1    0    0    0    0 -0.00000000000E+00 -0.00000000000E+00 -0.45593999997E+02  0.45594000000E+02  0.51100000000E-03 0.  1.
    9900012    2    1    2    0    0  0.41389015145E+02  0.15845188881E+02 -0.80618188762E+01  0.46142317533E+02  0.99999979160E+01 0.  0.
         12    1    1    2    0    0 -0.41389015145E+02 -0.15845188881E+02  0.80618188762E+01  0.45045682467E+02  0.00000000000E+00 0. -1.
         11    1    3    3    0    0  0.12033598574E+02  0.18832916225E+01  0.17175427235E+00  0.12181288182E+02  0.51100000000E-03 0. -1.
        -11    1    3    3    0    0  0.50629324002E+01  0.48158277632E+01 -0.19380721716E+01  0.72513175035E+01  0.51100000000E-03 0.  1.
        -12    1    3    3    0    0  0.24292484171E+02  0.91460694953E+01 -0.62955009769E+01  0.26709711847E+02  0.00000000000E+00 0.  1.
</event>
<event>
 7    1  0.2472338E-008  0.4614232E+02  0.7816164E-02  0.1320468E+00
        -11   -1    0    0    0    0  0.00000000000E+00  0.00000000000E+00  0.45593999997E+02  0.45594000000E+02  0.51100000000E-03 0. -1.
         11   -1    0    0    0    0 -0.00000000000E+00 -0.00000000000E+00 -0.45593999997E+02  0.45594000000E+02  0.51100000000E-03 0.  1.
    9900012    2    1    2    0    0  0.22968210092E+02 -0.32057071794E+02  0.21769680608E+02  0.46142317403E+02  0.99999967390E+01 0.  0.
         12    1    1    2    0    0 -0.22968210092E+02  0.32057071794E+02 -0.21769680608E+02  0.45045682597E+02  0.00000000000E+00 0. -1.
         11    1    3    3    0    0  0.30946226814E+01 -0.64247627276E+01  0.25716261557E+01  0.75807339349E+01  0.51100000000E-03 0. -1.
        -11    1    3    3    0    0  0.25857597214E+01 -0.40646283052E+01 -0.15321413868E+00  0.48198372824E+01  0.51100000000E-03 0.  1.
        -12    1    3    3    0    0  0.17287827689E+02 -0.21567680761E+02  0.19351268591E+02  0.33741746186E+02  0.00000000000E+00 0.  1.
</event>
<event>
 7    1  0.2472338E-008  0.4614232E+02  0.7816164E-02  0.1320468E+00
        -11   -1    0    0    0    0  0.00000000000E+00  0.00000000000E+00  0.45593999997E+02  0.45594000000E+02  0.51100000000E-03 0.  1.
         11   -1    0    0    0    0 -0.00000000000E+00 -0.00000000000E+00 -0.45593999997E+02  0.45594000000E+02  0.51100000000E-03 0. -1.
    9900012    2    1    2    0    0 -0.39496845015E+02 -0.17537256594E+02  0.12710523099E+02  0.46142317272E+02  0.99999955382E+01 0.  0.
         12    1    1    2    0    0  0.39496845015E+02  0.17537256594E+02 -0.12710523099E+02  0.45045682728E+02  0.00000000000E+00 0. -1.
         11    1    3    3    0    0 -0.11386500935E+02 -0.43211340730E+01  0.51174582727E+01  0.13210336205E+02  0.51100000000E-03 0. -1.
        -11    1    3    3    0    0 -0.20068756439E+02 -0.91064360075E+01  0.16057052345E+01  0.22096616286E+02  0.51100000000E-03 0.  1.
        -12    1    3    3    0    0 -0.80415876419E+01 -0.41096865131E+01  0.59873595921E+01  0.10835364780E+02  0.00000000000E+00 0.  1.
</event>
<event>
 7    1  0.2472338E-008  0.4614232E+02  0.7816164E-02  0.1320468E+00
        -11   -1    0    0    0    0  0.00000000000E+00  0.00000000000E+00  0.45593999997E+02  0.45594000000E+02  0.51100000000E-03 0.  1.
         11   -1    0    0    0    0 -0.00000000000E+00 -0.00000000000E+00 -0.45593999997E+02  0.45594000000E+02  0.51100000000E-03 0. -1.
    9900012    2    1    2    0    0  0.29172459890E+02  0.25588539802E+02  0.22875920462E+02  0.46142317385E+02  0.99999965704E+01 0.  0.
         12    1    1    2    0    0 -0.29172459890E+02 -0.25588539802E+02 -0.22875920462E+02  0.45045682615E+02  0.00000000000E+00 0. -1.
         11    1    3    3    0    0  0.54847504193E+01  0.32157838344E+01  0.26846615453E+01  0.69015332141E+01  0.51100000000E-03 0. -1.
        -11    1    3    3    0    0  0.11118769844E+02  0.14777237811E+02  0.14464509740E+02  0.23477986337E+02  0.51100000000E-03 0.  1.
        -12    1    3    3    0    0  0.12568939627E+02  0.75955181570E+01  0.57267491773E+01  0.15762797834E+02  0.00000000000E+00 0.  1.
</event>
<event>
 7    1  0.2472338E-008  0.4614232E+02  0.7816164E-02  0.1320468E+00
        -11   -1    0    0    0    0  0.00000000000E+00  0.00000000000E+00  0.45593999997E+02  0.45594000000E+02  0.51100000000E-03 0. -1.
         11   -1    0    0    0    0 -0.00000000000E+00 -0.00000000000E+00 -0.45593999997E+02  0.45594000000E+02  0.51100000000E-03 0.  1.
    9900012    2    1    2    0    0  0.33406144421E+02  0.21780316413E+02 -0.20946615677E+02  0.46142319003E+02  0.10000011328E+02 0.  0.
         12    1    1    2    0    0 -0.33406144421E+02 -0.21780316413E+02  0.20946615677E+02  0.45045680997E+02  0.00000000000E+00 0. -1.
         11    1    3    3    0    0  0.81667310356E+01  0.71894660334E+01 -0.35318481255E+01  0.11439312440E+02  0.51100000000E-03 0. -1.
        -11    1    3    3    0    0  0.15649743393E+02  0.12590411441E+02 -0.10132631879E+02  0.22496736598E+02  0.51100000000E-03 0.  1.
        -12    1    3    3    0    0  0.95896699923E+01  0.20004389387E+01 -0.72821356724E+01  0.12206269965E+02  0.00000000000E+00 0.  1.
</event>
<event>
 7    1  0.2472338E-008  0.4614232E+02  0.7816164E-02  0.1320468E+00
        -11   -1    0    0    0    0  0.00000000000E+00  0.00000000000E+00  0.45593999997E+02  0.45594000000E+02  0.51100000000E-03 0.  1.
         11   -1    0    0    0    0 -0.00000000000E+00 -0.00000000000E+00 -0.45593999997E+02  0.45594000000E+02  0.51100000000E-03 0. -1.
    9900012    2    1    2    0    0  0.16050123818E+02 -0.15153874638E+02  0.39266614773E+02  0.46142318445E+02  0.10000006233E+02 0.  0.
         12    1    1    2    0    0 -0.16050123818E+02  0.15153874638E+02 -0.39266614773E+02  0.45045681555E+02  0.00000000000E+00 0. -1.
         11    1    3    3    0    0  0.93863912689E+01 -0.13094837348E+02  0.26826745469E+02  0.31293024446E+02  0.51100000000E-03 0. -1.
        -11    1    3    3    0    0  0.25040777237E+01 -0.24441417954E+01  0.81103243569E+01  0.88329834030E+01  0.51100000000E-03 0.  1.
         12    1    3    3    0    0  0.41596548249E+01  0.38510450600E+00  0.43295449466E+01  0.60163105959E+01  0.00000000000E+00 0. -1.
</event>
<event>
 7    1  0.2472338E-008  0.4614232E+02  0.7816164E-02  0.1320468E+00
        -11   -1    0    0    0    0  0.00000000000E+00  0.00000000000E+00  0.45593999997E+02  0.45594000000E+02  0.51100000000E-03 0.  1.
         11   -1    0    0    0    0 -0.00000000000E+00 -0.00000000000E+00 -0.45593999997E+02  0.45594000000E+02  0.51100000000E-03 0. -1.
    9900012    2    1    2    0    0  0.27872484134E+02  0.23858053552E-01  0.35386969013E+02  0.46142317444E+02  0.99999971082E+01 0.  0.
         12    1    1    2    0    0 -0.27872484134E+02 -0.23858053552E-01 -0.35386969013E+02  0.45045682556E+02  0.00000000000E+00 0. -1.
         11    1    3    3    0    0  0.14390015135E+02 -0.40239960811E+01  0.16573878831E+02  0.22314984647E+02  0.51100000000E-03 0. -1.
        -11    1    3    3    0    0  0.86592820519E+01  0.59605279808E+00  0.10712619248E+02  0.13787626917E+02  0.51100000000E-03 0.  1.
        -12    1    3    3    0    0  0.48231869474E+01  0.34518013366E+01  0.81004709338E+01  0.10039705879E+02  0.00000000000E+00 0.  1.
</event>
<event>
 7    1  0.2472338E-008  0.4614232E+02  0.7816164E-02  0.1320468E+00
        -11   -1    0    0    0    0  0.00000000000E+00  0.00000000000E+00  0.45593999997E+02  0.45594000000E+02  0.51100000000E-03 0.  1.
         11   -1    0    0    0    0 -0.00000000000E+00 -0.00000000000E+00 -0.45593999997E+02  0.45594000000E+02  0.51100000000E-03 0. -1.
    9900012    2    1    2    0    0  0.25033134208E+02 -0.23820899601E+02  0.28896718723E+02  0.46142318531E+02  0.10000007018E+02 0.  0.
         12    1    1    2    0    0 -0.25033134208E+02  0.23820899601E+02 -0.28896718723E+02  0.45045681469E+02  0.00000000000E+00 0. -1.
         11    1    3    3    0    0  0.37639916768E+01 -0.23749086948E+01  0.59670509376E+01  0.74440259138E+01  0.51100000000E-03 0. -1.
        -11    1    3    3    0    0  0.35502576874E+01 -0.85519571973E+01  0.67654129674E+01  0.11467829543E+02  0.51100000000E-03 0.  1.
         12    1    3    3    0    0  0.17718884843E+02 -0.12894033709E+02  0.16164254818E+02  0.27230463074E+02  0.00000000000E+00 0. -1.
</event>
<event>
 7    1  0.2472338E-008  0.4614232E+02  0.7816164E-02  0.1320468E+00
        -11   -1    0    0    0    0  0.00000000000E+00  0.00000000000E+00  0.45593999997E+02  0.45594000000E+02  0.51100000000E-03 0.  1.
         11   -1    0    0    0    0 -0.00000000000E+00 -0.00000000000E+00 -0.45593999997E+02  0.45594000000E+02  0.51100000000E-03 0. -1.
    9900012    2    1    2    0    0  0.44790657237E+02  0.23235888970E+01  0.41846792729E+01  0.46142316725E+02  0.99999905548E+01 0.  0.
         12    1    1    2    0    0 -0.44790657237E+02 -0.23235888970E+01 -0.41846792729E+01  0.45045683275E+02  0.00000000000E+00 0. -1.
         11    1    3    3    0    0  0.22376283544E+02 -0.14140852150E+01  0.30068877894E+01  0.22621650618E+02  0.51100000000E-03 0.  1.
        -11    1    3    3    0    0  0.17566660637E+02  0.24477111892E+01 -0.15616665680E+01  0.17804989714E+02  0.51100000000E-03 0. -1.
        -12    1    3    3    0    0  0.48477130556E+01  0.12899629228E+01  0.27394580515E+01  0.57156763928E+01  0.00000000000E+00 0.  1.
</event>
<event>
 7    1  0.2472338E-008  0.4614232E+02  0.7816164E-02  0.1320468E+00
        -11   -1    0    0    0    0  0.00000000000E+00  0.00000000000E+00  0.45593999997E+02  0.45594000000E+02  0.51100000000E-03 0.  1.
         11   -1    0    0    0    0 -0.00000000000E+00 -0.00000000000E+00 -0.45593999997E+02  0.45594000000E+02  0.51100000000E-03 0. -1.
    9900012    2    1    2    0    0  0.76743549134E+01 -0.25654474460E+02  0.36222448021E+02  0.46142317368E+02  0.99999964176E+01 0.  0.
         12    1    1    2    0    0 -0.76743549134E+01  0.25654474460E+02 -0.36222448021E+02  0.45045682632E+02  0.00000000000E+00 0. -1.
         11    1    3    3    0    0  0.11852924185E+01 -0.14187599281E+01  0.64977501191E+01  0.67556313341E+01  0.51100000000E-03 0. -1.
        -11    1    3    3    0    0  0.59841817248E+01 -0.24530302758E+02  0.29178566597E+02  0.38586719649E+02  0.51100000000E-03 0.  1.
        -12    1    3    3    0    0  0.50488077004E+00  0.29458822708E+00  0.54613130453E+00  0.79996638509E+00  0.00000000000E+00 0.  1.
</event>
<event>
 7    1  0.2472338E-008  0.4614232E+02  0.7816164E-02  0.1320468E+00
        -11   -1    0    0    0    0  0.00000000000E+00  0.00000000000E+00  0.45593999997E+02  0.45594000000E+02  0.51100000000E-03 0.  1.
         11   -1    0    0    0    0 -0.00000000000E+00 -0.00000000000E+00 -0.45593999997E+02  0.45594000000E+02  0.51100000000E-03 0. -1.
    9900012    2    1    2    0    0 -0.19968892528E+02 -0.89799804984E+01  0.39366442150E+02  0.46142317786E+02  0.10000000230E+02 0.  0.
         12    1    1    2    0    0  0.19968892528E+02  0.89799804984E+01 -0.39366442150E+02  0.45045682214E+02  0.00000000000E+00 0. -1.
         11    1    3    3    0    0 -0.78293175476E+01 -0.59283002083E+01  0.15718386294E+02  0.18534039618E+02  0.51100000000E-03 0. -1.
        -11    1    3    3    0    0  0.40211513777E+00 -0.15108338626E+01  0.33775119947E+01  0.37218144875E+01  0.51100000000E-03 0.  1.
         12    1    3    3    0    0 -0.12541690119E+02 -0.15408464276E+01  0.20270543861E+02  0.23886463681E+02  0.00000000000E+00 0. -1.
</event>
<event>
 7    1  0.2472338E-008  0.4614232E+02  0.7816164E-02  0.1320468E+00
        -11   -1    0    0    0    0  0.00000000000E+00  0.00000000000E+00  0.45593999997E+02  0.45594000000E+02  0.51100000000E-03 0.  1.
         11   -1    0    0    0    0 -0.00000000000E+00 -0.00000000000E+00 -0.45593999997E+02  0.45594000000E+02  0.51100000000E-03 0. -1.
    9900012    2    1    2    0    0 -0.18346181566E+02  0.10266200460E+02  0.39838878265E+02  0.46142317950E+02  0.10000001720E+02 0.  0.
         12    1    1    2    0    0  0.18346181566E+02 -0.10266200460E+02 -0.39838878265E+02  0.45045682050E+02  0.00000000000E+00 0. -1.
         11    1    3    3    0    0 -0.67026310109E+00  0.71161831626E+00  0.98460805650E-01  0.98252126902E+00  0.51100000000E-03 0. -1.
        -11    1    3    3    0    0 -0.11845437946E+02  0.93404376402E+01  0.23724107506E+02  0.28113901413E+02  0.51100000000E-03 0.  1.
         12    1    3    3    0    0 -0.58304805185E+01  0.21414450362E+00  0.16016309953E+02  0.17045895267E+02  0.00000000000E+00 0. -1.
</event>
<event>
 7    1  0.2472338E-008  0.4614232E+02  0.7816164E-02  0.1320468E+00
        -11   -1    0    0    0    0  0.00000000000E+00  0.00000000000E+00  0.45593999997E+02  0.45594000000E+02  0.51100000000E-03 0.  1.
         11   -1    0    0    0    0 -0.00000000000E+00 -0.00000000000E+00 -0.45593999997E+02  0.45594000000E+02  0.51100000000E-03 0. -1.
    9900012    2    1    2    0    0 -0.28136096490E+02 -0.67523360560E+01  0.34523608254E+02  0.46142317690E+02  0.99999993472E+01 0.  0.
         12    1    1    2    0    0  0.28136096490E+02  0.67523360560E+01 -0.34523608254E+02  0.45045682310E+02  0.00000000000E+00 0. -1.
         11    1    3    3    0    0 -0.17473408779E+01 -0.93176277810E+00 -0.17916907520E-01  0.19803290876E+01  0.51100000000E-03 0. -1.
        -11    1    3    3    0    0 -0.21154326910E+02 -0.24694240974E+01  0.26446460921E+02  0.33956131963E+02  0.51100000000E-03 0.  1.
        -12    1    3    3    0    0 -0.52344287021E+01 -0.33511491805E+01  0.80950642411E+01  0.10205856639E+02  0.00000000000E+00 0.  1.
</event>
<event>
 7    1  0.2472338E-008  0.4614232E+02  0.7816164E-02  0.1320468E+00
        -11   -1    0    0    0    0  0.00000000000E+00  0.00000000000E+00  0.45593999997E+02  0.45594000000E+02  0.51100000000E-03 0.  1.
         11   -1    0    0    0    0 -0.00000000000E+00 -0.00000000000E+00 -0.45593999997E+02  0.45594000000E+02  0.51100000000E-03 0. -1.
    9900012    2    1    2    0    0 -0.27923460683E+02 -0.10601968893E+01  0.35330861409E+02  0.46142318277E+02  0.10000004707E+02 0.  0.
         12    1    1    2    0    0  0.27923460683E+02  0.10601968893E+01 -0.35330861409E+02  0.45045681723E+02  0.00000000000E+00 0. -1.
         11    1    3    3    0    0 -0.76201701314E+01 -0.20486784363E+00  0.14868298847E+02  0.16708538970E+02  0.51100000000E-03 0. -1.
        -11    1    3    3    0    0 -0.16362814409E+02 -0.30378853382E+01  0.15721669466E+02  0.22894133174E+02  0.51100000000E-03 0.  1.
         12    1    3    3    0    0 -0.39404761425E+01  0.21825562926E+01  0.47408930959E+01  0.65396461331E+01  0.00000000000E+00 0. -1.
</event>
<event>
 7    1  0.2472338E-008  0.4614232E+02  0.7816164E-02  0.1320468E+00
        -11   -1    0    0    0    0  0.00000000000E+00  0.00000000000E+00  0.45593999997E+02  0.45594000000E+02  0.51100000000E-03 0.  1.
         11   -1    0    0    0    0 -0.00000000000E+00 -0.00000000000E+00 -0.45593999997E+02  0.45594000000E+02  0.51100000000E-03 0. -1.
    9900012    2    1    2    0    0  0.53513779244E+01  0.58833592497E+01  0.44338045701E+02  0.46142318095E+02  0.10000003043E+02 0.  0.
         12    1    1    2    0    0 -0.53513779244E+01 -0.58833592497E+01 -0.44338045701E+02  0.45045681905E+02  0.00000000000E+00 0. -1.
         11    1    3    3    0    0  0.80110317177E+00  0.80827423467E+00  0.14193804375E+01  0.18192621080E+01  0.51100000000E-03 0. -1.
        -11    1    3    3    0    0  0.52639916175E+01  0.71321286296E+01  0.33153327909E+02  0.34317925611E+02  0.51100000000E-03 0.  1.
        -12    1    3    3    0    0 -0.71371686492E+00 -0.20570436145E+01  0.97653373538E+01  0.10005130375E+02  0.00000000000E+00 0.  1.
</event>
<event>
 7    1  0.2472338E-008  0.4614232E+02  0.7816164E-02  0.1320468E+00
        -11   -1    0    0    0    0  0.00000000000E+00  0.00000000000E+00  0.45593999997E+02  0.45594000000E+02  0.51100000000E-03 0.  1.
         11   -1    0    0    0    0 -0.00000000000E+00 -0.00000000000E+00 -0.45593999997E+02  0.45594000000E+02  0.51100000000E-03 0. -1.
    9900012    2    1    2    0    0 -0.14852534228E+02 -0.13177783712E+02  0.40433423324E+02  0.46142317874E+02  0.10000001026E+02 0.  0.
         12    1    1    2    0    0  0.14852534228E+02  0.13177783712E+02 -0.40433423324E+02  0.45045682126E+02  0.00000000000E+00 0. -1.
         11    1    3    3    0    0 -0.51963812053E+01 -0.35638798587E+01  0.52583183578E+01  0.82069196104E+01  0.51100000000E-03 0. -1.
        -11    1    3    3    0    0 -0.14659867053E+01 -0.17516898886E+00  0.63248876549E+01  0.64949215009E+01  0.51100000000E-03 0.  1.
        -12    1    3    3    0    0 -0.81901663178E+01 -0.94387348648E+01  0.28850217311E+02  0.31440476762E+02  0.00000000000E+00 0.  1.
</event>
<event>
 7    1  0.2472338E-008  0.4614232E+02  0.7816164E-02  0.1320468E+00
        -11   -1    0    0    0    0  0.00000000000E+00  0.00000000000E+00  0.45593999997E+02  0.45594000000E+02  0.51100000000E-03 0.  1.
         11   -1    0    0    0    0 -0.00000000000E+00 -0.00000000000E+00 -0.45593999997E+02  0.45594000000E+02  0.51100000000E-03 0. -1.
    9900012    2    1    2    0    0  0.24704446373E+00 -0.41772819880E+02  0.16854793015E+02  0.46142316974E+02  0.99999928248E+01 0.  0.
         12    1    1    2    0    0 -0.24704446373E+00  0.41772819880E+02 -0.16854793015E+02  0.45045683026E+02  0.00000000000E+00 0. -1.
         11    1    3    3    0    0 -0.13660596411E+01 -0.31429943664E+01  0.39662084274E+01  0.52416926733E+01  0.51100000000E-03 0. -1.
        -11    1    3    3    0    0 -0.54287821359E+00 -0.68351293875E+01  0.33806574506E+01  0.76447730874E+01  0.51100000000E-03 0.  1.
        -12    1    3    3    0    0  0.21559823184E+01 -0.31794696126E+02  0.95079271366E+01  0.33255851214E+02  0.00000000000E+00 0.  1.
</event>
<event>
 7    1  0.2472338E-008  0.4614232E+02  0.7816164E-02  0.1320468E+00
        -11   -1    0    0    0    0  0.00000000000E+00  0.00000000000E+00  0.45593999997E+02  0.45594000000E+02  0.51100000000E-03 0.  1.
         11   -1    0    0    0    0 -0.00000000000E+00 -0.00000000000E+00 -0.45593999997E+02  0.45594000000E+02  0.51100000000E-03 0. -1.
    9900012    2    1    2    0    0  0.17423553231E+02 -0.24038101905E+01  0.41469928748E+02  0.46142317621E+02  0.99999987198E+01 0.  0.
         12    1    1    2    0    0 -0.17423553231E+02  0.24038101905E+01 -0.41469928748E+02  0.45045682379E+02  0.00000000000E+00 0. -1.
         11    1    3    3    0    0  0.12253225969E+01  0.64883010624E+00  0.77175850963E+01  0.78411425158E+01  0.51100000000E-03 0. -1.
        -11    1    3    3    0    0  0.29107299821E+00 -0.21515105564E+01  0.41258903501E+01  0.46622626059E+01  0.51100000000E-03 0.  1.
        -12    1    3    3    0    0  0.15907157636E+02 -0.90112974040E+00  0.29626453302E+02  0.33638912499E+02  0.00000000000E+00 0.  1.
</event>
<event>
 7    1  0.2472338E-008  0.4614232E+02  0.7816164E-02  0.1320468E+00
        -11   -1    0    0    0    0  0.00000000000E+00  0.00000000000E+00  0.45593999997E+02  0.45594000000E+02  0.51100000000E-03 0.  1.
         11   -1    0    0    0    0 -0.00000000000E+00 -0.00000000000E+00 -0.45593999997E+02  0.45594000000E+02  0.51100000000E-03 0. -1.
    9900012    2    1    2    0    0  0.76745249855E+01  0.25598139414E+02  0.36262244751E+02  0.46142317970E+02  0.10000001901E+02 0.  0.
         12    1    1    2    0    0 -0.76745249855E+01 -0.25598139414E+02 -0.36262244751E+02  0.45045682030E+02  0.00000000000E+00 0. -1.
         11    1    3    3    0    0  0.52803881312E+01  0.80006558711E+01  0.99345169051E+01  0.13805347500E+02  0.51100000000E-03 0. -1.
        -11    1    3    3    0    0  0.41471240937E+01  0.83798655669E+01  0.12046476814E+02  0.15249209456E+02  0.51100000000E-03 0.  1.
        -12    1    3    3    0    0 -0.17529872394E+01  0.92176179764E+01  0.14281251032E+02  0.17087761014E+02  0.00000000000E+00 0.  1.
</event>
<event>
 7    1  0.2472338E-008  0.4614232E+02  0.7816164E-02  0.1320468E+00
        -11   -1    0    0    0    0  0.00000000000E+00  0.00000000000E+00  0.45593999997E+02  0.45594000000E+02  0.51100000000E-03 0.  1.
         11   -1    0    0    0    0 -0.00000000000E+00 -0.00000000000E+00 -0.45593999997E+02  0.45594000000E+02  0.51100000000E-03 0. -1.
    9900012    2    1    2    0    0  0.24888583802E+02 -0.18561816905E+02  0.32636338440E+02  0.46142320548E+02  0.10000025414E+02 0.  0.
         12    1    1    2    0    0 -0.24888583802E+02  0.18561816905E+02 -0.32636338440E+02  0.45045679452E+02  0.00000000000E+00 0. -1.
         11    1    3    3    0    0 -0.24248745741E+00  0.37930677632E+00  0.19397839241E+01  0.19913401846E+01  0.51100000000E-03 0. -1.
        -11    1    3    3    0    0  0.11263977661E+02 -0.95145590485E+01  0.11778795593E+02  0.18871779263E+02  0.51100000000E-03 0.  1.
        -12    1    3    3    0    0  0.13867093598E+02 -0.94265646331E+01  0.18917758923E+02  0.25279201101E+02  0.00000000000E+00 0.  1.
</event>
<event>
 7    1  0.2472338E-008  0.4614232E+02  0.7816164E-02  0.1320468E+00
        -11   -1    0    0    0    0  0.00000000000E+00  0.00000000000E+00  0.45593999997E+02  0.45594000000E+02  0.51100000000E-03 0. -1.
         11   -1    0    0    0    0 -0.00000000000E+00 -0.00000000000E+00 -0.45593999997E+02  0.45594000000E+02  0.51100000000E-03 0.  1.
    9900012    2    1    2    0    0 -0.76121883467E+01  0.12692522076E+02 -0.42544893976E+02  0.46142317282E+02  0.99999956312E+01 0.  0.
         12    1    1    2    0    0  0.76121883467E+01 -0.12692522076E+02  0.42544893976E+02  0.45045682718E+02  0.00000000000E+00 0. -1.
         11    1    3    3    0    0 -0.25725123016E+01  0.28533395778E+00 -0.43897766976E+01  0.50960155735E+01  0.51100000000E-03 0. -1.
        -11    1    3    3    0    0 -0.14459431670E+01  0.94729614772E+01 -0.18309126342E+02  0.20665233085E+02  0.51100000000E-03 0.  1.
        -12    1    3    3    0    0 -0.35937328782E+01  0.29342266415E+01 -0.19845990936E+02  0.20381068623E+02  0.00000000000E+00 0.  1.
</event>
<event>
 7    1  0.2472338E-008  0.4614232E+02  0.7816164E-02  0.1320468E+00
        -11   -1    0    0    0    0  0.00000000000E+00  0.00000000000E+00  0.45593999997E+02  0.45594000000E+02  0.51100000000E-03 0.  1.
         11   -1    0    0    0    0 -0.00000000000E+00 -0.00000000000E+00 -0.45593999997E+02  0.45594000000E+02  0.51100000000E-03 0. -1.
    9900012    2    1    2    0    0 -0.43429463833E+00  0.12746904976E+02  0.43202329987E+02  0.46142317470E+02  0.99999973465E+01 0.  0.
         12    1    1    2    0    0  0.43429463833E+00 -0.12746904976E+02 -0.43202329987E+02  0.45045682530E+02  0.00000000000E+00 0. -1.
         11    1    3    3    0    0  0.32443037899E+01  0.37264058703E+01  0.79716290728E+01  0.93786181353E+01  0.51100000000E-03 0. -1.
        -11    1    3    3    0    0 -0.18970200912E+01  0.10626650216E+01  0.49982879383E+01  0.54507636850E+01  0.51100000000E-03 0.  1.
        -12    1    3    3    0    0 -0.17815783370E+01  0.79578340843E+01  0.30232412976E+02  0.31312935650E+02  0.00000000000E+00 0.  1.
</event>
<event>
 7    1  0.2472338E-008  0.4614232E+02  0.7816164E-02  0.1320468E+00
        -11   -1    0    0    0    0  0.00000000000E+00  0.00000000000E+00  0.45593999997E+02  0.45594000000E+02  0.51100000000E-03 0.  1.
         11   -1    0    0    0    0 -0.00000000000E+00 -0.00000000000E+00 -0.45593999997E+02  0.45594000000E+02  0.51100000000E-03 0. -1.
    9900012    2    1    2    0    0 -0.13318523901E+02  0.42871307260E+02  0.37123349012E+01  0.46142317682E+02  0.99999992822E+01 0.  0.
         12    1    1    2    0    0  0.13318523901E+02 -0.42871307260E+02 -0.37123349012E+01  0.45045682318E+02  0.00000000000E+00 0. -1.
         11    1    3    3    0    0 -0.11806927292E+02  0.32672669592E+02  0.63218540284E+00  0.34746316769E+02  0.51100000000E-03 0. -1.
        -11    1    3    3    0    0 -0.18351594024E+01  0.95491788287E+01  0.37369729753E+01  0.10417273809E+02  0.51100000000E-03 0.  1.
         12    1    3    3    0    0  0.32356279400E+00  0.64945883895E+00 -0.65682347702E+00  0.97872710451E+00  0.00000000000E+00 0. -1.
</event>
<event>
 7    1  0.2472338E-008  0.4614232E+02  0.7816164E-02  0.1320468E+00
        -11   -1    0    0    0    0  0.00000000000E+00  0.00000000000E+00  0.45593999997E+02  0.45594000000E+02  0.51100000000E-03 0. -1.
         11   -1    0    0    0    0 -0.00000000000E+00 -0.00000000000E+00 -0.45593999997E+02  0.45594000000E+02  0.51100000000E-03 0.  1.
    9900012    2    1    2    0    0  0.38929420460E+02 -0.22497814437E+02  0.27316914505E+01  0.46142316856E+02  0.99999917435E+01 0.  0.
         12    1    1    2    0    0 -0.38929420460E+02  0.22497814437E+02 -0.27316914505E+01  0.45045683144E+02  0.00000000000E+00 0. -1.
         11    1    3    3    0    0  0.19125426896E+02 -0.72139512267E+01  0.65483234393E+00  0.20451206613E+02  0.51100000000E-03 0. -1.
        -11    1    3    3    0    0  0.11100220795E+02 -0.10184571272E+02  0.36013355028E+01  0.15489028741E+02  0.51100000000E-03 0.  1.
        -12    1    3    3    0    0  0.87037727689E+01 -0.50992919380E+01 -0.15244763962E+01  0.10202081501E+02  0.00000000000E+00 0.  1.
</event>
<event>
 7    1  0.2472338E-008  0.4614232E+02  0.7816164E-02  0.1320468E+00
        -11   -1    0    0    0    0  0.00000000000E+00  0.00000000000E+00  0.45593999997E+02  0.45594000000E+02  0.51100000000E-03 0. -1.
         11   -1    0    0    0    0 -0.00000000000E+00 -0.00000000000E+00 -0.45593999997E+02  0.45594000000E+02  0.51100000000E-03 0.  1.
    9900012    2    1    2    0    0 -0.38711597253E+01  0.38188651609E+02 -0.23574443778E+02  0.46142318867E+02  0.10000010084E+02 0.  0.
         12    1    1    2    0    0  0.38711597253E+01 -0.38188651609E+02  0.23574443778E+02  0.45045681133E+02  0.00000000000E+00 0. -1.
         11    1    3    3    0    0 -0.14470492604E+01  0.21607482404E+01 -0.43550841337E+01  0.50724296538E+01  0.51100000000E-03 0. -1.
        -11    1    3    3    0    0 -0.73628524907E-01  0.14285425497E+02 -0.93753066185E+01  0.17087281154E+02  0.51100000000E-03 0.  1.
        -12    1    3    3    0    0 -0.23504819400E+01  0.21742477872E+02 -0.98440530253E+01  0.23982608059E+02  0.00000000000E+00 0.  1.
</event>
<event>
 7    1  0.2472338E-008  0.4614232E+02  0.7816164E-02  0.1320468E+00
        -11   -1    0    0    0    0  0.00000000000E+00  0.00000000000E+00  0.45593999997E+02  0.45594000000E+02  0.51100000000E-03 0. -1.
         11   -1    0    0    0    0 -0.00000000000E+00 -0.00000000000E+00 -0.45593999997E+02  0.45594000000E+02  0.51100000000E-03 0.  1.
    9900012    2    1    2    0    0  0.16066925723E+01 -0.29980635008E+02 -0.33581148860E+02  0.46142317684E+02  0.99999993012E+01 0.  0.
         12    1    1    2    0    0 -0.16066925723E+01  0.29980635008E+02  0.33581148860E+02  0.45045682316E+02  0.00000000000E+00 0. -1.
         11    1    3    3    0    0 -0.30204971825E+00 -0.85356837739E+01 -0.66658295047E+01  0.10834316534E+02  0.51100000000E-03 0. -1.
        -11    1    3    3    0    0 -0.62481067971E+00 -0.18662747684E+02 -0.19537334346E+02  0.27025838990E+02  0.51100000000E-03 0.  1.
        -12    1    3    3    0    0  0.25335529703E+01 -0.27822035500E+01 -0.73779850095E+01  0.82821621601E+01  0.00000000000E+00 0.  1.
</event>
<event>
 7    1  0.2472338E-008  0.4614232E+02  0.7816164E-02  0.1320468E+00
        -11   -1    0    0    0    0  0.00000000000E+00  0.00000000000E+00  0.45593999997E+02  0.45594000000E+02  0.51100000000E-03 0.  1.
         11   -1    0    0    0    0 -0.00000000000E+00 -0.00000000000E+00 -0.45593999997E+02  0.45594000000E+02  0.51100000000E-03 0. -1.
    9900012    2    1    2    0    0  0.41639344221E+02  0.11846633516E+02  0.12447320251E+02  0.46142317696E+02  0.99999994021E+01 0.  0.
         12    1    1    2    0    0 -0.41639344221E+02 -0.11846633516E+02 -0.12447320251E+02  0.45045682304E+02  0.00000000000E+00 0. -1.
         11    1    3    3    0    0  0.29501889527E+01  0.17583980009E+01 -0.61888445632E+00  0.34897846090E+01  0.51100000000E-03 0. -1.
        -11    1    3    3    0    0  0.34100499151E+02  0.95987743290E+01  0.13724066636E+02  0.37991189982E+02  0.51100000000E-03 0.  1.
        -12    1    3    3    0    0  0.45886561181E+01  0.48946118619E+00 -0.65786192893E+00  0.46613431048E+01  0.00000000000E+00 0.  1.
</event>
<event>
 7    1  0.2472338E-008  0.4614231E+02  0.7816164E-02  0.1320468E+00
        -11   -1    0    0    0    0  0.00000000000E+00  0.00000000000E+00  0.45593999997E+02  0.45594000000E+02  0.51100000000E-03 0. -1.
         11   -1    0    0    0    0 -0.00000000000E+00 -0.00000000000E+00 -0.45593999997E+02  0.45594000000E+02  0.51100000000E-03 0.  1.
    9900012    2    1    2    0    0  0.33398745128E+02  0.28287833193E+02  0.10650639868E+02  0.46142314164E+02  0.99999671973E+01 0.  0.
         12    1    1    2    0    0 -0.33398745128E+02 -0.28287833193E+02 -0.10650639868E+02  0.45045685836E+02  0.00000000000E+00 0. -1.
         11    1    3    3    0    0  0.53400536524E+01  0.34273290272E+01  0.30405813116E+01  0.70361844948E+01  0.51100000000E-03 0.  1.
        -11    1    3    3    0    0  0.13458687261E+02  0.85744667602E+01  0.64216928625E+01  0.17201624414E+02  0.51100000000E-03 0. -1.
        -12    1    3    3    0    0  0.14600004214E+02  0.16286037405E+02  0.11883656936E+01  0.21904505255E+02  0.00000000000E+00 0.  1.
</event>
<event>
 7    1  0.2472338E-008  0.4614233E+02  0.7816164E-02  0.1320468E+00
        -11   -1    0    0    0    0  0.00000000000E+00  0.00000000000E+00  0.45593999997E+02  0.45594000000E+02  0.51100000000E-03 0.  1.
         11   -1    0    0    0    0 -0.00000000000E+00 -0.00000000000E+00 -0.45593999997E+02  0.45594000000E+02  0.51100000000E-03 0. -1.
    9900012    2    1    2    0    0  0.57695912819E+01  0.38560218286E+02  0.22559570337E+02  0.46142325051E+02  0.10000066474E+02 0.  0.
         12    1    1    2    0    0 -0.57695912819E+01 -0.38560218286E+02 -0.22559570337E+02  0.45045674949E+02  0.00000000000E+00 0. -1.
         11    1    3    3    0    0 -0.10743233234E+01  0.12210533102E+02  0.43608397022E+01  0.13010311772E+02  0.51100000000E-03 0. -1.
        -11    1    3    3    0    0  0.42131569644E+01  0.74570840358E+01  0.47627839779E+01  0.98001482338E+01  0.51100000000E-03 0.  1.
        -12    1    3    3    0    0  0.26307576409E+01  0.18892601148E+02  0.13435946657E+02  0.23331865045E+02  0.00000000000E+00 0.  1.
</event>
<event>
 7    1  0.2472338E-008  0.4614232E+02  0.7816164E-02  0.1320468E+00
        -11   -1    0    0    0    0  0.00000000000E+00  0.00000000000E+00  0.45593999997E+02  0.45594000000E+02  0.51100000000E-03 0.  1.
         11   -1    0    0    0    0 -0.00000000000E+00 -0.00000000000E+00 -0.45593999997E+02  0.45594000000E+02  0.51100000000E-03 0. -1.
    9900012    2    1    2    0    0  0.32150746226E+02 -0.31183629116E+02 -0.47983663119E+01  0.46142317332E+02  0.99999960915E+01 0.  0.
         12    1    1    2    0    0 -0.32150746226E+02  0.31183629116E+02  0.47983663119E+01  0.45045682668E+02  0.00000000000E+00 0. -1.
         11    1    3    3    0    0  0.23697065969E+01 -0.57007940677E+00 -0.11240322575E+01  0.26840172619E+01  0.51100000000E-03 0. -1.
        -11    1    3    3    0    0  0.75056245821E+01 -0.12522168860E+02 -0.87364315096E+00  0.14625401395E+02  0.51100000000E-03 0.  1.
         12    1    3    3    0    0  0.22275415047E+02 -0.18091380849E+02 -0.28006909035E+01  0.28832898676E+02  0.00000000000E+00 0. -1.
</event>
<event>
 7    1  0.2472338E-008  0.4614232E+02  0.7816164E-02  0.1320468E+00
        -11   -1    0    0    0    0  0.00000000000E+00  0.00000000000E+00  0.45593999997E+02  0.45594000000E+02  0.51100000000E-03 0. -1.
         11   -1    0    0    0    0 -0.00000000000E+00 -0.00000000000E+00 -0.45593999997E+02  0.45594000000E+02  0.51100000000E-03 0.  1.
    9900012    2    1    2    0    0 -0.26447619425E+02 -0.18935038474E+02 -0.31162496949E+02  0.46142317949E+02  0.10000001717E+02 0.  0.
         12    1    1    2    0    0  0.26447619425E+02  0.18935038474E+02  0.31162496949E+02  0.45045682051E+02  0.00000000000E+00 0. -1.
         11    1    3    3    0    0 -0.62577991212E+01 -0.60665289516E+01 -0.74242462377E+01  0.11449115941E+02  0.51100000000E-03 0. -1.
        -11    1    3    3    0    0 -0.18141070963E+02 -0.10949246914E+02 -0.16271118735E+02  0.26715796242E+02  0.51100000000E-03 0.  1.
         12    1    3    3    0    0 -0.20487493413E+01 -0.19192626089E+01 -0.74671319762E+01  0.79774057672E+01  0.00000000000E+00 0. -1.
</event>
<event>
 7    1  0.2472338E-008  0.4614232E+02  0.7816164E-02  0.1320468E+00
        -11   -1    0    0    0    0  0.00000000000E+00  0.00000000000E+00  0.45593999997E+02  0.45594000000E+02  0.51100000000E-03 0.  1.
         11   -1    0    0    0    0 -0.00000000000E+00 -0.00000000000E+00 -0.45593999997E+02  0.45594000000E+02  0.51100000000E-03 0. -1.
    9900012    2    1    2    0    0 -0.17098710631E+02 -0.41228924700E+02  0.60764629440E+01  0.46142317198E+02  0.99999948634E+01 0.  0.
         12    1    1    2    0    0  0.17098710631E+02  0.41228924700E+02 -0.60764629440E+01  0.45045682802E+02  0.00000000000E+00 0. -1.
         11    1    3    3    0    0 -0.11667686588E+00 -0.94214969592E+01  0.49414089356E-01  0.94223489883E+01  0.51100000000E-03 0. -1.
        -11    1    3    3    0    0 -0.21913793334E+00 -0.77110323190E+00  0.66353869795E+00  0.10406274515E+01  0.51100000000E-03 0.  1.
        -12    1    3    3    0    0 -0.16762895832E+02 -0.31036324509E+02  0.53635101567E+01  0.35679340758E+02  0.00000000000E+00 0.  1.
</event>
<event>
 7    1  0.2472338E-008  0.4614232E+02  0.7816164E-02  0.1320468E+00
        -11   -1    0    0    0    0  0.00000000000E+00  0.00000000000E+00  0.45593999997E+02  0.45594000000E+02  0.51100000000E-03 0.  1.
         11   -1    0    0    0    0 -0.00000000000E+00 -0.00000000000E+00 -0.45593999997E+02  0.45594000000E+02  0.51100000000E-03 0. -1.
    9900012    2    1    2    0    0 -0.42250377105E+02 -0.35888717330E-01  0.15621069185E+02  0.46142318121E+02  0.10000003279E+02 0.  0.
         12    1    1    2    0    0  0.42250377105E+02  0.35888717330E-01 -0.15621069185E+02  0.45045681879E+02  0.00000000000E+00 0. -1.
         11    1    3    3    0    0 -0.96169273018E+01 -0.24632468711E+01  0.28071936923E+01  0.10316647351E+02  0.51100000000E-03 0. -1.
        -11    1    3    3    0    0 -0.28518027785E+02  0.25701096105E+01  0.85153106872E+01  0.29872962500E+02  0.51100000000E-03 0.  1.
         12    1    3    3    0    0 -0.41154220180E+01 -0.14275145675E+00  0.42985648050E+01  0.59527082700E+01  0.00000000000E+00 0. -1.
</event>
<event>
 7    1  0.2472338E-008  0.4614232E+02  0.7816164E-02  0.1320468E+00
        -11   -1    0    0    0    0  0.00000000000E+00  0.00000000000E+00  0.45593999997E+02  0.45594000000E+02  0.51100000000E-03 0.  1.
         11   -1    0    0    0    0 -0.00000000000E+00 -0.00000000000E+00 -0.45593999997E+02  0.45594000000E+02  0.51100000000E-03 0. -1.
    9900012    2    1    2    0    0  0.33060016989E+02  0.16057981314E+02  0.26044000213E+02  0.46142318361E+02  0.10000005473E+02 0.  0.
         12    1    1    2    0    0 -0.33060016989E+02 -0.16057981314E+02 -0.26044000213E+02  0.45045681639E+02  0.00000000000E+00 0. -1.
         11    1    3    3    0    0  0.25575859792E+01 -0.99853531063E+00  0.16018572277E+01  0.31787207563E+01  0.51100000000E-03 0. -1.
        -11    1    3    3    0    0  0.13538718432E+02  0.54201801798E+01  0.12288356444E+02  0.19070368489E+02  0.51100000000E-03 0.  1.
        -12    1    3    3    0    0  0.16963712578E+02  0.11636336445E+02  0.12153786541E+02  0.23893229116E+02  0.00000000000E+00 0.  1.
</event>
<event>
 7    1  0.2472338E-008  0.4614232E+02  0.7816164E-02  0.1320468E+00
        -11   -1    0    0    0    0  0.00000000000E+00  0.00000000000E+00  0.45593999997E+02  0.45594000000E+02  0.51100000000E-03 0. -1.
         11   -1    0    0    0    0 -0.00000000000E+00 -0.00000000000E+00 -0.45593999997E+02  0.45594000000E+02  0.51100000000E-03 0.  1.
    9900012    2    1    2    0    0  0.36038318582E+02 -0.26737537520E+02  0.39315588111E+01  0.46142317926E+02  0.10000001501E+02 0.  0.
         12    1    1    2    0    0 -0.36038318582E+02  0.26737537520E+02 -0.39315588111E+01  0.45045682074E+02  0.00000000000E+00 0. -1.
         11    1    3    3    0    0  0.15392884371E+02 -0.15633161285E+02  0.44533551020E+01  0.22386803991E+02  0.51100000000E-03 0. -1.
        -11    1    3    3    0    0  0.12866044141E+02 -0.76044605092E+01 -0.20627710001E+01  0.15087012160E+02  0.51100000000E-03 0.  1.
         12    1    3    3    0    0  0.77793900706E+01 -0.34999157259E+01  0.15409747092E+01  0.86685017744E+01  0.00000000000E+00 0. -1.
</event>
<event>
 7    1  0.2472338E-008  0.4614232E+02  0.7816164E-02  0.1320468E+00
        -11   -1    0    0    0    0  0.00000000000E+00  0.00000000000E+00  0.45593999997E+02  0.45594000000E+02  0.51100000000E-03 0.  1.
         11   -1    0    0    0    0 -0.00000000000E+00 -0.00000000000E+00 -0.45593999997E+02  0.45594000000E+02  0.51100000000E-03 0. -1.
    9900012    2    1    2    0    0 -0.52368699953E+00  0.16105440109E+02  0.42064876644E+02  0.46142319893E+02  0.10000019444E+02 0.  0.
         12    1    1    2    0    0  0.52368699953E+00 -0.16105440109E+02 -0.42064876644E+02  0.45045680107E+02  0.00000000000E+00 0. -1.
         11    1    3    3    0    0  0.30818556193E+01  0.57089429146E+01  0.10215349382E+02  0.12101372919E+02  0.51100000000E-03 0. -1.
        -11    1    3    3    0    0  0.84586272524E+00  0.40311321372E+01  0.87624928750E+01  0.96822926884E+01  0.51100000000E-03 0.  1.
        -12    1    3    3    0    0 -0.44514053441E+01  0.63653650572E+01  0.23087034387E+02  0.24358654286E+02  0.00000000000E+00 0.  1.
</event>
<event>
 7    1  0.2472338E-008  0.4614232E+02  0.7816164E-02  0.1320468E+00
        -11   -1    0    0    0    0  0.00000000000E+00  0.00000000000E+00  0.45593999997E+02  0.45594000000E+02  0.51100000000E-03 0.  1.
         11   -1    0    0    0    0 -0.00000000000E+00 -0.00000000000E+00 -0.45593999997E+02  0.45594000000E+02  0.51100000000E-03 0. -1.
    9900012    2    1    2    0    0  0.41606612095E+02 -0.10172190466E+02 -0.13947398514E+02  0.46142317030E+02  0.99999933307E+01 0.  0.
         12    1    1    2    0    0 -0.41606612095E+02  0.10172190466E+02  0.13947398514E+02  0.45045682970E+02  0.00000000000E+00 0. -1.
         11    1    3    3    0    0  0.10433520747E+02 -0.28911652372E+00 -0.57284857400E+01  0.11906195558E+02  0.51100000000E-03 0. -1.
        -11    1    3    3    0    0  0.17270773704E+02 -0.72486868368E+01 -0.71411286719E+01  0.20045418533E+02  0.51100000000E-03 0.  1.
         12    1    3    3    0    0  0.13902317645E+02 -0.26343871055E+01 -0.10777841025E+01  0.14190702939E+02  0.00000000000E+00 0. -1.
</event>
<event>
 7    1  0.2472338E-008  0.4614232E+02  0.7816164E-02  0.1320468E+00
        -11   -1    0    0    0    0  0.00000000000E+00  0.00000000000E+00  0.45593999997E+02  0.45594000000E+02  0.51100000000E-03 0.  1.
         11   -1    0    0    0    0 -0.00000000000E+00 -0.00000000000E+00 -0.45593999997E+02  0.45594000000E+02  0.51100000000E-03 0. -1.
    9900012    2    1    2    0    0 -0.82084724545E+01 -0.43016667111E+02  0.10549916851E+02  0.46142318576E+02  0.10000007430E+02 0.  0.
         12    1    1    2    0    0  0.82084724545E+01  0.43016667111E+02 -0.10549916851E+02  0.45045681424E+02  0.00000000000E+00 0. -1.
         11    1    3    3    0    0 -0.14453177319E+00  0.26514062250E+00  0.54690599668E-01  0.30688810009E+00  0.51100000000E-03 0. -1.
        -11    1    3    3    0    0 -0.74488741361E+01 -0.24258699808E+02  0.38020325941E+01  0.25659806983E+02  0.51100000000E-03 0.  1.
        -12    1    3    3    0    0 -0.61506654525E+00 -0.19023107925E+02  0.66931936575E+01  0.20175623493E+02  0.00000000000E+00 0.  1.
</event>
<event>
 7    1  0.2472338E-008  0.4614232E+02  0.7816164E-02  0.1320468E+00
        -11   -1    0    0    0    0  0.00000000000E+00  0.00000000000E+00  0.45593999997E+02  0.45594000000E+02  0.51100000000E-03 0.  1.
         11   -1    0    0    0    0 -0.00000000000E+00 -0.00000000000E+00 -0.45593999997E+02  0.45594000000E+02  0.51100000000E-03 0. -1.
    9900012    2    1    2    0    0  0.16459226292E+02  0.30653445946E+02  0.28610725869E+02  0.46142317485E+02  0.99999974819E+01 0.  0.
         12    1    1    2    0    0 -0.16459226292E+02 -0.30653445946E+02 -0.28610725869E+02  0.45045682515E+02  0.00000000000E+00 0. -1.
         11    1    3    3    0    0  0.71275579761E+01  0.50672039401E+01  0.70196813394E+01  0.11214034280E+02  0.51100000000E-03 0. -1.
        -11    1    3    3    0    0  0.95525867103E+01  0.23644366743E+02  0.20030504280E+02  0.32427289333E+02  0.51100000000E-03 0.  1.
        -12    1    3    3    0    0 -0.22091839443E+00  0.19418752627E+01  0.15605402501E+01  0.25009938714E+01  0.00000000000E+00 0.  1.
</event>
<event>
 7    1  0.2472338E-008  0.4614232E+02  0.7816164E-02  0.1320468E+00
        -11   -1    0    0    0    0  0.00000000000E+00  0.00000000000E+00  0.45593999997E+02  0.45594000000E+02  0.51100000000E-03 0. -1.
         11   -1    0    0    0    0 -0.00000000000E+00 -0.00000000000E+00 -0.45593999997E+02  0.45594000000E+02  0.51100000000E-03 0.  1.
    9900012    2    1    2    0    0  0.42403906313E+01 -0.40337395797E+02 -0.19596608976E+02  0.46142317679E+02  0.99999992548E+01 0.  0.
         12    1    1    2    0    0 -0.42403906313E+01  0.40337395797E+02  0.19596608976E+02  0.45045682321E+02  0.00000000000E+00 0. -1.
         11    1    3    3    0    0  0.20084103220E+01 -0.87878610312E+01 -0.83753331844E+01  0.12304731600E+02  0.51100000000E-03 0. -1.
        -11    1    3    3    0    0  0.22540522083E+01 -0.15046002961E+02 -0.72997962701E+01  0.16874536506E+02  0.51100000000E-03 0.  1.
        -12    1    3    3    0    0 -0.22071899023E-01 -0.16503531805E+02 -0.39214795215E+01  0.16963049574E+02  0.00000000000E+00 0.  1.
</event>
<event>
 7    1  0.2472338E-008  0.4614232E+02  0.7816164E-02  0.1320468E+00
        -11   -1    0    0    0    0  0.00000000000E+00  0.00000000000E+00  0.45593999997E+02  0.45594000000E+02  0.51100000000E-03 0.  1.
         11   -1    0    0    0    0 -0.00000000000E+00 -0.00000000000E+00 -0.45593999997E+02  0.45594000000E+02  0.51100000000E-03 0. -1.
    9900012    2    1    2    0    0 -0.33660939116E+02  0.25963744509E+02  0.14897605622E+02  0.46142317584E+02  0.99999983814E+01 0.  0.
         12    1    1    2    0    0  0.33660939116E+02 -0.25963744509E+02 -0.14897605622E+02  0.45045682416E+02  0.00000000000E+00 0. -1.
         11    1    3    3    0    0 -0.10025652505E+02  0.10282457496E+02  0.25024763895E+01  0.14577552217E+02  0.51100000000E-03 0. -1.
        -11    1    3    3    0    0 -0.22023594455E+02  0.14208929778E+02  0.93694013794E+01  0.27833757933E+02  0.51100000000E-03 0.  1.
         12    1    3    3    0    0 -0.16116921553E+01  0.14723572351E+01  0.30257278528E+01  0.37310074338E+01  0.00000000000E+00 0. -1.
</event>
<event>
 7    1  0.2472338E-008  0.4614232E+02  0.7816164E-02  0.1320468E+00
        -11   -1    0    0    0    0  0.00000000000E+00  0.00000000000E+00  0.45593999997E+02  0.45594000000E+02  0.51100000000E-03 0.  1.
         11   -1    0    0    0    0 -0.00000000000E+00 -0.00000000000E+00 -0.45593999997E+02  0.45594000000E+02  0.51100000000E-03 0. -1.
    9900012    2    1    2    0    0  0.41856520352E+02 -0.79797019230E+01  0.14610599834E+02  0.46142316897E+02  0.99999921184E+01 0.  0.
         12    1    1    2    0    0 -0.41856520352E+02  0.79797019230E+01 -0.14610599834E+02  0.45045683103E+02  0.00000000000E+00 0. -1.
         11    1    3    3    0    0  0.12645285798E+02 -0.40232061630E+00  0.12953470215E+01  0.12717823673E+02  0.51100000000E-03 0.  1.
        -11    1    3    3    0    0 -0.12718131507E+00 -0.11488541347E+00  0.54016560573E+00  0.56670352731E+00  0.51100000000E-03 0. -1.
         12    1    3    3    0    0  0.29338415868E+02 -0.74624958933E+01  0.12775087207E+02  0.32857789697E+02  0.00000000000E+00 0. -1.
</event>
<event>
 7    1  0.2472338E-008  0.4614232E+02  0.7816164E-02  0.1320468E+00
        -11   -1    0    0    0    0  0.00000000000E+00  0.00000000000E+00  0.45593999997E+02  0.45594000000E+02  0.51100000000E-03 0.  1.
         11   -1    0    0    0    0 -0.00000000000E+00 -0.00000000000E+00 -0.45593999997E+02  0.45594000000E+02  0.51100000000E-03 0. -1.
    9900012    2    1    2    0    0  0.14970814119E+02 -0.18013927074E+02  0.38477092640E+02  0.46142317609E+02  0.99999986171E+01 0.  0.
         12    1    1    2    0    0 -0.14970814119E+02  0.18013927074E+02 -0.38477092640E+02  0.45045682391E+02  0.00000000000E+00 0. -1.
         11    1    3    3    0    0  0.27243026751E+01 -0.34157511429E+01  0.36219008099E+01  0.56751516873E+01  0.51100000000E-03 0. -1.
        -11    1    3    3    0    0  0.33402594244E+00  0.42472786531E+00 -0.14518565241E+00  0.55950533918E+00  0.51100000000E-03 0.  1.
        -12    1    3    3    0    0  0.11912485501E+02 -0.15022903797E+02  0.35000377482E+02  0.39907660583E+02  0.00000000000E+00 0.  1.
</event>
<event>
 7    1  0.2472338E-008  0.4614232E+02  0.7816164E-02  0.1320468E+00
        -11   -1    0    0    0    0  0.00000000000E+00  0.00000000000E+00  0.45593999997E+02  0.45594000000E+02  0.51100000000E-03 0.  1.
         11   -1    0    0    0    0 -0.00000000000E+00 -0.00000000000E+00 -0.45593999997E+02  0.45594000000E+02  0.51100000000E-03 0. -1.
    9900012    2    1    2    0    0 -0.72303181509E+01 -0.35644035124E+02  0.26577036404E+02  0.46142316472E+02  0.99999882494E+01 0.  0.
         12    1    1    2    0    0  0.72303181509E+01  0.35644035124E+02 -0.26577036404E+02  0.45045683528E+02  0.00000000000E+00 0. -1.
         11    1    3    3    0    0 -0.31644359637E+01 -0.15110445748E+02  0.65778669040E+01  0.16781166794E+02  0.51100000000E-03 0. -1.
        -11    1    3    3    0    0 -0.49265483262E+01 -0.19457046153E+02  0.18194529886E+02  0.27090375440E+02  0.51100000000E-03 0.  1.
         12    1    3    3    0    0  0.86066613899E+00 -0.10765432220E+01  0.18046396134E+01  0.22707742393E+01  0.00000000000E+00 0. -1.
</event>
<event>
 7    1  0.2472338E-008  0.4614232E+02  0.7816164E-02  0.1320468E+00
        -11   -1    0    0    0    0  0.00000000000E+00  0.00000000000E+00  0.45593999997E+02  0.45594000000E+02  0.51100000000E-03 0.  1.
         11   -1    0    0    0    0 -0.00000000000E+00 -0.00000000000E+00 -0.45593999997E+02  0.45594000000E+02  0.51100000000E-03 0. -1.
    9900012    2    1    2    0    0  0.38329038868E+02 -0.22462557050E+02  0.74452529447E+01  0.46142317841E+02  0.10000000730E+02 0.  0.
         12    1    1    2    0    0 -0.38329038868E+02  0.22462557050E+02 -0.74452529447E+01  0.45045682159E+02  0.00000000000E+00 0. -1.
         11    1    3    3    0    0  0.87388265876E+01 -0.83838805587E+01 -0.36879532903E+00  0.12115797688E+02  0.51100000000E-03 0. -1.
        -11    1    3    3    0    0  0.13355184213E+02 -0.79563659612E+01  0.17382603651E+01  0.15642450384E+02  0.51100000000E-03 0.  1.
        -12    1    3    3    0    0  0.16235028067E+02 -0.61223105299E+01  0.60757879087E+01  0.18384069769E+02  0.00000000000E+00 0.  1.
</event>
<event>
 7    1  0.2472338E-008  0.4614232E+02  0.7816164E-02  0.1320468E+00
        -11   -1    0    0    0    0  0.00000000000E+00  0.00000000000E+00  0.45593999997E+02  0.45594000000E+02  0.51100000000E-03 0.  1.
         11   -1    0    0    0    0 -0.00000000000E+00 -0.00000000000E+00 -0.45593999997E+02  0.45594000000E+02  0.51100000000E-03 0. -1.
    9900012    2    1    2    0    0 -0.27548316976E+02  0.78821173434E+01  0.34757388382E+02  0.46142316643E+02  0.99999898014E+01 0.  0.
         12    1    1    2    0    0  0.27548316976E+02 -0.78821173434E+01 -0.34757388382E+02  0.45045683357E+02  0.00000000000E+00 0. -1.
         11    1    3    3    0    0 -0.75298301447E+00  0.67832765460E+00  0.16081437817E+01  0.19008520486E+01  0.51100000000E-03 0. -1.
        -11    1    3    3    0    0 -0.13847269557E+02  0.87919342694E+00  0.22049950428E+02  0.26052258432E+02  0.51100000000E-03 0.  1.
         12    1    3    3    0    0 -0.12948064404E+02  0.63245962619E+01  0.11099294172E+02  0.18189206162E+02  0.00000000000E+00 0. -1.
</event>
<event>
 7    1  0.2472338E-008  0.4614232E+02  0.7816164E-02  0.1320468E+00
        -11   -1    0    0    0    0  0.00000000000E+00  0.00000000000E+00  0.45593999997E+02  0.45594000000E+02  0.51100000000E-03 0.  1.
         11   -1    0    0    0    0 -0.00000000000E+00 -0.00000000000E+00 -0.45593999997E+02  0.45594000000E+02  0.51100000000E-03 0. -1.
    9900012    2    1    2    0    0  0.18144296461E+02 -0.71735010630E+01  0.40600971508E+02  0.46142317643E+02  0.99999989249E+01 0.  0.
         12    1    1    2    0    0 -0.18144296461E+02  0.71735010630E+01 -0.40600971508E+02  0.45045682357E+02  0.00000000000E+00 0. -1.
         11    1    3    3    0    0  0.11527929142E+02 -0.16473187608E+01  0.19109102797E+02  0.22377770652E+02  0.51100000000E-03 0. -1.
        -11    1    3    3    0    0  0.44951331346E+01 -0.43529056170E+00  0.11438575543E+02  0.12297833569E+02  0.51100000000E-03 0.  1.
         12    1    3    3    0    0  0.21212341850E+01 -0.50908917405E+01  0.10053293168E+02  0.11466713422E+02  0.00000000000E+00 0. -1.
</event>
<event>
 7    1  0.2472338E-008  0.4614232E+02  0.7816164E-02  0.1320468E+00
        -11   -1    0    0    0    0  0.00000000000E+00  0.00000000000E+00  0.45593999997E+02  0.45594000000E+02  0.51100000000E-03 0.  1.
         11   -1    0    0    0    0 -0.00000000000E+00 -0.00000000000E+00 -0.45593999997E+02  0.45594000000E+02  0.51100000000E-03 0. -1.
    9900012    2    1    2    0    0  0.70744956804E+01  0.11843135029E+02  0.42881290582E+02  0.46142318537E+02  0.10000007076E+02 0.  0.
         12    1    1    2    0    0 -0.70744956804E+01 -0.11843135029E+02 -0.42881290582E+02  0.45045681463E+02  0.00000000000E+00 0. -1.
         11    1    3    3    0    0  0.38265962106E+00  0.33347678591E+01  0.83585925651E+01  0.90073955719E+01  0.51100000000E-03 0. -1.
        -11    1    3    3    0    0  0.80904256865E+01  0.47455876455E+01  0.27372685172E+02  0.28935090871E+02  0.51100000000E-03 0.  1.
        -12    1    3    3    0    0 -0.13985896271E+01  0.37627795247E+01  0.71500128449E+01  0.81998320945E+01  0.00000000000E+00 0.  1.
</event>
<event>
 7    1  0.2472338E-008  0.4614232E+02  0.7816164E-02  0.1320468E+00
        -11   -1    0    0    0    0  0.00000000000E+00  0.00000000000E+00  0.45593999997E+02  0.45594000000E+02  0.51100000000E-03 0.  1.
         11   -1    0    0    0    0 -0.00000000000E+00 -0.00000000000E+00 -0.45593999997E+02  0.45594000000E+02  0.51100000000E-03 0. -1.
    9900012    2    1    2    0    0  0.16498319238E+02 -0.13257516369E+02  0.39763767863E+02  0.46142317492E+02  0.99999975467E+01 0.  0.
         12    1    1    2    0    0 -0.16498319238E+02  0.13257516369E+02 -0.39763767863E+02  0.45045682508E+02  0.00000000000E+00 0. -1.
         11    1    3    3    0    0  0.43577171479E+01 -0.80195694820E+01  0.12712596388E+02  0.15649706087E+02  0.51100000000E-03 0. -1.
        -11    1    3    3    0    0  0.10770767653E+01 -0.11142765678E+01  0.74545432239E+01  0.76139294432E+01  0.51100000000E-03 0.  1.
        -12    1    3    3    0    0  0.11063525324E+02 -0.41236703187E+01  0.19596628251E+02  0.22878681962E+02  0.00000000000E+00 0.  1.
</event>
<event>
 7    1  0.2472338E-008  0.4614231E+02  0.7816164E-02  0.1320468E+00
        -11   -1    0    0    0    0  0.00000000000E+00  0.00000000000E+00  0.45593999997E+02  0.45594000000E+02  0.51100000000E-03 0. -1.
         11   -1    0    0    0    0 -0.00000000000E+00 -0.00000000000E+00 -0.45593999997E+02  0.45594000000E+02  0.51100000000E-03 0.  1.
    9900012    2    1    2    0    0  0.42608139289E+02  0.14238251992E+02  0.33064170755E+01  0.46142314886E+02  0.99999737858E+01 0.  0.
         12    1    1    2    0    0 -0.42608139289E+02 -0.14238251992E+02 -0.33064170755E+01  0.45045685114E+02  0.00000000000E+00 0. -1.
         11    1    3    3    0    0  0.14036842265E+01  0.49703287630E+00  0.19093948205E+01  0.24213962768E+01  0.51100000000E-03 0. -1.
        -11    1    3    3    0    0  0.20501993176E+02  0.77892401717E+01  0.29236385785E+01  0.22125814097E+02  0.51100000000E-03 0.  1.
        -12    1    3    3    0    0  0.20702461887E+02  0.59519789435E+01 -0.15266163235E+01  0.21595104513E+02  0.00000000000E+00 0.  1.
</event>
<event>
 7    1  0.2472338E-008  0.4614232E+02  0.7816164E-02  0.1320468E+00
        -11   -1    0    0    0    0  0.00000000000E+00  0.00000000000E+00  0.45593999997E+02  0.45594000000E+02  0.51100000000E-03 0.  1.
         11   -1    0    0    0    0 -0.00000000000E+00 -0.00000000000E+00 -0.45593999997E+02  0.45594000000E+02  0.51100000000E-03 0. -1.
    9900012    2    1    2    0    0  0.21072422875E+02 -0.33882914583E+02  0.20904893403E+02  0.46142317913E+02  0.10000001388E+02 0.  0.
         12    1    1    2    0    0 -0.21072422875E+02  0.33882914583E+02 -0.20904893403E+02  0.45045682087E+02  0.00000000000E+00 0. -1.
         11    1    3    3    0    0  0.45675303865E+01 -0.65807003963E+01  0.62000718266E+01  0.10129602285E+02  0.51100000000E-03 0. -1.
        -11    1    3    3    0    0  0.13577587445E+02 -0.24735752971E+02  0.15261725485E+02  0.32080034615E+02  0.51100000000E-03 0.  1.
        -12    1    3    3    0    0  0.29273050430E+01 -0.25664612157E+01 -0.55690390824E+00  0.39326810129E+01  0.00000000000E+00 0.  1.
</event>
<event>
 7    1  0.2472338E-008  0.4614232E+02  0.7816164E-02  0.1320468E+00
        -11   -1    0    0    0    0  0.00000000000E+00  0.00000000000E+00  0.45593999997E+02  0.45594000000E+02  0.51100000000E-03 0.  1.
         11   -1    0    0    0    0 -0.00000000000E+00 -0.00000000000E+00 -0.45593999997E+02  0.45594000000E+02  0.51100000000E-03 0. -1.
    9900012    2    1    2    0    0  0.15632644939E+02 -0.22400161669E+02  0.35818522123E+02  0.46142319212E+02  0.10000013228E+02 0.  0.
         12    1    1    2    0    0 -0.15632644939E+02  0.22400161669E+02 -0.35818522123E+02  0.45045680788E+02  0.00000000000E+00 0. -1.
         11    1    3    3    0    0  0.57400712813E+01 -0.72923181023E+01  0.17586491924E+02  0.19884944558E+02  0.51100000000E-03 0. -1.
        -11    1    3    3    0    0  0.37997759987E+01 -0.10274822400E+02  0.89358436166E+01  0.14137169957E+02  0.51100000000E-03 0.  1.
         12    1    3    3    0    0  0.60927976591E+01 -0.48330211668E+01  0.92961865825E+01  0.12120204697E+02  0.00000000000E+00 0. -1.
</event>
<event>
 7    1  0.2472338E-008  0.4614232E+02  0.7816164E-02  0.1320468E+00
        -11   -1    0    0    0    0  0.00000000000E+00  0.00000000000E+00  0.45593999997E+02  0.45594000000E+02  0.51100000000E-03 0. -1.
         11   -1    0    0    0    0 -0.00000000000E+00 -0.00000000000E+00 -0.45593999997E+02  0.45594000000E+02  0.51100000000E-03 0.  1.
    9900012    2    1    2    0    0  0.12714265287E+02  0.41710623146E+02 -0.11299774304E+02  0.46142317362E+02  0.99999963625E+01 0.  0.
         12    1    1    2    0    0 -0.12714265287E+02 -0.41710623146E+02  0.11299774304E+02  0.45045682638E+02  0.00000000000E+00 0. -1.
         11    1    3    3    0    0  0.41350732311E-01  0.32043866367E+01  0.79078653790E+00  0.33007797882E+01  0.51100000000E-03 0. -1.
        -11    1    3    3    0    0  0.41785402475E+01  0.19774854964E+02 -0.33209153631E+01  0.20482518559E+02  0.51100000000E-03 0.  1.
         12    1    3    3    0    0  0.84943743070E+01  0.18731381545E+02 -0.87696454789E+01  0.22359019015E+02  0.00000000000E+00 0. -1.
</event>
<event>
 7    1  0.2472338E-008  0.4614232E+02  0.7816164E-02  0.1320468E+00
        -11   -1    0    0    0    0  0.00000000000E+00  0.00000000000E+00  0.45593999997E+02  0.45594000000E+02  0.51100000000E-03 0. -1.
         11   -1    0    0    0    0 -0.00000000000E+00 -0.00000000000E+00 -0.45593999997E+02  0.45594000000E+02  0.51100000000E-03 0.  1.
    9900012    2    1    2    0    0  0.36830520838E+02  0.24245612337E+02 -0.92074091622E+01  0.46142319116E+02  0.10000012357E+02 0.  0.
         12    1    1    2    0    0 -0.36830520838E+02 -0.24245612337E+02  0.92074091622E+01  0.45045680884E+02  0.00000000000E+00 0. -1.
         11    1    3    3    0    0  0.11010659703E+02  0.38991016812E+01 -0.23785880277E+00  0.11683073144E+02  0.51100000000E-03 0. -1.
        -11    1    3    3    0    0  0.24793144164E+01  0.10437004716E+01 -0.20719928557E+01  0.33955066345E+01  0.51100000000E-03 0.  1.
        -12    1    3    3    0    0  0.23340546719E+02  0.19302810184E+02 -0.68975575037E+01  0.31063739338E+02  0.00000000000E+00 0.  1.
</event>
<event>
 7    1  0.2472338E-008  0.4614232E+02  0.7816164E-02  0.1320468E+00
        -11   -1    0    0    0    0  0.00000000000E+00  0.00000000000E+00  0.45593999997E+02  0.45594000000E+02  0.51100000000E-03 0. -1.
         11   -1    0    0    0    0 -0.00000000000E+00 -0.00000000000E+00 -0.45593999997E+02  0.45594000000E+02  0.51100000000E-03 0.  1.
    9900012    2    1    2    0    0 -0.44821396629E+02  0.44350133964E+01  0.69749076166E+00  0.46142318376E+02  0.10000005605E+02 0.  0.
         12    1    1    2    0    0  0.44821396629E+02 -0.44350133964E+01 -0.69749076166E+00  0.45045681624E+02  0.00000000000E+00 0. -1.
         11    1    3    3    0    0 -0.31807590049E+00 -0.25299775958E+00  0.48156775238E+00  0.63014911416E+00  0.51100000000E-03 0. -1.
        -11    1    3    3    0    0 -0.12121862232E+02  0.84559797366E+00 -0.36190416557E+01  0.12678802888E+02  0.51100000000E-03 0.  1.
         12    1    3    3    0    0 -0.32381458496E+02  0.38424131823E+01  0.38349646650E+01  0.32833366373E+02  0.00000000000E+00 0. -1.
</event>
<event>
 7    1  0.2472338E-008  0.4614232E+02  0.7816164E-02  0.1320468E+00
        -11   -1    0    0    0    0  0.00000000000E+00  0.00000000000E+00  0.45593999997E+02  0.45594000000E+02  0.51100000000E-03 0.  1.
         11   -1    0    0    0    0 -0.00000000000E+00 -0.00000000000E+00 -0.45593999997E+02  0.45594000000E+02  0.51100000000E-03 0. -1.
    9900012    2    1    2    0    0 -0.28346830338E+02  0.25351972183E+02  0.24142249661E+02  0.46142317605E+02  0.99999985748E+01 0.  0.
         12    1    1    2    0    0  0.28346830338E+02 -0.25351972183E+02 -0.24142249661E+02  0.45045682395E+02  0.00000000000E+00 0. -1.
         11    1    3    3    0    0 -0.22713355414E+02  0.23777624658E+02  0.18891268635E+02  0.37922974296E+02  0.51100000000E-03 0. -1.
        -11    1    3    3    0    0 -0.47548919316E+01  0.14155875734E+01  0.53788298760E+01  0.73174241749E+01  0.51100000000E-03 0.  1.
         12    1    3    3    0    0 -0.87858299214E+00  0.15875995142E+00 -0.12784884991E+00  0.90191913422E+00  0.00000000000E+00 0. -1.
</event>
<event>
 7    1  0.2472338E-008  0.4614231E+02  0.7816164E-02  0.1320468E+00
        -11   -1    0    0    0    0  0.00000000000E+00  0.00000000000E+00  0.45593999997E+02  0.45594000000E+02  0.51100000000E-03 0.  1.
         11   -1    0    0    0    0 -0.00000000000E+00 -0.00000000000E+00 -0.45593999997E+02  0.45594000000E+02  0.51100000000E-03 0. -1.
    9900012    2    1    2    0    0 -0.88120101452E+00 -0.40759644516E+02 -0.19156948788E+02  0.46142314045E+02  0.99999661118E+01 0.  0.
         12    1    1    2    0    0  0.88120101452E+00  0.40759644516E+02  0.19156948788E+02  0.45045685955E+02  0.00000000000E+00 0. -1.
         11    1    3    3    0    0 -0.37045518282E+00 -0.13209005281E+02 -0.18109987539E+01  0.13337719981E+02  0.51100000000E-03 0. -1.
        -11    1    3    3    0    0 -0.21011510228E+00 -0.15181153651E+02 -0.71991025380E+01  0.16802935819E+02  0.51100000000E-03 0.  1.
        -12    1    3    3    0    0 -0.30063072942E+00 -0.12369485584E+02 -0.10146847496E+02  0.16001658244E+02  0.00000000000E+00 0.  1.
</event>
<event>
 7    1  0.2472338E-008  0.4614232E+02  0.7816164E-02  0.1320468E+00
        -11   -1    0    0    0    0  0.00000000000E+00  0.00000000000E+00  0.45593999997E+02  0.45594000000E+02  0.51100000000E-03 0.  1.
         11   -1    0    0    0    0 -0.00000000000E+00 -0.00000000000E+00 -0.45593999997E+02  0.45594000000E+02  0.51100000000E-03 0. -1.
    9900012    2    1    2    0    0  0.15410793410E+02  0.15931880517E+02  0.39214743368E+02  0.46142317990E+02  0.10000002088E+02 0.  0.
         12    1    1    2    0    0 -0.15410793410E+02 -0.15931880517E+02 -0.39214743368E+02  0.45045682010E+02  0.00000000000E+00 0. -1.
         11    1    3    3    0    0  0.27002685874E+01  0.62400062280E+01  0.19727266289E+02  0.20866100825E+02  0.51100000000E-03 0. -1.
        -11    1    3    3    0    0  0.91886208522E+01  0.74976200227E+01  0.15546351822E+02  0.19553365807E+02  0.51100000000E-03 0.  1.
         12    1    3    3    0    0  0.35219039705E+01  0.21942542668E+01  0.39411252572E+01  0.57228513573E+01  0.00000000000E+00 0. -1.
</event>
<event>
 7    1  0.2472338E-008  0.4614232E+02  0.7816164E-02  0.1320468E+00
        -11   -1    0    0    0    0  0.00000000000E+00  0.00000000000E+00  0.45593999997E+02  0.45594000000E+02  0.51100000000E-03 0.  1.
         11   -1    0    0    0    0 -0.00000000000E+00 -0.00000000000E+00 -0.45593999997E+02  0.45594000000E+02  0.51100000000E-03 0. -1.
    9900012    2    1    2    0    0 -0.96548940370E+01 -0.43841955176E+02 -0.37120766742E+01  0.46142317346E+02  0.99999962148E+01 0.  0.
         12    1    1    2    0    0  0.96548940370E+01  0.43841955176E+02  0.37120766742E+01  0.45045682654E+02  0.00000000000E+00 0. -1.
         11    1    3    3    0    0  0.16785250577E+00 -0.47555686235E-01 -0.18508151380E-02  0.17446974988E+00  0.51100000000E-03 0. -1.
        -11    1    3    3    0    0 -0.82710164325E+01 -0.42030302822E+02 -0.16907295538E+01  0.42869740317E+02  0.51100000000E-03 0.  1.
        -12    1    3    3    0    0 -0.15517301103E+01 -0.17640966680E+01 -0.20194963052E+01  0.30981072796E+01  0.00000000000E+00 0.  1.
</event>
<event>
 7    1  0.2472338E-008  0.4614232E+02  0.7816164E-02  0.1320468E+00
        -11   -1    0    0    0    0  0.00000000000E+00  0.00000000000E+00  0.45593999997E+02  0.45594000000E+02  0.51100000000E-03 0. -1.
         11   -1    0    0    0    0 -0.00000000000E+00 -0.00000000000E+00 -0.45593999997E+02  0.45594000000E+02  0.51100000000E-03 0.  1.
    9900012    2    1    2    0    0  0.41034326700E+02 -0.15393388333E+02  0.10408706557E+02  0.46142317140E+02  0.99999943349E+01 0.  0.
         12    1    1    2    0    0 -0.41034326700E+02  0.15393388333E+02 -0.10408706557E+02  0.45045682860E+02  0.00000000000E+00 0. -1.
         11    1    3    3    0    0  0.23421940894E+01  0.65092067650E+00  0.18422336902E+00  0.24379313752E+01  0.51100000000E-03 0. -1.
        -11    1    3    3    0    0  0.22834052429E+02 -0.12284932434E+02  0.86369081832E+01  0.27329648707E+02  0.51100000000E-03 0.  1.
        -12    1    3    3    0    0  0.15858080182E+02 -0.37593765758E+01  0.15875750051E+01  0.16374737057E+02  0.00000000000E+00 0.  1.
</event>
<event>
 7    1  0.2472338E-008  0.4614231E+02  0.7816164E-02  0.1320468E+00
        -11   -1    0    0    0    0  0.00000000000E+00  0.00000000000E+00  0.45593999997E+02  0.45594000000E+02  0.51100000000E-03 0. -1.
         11   -1    0    0    0    0 -0.00000000000E+00 -0.00000000000E+00 -0.45593999997E+02  0.45594000000E+02  0.51100000000E-03 0.  1.
    9900012    2    1    2    0    0  0.21524071142E+02  0.11465395045E+02 -0.37873114830E+02  0.46142314868E+02  0.99999736183E+01 0.  0.
         12    1    1    2    0    0 -0.21524071142E+02 -0.11465395045E+02  0.37873114830E+02  0.45045685132E+02  0.00000000000E+00 0. -1.
         11    1    3    3    0    0  0.10956917596E+01  0.23010037276E+01 -0.10851577075E+01  0.27699686095E+01  0.51100000000E-03 0. -1.
        -11    1    3    3    0    0  0.25300826581E+01  0.25688590344E+00 -0.19467557551E+01  0.32026811979E+01  0.51100000000E-03 0.  1.
        -12    1    3    3    0    0  0.17898296724E+02  0.89075054137E+01 -0.34841201368E+02  0.40169665061E+02  0.00000000000E+00 0.  1.
</event>
<event>
 7    1  0.2472338E-008  0.4614232E+02  0.7816164E-02  0.1320468E+00
        -11   -1    0    0    0    0  0.00000000000E+00  0.00000000000E+00  0.45593999997E+02  0.45594000000E+02  0.51100000000E-03 0.  1.
         11   -1    0    0    0    0 -0.00000000000E+00 -0.00000000000E+00 -0.45593999997E+02  0.45594000000E+02  0.51100000000E-03 0. -1.
    9900012    2    1    2    0    0 -0.10216954564E+02  0.40972809892E+02  0.15682990778E+02  0.46142317513E+02  0.99999977368E+01 0.  0.
         12    1    1    2    0    0  0.10216954564E+02 -0.40972809892E+02 -0.15682990778E+02  0.45045682487E+02  0.00000000000E+00 0. -1.
         11    1    3    3    0    0  0.10029055137E+00 -0.36837007728E+00 -0.91025156968E-02  0.38188718942E+00  0.51100000000E-03 0. -1.
        -11    1    3    3    0    0 -0.69271349514E-01  0.50541945726E+01  0.39758728716E+00  0.50702817683E+01  0.51100000000E-03 0.  1.
        -12    1    3    3    0    0 -0.10247973766E+02  0.36286985396E+02  0.15294506007E+02  0.40690148555E+02  0.00000000000E+00 0.  1.
</event>
<event>
 7    1  0.2472338E-008  0.4614232E+02  0.7816164E-02  0.1320468E+00
        -11   -1    0    0    0    0  0.00000000000E+00  0.00000000000E+00  0.45593999997E+02  0.45594000000E+02  0.51100000000E-03 0. -1.
         11   -1    0    0    0    0 -0.00000000000E+00 -0.00000000000E+00 -0.45593999997E+02  0.45594000000E+02  0.51100000000E-03 0.  1.
    9900012    2    1    2    0    0  0.19329797366E+02  0.23798351237E+02 -0.33001683283E+02  0.46142315553E+02  0.99999798627E+01 0.  0.
         12    1    1    2    0    0 -0.19329797366E+02 -0.23798351237E+02  0.33001683283E+02  0.45045684447E+02  0.00000000000E+00 0. -1.
         11    1    3    3    0    0  0.51206817995E+00 -0.39706165905E+00 -0.35218584095E+00  0.73750044725E+00  0.51100000000E-03 0.  1.
        -11    1    3    3    0    0  0.16102291543E+01  0.63244746938E+01 -0.91045493705E+01  0.11201992572E+02  0.51100000000E-03 0. -1.
        -12    1    3    3    0    0  0.17207500032E+02  0.17870938203E+02 -0.23544948071E+02  0.34202822534E+02  0.00000000000E+00 0.  1.
</event>
<event>
 7    1  0.2472338E-008  0.4614232E+02  0.7816164E-02  0.1320468E+00
        -11   -1    0    0    0    0  0.00000000000E+00  0.00000000000E+00  0.45593999997E+02  0.45594000000E+02  0.51100000000E-03 0. -1.
         11   -1    0    0    0    0 -0.00000000000E+00 -0.00000000000E+00 -0.45593999997E+02  0.45594000000E+02  0.51100000000E-03 0.  1.
    9900012    2    1    2    0    0  0.48837564917E+01  0.44748662635E+02 -0.16791695651E+01  0.46142317682E+02  0.99999992741E+01 0.  0.
         12    1    1    2    0    0 -0.48837564917E+01 -0.44748662635E+02  0.16791695651E+01  0.45045682318E+02  0.00000000000E+00 0. -1.
         11    1    3    3    0    0 -0.25704273552E+01  0.96655888953E+01  0.74682745901E+00  0.10029379691E+02  0.51100000000E-03 0. -1.
        -11    1    3    3    0    0 -0.21085159168E+00  0.75376610999E+00 -0.40257489479E+00  0.88016393321E+00  0.51100000000E-03 0.  1.
        -12    1    3    3    0    0  0.76650354386E+01  0.34329307630E+02 -0.20234221293E+01  0.35232774057E+02  0.00000000000E+00 0.  1.
</event>
<event>
 7    1  0.2472338E-008  0.4614232E+02  0.7816164E-02  0.1320468E+00
        -11   -1    0    0    0    0  0.00000000000E+00  0.00000000000E+00  0.45593999997E+02  0.45594000000E+02  0.51100000000E-03 0.  1.
         11   -1    0    0    0    0 -0.00000000000E+00 -0.00000000000E+00 -0.45593999997E+02  0.45594000000E+02  0.51100000000E-03 0. -1.
    9900012    2    1    2    0    0 -0.37962262165E+01 -0.36645662350E+02  0.25919057645E+02  0.46142318168E+02  0.10000003708E+02 0.  0.
         12    1    1    2    0    0  0.37962262165E+01  0.36645662350E+02 -0.25919057645E+02  0.45045681832E+02  0.00000000000E+00 0. -1.
         11    1    3    3    0    0 -0.10316670535E+01 -0.36878965273E+01  0.20324236886E+01  0.43353966389E+01  0.51100000000E-03 0. -1.
        -11    1    3    3    0    0 -0.19489516600E+01 -0.23596659044E+02  0.21793430521E+02  0.32180030216E+02  0.51100000000E-03 0.  1.
         12    1    3    3    0    0 -0.81560750306E+00 -0.93611067788E+01  0.20932034357E+01  0.96268913127E+01  0.00000000000E+00 0. -1.
</event>
<event>
 7    1  0.2472338E-008  0.4614232E+02  0.7816164E-02  0.1320468E+00
        -11   -1    0    0    0    0  0.00000000000E+00  0.00000000000E+00  0.45593999997E+02  0.45594000000E+02  0.51100000000E-03 0.  1.
         11   -1    0    0    0    0 -0.00000000000E+00 -0.00000000000E+00 -0.45593999997E+02  0.45594000000E+02  0.51100000000E-03 0. -1.
    9900012    2    1    2    0    0  0.14592509592E+02  0.37278745187E+02  0.20651080683E+02  0.46142319716E+02  0.10000017822E+02 0.  0.
         12    1    1    2    0    0 -0.14592509592E+02 -0.37278745187E+02 -0.20651080683E+02  0.45045680284E+02  0.00000000000E+00 0. -1.
         11    1    3    3    0    0  0.71524885967E+01  0.20919966539E+02  0.10154257518E+02  0.24329242469E+02  0.51100000000E-03 0. -1.
        -11    1    3    3    0    0  0.42774938126E+01  0.12693472371E+02  0.45535177165E+01  0.14147640015E+02  0.51100000000E-03 0.  1.
         12    1    3    3    0    0  0.31625271830E+01  0.36653062772E+01  0.59433054493E+01  0.76654372317E+01  0.00000000000E+00 0. -1.
</event>
<event>
 7    1  0.2472338E-008  0.4614232E+02  0.7816164E-02  0.1320468E+00
        -11   -1    0    0    0    0  0.00000000000E+00  0.00000000000E+00  0.45593999997E+02  0.45594000000E+02  0.51100000000E-03 0.  1.
         11   -1    0    0    0    0 -0.00000000000E+00 -0.00000000000E+00 -0.45593999997E+02  0.45594000000E+02  0.51100000000E-03 0. -1.
    9900012    2    1    2    0    0  0.36615332943E+02  0.19656869131E+02  0.17379243831E+02  0.46142320666E+02  0.10000026485E+02 0.  0.
         12    1    1    2    0    0 -0.36615332943E+02 -0.19656869131E+02 -0.17379243831E+02  0.45045679334E+02  0.00000000000E+00 0. -1.
         11    1    3    3    0    0  0.24718974262E+02  0.15125885002E+02  0.14298648742E+02  0.32315189026E+02  0.51100000000E-03 0.  1.
        -11    1    3    3    0    0  0.10238838041E+01  0.17281057436E+01  0.14591673374E+01  0.24827116395E+01  0.51100000000E-03 0. -1.
        -12    1    3    3    0    0  0.10872474877E+02  0.28028783857E+01  0.16214277516E+01  0.11344420000E+02  0.00000000000E+00 0.  1.
</event>
<event>
 7    1  0.2472338E-008  0.4614232E+02  0.7816164E-02  0.1320468E+00
        -11   -1    0    0    0    0  0.00000000000E+00  0.00000000000E+00  0.45593999997E+02  0.45594000000E+02  0.51100000000E-03 0.  1.
         11   -1    0    0    0    0 -0.00000000000E+00 -0.00000000000E+00 -0.45593999997E+02  0.45594000000E+02  0.51100000000E-03 0. -1.
    9900012    2    1    2    0    0  0.33798847063E+02  0.12616367386E+02  0.26973666726E+02  0.46142317794E+02  0.10000000300E+02 0.  0.
         12    1    1    2    0    0 -0.33798847063E+02 -0.12616367386E+02 -0.26973666726E+02  0.45045682206E+02  0.00000000000E+00 0. -1.
         11    1    3    3    0    0  0.66932179280E+01  0.68315144528E+01  0.85992225550E+01  0.12861391245E+02  0.51100000000E-03 0. -1.
        -11    1    3    3    0    0  0.16326047336E+02  0.29998642519E+01  0.11549278105E+02  0.20221889926E+02  0.51100000000E-03 0.  1.
         12    1    3    3    0    0  0.10779581798E+02  0.27849886810E+01  0.68251660655E+01  0.13059036623E+02  0.00000000000E+00 0. -1.
</event>
<event>
 7    1  0.2472338E-008  0.4614232E+02  0.7816164E-02  0.1320468E+00
        -11   -1    0    0    0    0  0.00000000000E+00  0.00000000000E+00  0.45593999997E+02  0.45594000000E+02  0.51100000000E-03 0.  1.
         11   -1    0    0    0    0 -0.00000000000E+00 -0.00000000000E+00 -0.45593999997E+02  0.45594000000E+02  0.51100000000E-03 0. -1.
    9900012    2    1    2    0    0  0.70491665457E+01 -0.29717365865E+02  0.33110435176E+02  0.46142317626E+02  0.99999987724E+01 0.  0.
         12    1    1    2    0    0 -0.70491665457E+01  0.29717365865E+02 -0.33110435176E+02  0.45045682374E+02  0.00000000000E+00 0. -1.
         11    1    3    3    0    0  0.31114896399E+01 -0.13684253669E+02  0.20381294713E+02  0.24745450909E+02  0.51100000000E-03 0. -1.
        -11    1    3    3    0    0  0.41183152531E+01 -0.11848457847E+02  0.11535526501E+02  0.17041562305E+02  0.51100000000E-03 0.  1.
         12    1    3    3    0    0 -0.18063834730E+00 -0.41846543493E+01  0.11936139620E+01  0.43553044125E+01  0.00000000000E+00 0. -1.
</event>
<event>
 7    1  0.2472338E-008  0.4614232E+02  0.7816164E-02  0.1320468E+00
        -11   -1    0    0    0    0  0.00000000000E+00  0.00000000000E+00  0.45593999997E+02  0.45594000000E+02  0.51100000000E-03 0. -1.
         11   -1    0    0    0    0 -0.00000000000E+00 -0.00000000000E+00 -0.45593999997E+02  0.45594000000E+02  0.51100000000E-03 0.  1.
    9900012    2    1    2    0    0 -0.13209072210E+02  0.25090342661E+02 -0.35001551618E+02  0.46142317642E+02  0.99999989102E+01 0.  0.
         12    1    1    2    0    0  0.13209072210E+02 -0.25090342661E+02  0.35001551618E+02  0.45045682358E+02  0.00000000000E+00 0. -1.
         11    1    3    3    0    0 -0.63710346913E+01  0.87326998906E+01 -0.13407980654E+02  0.17222777821E+02  0.51100000000E-03 0.  1.
        -11    1    3    3    0    0 -0.13046468441E+01  0.12121472355E+02 -0.12475351731E+02  0.17443239278E+02  0.51100000000E-03 0. -1.
         12    1    3    3    0    0 -0.55333906751E+01  0.42361704149E+01 -0.91182192328E+01  0.11476300542E+02  0.00000000000E+00 0. -1.
</event>
<event>
 7    1  0.2472338E-008  0.4614232E+02  0.7816164E-02  0.1320468E+00
        -11   -1    0    0    0    0  0.00000000000E+00  0.00000000000E+00  0.45593999997E+02  0.45594000000E+02  0.51100000000E-03 0.  1.
         11   -1    0    0    0    0 -0.00000000000E+00 -0.00000000000E+00 -0.45593999997E+02  0.45594000000E+02  0.51100000000E-03 0. -1.
    9900012    2    1    2    0    0 -0.28117556191E+02  0.13497701812E+02  0.32501208907E+02  0.46142317624E+02  0.99999987464E+01 0.  0.
         12    1    1    2    0    0  0.28117556191E+02 -0.13497701812E+02 -0.32501208907E+02  0.45045682376E+02  0.00000000000E+00 0. -1.
         11    1    3    3    0    0 -0.95815151448E+01  0.99454986050E+00  0.12520972853E+02  0.15797763239E+02  0.51100000000E-03 0. -1.
        -11    1    3    3    0    0 -0.13063364751E+02  0.63633356486E+01  0.13977549003E+02  0.20162227446E+02  0.51100000000E-03 0.  1.
         12    1    3    3    0    0 -0.54726762951E+01  0.61398163025E+01  0.60026870501E+01  0.10182326938E+02  0.00000000000E+00 0. -1.
</event>
<event>
 7    1  0.2472338E-008  0.4614232E+02  0.7816164E-02  0.1320468E+00
        -11   -1    0    0    0    0  0.00000000000E+00  0.00000000000E+00  0.45593999997E+02  0.45594000000E+02  0.51100000000E-03 0.  1.
         11   -1    0    0    0    0 -0.00000000000E+00 -0.00000000000E+00 -0.45593999997E+02  0.45594000000E+02  0.51100000000E-03 0. -1.
    9900012    2    1    2    0    0  0.36795638899E+02 -0.30942533475E+01  0.25799614814E+02  0.46142316852E+02  0.99999917061E+01 0.  0.
         12    1    1    2    0    0 -0.36795638899E+02  0.30942533475E+01 -0.25799614814E+02  0.45045683148E+02  0.00000000000E+00 0. -1.
         11    1    3    3    0    0  0.78157948119E+01  0.76352855268E-01  0.13371507706E+01  0.79297194619E+01  0.51100000000E-03 0. -1.
        -11    1    3    3    0    0  0.25102930372E+02 -0.16733637620E+01  0.20258761930E+02  0.32301311038E+02  0.51100000000E-03 0.  1.
         12    1    3    3    0    0  0.38769137152E+01 -0.14972424407E+01  0.42037021130E+01  0.59112863521E+01  0.00000000000E+00 0. -1.
</event>
<event>
 7    1  0.2472338E-008  0.4614232E+02  0.7816164E-02  0.1320468E+00
        -11   -1    0    0    0    0  0.00000000000E+00  0.00000000000E+00  0.45593999997E+02  0.45594000000E+02  0.51100000000E-03 0.  1.
         11   -1    0    0    0    0 -0.00000000000E+00 -0.00000000000E+00 -0.45593999997E+02  0.45594000000E+02  0.51100000000E-03 0. -1.
    9900012    2    1    2    0    0  0.30844922128E+02 -0.32427350920E+02  0.51157807844E+01  0.46142317390E+02  0.99999966197E+01 0.  0.
         12    1    1    2    0    0 -0.30844922128E+02  0.32427350920E+02 -0.51157807844E+01  0.45045682610E+02  0.00000000000E+00 0. -1.
         11    1    3    3    0    0  0.10833194844E+02 -0.68386790260E+01 -0.28413158981E+00  0.12814303429E+02  0.51100000000E-03 0. -1.
        -11    1    3    3    0    0  0.18266887542E+02 -0.24095778405E+02  0.36826772265E+01  0.30460594695E+02  0.51100000000E-03 0.  1.
        -12    1    3    3    0    0  0.17448397425E+01 -0.14928934890E+01  0.17172351477E+01  0.28674192664E+01  0.00000000000E+00 0.  1.
</event>
<event>
 7    1  0.2472338E-008  0.4614232E+02  0.7816164E-02  0.1320468E+00
        -11   -1    0    0    0    0  0.00000000000E+00  0.00000000000E+00  0.45593999997E+02  0.45594000000E+02  0.51100000000E-03 0.  1.
         11   -1    0    0    0    0 -0.00000000000E+00 -0.00000000000E+00 -0.45593999997E+02  0.45594000000E+02  0.51100000000E-03 0. -1.
    9900012    2    1    2    0    0  0.39190466110E+01  0.41346714139E+02  0.17441434749E+02  0.46142319380E+02  0.10000014765E+02 0.  0.
         12    1    1    2    0    0 -0.39190466110E+01 -0.41346714139E+02 -0.17441434749E+02  0.45045680620E+02  0.00000000000E+00 0. -1.
         11    1    3    3    0    0  0.19329324136E+00  0.37267727523E+00 -0.37207100265E+00  0.56097033858E+00  0.51100000000E-03 0. -1.
        -11    1    3    3    0    0  0.61466230425E+01  0.33582414770E+02  0.15253765407E+02  0.37393006244E+02  0.51100000000E-03 0.  1.
        -12    1    3    3    0    0 -0.24208696729E+01  0.73916220936E+01  0.25597403448E+01  0.81883427982E+01  0.00000000000E+00 0.  1.
</event>
<event>
 7    1  0.2472338E-008  0.4614232E+02  0.7816164E-02  0.1320468E+00
        -11   -1    0    0    0    0  0.00000000000E+00  0.00000000000E+00  0.45593999997E+02  0.45594000000E+02  0.51100000000E-03 0.  1.
         11   -1    0    0    0    0 -0.00000000000E+00 -0.00000000000E+00 -0.45593999997E+02  0.45594000000E+02  0.51100000000E-03 0. -1.
    9900012    2    1    2    0    0 -0.32750844965E+02 -0.18807316896E+02  0.24551589769E+02  0.46142316800E+02  0.99999912369E+01 0.  0.
         12    1    1    2    0    0  0.32750844965E+02  0.18807316896E+02 -0.24551589769E+02  0.45045683200E+02  0.00000000000E+00 0. -1.
         11    1    3    3    0    0 -0.33958772850E+01 -0.42008549541E+01  0.57231428169E+01  0.78697858194E+01  0.51100000000E-03 0. -1.
        -11    1    3    3    0    0 -0.19181197647E+02 -0.12588522207E+02  0.12638547059E+02  0.26193932629E+02  0.51100000000E-03 0.  1.
        -12    1    3    3    0    0 -0.10173770033E+02 -0.20179397346E+01  0.61898998931E+01  0.12078598352E+02  0.00000000000E+00 0.  1.
</event>
<event>
 7    1  0.2472338E-008  0.4614232E+02  0.7816164E-02  0.1320468E+00
        -11   -1    0    0    0    0  0.00000000000E+00  0.00000000000E+00  0.45593999997E+02  0.45594000000E+02  0.51100000000E-03 0.  1.
         11   -1    0    0    0    0 -0.00000000000E+00 -0.00000000000E+00 -0.45593999997E+02  0.45594000000E+02  0.51100000000E-03 0. -1.
    9900012    2    1    2    0    0 -0.37275738253E+02 -0.32394163069E+01  0.25082646321E+02  0.46142316225E+02  0.99999859930E+01 0.  0.
         12    1    1    2    0    0  0.37275738253E+02  0.32394163069E+01 -0.25082646321E+02  0.45045683775E+02  0.00000000000E+00 0. -1.
         11    1    3    3    0    0 -0.76435769269E+01  0.13811698512E+01  0.86573701829E+01  0.11631077213E+02  0.51100000000E-03 0. -1.
        -11    1    3    3    0    0 -0.26799070581E+02 -0.32239399742E+01  0.13391504110E+02  0.30131650395E+02  0.51100000000E-03 0.  1.
         12    1    3    3    0    0 -0.28330907449E+01 -0.13966461839E+01  0.30337720282E+01  0.43795886166E+01  0.00000000000E+00 0. -1.
</event>
<event>
 7    1  0.2472338E-008  0.4614232E+02  0.7816164E-02  0.1320468E+00
        -11   -1    0    0    0    0  0.00000000000E+00  0.00000000000E+00  0.45593999997E+02  0.45594000000E+02  0.51100000000E-03 0.  1.
         11   -1    0    0    0    0 -0.00000000000E+00 -0.00000000000E+00 -0.45593999997E+02  0.45594000000E+02  0.51100000000E-03 0. -1.
    9900012    2    1    2    0    0  0.11204349222E+02 -0.42264472280E+02  0.10830069455E+02  0.46142318043E+02  0.10000002572E+02 0.  0.
         12    1    1    2    0    0 -0.11204349222E+02  0.42264472280E+02 -0.10830069455E+02  0.45045681957E+02  0.00000000000E+00 0. -1.
         11    1    3    3    0    0  0.45883231366E+01 -0.12780659425E+02  0.25733122739E+01  0.13820994930E+02  0.51100000000E-03 0. -1.
        -11    1    3    3    0    0  0.75803570450E+01 -0.28022950869E+02  0.63187660313E+01  0.29709836633E+02  0.51100000000E-03 0.  1.
         12    1    3    3    0    0 -0.96433095958E+00 -0.14608619860E+01  0.19379911494E+01  0.26114864803E+01  0.00000000000E+00 0. -1.
</event>
<event>
 7    1  0.2472338E-008  0.4614232E+02  0.7816164E-02  0.1320468E+00
        -11   -1    0    0    0    0  0.00000000000E+00  0.00000000000E+00  0.45593999997E+02  0.45594000000E+02  0.51100000000E-03 0.  1.
         11   -1    0    0    0    0 -0.00000000000E+00 -0.00000000000E+00 -0.45593999997E+02  0.45594000000E+02  0.51100000000E-03 0. -1.
    9900012    2    1    2    0    0 -0.36584066131E+02  0.10826397455E+02  0.23948039364E+02  0.46142319121E+02  0.10000012396E+02 0.  0.
         12    1    1    2    0    0  0.36584066131E+02 -0.10826397455E+02 -0.23948039364E+02  0.45045680879E+02  0.00000000000E+00 0. -1.
         11    1    3    3    0    0 -0.52972678354E+01  0.16905593987E+01  0.60060286519E+01  0.81848285278E+01  0.51100000000E-03 0. -1.
        -11    1    3    3    0    0 -0.11824229253E+02  0.73067275202E+01  0.72911834488E+01  0.15695923701E+02  0.51100000000E-03 0.  1.
        -12    1    3    3    0    0 -0.19462569042E+02  0.18291105357E+01  0.10650827263E+02  0.22261566892E+02  0.00000000000E+00 0.  1.
</event>
<event>
 7    1  0.2472338E-008  0.4614232E+02  0.7816164E-02  0.1320468E+00
        -11   -1    0    0    0    0  0.00000000000E+00  0.00000000000E+00  0.45593999997E+02  0.45594000000E+02  0.51100000000E-03 0.  1.
         11   -1    0    0    0    0 -0.00000000000E+00 -0.00000000000E+00 -0.45593999997E+02  0.45594000000E+02  0.51100000000E-03 0. -1.
    9900012    2    1    2    0    0 -0.28048129326E+02 -0.23752383400E+02  0.26043034187E+02  0.46142324230E+02  0.10000058991E+02 0.  0.
         12    1    1    2    0    0  0.28048129326E+02  0.23752383400E+02 -0.26043034187E+02  0.45045675770E+02  0.00000000000E+00 0. -1.
         11    1    3    3    0    0 -0.22835786360E+02 -0.17373221735E+02  0.16369902660E+02  0.33034462089E+02  0.51100000000E-03 0.  1.
        -11    1    3    3    0    0  0.42893615298E+00 -0.33558369378E+00  0.90908162534E+00  0.10597321839E+01  0.51100000000E-03 0. -1.
        -12    1    3    3    0    0 -0.56412791187E+01 -0.60435779714E+01  0.87640499017E+01  0.12048129957E+02  0.00000000000E+00 0.  1.
</event>
<event>
 7    1  0.2472338E-008  0.4614232E+02  0.7816164E-02  0.1320468E+00
        -11   -1    0    0    0    0  0.00000000000E+00  0.00000000000E+00  0.45593999997E+02  0.45594000000E+02  0.51100000000E-03 0.  1.
         11   -1    0    0    0    0 -0.00000000000E+00 -0.00000000000E+00 -0.45593999997E+02  0.45594000000E+02  0.51100000000E-03 0. -1.
    9900012    2    1    2    0    0  0.42777670469E+02  0.13862123852E+02 -0.26506569248E+01  0.46142317070E+02  0.99999937006E+01 0.  0.
         12    1    1    2    0    0 -0.42777670469E+02 -0.13862123852E+02  0.26506569248E+01  0.45045682930E+02  0.00000000000E+00 0. -1.
         11    1    3    3    0    0  0.12247064954E+02 -0.31790130345E+00 -0.37540965212E+00  0.12256940642E+02  0.51100000000E-03 0. -1.
        -11    1    3    3    0    0  0.10387139286E+02  0.32181999438E+01 -0.57397904161E+00  0.10889395099E+02  0.51100000000E-03 0.  1.
         12    1    3    3    0    0  0.20143466229E+02  0.10961825212E+02 -0.17012682311E+01  0.22995981329E+02  0.00000000000E+00 0. -1.
</event>
<event>
 7    1  0.2472338E-008  0.4614232E+02  0.7816164E-02  0.1320468E+00
        -11   -1    0    0    0    0  0.00000000000E+00  0.00000000000E+00  0.45593999997E+02  0.45594000000E+02  0.51100000000E-03 0.  1.
         11   -1    0    0    0    0 -0.00000000000E+00 -0.00000000000E+00 -0.45593999997E+02  0.45594000000E+02  0.51100000000E-03 0. -1.
    9900012    2    1    2    0    0 -0.11562111804E+02 -0.16047825411E+02  0.40470958035E+02  0.46142316810E+02  0.99999913284E+01 0.  0.
         12    1    1    2    0    0  0.11562111804E+02  0.16047825411E+02 -0.40470958035E+02  0.45045683190E+02  0.00000000000E+00 0. -1.
         11    1    3    3    0    0 -0.11690025397E+02 -0.14172009462E+02  0.35433466321E+02  0.39912818515E+02  0.51100000000E-03 0. -1.
        -11    1    3    3    0    0  0.13051086905E+01 -0.19313799620E+01  0.41287343443E+01  0.47413062334E+01  0.51100000000E-03 0.  1.
         12    1    3    3    0    0 -0.11771950977E+01  0.55564013461E-01  0.90875736911E+00  0.14881920620E+01  0.00000000000E+00 0. -1.
</event>
<event>
 7    1  0.2472338E-008  0.4614232E+02  0.7816164E-02  0.1320468E+00
        -11   -1    0    0    0    0  0.00000000000E+00  0.00000000000E+00  0.45593999997E+02  0.45594000000E+02  0.51100000000E-03 0. -1.
         11   -1    0    0    0    0 -0.00000000000E+00 -0.00000000000E+00 -0.45593999997E+02  0.45594000000E+02  0.51100000000E-03 0.  1.
    9900012    2    1    2    0    0  0.31648637665E+02  0.11967795514E+02 -0.29736324288E+02  0.46142318989E+02  0.10000011200E+02 0.  0.
         12    1    1    2    0    0 -0.31648637665E+02 -0.11967795514E+02  0.29736324288E+02  0.45045681011E+02  0.00000000000E+00 0. -1.
         11    1    3    3    0    0  0.44758186872E+01  0.30083214883E+01 -0.19111512436E+01  0.57214902285E+01  0.51100000000E-03 0. -1.
        -11    1    3    3    0    0  0.26270667722E+02  0.75969003221E+01 -0.24503617696E+02  0.36719043527E+02  0.51100000000E-03 0.  1.
         12    1    3    3    0    0  0.90215125647E+00  0.13625737034E+01 -0.33215553486E+01  0.37017852343E+01  0.00000000000E+00 0. -1.
</event>
<event>
 7    1  0.2472338E-008  0.4614231E+02  0.7816164E-02  0.1320468E+00
        -11   -1    0    0    0    0  0.00000000000E+00  0.00000000000E+00  0.45593999997E+02  0.45594000000E+02  0.51100000000E-03 0. -1.
         11   -1    0    0    0    0 -0.00000000000E+00 -0.00000000000E+00 -0.45593999997E+02  0.45594000000E+02  0.51100000000E-03 0.  1.
    9900012    2    1    2    0    0 -0.30213973731E+02 -0.27285890968E+01 -0.33298415749E+02  0.46142313209E+02  0.99999584867E+01 0.  0.
         12    1    1    2    0    0  0.30213973731E+02  0.27285890968E+01  0.33298415749E+02  0.45045686791E+02  0.00000000000E+00 0. -1.
         11    1    3    3    0    0 -0.89809787188E+01  0.22379477675E+01 -0.11444485856E+02  0.14718785471E+02  0.51100000000E-03 0. -1.
        -11    1    3    3    0    0 -0.76168415858E+01 -0.36748819238E+01 -0.54292918748E+01  0.10049788228E+02  0.51100000000E-03 0.  1.
        -12    1    3    3    0    0 -0.13616153427E+02 -0.12916549406E+01 -0.16424638018E+02  0.21373739510E+02  0.00000000000E+00 0.  1.
</event>
<event>
 7    1  0.2472338E-008  0.4614231E+02  0.7816164E-02  0.1320468E+00
        -11   -1    0    0    0    0  0.00000000000E+00  0.00000000000E+00  0.45593999997E+02  0.45594000000E+02  0.51100000000E-03 0. -1.
         11   -1    0    0    0    0 -0.00000000000E+00 -0.00000000000E+00 -0.45593999997E+02  0.45594000000E+02  0.51100000000E-03 0.  1.
    9900012    2    1    2    0    0 -0.28686543094E+02 -0.31141329461E+02 -0.15375749327E+02  0.46142314051E+02  0.99999661647E+01 0.  0.
         12    1    1    2    0    0  0.28686543094E+02  0.31141329461E+02  0.15375749327E+02  0.45045685949E+02  0.00000000000E+00 0. -1.
         11    1    3    3    0    0 -0.52434837391E+01 -0.38996605503E+01  0.93894861649E+00  0.66017496844E+01  0.51100000000E-03 0. -1.
        -11    1    3    3    0    0 -0.14209382481E+02 -0.15215999624E+02 -0.85513592160E+01  0.22506864281E+02  0.51100000000E-03 0.  1.
         12    1    3    3    0    0 -0.92336768744E+01 -0.12025669286E+02 -0.77633387279E+01  0.17033700086E+02  0.00000000000E+00 0. -1.
</event>
<event>
 7    1  0.2472338E-008  0.4614232E+02  0.7816164E-02  0.1320468E+00
        -11   -1    0    0    0    0  0.00000000000E+00  0.00000000000E+00  0.45593999997E+02  0.45594000000E+02  0.51100000000E-03 0.  1.
         11   -1    0    0    0    0 -0.00000000000E+00 -0.00000000000E+00 -0.45593999997E+02  0.45594000000E+02  0.51100000000E-03 0. -1.
    9900012    2    1    2    0    0  0.26696494095E+02 -0.47034258201E+01  0.35976219326E+02  0.46142319093E+02  0.10000012142E+02 0.  0.
         12    1    1    2    0    0 -0.26696494095E+02  0.47034258201E+01 -0.35976219326E+02  0.45045680907E+02  0.00000000000E+00 0. -1.
         11    1    3    3    0    0  0.77071467744E+01 -0.28356673821E+01  0.75043577944E+01  0.11124590198E+02  0.51100000000E-03 0. -1.
        -11    1    3    3    0    0  0.34236056283E+01 -0.32211715795E+01  0.77725092765E+01  0.90834422197E+01  0.51100000000E-03 0.  1.
        -12    1    3    3    0    0  0.15565741693E+02  0.13534131414E+01  0.20699352255E+02  0.25934286675E+02  0.00000000000E+00 0.  1.
</event>
<event>
 7    1  0.2472338E-008  0.4614232E+02  0.7816164E-02  0.1320468E+00
        -11   -1    0    0    0    0  0.00000000000E+00  0.00000000000E+00  0.45593999997E+02  0.45594000000E+02  0.51100000000E-03 0.  1.
         11   -1    0    0    0    0 -0.00000000000E+00 -0.00000000000E+00 -0.45593999997E+02  0.45594000000E+02  0.51100000000E-03 0. -1.
    9900012    2    1    2    0    0  0.12060522852E+02 -0.50426106380E+00  0.43398190928E+02  0.46142318003E+02  0.10000002209E+02 0.  0.
         12    1    1    2    0    0 -0.12060522852E+02  0.50426106380E+00 -0.43398190928E+02  0.45045681997E+02  0.00000000000E+00 0. -1.
         11    1    3    3    0    0  0.86891431812E+01  0.31748649995E+01  0.26764725725E+02  0.28318395442E+02  0.51100000000E-03 0.  1.
        -11    1    3    3    0    0  0.10269020372E+01 -0.82317768436E+00  0.74682548807E+00  0.15132408482E+01  0.51100000000E-03 0. -1.
        -12    1    3    3    0    0  0.23444776334E+01 -0.28559483789E+01  0.15886639715E+02  0.16310681714E+02  0.00000000000E+00 0.  1.
</event>
<event>
 7    1  0.2472338E-008  0.4614232E+02  0.7816164E-02  0.1320468E+00
        -11   -1    0    0    0    0  0.00000000000E+00  0.00000000000E+00  0.45593999997E+02  0.45594000000E+02  0.51100000000E-03 0.  1.
         11   -1    0    0    0    0 -0.00000000000E+00 -0.00000000000E+00 -0.45593999997E+02  0.45594000000E+02  0.51100000000E-03 0. -1.
    9900012    2    1    2    0    0  0.12440562896E+02 -0.35063751135E+02  0.25394473507E+02  0.46142317260E+02  0.99999954323E+01 0.  0.
         12    1    1    2    0    0 -0.12440562896E+02  0.35063751135E+02 -0.25394473507E+02  0.45045682740E+02  0.00000000000E+00 0. -1.
         11    1    3    3    0    0  0.10436079343E+02 -0.30647447724E+02  0.18269137670E+02  0.37174442773E+02  0.51100000000E-03 0. -1.
        -11    1    3    3    0    0  0.12651849095E+01 -0.44238270100E+01  0.54232085525E+01  0.71121114681E+01  0.51100000000E-03 0.  1.
         12    1    3    3    0    0  0.73929864329E+00  0.75235992336E-02  0.17021272849E+01  0.18557630189E+01  0.00000000000E+00 0. -1.
</event>
<event>
 7    1  0.2472338E-008  0.4614232E+02  0.7816164E-02  0.1320468E+00
        -11   -1    0    0    0    0  0.00000000000E+00  0.00000000000E+00  0.45593999997E+02  0.45594000000E+02  0.51100000000E-03 0.  1.
         11   -1    0    0    0    0 -0.00000000000E+00 -0.00000000000E+00 -0.45593999997E+02  0.45594000000E+02  0.51100000000E-03 0. -1.
    9900012    2    1    2    0    0  0.41314161625E+02 -0.17770609040E+02  0.25414544376E+01  0.46142317776E+02  0.10000000134E+02 0.  0.
         12    1    1    2    0    0 -0.41314161625E+02  0.17770609040E+02 -0.25414544376E+01  0.45045682224E+02  0.00000000000E+00 0. -1.
         11    1    3    3    0    0  0.73205388440E+01 -0.33676058660E+01  0.24168940418E+01  0.84126354554E+01  0.51100000000E-03 0. -1.
        -11    1    3    3    0    0  0.22111170446E+02 -0.66293506373E+01  0.28891051797E+01  0.23263685807E+02  0.51100000000E-03 0.  1.
        -12    1    3    3    0    0  0.11882452335E+02 -0.77736525365E+01 -0.27645447839E+01  0.14465996513E+02  0.00000000000E+00 0.  1.
</event>
<event>
 7    1  0.2472338E-008  0.4614232E+02  0.7816164E-02  0.1320468E+00
        -11   -1    0    0    0    0  0.00000000000E+00  0.00000000000E+00  0.45593999997E+02  0.45594000000E+02  0.51100000000E-03 0.  1.
         11   -1    0    0    0    0 -0.00000000000E+00 -0.00000000000E+00 -0.45593999997E+02  0.45594000000E+02  0.51100000000E-03 0. -1.
    9900012    2    1    2    0    0 -0.11835098717E+02  0.78770009580E+01  0.42743381976E+02  0.46142318648E+02  0.10000008086E+02 0.  0.
         12    1    1    2    0    0  0.11835098717E+02 -0.78770009580E+01 -0.42743381976E+02  0.45045681352E+02  0.00000000000E+00 0. -1.
         11    1    3    3    0    0  0.24298770884E-03  0.27017324812E+01  0.43732693761E+01  0.51405100677E+01  0.51100000000E-03 0. -1.
        -11    1    3    3    0    0 -0.75698374073E+01 -0.22208660636E+00  0.19974983493E+02  0.21362390472E+02  0.51100000000E-03 0.  1.
        -12    1    3    3    0    0 -0.42655042976E+01  0.53973550831E+01  0.18395129106E+02  0.19639418109E+02  0.00000000000E+00 0.  1.
</event>
<event>
 7    1  0.2472338E-008  0.4614232E+02  0.7816164E-02  0.1320468E+00
        -11   -1    0    0    0    0  0.00000000000E+00  0.00000000000E+00  0.45593999997E+02  0.45594000000E+02  0.51100000000E-03 0.  1.
         11   -1    0    0    0    0 -0.00000000000E+00 -0.00000000000E+00 -0.45593999997E+02  0.45594000000E+02  0.51100000000E-03 0. -1.
    9900012    2    1    2    0    0  0.30690522481E+02  0.31146837853E+02 -0.10820336555E+02  0.46142319168E+02  0.10000012832E+02 0.  0.
         12    1    1    2    0    0 -0.30690522481E+02 -0.31146837853E+02  0.10820336555E+02  0.45045680832E+02  0.00000000000E+00 0. -1.
         11    1    3    3    0    0  0.35031248984E+01  0.16798263695E+01 -0.13061428219E+01  0.40987449320E+01  0.51100000000E-03 0. -1.
        -11    1    3    3    0    0  0.11710203931E+02  0.74965162244E+01 -0.50934719314E+01  0.14807771209E+02  0.51100000000E-03 0.  1.
        -12    1    3    3    0    0  0.15477193652E+02  0.21970495259E+02 -0.44207218018E+01  0.27235803027E+02  0.00000000000E+00 0.  1.
</event>
<event>
 7    1  0.2472338E-008  0.4614233E+02  0.7816164E-02  0.1320468E+00
        -11   -1    0    0    0    0  0.00000000000E+00  0.00000000000E+00  0.45593999997E+02  0.45594000000E+02  0.51100000000E-03 0.  1.
         11   -1    0    0    0    0 -0.00000000000E+00 -0.00000000000E+00 -0.45593999997E+02  0.45594000000E+02  0.51100000000E-03 0. -1.
    9900012    2    1    2    0    0  0.26262457744E+02  0.18782339449E+02  0.31410497457E+02  0.46142330814E+02  0.10000119024E+02 0.  0.
         12    1    1    2    0    0 -0.26262457744E+02 -0.18782339449E+02 -0.31410497457E+02  0.45045669186E+02  0.00000000000E+00 0. -1.
         11    1    3    3    0    0  0.80119310351E+01  0.94777752874E+01  0.73661745916E+01  0.14431901873E+02  0.51100000000E-03 0. -1.
        -11    1    3    3    0    0  0.30243976975E+01  0.91845988233E+00  0.25127885122E+01  0.40379024699E+01  0.51100000000E-03 0.  1.
         12    1    3    3    0    0  0.15226129011E+02  0.83861042792E+01  0.21531534353E+02  0.27672526470E+02  0.00000000000E+00 0. -1.
</event>
<event>
 7    1  0.2472338E-008  0.4614232E+02  0.7816164E-02  0.1320468E+00
        -11   -1    0    0    0    0  0.00000000000E+00  0.00000000000E+00  0.45593999997E+02  0.45594000000E+02  0.51100000000E-03 0.  1.
         11   -1    0    0    0    0 -0.00000000000E+00 -0.00000000000E+00 -0.45593999997E+02  0.45594000000E+02  0.51100000000E-03 0. -1.
    9900012    2    1    2    0    0  0.34899047486E+00  0.32478652759E+02  0.31211035579E+02  0.46142318506E+02  0.10000006789E+02 0.  0.
         12    1    1    2    0    0 -0.34899047486E+00 -0.32478652759E+02 -0.31211035579E+02  0.45045681494E+02  0.00000000000E+00 0. -1.
         11    1    3    3    0    0 -0.29451262516E+01  0.38835354605E+01  0.67619734319E+01  0.83354604711E+01  0.51100000000E-03 0. -1.
        -11    1    3    3    0    0  0.15001064785E+01  0.15472133036E+02  0.14282016114E+02  0.21109552451E+02  0.51100000000E-03 0.  1.
         12    1    3    3    0    0  0.17940102480E+01  0.13122984263E+02  0.10167046033E+02  0.16697305584E+02  0.00000000000E+00 0. -1.
</event>
<event>
 7    1  0.2472338E-008  0.4614232E+02  0.7816164E-02  0.1320468E+00
        -11   -1    0    0    0    0  0.00000000000E+00  0.00000000000E+00  0.45593999997E+02  0.45594000000E+02  0.51100000000E-03 0. -1.
         11   -1    0    0    0    0 -0.00000000000E+00 -0.00000000000E+00 -0.45593999997E+02  0.45594000000E+02  0.51100000000E-03 0.  1.
    9900012    2    1    2    0    0 -0.23633035715E+02  0.21165397316E+02 -0.31978413239E+02  0.46142319476E+02  0.10000015634E+02 0.  0.
         12    1    1    2    0    0  0.23633035715E+02 -0.21165397316E+02  0.31978413239E+02  0.45045680524E+02  0.00000000000E+00 0. -1.
         11    1    3    3    0    0 -0.48438256984E+01  0.31466538712E+00 -0.29508623586E+01  0.56806030157E+01  0.51100000000E-03 0. -1.
        -11    1    3    3    0    0 -0.58843535088E+01  0.71115956984E+01 -0.11243103122E+02  0.14546744573E+02  0.51100000000E-03 0.  1.
         12    1    3    3    0    0 -0.12904856507E+02  0.13739136231E+02 -0.17784447759E+02  0.25914971887E+02  0.00000000000E+00 0. -1.
</event>
<event>
 7    1  0.2472338E-008  0.4614232E+02  0.7816164E-02  0.1320468E+00
        -11   -1    0    0    0    0  0.00000000000E+00  0.00000000000E+00  0.45593999997E+02  0.45594000000E+02  0.51100000000E-03 0.  1.
         11   -1    0    0    0    0 -0.00000000000E+00 -0.00000000000E+00 -0.45593999997E+02  0.45594000000E+02  0.51100000000E-03 0. -1.
    9900012    2    1    2    0    0  0.11375923744E+02 -0.36075361149E+02  0.24459561200E+02  0.46142318107E+02  0.10000003156E+02 0.  0.
         12    1    1    2    0    0 -0.11375923744E+02  0.36075361149E+02 -0.24459561200E+02  0.45045681893E+02  0.00000000000E+00 0. -1.
         11    1    3    3    0    0  0.79091246820E+01 -0.13484812581E+02  0.10584988859E+02  0.18879523643E+02  0.51100000000E-03 0. -1.
        -11    1    3    3    0    0  0.40391490685E+01 -0.11813058718E+02  0.57022332859E+01  0.13725106418E+02  0.51100000000E-03 0.  1.
         12    1    3    3    0    0 -0.57235000680E+00 -0.10777489850E+02  0.81723390551E+01  0.13537688046E+02  0.00000000000E+00 0. -1.
</event>
<event>
 7    1  0.2472338E-008  0.4614232E+02  0.7816164E-02  0.1320468E+00
        -11   -1    0    0    0    0  0.00000000000E+00  0.00000000000E+00  0.45593999997E+02  0.45594000000E+02  0.51100000000E-03 0.  1.
         11   -1    0    0    0    0 -0.00000000000E+00 -0.00000000000E+00 -0.45593999997E+02  0.45594000000E+02  0.51100000000E-03 0. -1.
    9900012    2    1    2    0    0  0.22040507508E+02 -0.39127381397E+02 -0.35181761075E+01  0.46142317529E+02  0.99999978798E+01 0.  0.
         12    1    1    2    0    0 -0.22040507508E+02  0.39127381397E+02  0.35181761075E+01  0.45045682471E+02  0.00000000000E+00 0. -1.
         11    1    3    3    0    0 -0.12865843193E+00  0.71801297831E-01 -0.68533634252E+00  0.70099542223E+00  0.51100000000E-03 0. -1.
        -11    1    3    3    0    0  0.44105835055E+01 -0.79030597780E+01  0.15828348628E+01  0.91878706552E+01  0.51100000000E-03 0.  1.
        -12    1    3    3    0    0  0.17758582434E+02 -0.31296122917E+02 -0.44156746277E+01  0.36253451451E+02  0.00000000000E+00 0.  1.
</event>
<event>
 7    1  0.2472338E-008  0.4614232E+02  0.7816164E-02  0.1320468E+00
        -11   -1    0    0    0    0  0.00000000000E+00  0.00000000000E+00  0.45593999997E+02  0.45594000000E+02  0.51100000000E-03 0. -1.
         11   -1    0    0    0    0 -0.00000000000E+00 -0.00000000000E+00 -0.45593999997E+02  0.45594000000E+02  0.51100000000E-03 0.  1.
    9900012    2    1    2    0    0 -0.22219985480E+02 -0.35438916133E+02 -0.16717327136E+02  0.46142316988E+02  0.99999929484E+01 0.  0.
         12    1    1    2    0    0  0.22219985480E+02  0.35438916133E+02  0.16717327136E+02  0.45045683012E+02  0.00000000000E+00 0. -1.
         11    1    3    3    0    0 -0.13802471331E+02 -0.25207083878E+02 -0.75923251484E+01  0.29724546993E+02  0.51100000000E-03 0. -1.
        -11    1    3    3    0    0 -0.80027470579E+01 -0.79620172760E+01 -0.80931085089E+01  0.13890143454E+02  0.51100000000E-03 0.  1.
         12    1    3    3    0    0 -0.41476709096E+00 -0.22698149791E+01 -0.10318934792E+01  0.25276265411E+01  0.00000000000E+00 0. -1.
</event>
<event>
 7    1  0.2472338E-008  0.4614232E+02  0.7816164E-02  0.1320468E+00
        -11   -1    0    0    0    0  0.00000000000E+00  0.00000000000E+00  0.45593999997E+02  0.45594000000E+02  0.51100000000E-03 0.  1.
         11   -1    0    0    0    0 -0.00000000000E+00 -0.00000000000E+00 -0.45593999997E+02  0.45594000000E+02  0.51100000000E-03 0. -1.
    9900012    2    1    2    0    0  0.60239051030E+01 -0.39628784198E+02  0.20552016369E+02  0.46142319336E+02  0.10000014360E+02 0.  0.
         12    1    1    2    0    0 -0.60239051030E+01  0.39628784198E+02 -0.20552016369E+02  0.45045680664E+02  0.00000000000E+00 0. -1.
         11    1    3    3    0    0  0.19647260160E+01 -0.70133847313E+01  0.57974026535E+01  0.93090059348E+01  0.51100000000E-03 0. -1.
        -11    1    3    3    0    0  0.12478130667E+01 -0.10990453014E+02  0.90525962614E+01  0.14293235961E+02  0.51100000000E-03 0.  1.
        -12    1    3    3    0    0  0.28113660204E+01 -0.21624946452E+02  0.57020174538E+01  0.22540077440E+02  0.00000000000E+00 0.  1.
</event>
<event>
 7    1  0.2472338E-008  0.4614232E+02  0.7816164E-02  0.1320468E+00
        -11   -1    0    0    0    0  0.00000000000E+00  0.00000000000E+00  0.45593999997E+02  0.45594000000E+02  0.51100000000E-03 0.  1.
         11   -1    0    0    0    0 -0.00000000000E+00 -0.00000000000E+00 -0.45593999997E+02  0.45594000000E+02  0.51100000000E-03 0. -1.
    9900012    2    1    2    0    0 -0.69430540650E+01 -0.26647202234E+02  0.35648760367E+02  0.46142317606E+02  0.99999985816E+01 0.  0.
         12    1    1    2    0    0  0.69430540650E+01  0.26647202234E+02 -0.35648760367E+02  0.45045682394E+02  0.00000000000E+00 0. -1.
         11    1    3    3    0    0  0.58233346844E+00 -0.10033837266E+01  0.18125552885E+01  0.21520334817E+01  0.51100000000E-03 0. -1.
        -11    1    3    3    0    0 -0.33508523909E-01 -0.10346730270E+02  0.81567730832E+01  0.13175313943E+02  0.51100000000E-03 0.  1.
         12    1    3    3    0    0 -0.74918790095E+01 -0.15297088238E+02  0.25679431995E+02  0.30814970181E+02  0.00000000000E+00 0. -1.
</event>
<event>
 7    1  0.2472338E-008  0.4614232E+02  0.7816164E-02  0.1320468E+00
        -11   -1    0    0    0    0  0.00000000000E+00  0.00000000000E+00  0.45593999997E+02  0.45594000000E+02  0.51100000000E-03 0. -1.
         11   -1    0    0    0    0 -0.00000000000E+00 -0.00000000000E+00 -0.45593999997E+02  0.45594000000E+02  0.51100000000E-03 0.  1.
    9900012    2    1    2    0    0  0.60735168806E+01  0.16451141563E+02 -0.41491996440E+02  0.46142318358E+02  0.10000005439E+02 0.  0.
         12    1    1    2    0    0 -0.60735168806E+01 -0.16451141563E+02  0.41491996440E+02  0.45045681642E+02  0.00000000000E+00 0. -1.
         11    1    3    3    0    0 -0.22378780234E+01  0.42246999493E+01 -0.10691713930E+02  0.11711914221E+02  0.51100000000E-03 0. -1.
        -11    1    3    3    0    0  0.61897395094E+01  0.57880941456E+01 -0.14821647390E+02  0.17073258056E+02  0.51100000000E-03 0.  1.
         12    1    3    3    0    0  0.21216553946E+01  0.64383474681E+01 -0.15978635121E+02  0.17357146080E+02  0.00000000000E+00 0. -1.
</event>
<event>
 7    1  0.2472338E-008  0.4614232E+02  0.7816164E-02  0.1320468E+00
        -11   -1    0    0    0    0  0.00000000000E+00  0.00000000000E+00  0.45593999997E+02  0.45594000000E+02  0.51100000000E-03 0.  1.
         11   -1    0    0    0    0 -0.00000000000E+00 -0.00000000000E+00 -0.45593999997E+02  0.45594000000E+02  0.51100000000E-03 0. -1.
    9900012    2    1    2    0    0 -0.30338700493E+02  0.27475642055E+02  0.18808663147E+02  0.46142318039E+02  0.10000002532E+02 0.  0.
         12    1    1    2    0    0  0.30338700493E+02 -0.27475642055E+02 -0.18808663147E+02  0.45045681961E+02  0.00000000000E+00 0. -1.
         11    1    3    3    0    0 -0.26774647478E+01  0.32237557403E+01  0.45157260250E+01  0.61606168800E+01  0.51100000000E-03 0. -1.
        -11    1    3    3    0    0 -0.22871092630E+01  0.33693519604E+01 -0.17404488557E+00  0.40759898549E+01  0.51100000000E-03 0.  1.
        -12    1    3    3    0    0 -0.25374126482E+02  0.20882534355E+02  0.14466982008E+02  0.35905711304E+02  0.00000000000E+00 0.  1.
</event>
<event>
 7    1  0.2472338E-008  0.4614232E+02  0.7816164E-02  0.1320468E+00
        -11   -1    0    0    0    0  0.00000000000E+00  0.00000000000E+00  0.45593999997E+02  0.45594000000E+02  0.51100000000E-03 0.  1.
         11   -1    0    0    0    0 -0.00000000000E+00 -0.00000000000E+00 -0.45593999997E+02  0.45594000000E+02  0.51100000000E-03 0. -1.
    9900012    2    1    2    0    0 -0.49486052317E+01  0.14298843288E+02  0.42428386383E+02  0.46142316698E+02  0.99999903066E+01 0.  0.
         12    1    1    2    0    0  0.49486052317E+01 -0.14298843288E+02 -0.42428386383E+02  0.45045683302E+02  0.00000000000E+00 0. -1.
         11    1    3    3    0    0  0.20866668425E+01  0.25614359121E+01  0.13052971983E+02  0.13464590981E+02  0.51100000000E-03 0. -1.
        -11    1    3    3    0    0 -0.48711204062E+01  0.46607758211E+01  0.11489589293E+02  0.13321460417E+02  0.51100000000E-03 0.  1.
        -12    1    3    3    0    0 -0.21641516680E+01  0.70766315544E+01  0.17885825107E+02  0.19356265300E+02  0.00000000000E+00 0.  1.
</event>
<event>
 7    1  0.2472338E-008  0.4614232E+02  0.7816164E-02  0.1320468E+00
        -11   -1    0    0    0    0  0.00000000000E+00  0.00000000000E+00  0.45593999997E+02  0.45594000000E+02  0.51100000000E-03 0. -1.
         11   -1    0    0    0    0 -0.00000000000E+00 -0.00000000000E+00 -0.45593999997E+02  0.45594000000E+02  0.51100000000E-03 0.  1.
    9900012    2    1    2    0    0  0.32925444606E+02 -0.29112359885E+02 -0.98741450782E+01  0.46142321610E+02  0.10000035097E+02 0.  0.
         12    1    1    2    0    0 -0.32925444606E+02  0.29112359885E+02  0.98741450782E+01  0.45045678390E+02  0.00000000000E+00 0. -1.
         11    1    3    3    0    0  0.34740541057E+01 -0.46101295328E+01 -0.46533112702E+01  0.74145567822E+01  0.51100000000E-03 0. -1.
        -11    1    3    3    0    0  0.86918339942E+01 -0.78178043188E+01 -0.67980378165E+00  0.11710174038E+02  0.51100000000E-03 0.  1.
         12    1    3    3    0    0  0.20759556506E+02 -0.16684426033E+02 -0.45410300264E+01  0.27017590790E+02  0.00000000000E+00 0. -1.
</event>
<event>
 7    1  0.2472338E-008  0.4614232E+02  0.7816164E-02  0.1320468E+00
        -11   -1    0    0    0    0  0.00000000000E+00  0.00000000000E+00  0.45593999997E+02  0.45594000000E+02  0.51100000000E-03 0.  1.
         11   -1    0    0    0    0 -0.00000000000E+00 -0.00000000000E+00 -0.45593999997E+02  0.45594000000E+02  0.51100000000E-03 0. -1.
    9900012    2    1    2    0    0 -0.16628097056E+02  0.70953246199E+01  0.41258650606E+02  0.46142317710E+02  0.99999995326E+01 0.  0.
         12    1    1    2    0    0  0.16628097056E+02 -0.70953246199E+01 -0.41258650606E+02  0.45045682290E+02  0.00000000000E+00 0. -1.
         11    1    3    3    0    0  0.38241425088E-01  0.94640842942E+00  0.34568443694E+01  0.35842606738E+01  0.51100000000E-03 0. -1.
        -11    1    3    3    0    0 -0.12011527492E+02  0.59862395212E+01  0.33976119659E+02  0.36530652384E+02  0.51100000000E-03 0.  1.
         12    1    3    3    0    0 -0.46548109896E+01  0.16267666933E+00  0.38256865778E+01  0.60274046520E+01  0.00000000000E+00 0. -1.
</event>
<event>
 7    1  0.2472338E-008  0.4614232E+02  0.7816164E-02  0.1320468E+00
        -11   -1    0    0    0    0  0.00000000000E+00  0.00000000000E+00  0.45593999997E+02  0.45594000000E+02  0.51100000000E-03 0.  1.
         11   -1    0    0    0    0 -0.00000000000E+00 -0.00000000000E+00 -0.45593999997E+02  0.45594000000E+02  0.51100000000E-03 0. -1.
    9900012    2    1    2    0    0  0.20149620213E+02 -0.22056268101E+02  0.33713903169E+02  0.46142318474E+02  0.10000006499E+02 0.  0.
         12    1    1    2    0    0 -0.20149620213E+02  0.22056268101E+02 -0.33713903169E+02  0.45045681526E+02  0.00000000000E+00 0. -1.
         11    1    3    3    0    0  0.44535841174E+01 -0.71703527884E+01  0.12318565182E+02  0.14933031139E+02  0.51100000000E-03 0. -1.
        -11    1    3    3    0    0  0.10065376103E+02 -0.11371605773E+02  0.18587322699E+02  0.24002370286E+02  0.51100000000E-03 0.  1.
        -12    1    3    3    0    0  0.56306599925E+01 -0.35143095396E+01  0.28080152876E+01  0.72069170487E+01  0.00000000000E+00 0.  1.
</event>
<event>
 7    1  0.2472338E-008  0.4614232E+02  0.7816164E-02  0.1320468E+00
        -11   -1    0    0    0    0  0.00000000000E+00  0.00000000000E+00  0.45593999997E+02  0.45594000000E+02  0.51100000000E-03 0.  1.
         11   -1    0    0    0    0 -0.00000000000E+00 -0.00000000000E+00 -0.45593999997E+02  0.45594000000E+02  0.51100000000E-03 0. -1.
    9900012    2    1    2    0    0 -0.48699839728E+01  0.25069239274E+02  0.37107008033E+02  0.46142317112E+02  0.99999940827E+01 0.  0.
         12    1    1    2    0    0  0.48699839728E+01 -0.25069239274E+02 -0.37107008033E+02  0.45045682888E+02  0.00000000000E+00 0. -1.
         11    1    3    3    0    0  0.53412828019E+00  0.31140588844E+01  0.87865823014E+01  0.93373810330E+01  0.51100000000E-03 0. -1.
        -11    1    3    3    0    0 -0.63344605198E+01  0.20925648014E+02  0.27689702888E+02  0.35280699839E+02  0.51100000000E-03 0.  1.
         12    1    3    3    0    0  0.93034826678E+00  0.10295323749E+01  0.63072284423E+00  0.15242362398E+01  0.00000000000E+00 0. -1.
</event>
<event>
 7    1  0.2472338E-008  0.4614232E+02  0.7816164E-02  0.1320468E+00
        -11   -1    0    0    0    0  0.00000000000E+00  0.00000000000E+00  0.45593999997E+02  0.45594000000E+02  0.51100000000E-03 0. -1.
         11   -1    0    0    0    0 -0.00000000000E+00 -0.00000000000E+00 -0.45593999997E+02  0.45594000000E+02  0.51100000000E-03 0.  1.
    9900012    2    1    2    0    0  0.29848551628E+02 -0.18076239653E+02 -0.28485558420E+02  0.46142317490E+02  0.99999975283E+01 0.  0.
         12    1    1    2    0    0 -0.29848551628E+02  0.18076239653E+02  0.28485558420E+02  0.45045682510E+02  0.00000000000E+00 0. -1.
         11    1    3    3    0    0  0.16885323996E+02 -0.13914690543E+02 -0.14956907755E+02  0.26503619927E+02  0.51100000000E-03 0.  1.
        -11    1    3    3    0    0  0.12430494162E+02 -0.47388156489E+01 -0.13321177303E+02  0.18826240301E+02  0.51100000000E-03 0. -1.
        -12    1    3    3    0    0  0.53273347013E+00  0.57726653893E+00 -0.20747336118E+00  0.81245726211E+00  0.00000000000E+00 0.  1.
</event>
<event>
 7    1  0.2472338E-008  0.4614232E+02  0.7816164E-02  0.1320468E+00
        -11   -1    0    0    0    0  0.00000000000E+00  0.00000000000E+00  0.45593999997E+02  0.45594000000E+02  0.51100000000E-03 0. -1.
         11   -1    0    0    0    0 -0.00000000000E+00 -0.00000000000E+00 -0.45593999997E+02  0.45594000000E+02  0.51100000000E-03 0.  1.
    9900012    2    1    2    0    0 -0.42640129706E+02  0.13126287435E+02  0.62155801210E+01  0.46142317417E+02  0.99999968582E+01 0.  0.
         12    1    1    2    0    0  0.42640129706E+02 -0.13126287435E+02 -0.62155801210E+01  0.45045682583E+02  0.00000000000E+00 0. -1.
         11    1    3    3    0    0 -0.19008859546E+02  0.59555263404E+01  0.39164238627E+01  0.20301315508E+02  0.51100000000E-03 0. -1.
        -11    1    3    3    0    0 -0.17486987392E+02  0.64987207794E+01 -0.12786076308E+01  0.18699276391E+02  0.51100000000E-03 0.  1.
         12    1    3    3    0    0 -0.61442827683E+01  0.67204031519E+00  0.35777638891E+01  0.71417255176E+01  0.00000000000E+00 0. -1.
</event>
<event>
 7    1  0.2472338E-008  0.4614232E+02  0.7816164E-02  0.1320468E+00
        -11   -1    0    0    0    0  0.00000000000E+00  0.00000000000E+00  0.45593999997E+02  0.45594000000E+02  0.51100000000E-03 0.  1.
         11   -1    0    0    0    0 -0.00000000000E+00 -0.00000000000E+00 -0.45593999997E+02  0.45594000000E+02  0.51100000000E-03 0. -1.
    9900012    2    1    2    0    0  0.58704663959E+00  0.24939470145E+02  0.37507221623E+02  0.46142317979E+02  0.10000001987E+02 0.  0.
         12    1    1    2    0    0 -0.58704663959E+00 -0.24939470145E+02 -0.37507221623E+02  0.45045682021E+02  0.00000000000E+00 0. -1.
         11    1    3    3    0    0  0.90334654157E+00  0.93514254377E+01  0.22432651260E+02  0.24320547599E+02  0.51100000000E-03 0. -1.
        -11    1    3    3    0    0 -0.24660826966E+00  0.10078062128E+01  0.33790800067E+00  0.10911787568E+01  0.51100000000E-03 0.  1.
        -12    1    3    3    0    0 -0.69691632327E-01  0.14580238495E+02  0.14736662362E+02  0.20730591624E+02  0.00000000000E+00 0.  1.
</event>
<event>
 7    1  0.2472338E-008  0.4614232E+02  0.7816164E-02  0.1320468E+00
        -11   -1    0    0    0    0  0.00000000000E+00  0.00000000000E+00  0.45593999997E+02  0.45594000000E+02  0.51100000000E-03 0. -1.
         11   -1    0    0    0    0 -0.00000000000E+00 -0.00000000000E+00 -0.45593999997E+02  0.45594000000E+02  0.51100000000E-03 0.  1.
    9900012    2    1    2    0    0  0.21905600691E+02 -0.22408748669E+02 -0.32359017669E+02  0.46142318931E+02  0.10000010665E+02 0.  0.
         12    1    1    2    0    0 -0.21905600691E+02  0.22408748669E+02  0.32359017669E+02  0.45045681069E+02  0.00000000000E+00 0. -1.
         11    1    3    3    0    0  0.12415239560E+01 -0.13422588721E+01 -0.62605744941E+00  0.19326119124E+01  0.51100000000E-03 0. -1.
        -11    1    3    3    0    0  0.17828126437E+02 -0.20625188181E+02 -0.30928984454E+02  0.41229146964E+02  0.51100000000E-03 0.  1.
        -12    1    3    3    0    0  0.28359502978E+01 -0.44130161592E+00 -0.80397576529E+00  0.29805600546E+01  0.00000000000E+00 0.  1.
</event>
<event>
 7    1  0.2472338E-008  0.4614232E+02  0.7816164E-02  0.1320468E+00
        -11   -1    0    0    0    0  0.00000000000E+00  0.00000000000E+00  0.45593999997E+02  0.45594000000E+02  0.51100000000E-03 0.  1.
         11   -1    0    0    0    0 -0.00000000000E+00 -0.00000000000E+00 -0.45593999997E+02  0.45594000000E+02  0.51100000000E-03 0. -1.
    9900012    2    1    2    0    0 -0.41935745634E+02  0.16165830407E+02 -0.30286318374E+01  0.46142318237E+02  0.10000004342E+02 0.  0.
         12    1    1    2    0    0  0.41935745634E+02 -0.16165830407E+02  0.30286318374E+01  0.45045681763E+02  0.00000000000E+00 0. -1.
         11    1    3    3    0    0 -0.19332297958E+01  0.20776790423E+01 -0.80729969521E+00  0.29505695561E+01  0.51100000000E-03 0. -1.
        -11    1    3    3    0    0 -0.58529332158E+01  0.25491527085E+01  0.24622708010E+01  0.68423522650E+01  0.51100000000E-03 0.  1.
         12    1    3    3    0    0 -0.34149582623E+02  0.11538998657E+02 -0.46836029432E+01  0.36349396416E+02  0.00000000000E+00 0. -1.
</event>
<event>
 7    1  0.2472338E-008  0.4614232E+02  0.7816164E-02  0.1320468E+00
        -11   -1    0    0    0    0  0.00000000000E+00  0.00000000000E+00  0.45593999997E+02  0.45594000000E+02  0.51100000000E-03 0.  1.
         11   -1    0    0    0    0 -0.00000000000E+00 -0.00000000000E+00 -0.45593999997E+02  0.45594000000E+02  0.51100000000E-03 0. -1.
    9900012    2    1    2    0    0  0.70347938331E-01  0.41413259890E+02  0.17721467372E+02  0.46142318194E+02  0.10000003948E+02 0.  0.
         12    1    1    2    0    0 -0.70347938331E-01 -0.41413259890E+02 -0.17721467372E+02  0.45045681806E+02  0.00000000000E+00 0. -1.
         11    1    3    3    0    0  0.32698384280E+01  0.10825024127E+02  0.36170735153E+01  0.11872498127E+02  0.51100000000E-03 0. -1.
        -11    1    3    3    0    0  0.79016967315E+00  0.13114295442E+02  0.77474582637E+01  0.15252285824E+02  0.51100000000E-03 0.  1.
         12    1    3    3    0    0 -0.39896601628E+01  0.17473940320E+02  0.63569355933E+01  0.19017534242E+02  0.00000000000E+00 0. -1.
</event>
<event>
 7    1  0.2472338E-008  0.4614232E+02  0.7816164E-02  0.1320468E+00
        -11   -1    0    0    0    0  0.00000000000E+00  0.00000000000E+00  0.45593999997E+02  0.45594000000E+02  0.51100000000E-03 0.  1.
         11   -1    0    0    0    0 -0.00000000000E+00 -0.00000000000E+00 -0.45593999997E+02  0.45594000000E+02  0.51100000000E-03 0. -1.
    9900012    2    1    2    0    0  0.31859109183E+02  0.19118162164E+02  0.25467754555E+02  0.46142317803E+02  0.10000000382E+02 0.  0.
         12    1    1    2    0    0 -0.31859109183E+02 -0.19118162164E+02 -0.25467754555E+02  0.45045682197E+02  0.00000000000E+00 0. -1.
         11    1    3    3    0    0  0.69256444007E+01  0.33997085107E+01  0.18581262239E+01  0.79356916301E+01  0.51100000000E-03 0. -1.
        -11    1    3    3    0    0  0.22044278714E+02  0.11679998764E+02  0.20929077460E+02  0.32563766348E+02  0.51100000000E-03 0.  1.
        -12    1    3    3    0    0  0.28891860685E+01  0.40384548897E+01  0.26805508716E+01  0.56428598255E+01  0.00000000000E+00 0.  1.
</event>
<event>
 7    1  0.2472338E-008  0.4614232E+02  0.7816164E-02  0.1320468E+00
        -11   -1    0    0    0    0  0.00000000000E+00  0.00000000000E+00  0.45593999997E+02  0.45594000000E+02  0.51100000000E-03 0.  1.
         11   -1    0    0    0    0 -0.00000000000E+00 -0.00000000000E+00 -0.45593999997E+02  0.45594000000E+02  0.51100000000E-03 0. -1.
    9900012    2    1    2    0    0 -0.38264291059E+02 -0.55740085147E+01  0.23106013466E+02  0.46142318748E+02  0.10000008998E+02 0.  0.
         12    1    1    2    0    0  0.38264291059E+02  0.55740085147E+01 -0.23106013466E+02  0.45045681252E+02  0.00000000000E+00 0. -1.
         11    1    3    3    0    0 -0.11138471704E+02 -0.39033660616E+01  0.92500419572E+01  0.14995502492E+02  0.51100000000E-03 0. -1.
        -11    1    3    3    0    0 -0.13556804293E+02 -0.39647935668E+01  0.66264153005E+01  0.15601791905E+02  0.51100000000E-03 0.  1.
         12    1    3    3    0    0 -0.13569015062E+02  0.22941511136E+01  0.72295562085E+01  0.15545024351E+02  0.00000000000E+00 0. -1.
</event>
<event>
 7    1  0.2472338E-008  0.4614232E+02  0.7816164E-02  0.1320468E+00
        -11   -1    0    0    0    0  0.00000000000E+00  0.00000000000E+00  0.45593999997E+02  0.45594000000E+02  0.51100000000E-03 0. -1.
         11   -1    0    0    0    0 -0.00000000000E+00 -0.00000000000E+00 -0.45593999997E+02  0.45594000000E+02  0.51100000000E-03 0.  1.
    9900012    2    1    2    0    0 -0.50879036456E+01 -0.26269918825E+02 -0.36236970669E+02  0.46142318278E+02  0.10000004709E+02 0.  0.
         12    1    1    2    0    0  0.50879036456E+01  0.26269918825E+02  0.36236970669E+02  0.45045681722E+02  0.00000000000E+00 0. -1.
         11    1    3    3    0    0 -0.25239417189E+01 -0.11763955662E+02 -0.10018923128E+02  0.15656939533E+02  0.51100000000E-03 0. -1.
        -11    1    3    3    0    0  0.15784435584E+00 -0.25007467492E+01 -0.88459411195E+01  0.91939830158E+01  0.51100000000E-03 0.  1.
        -12    1    3    3    0    0 -0.27218062826E+01 -0.12005216414E+02 -0.17372106421E+02  0.21291395729E+02  0.00000000000E+00 0.  1.
</event>
<event>
 7    1  0.2472338E-008  0.4614231E+02  0.7816164E-02  0.1320468E+00
        -11   -1    0    0    0    0  0.00000000000E+00  0.00000000000E+00  0.45593999997E+02  0.45594000000E+02  0.51100000000E-03 0.  1.
         11   -1    0    0    0    0 -0.00000000000E+00 -0.00000000000E+00 -0.45593999997E+02  0.45594000000E+02  0.51100000000E-03 0. -1.
    9900012    2    1    2    0    0  0.25816863135E+02  0.60740752784E+01  0.36410295019E+02  0.46142307687E+02  0.99999081365E+01 0.  0.
         12    1    1    2    0    0 -0.25816863135E+02 -0.60740752784E+01 -0.36410295019E+02  0.45045692313E+02  0.00000000000E+00 0. -1.
         11    1    3    3    0    0  0.14017037391E+01 -0.12848546172E+01  0.13167067028E+01  0.23128643630E+01  0.51100000000E-03 0. -1.
        -11    1    3    3    0    0  0.15151094669E+02  0.64446699412E+01  0.26269123029E+02  0.31002520306E+02  0.51100000000E-03 0.  1.
         12    1    3    3    0    0  0.92640647266E+01  0.91425995433E+00  0.88244652864E+01  0.12826923018E+02  0.00000000000E+00 0. -1.
</event>
<event>
 7    1  0.2472338E-008  0.4614232E+02  0.7816164E-02  0.1320468E+00
        -11   -1    0    0    0    0  0.00000000000E+00  0.00000000000E+00  0.45593999997E+02  0.45594000000E+02  0.51100000000E-03 0. -1.
         11   -1    0    0    0    0 -0.00000000000E+00 -0.00000000000E+00 -0.45593999997E+02  0.45594000000E+02  0.51100000000E-03 0.  1.
    9900012    2    1    2    0    0 -0.15994105448E+01 -0.35211240166E+02  0.28048595453E+02  0.46142320352E+02  0.10000023623E+02 0.  0.
         12    1    1    2    0    0  0.15994105448E+01  0.35211240166E+02 -0.28048595453E+02  0.45045679648E+02  0.00000000000E+00 0. -1.
         11    1    3    3    0    0 -0.52743584509E+00 -0.83848708450E+01  0.10179271223E+02  0.13198553351E+02  0.51100000000E-03 0. -1.
        -11    1    3    3    0    0 -0.95303445612E+00 -0.19890844374E+02  0.16527126516E+02  0.25878560155E+02  0.51100000000E-03 0.  1.
         12    1    3    3    0    0 -0.11894024362E+00 -0.69355249470E+01  0.13421977142E+01  0.70652068460E+01  0.00000000000E+00 0. -1.
</event>
<event>
 7    1  0.2472338E-008  0.4614232E+02  0.7816164E-02  0.1320468E+00
        -11   -1    0    0    0    0  0.00000000000E+00  0.00000000000E+00  0.45593999997E+02  0.45594000000E+02  0.51100000000E-03 0. -1.
         11   -1    0    0    0    0 -0.00000000000E+00 -0.00000000000E+00 -0.45593999997E+02  0.45594000000E+02  0.51100000000E-03 0.  1.
    9900012    2    1    2    0    0  0.18939667867E+02  0.40497833080E+02 -0.55070823325E+01  0.46142318088E+02  0.10000002983E+02 0.  0.
         12    1    1    2    0    0 -0.18939667867E+02 -0.40497833080E+02  0.55070823325E+01  0.45045681912E+02  0.00000000000E+00 0. -1.
         11    1    3    3    0    0  0.14455181357E+02  0.23108151473E+02 -0.32229446840E+01  0.27446790436E+02  0.51100000000E-03 0. -1.
        -11    1    3    3    0    0  0.45821552572E+01  0.17634031033E+02 -0.20346181320E+01  0.18332890347E+02  0.51100000000E-03 0.  1.
        -12    1    3    3    0    0 -0.97668746844E-01 -0.24434942586E+00 -0.24951951647E+00  0.36263730521E+00  0.00000000000E+00 0.  1.
</event>
<event>
 7    1  0.2472338E-008  0.4614232E+02  0.7816164E-02  0.1320468E+00
        -11   -1    0    0    0    0  0.00000000000E+00  0.00000000000E+00  0.45593999997E+02  0.45594000000E+02  0.51100000000E-03 0. -1.
         11   -1    0    0    0    0 -0.00000000000E+00 -0.00000000000E+00 -0.45593999997E+02  0.45594000000E+02  0.51100000000E-03 0.  1.
    9900012    2    1    2    0    0 -0.90624339698E+01 -0.20766339223E+02 -0.38932568982E+02  0.46142317835E+02  0.10000000671E+02 0.  0.
         12    1    1    2    0    0  0.90624339698E+01  0.20766339223E+02  0.38932568982E+02  0.45045682165E+02  0.00000000000E+00 0. -1.
         11    1    3    3    0    0 -0.42903281313E+01 -0.18190735207E+02 -0.31002950328E+02  0.36200727784E+02  0.51100000000E-03 0. -1.
        -11    1    3    3    0    0 -0.78938605534E+00 -0.15044519996E+01 -0.34920668604E+01  0.38834311352E+01  0.51100000000E-03 0.  1.
         12    1    3    3    0    0 -0.39827197831E+01 -0.10711520165E+01 -0.44375517942E+01  0.60581589150E+01  0.00000000000E+00 0. -1.
</event>
<event>
 7    1  0.2472338E-008  0.4614232E+02  0.7816164E-02  0.1320468E+00
        -11   -1    0    0    0    0  0.00000000000E+00  0.00000000000E+00  0.45593999997E+02  0.45594000000E+02  0.51100000000E-03 0.  1.
         11   -1    0    0    0    0 -0.00000000000E+00 -0.00000000000E+00 -0.45593999997E+02  0.45594000000E+02  0.51100000000E-03 0. -1.
    9900012    2    1    2    0    0 -0.13238998247E+01  0.39384268838E+02  0.21822925844E+02  0.46142318353E+02  0.10000005397E+02 0.  0.
         12    1    1    2    0    0  0.13238998247E+01 -0.39384268838E+02 -0.21822925844E+02  0.45045681647E+02  0.00000000000E+00 0. -1.
         11    1    3    3    0    0 -0.41556833261E+01  0.10370336487E+02  0.49568304722E+01  0.12222264575E+02  0.51100000000E-03 0. -1.
        -11    1    3    3    0    0 -0.10312461915E+01  0.52010558028E+01  0.28487825161E+01  0.60191371688E+01  0.51100000000E-03 0.  1.
         12    1    3    3    0    0  0.38630296929E+01  0.23812876549E+02  0.14017312856E+02  0.27900916609E+02  0.00000000000E+00 0. -1.
</event>
<event>
 7    1  0.2472338E-008  0.4614232E+02  0.7816164E-02  0.1320468E+00
        -11   -1    0    0    0    0  0.00000000000E+00  0.00000000000E+00  0.45593999997E+02  0.45594000000E+02  0.51100000000E-03 0.  1.
         11   -1    0    0    0    0 -0.00000000000E+00 -0.00000000000E+00 -0.45593999997E+02  0.45594000000E+02  0.51100000000E-03 0. -1.
    9900012    2    1    2    0    0  0.64483719255E+01 -0.38187092054E+02 -0.23006042364E+02  0.46142317795E+02  0.10000000309E+02 0.  0.
         12    1    1    2    0    0 -0.64483719255E+01  0.38187092054E+02  0.23006042364E+02  0.45045682205E+02  0.00000000000E+00 0. -1.
         11    1    3    3    0    0 -0.83411014912E+00 -0.58506671080E+00 -0.12149875830E+01  0.15856348524E+01  0.51100000000E-03 0. -1.
        -11    1    3    3    0    0  0.55211124529E+00 -0.13908262381E+02 -0.51993906578E+01  0.14858608708E+02  0.51100000000E-03 0.  1.
        -12    1    3    3    0    0  0.67303708293E+01 -0.23693762963E+02 -0.16591664123E+02  0.29698074234E+02  0.00000000000E+00 0.  1.
</event>
<event>
 7    1  0.2472338E-008  0.4614232E+02  0.7816164E-02  0.1320468E+00
        -11   -1    0    0    0    0  0.00000000000E+00  0.00000000000E+00  0.45593999997E+02  0.45594000000E+02  0.51100000000E-03 0.  1.
         11   -1    0    0    0    0 -0.00000000000E+00 -0.00000000000E+00 -0.45593999997E+02  0.45594000000E+02  0.51100000000E-03 0. -1.
    9900012    2    1    2    0    0  0.30218591211E+02 -0.79838496670E+01  0.32437760670E+02  0.46142318436E+02  0.10000006155E+02 0.  0.
         12    1    1    2    0    0 -0.30218591211E+02  0.79838496670E+01 -0.32437760670E+02  0.45045681564E+02  0.00000000000E+00 0. -1.
         11    1    3    3    0    0  0.12855047676E+02 -0.17022796802E+01  0.15136513577E+02  0.19931483899E+02  0.51100000000E-03 0. -1.
        -11    1    3    3    0    0  0.47940187024E+01 -0.32013967242E+01  0.94635060504E+01  0.11081042520E+02  0.51100000000E-03 0.  1.
         12    1    3    3    0    0  0.12569524833E+02 -0.30801732626E+01  0.78377410420E+01  0.15129792017E+02  0.00000000000E+00 0. -1.
</event>
<event>
 7    1  0.2472338E-008  0.4614232E+02  0.7816164E-02  0.1320468E+00
        -11   -1    0    0    0    0  0.00000000000E+00  0.00000000000E+00  0.45593999997E+02  0.45594000000E+02  0.51100000000E-03 0.  1.
         11   -1    0    0    0    0 -0.00000000000E+00 -0.00000000000E+00 -0.45593999997E+02  0.45594000000E+02  0.51100000000E-03 0. -1.
    9900012    2    1    2    0    0  0.42425408310E+02 -0.13102253092E+02  0.75847946875E+01  0.46142318556E+02  0.10000007246E+02 0.  0.
         12    1    1    2    0    0 -0.42425408310E+02  0.13102253092E+02 -0.75847946875E+01  0.45045681444E+02  0.00000000000E+00 0. -1.
         11    1    3    3    0    0  0.29144186742E+01 -0.11757971428E+01  0.14558502361E+01  0.34635004404E+01  0.51100000000E-03 0. -1.
        -11    1    3    3    0    0  0.14772097784E+02 -0.80998224684E+01  0.51891711798E+01  0.17628088233E+02  0.51100000000E-03 0.  1.
        -12    1    3    3    0    0  0.24738891851E+02 -0.38266334811E+01  0.93977327152E+00  0.25050729882E+02  0.00000000000E+00 0.  1.
</event>
<event>
 7    1  0.2472338E-008  0.4614232E+02  0.7816164E-02  0.1320468E+00
        -11   -1    0    0    0    0  0.00000000000E+00  0.00000000000E+00  0.45593999997E+02  0.45594000000E+02  0.51100000000E-03 0. -1.
         11   -1    0    0    0    0 -0.00000000000E+00 -0.00000000000E+00 -0.45593999997E+02  0.45594000000E+02  0.51100000000E-03 0.  1.
    9900012    2    1    2    0    0  0.34085003463E+02 -0.21359566070E+02 -0.20275476366E+02  0.46142318013E+02  0.10000002299E+02 0.  0.
         12    1    1    2    0    0 -0.34085003463E+02  0.21359566070E+02  0.20275476366E+02  0.45045681987E+02  0.00000000000E+00 0. -1.
         11    1    3    3    0    0  0.67673944576E+01 -0.47693583164E+00 -0.28454788513E+01  0.73567551058E+01  0.51100000000E-03 0. -1.
        -11    1    3    3    0    0  0.84089447786E+01 -0.40801926844E+01 -0.50360543360E+01  0.10616975472E+02  0.51100000000E-03 0.  1.
         12    1    3    3    0    0  0.18908664227E+02 -0.16802437554E+02 -0.12393943179E+02  0.28168587436E+02  0.00000000000E+00 0. -1.
</event>
<event>
 7    1  0.2472338E-008  0.4614232E+02  0.7816164E-02  0.1320468E+00
        -11   -1    0    0    0    0  0.00000000000E+00  0.00000000000E+00  0.45593999997E+02  0.45594000000E+02  0.51100000000E-03 0.  1.
         11   -1    0    0    0    0 -0.00000000000E+00 -0.00000000000E+00 -0.45593999997E+02  0.45594000000E+02  0.51100000000E-03 0. -1.
    9900012    2    1    2    0    0 -0.19663557545E+02 -0.44943621711E+01  0.40277272159E+02  0.46142318306E+02  0.10000004970E+02 0.  0.
         12    1    1    2    0    0  0.19663557545E+02  0.44943621711E+01 -0.40277272159E+02  0.45045681694E+02  0.00000000000E+00 0. -1.
         11    1    3    3    0    0 -0.41869993896E+01 -0.22903581628E+01  0.55439258630E+01  0.73151772801E+01  0.51100000000E-03 0. -1.
        -11    1    3    3    0    0 -0.34700832219E+01  0.12973634094E+01  0.15107325621E+02  0.15554932242E+02  0.51100000000E-03 0.  1.
        -12    1    3    3    0    0 -0.12006474934E+02 -0.35013674177E+01  0.19626020676E+02  0.23272208784E+02  0.00000000000E+00 0.  1.
</event>
<event>
 7    1  0.2472338E-008  0.4614232E+02  0.7816164E-02  0.1320468E+00
        -11   -1    0    0    0    0  0.00000000000E+00  0.00000000000E+00  0.45593999997E+02  0.45594000000E+02  0.51100000000E-03 0.  1.
         11   -1    0    0    0    0 -0.00000000000E+00 -0.00000000000E+00 -0.45593999997E+02  0.45594000000E+02  0.51100000000E-03 0. -1.
    9900012    2    1    2    0    0 -0.22288541970E+02  0.38718654337E+02  0.57619641826E+01  0.46142317320E+02  0.99999959809E+01 0.  0.
         12    1    1    2    0    0  0.22288541970E+02 -0.38718654337E+02 -0.57619641826E+01  0.45045682680E+02  0.00000000000E+00 0. -1.
         11    1    3    3    0    0 -0.40417835508E+01  0.10692951948E+02 -0.12761773152E+01  0.11502341693E+02  0.51100000000E-03 0. -1.
        -11    1    3    3    0    0 -0.28514080801E+01  0.54116330820E+01 -0.83219904466E+00  0.61732370896E+01  0.51100000000E-03 0.  1.
        -12    1    3    3    0    0 -0.15395350339E+02  0.22614069307E+02  0.78703405424E+01  0.28466738538E+02  0.00000000000E+00 0.  1.
</event>
<event>
 7    1  0.2472338E-008  0.4614231E+02  0.7816164E-02  0.1320468E+00
        -11   -1    0    0    0    0  0.00000000000E+00  0.00000000000E+00  0.45593999997E+02  0.45594000000E+02  0.51100000000E-03 0.  1.
         11   -1    0    0    0    0 -0.00000000000E+00 -0.00000000000E+00 -0.45593999997E+02  0.45594000000E+02  0.51100000000E-03 0. -1.
    9900012    2    1    2    0    0  0.36106513854E+02 -0.10573277629E+02  0.24771743098E+02  0.46142314317E+02  0.99999685966E+01 0.  0.
         12    1    1    2    0    0 -0.36106513854E+02  0.10573277629E+02 -0.24771743098E+02  0.45045685683E+02  0.00000000000E+00 0. -1.
         11    1    3    3    0    0  0.93248034337E+01 -0.57795080132E+01  0.51922508677E+01  0.12137303707E+02  0.51100000000E-03 0. -1.
        -11    1    3    3    0    0  0.42237561239E+01 -0.25459682132E+01  0.20169288509E+01  0.53282334960E+01  0.51100000000E-03 0.  1.
         12    1    3    3    0    0  0.22557954297E+02 -0.22478014022E+01  0.17562563379E+02  0.28676777114E+02  0.00000000000E+00 0. -1.
</event>
<event>
 7    1  0.2472338E-008  0.4614232E+02  0.7816164E-02  0.1320468E+00
        -11   -1    0    0    0    0  0.00000000000E+00  0.00000000000E+00  0.45593999997E+02  0.45594000000E+02  0.51100000000E-03 0.  1.
         11   -1    0    0    0    0 -0.00000000000E+00 -0.00000000000E+00 -0.45593999997E+02  0.45594000000E+02  0.51100000000E-03 0. -1.
    9900012    2    1    2    0    0 -0.36376301505E+02 -0.15351841037E+02  0.21684074508E+02  0.46142318502E+02  0.10000006754E+02 0.  0.
         12    1    1    2    0    0  0.36376301505E+02  0.15351841037E+02 -0.21684074508E+02  0.45045681498E+02  0.00000000000E+00 0. -1.
         11    1    3    3    0    0 -0.87024039839E+00  0.71844531395E+00  0.96986900584E+00  0.14879946807E+01  0.51100000000E-03 0. -1.
        -11    1    3    3    0    0 -0.21526736475E+02 -0.11172271108E+02  0.93842500637E+01  0.26005464320E+02  0.51100000000E-03 0.  1.
         12    1    3    3    0    0 -0.13979324631E+02 -0.48980152435E+01  0.11329955438E+02  0.18648859501E+02  0.00000000000E+00 0. -1.
</event>
<event>
 7    1  0.2472338E-008  0.4614231E+02  0.7816164E-02  0.1320468E+00
        -11   -1    0    0    0    0  0.00000000000E+00  0.00000000000E+00  0.45593999997E+02  0.45594000000E+02  0.51100000000E-03 0.  1.
         11   -1    0    0    0    0 -0.00000000000E+00 -0.00000000000E+00 -0.45593999997E+02  0.45594000000E+02  0.51100000000E-03 0. -1.
    9900012    2    1    2    0    0  0.36605149243E+02 -0.25525783059E+01  0.26127785633E+02  0.46142314422E+02  0.99999695477E+01 0.  0.
         12    1    1    2    0    0 -0.36605149243E+02  0.25525783059E+01 -0.26127785633E+02  0.45045685578E+02  0.00000000000E+00 0. -1.
         11    1    3    3    0    0  0.58112388034E+01  0.85738215746E+00  0.66139554655E+01  0.88459034448E+01  0.51100000000E-03 0. -1.
        -11    1    3    3    0    0  0.19350489780E+02  0.13349462510E+00  0.15041560628E+02  0.24509341524E+02  0.51100000000E-03 0.  1.
         12    1    3    3    0    0  0.11443420660E+02 -0.35434550885E+01  0.44722695400E+01  0.12787069453E+02  0.00000000000E+00 0. -1.
</event>
<event>
 7    1  0.2472338E-008  0.4614232E+02  0.7816164E-02  0.1320468E+00
        -11   -1    0    0    0    0  0.00000000000E+00  0.00000000000E+00  0.45593999997E+02  0.45594000000E+02  0.51100000000E-03 0.  1.
         11   -1    0    0    0    0 -0.00000000000E+00 -0.00000000000E+00 -0.45593999997E+02  0.45594000000E+02  0.51100000000E-03 0. -1.
    9900012    2    1    2    0    0 -0.17835278718E+02 -0.40438912011E+02  0.87011911949E+01  0.46142317634E+02  0.99999988409E+01 0.  0.
         12    1    1    2    0    0  0.17835278718E+02  0.40438912011E+02 -0.87011911949E+01  0.45045682366E+02  0.00000000000E+00 0. -1.
         11    1    3    3    0    0 -0.48089863727E-01 -0.37712511255E+01  0.23567446390E+01  0.44473467642E+01  0.51100000000E-03 0. -1.
        -11    1    3    3    0    0 -0.94296179172E+00 -0.65118019588E+01  0.21921451493E-01  0.65797585444E+01  0.51100000000E-03 0.  1.
         12    1    3    3    0    0 -0.16844227063E+02 -0.30155858927E+02  0.63225251044E+01  0.35115212325E+02  0.00000000000E+00 0. -1.
</event>
<event>
 7    1  0.2472338E-008  0.4614232E+02  0.7816164E-02  0.1320468E+00
        -11   -1    0    0    0    0  0.00000000000E+00  0.00000000000E+00  0.45593999997E+02  0.45594000000E+02  0.51100000000E-03 0.  1.
         11   -1    0    0    0    0 -0.00000000000E+00 -0.00000000000E+00 -0.45593999997E+02  0.45594000000E+02  0.51100000000E-03 0. -1.
    9900012    2    1    2    0    0 -0.30542170856E+02  0.26659740734E+02  0.19635362450E+02  0.46142318352E+02  0.10000005386E+02 0.  0.
         12    1    1    2    0    0  0.30542170856E+02 -0.26659740734E+02 -0.19635362450E+02  0.45045681648E+02  0.00000000000E+00 0. -1.
         11    1    3    3    0    0 -0.18274613156E+02  0.16371491259E+02  0.13649774907E+02  0.28076744243E+02  0.51100000000E-03 0. -1.
        -11    1    3    3    0    0 -0.12790326550E+02  0.10226527454E+02  0.61815501245E+01  0.17503881833E+02  0.51100000000E-03 0.  1.
         12    1    3    3    0    0  0.52276885017E+00  0.61722021149E-01 -0.19596258137E+00  0.56169227509E+00  0.00000000000E+00 0. -1.
</event>
<event>
 7    1  0.2472338E-008  0.4614232E+02  0.7816164E-02  0.1320468E+00
        -11   -1    0    0    0    0  0.00000000000E+00  0.00000000000E+00  0.45593999997E+02  0.45594000000E+02  0.51100000000E-03 0.  1.
         11   -1    0    0    0    0 -0.00000000000E+00 -0.00000000000E+00 -0.45593999997E+02  0.45594000000E+02  0.51100000000E-03 0. -1.
    9900012    2    1    2    0    0  0.32431097497E+02 -0.76871895260E+01  0.30302549800E+02  0.46142317720E+02  0.99999996244E+01 0.  0.
         12    1    1    2    0    0 -0.32431097497E+02  0.76871895260E+01 -0.30302549800E+02  0.45045682280E+02  0.00000000000E+00 0. -1.
         11    1    3    3    0    0  0.74361559125E+01 -0.33470919061E+01  0.84848702934E+01  0.11768282081E+02  0.51100000000E-03 0. -1.
        -11    1    3    3    0    0  0.18473180193E+02 -0.37212943360E+01  0.20202243967E+02  0.27626745729E+02  0.51100000000E-03 0.  1.
         12    1    3    3    0    0  0.65217613911E+01 -0.61880328384E+00  0.16154355399E+01  0.67472899101E+01  0.00000000000E+00 0. -1.
</event>
<event>
 7    1  0.2472338E-008  0.4614232E+02  0.7816164E-02  0.1320468E+00
        -11   -1    0    0    0    0  0.00000000000E+00  0.00000000000E+00  0.45593999997E+02  0.45594000000E+02  0.51100000000E-03 0.  1.
         11   -1    0    0    0    0 -0.00000000000E+00 -0.00000000000E+00 -0.45593999997E+02  0.45594000000E+02  0.51100000000E-03 0. -1.
    9900012    2    1    2    0    0  0.12504709188E+02 -0.12874243146E+02  0.41315854377E+02  0.46142315286E+02  0.99999774319E+01 0.  0.
         12    1    1    2    0    0 -0.12504709188E+02  0.12874243146E+02 -0.41315854377E+02  0.45045684714E+02  0.00000000000E+00 0. -1.
         11    1    3    3    0    0  0.42779608104E+01 -0.11436952258E+01  0.43581656579E+01  0.62130987138E+01  0.51100000000E-03 0. -1.
        -11    1    3    3    0    0  0.55793619898E+01 -0.82584451945E+01  0.19081645624E+02  0.21527665856E+02  0.51100000000E-03 0.  1.
        -12    1    3    3    0    0  0.26473863877E+01 -0.34721027254E+01  0.17876043095E+02  0.18401550716E+02  0.00000000000E+00 0.  1.
</event>
<event>
 7    1  0.2472338E-008  0.4614232E+02  0.7816164E-02  0.1320468E+00
        -11   -1    0    0    0    0  0.00000000000E+00  0.00000000000E+00  0.45593999997E+02  0.45594000000E+02  0.51100000000E-03 0.  1.
         11   -1    0    0    0    0 -0.00000000000E+00 -0.00000000000E+00 -0.45593999997E+02  0.45594000000E+02  0.51100000000E-03 0. -1.
    9900012    2    1    2    0    0  0.19866364522E+02  0.79997553029E+01  0.39628837760E+02  0.46142319780E+02  0.10000018413E+02 0.  0.
         12    1    1    2    0    0 -0.19866364522E+02 -0.79997553029E+01 -0.39628837760E+02  0.45045680220E+02  0.00000000000E+00 0. -1.
         11    1    3    3    0    0  0.49000276031E+01  0.12486903628E+01  0.38194336748E+01  0.63370002359E+01  0.51100000000E-03 0. -1.
        -11    1    3    3    0    0  0.50933841375E+01  0.41425222666E+00  0.15850451554E+02  0.16653857859E+02  0.51100000000E-03 0.  1.
        -12    1    3    3    0    0  0.98729527812E+01  0.63368127135E+01  0.19958952532E+02  0.23151461685E+02  0.00000000000E+00 0.  1.
</event>
<event>
 7    1  0.2472338E-008  0.4614232E+02  0.7816164E-02  0.1320468E+00
        -11   -1    0    0    0    0  0.00000000000E+00  0.00000000000E+00  0.45593999997E+02  0.45594000000E+02  0.51100000000E-03 0. -1.
         11   -1    0    0    0    0 -0.00000000000E+00 -0.00000000000E+00 -0.45593999997E+02  0.45594000000E+02  0.51100000000E-03 0.  1.
    9900012    2    1    2    0    0 -0.37565006533E+02 -0.19668754462E+02 -0.15202756141E+02  0.46142318607E+02  0.10000007710E+02 0.  0.
         12    1    1    2    0    0  0.37565006533E+02  0.19668754462E+02  0.15202756141E+02  0.45045681393E+02  0.00000000000E+00 0. -1.
         11    1    3    3    0    0  0.18718229221E+00 -0.37106385609E+00  0.31037847879E+00  0.51871057155E+00  0.51100000000E-03 0. -1.
        -11    1    3    3    0    0 -0.36663060669E+02 -0.17756355718E+02 -0.13626948122E+02  0.42955347762E+02  0.51100000000E-03 0.  1.
        -12    1    3    3    0    0 -0.10891281562E+01 -0.15413348880E+01 -0.18861864980E+01  0.26682602727E+01  0.00000000000E+00 0.  1.
</event>
<event>
 7    1  0.2472338E-008  0.4614232E+02  0.7816164E-02  0.1320468E+00
        -11   -1    0    0    0    0  0.00000000000E+00  0.00000000000E+00  0.45593999997E+02  0.45594000000E+02  0.51100000000E-03 0. -1.
         11   -1    0    0    0    0 -0.00000000000E+00 -0.00000000000E+00 -0.45593999997E+02  0.45594000000E+02  0.51100000000E-03 0.  1.
    9900012    2    1    2    0    0  0.19835955928E+02 -0.94020514717E+01 -0.39335096413E+02  0.46142317307E+02  0.99999958600E+01 0.  0.
         12    1    1    2    0    0 -0.19835955928E+02  0.94020514717E+01  0.39335096413E+02  0.45045682693E+02  0.00000000000E+00 0. -1.
         11    1    3    3    0    0  0.59795688750E+01 -0.39327474981E+01 -0.10144120999E+02  0.12414706517E+02  0.51100000000E-03 0. -1.
        -11    1    3    3    0    0  0.98990321835E+01 -0.32228717679E+01 -0.11730136378E+02  0.15683553179E+02  0.51100000000E-03 0.  1.
         12    1    3    3    0    0  0.39573548693E+01 -0.22464322058E+01 -0.17460839037E+02  0.18044057611E+02  0.00000000000E+00 0. -1.
</event>
<event>
 7    1  0.2472338E-008  0.4614232E+02  0.7816164E-02  0.1320468E+00
        -11   -1    0    0    0    0  0.00000000000E+00  0.00000000000E+00  0.45593999997E+02  0.45594000000E+02  0.51100000000E-03 0. -1.
         11   -1    0    0    0    0 -0.00000000000E+00 -0.00000000000E+00 -0.45593999997E+02  0.45594000000E+02  0.51100000000E-03 0.  1.
    9900012    2    1    2    0    0  0.38031990496E+02  0.18611799001E+02 -0.15371469333E+02  0.46142318380E+02  0.10000005643E+02 0.  0.
         12    1    1    2    0    0 -0.38031990496E+02 -0.18611799001E+02  0.15371469333E+02  0.45045681620E+02  0.00000000000E+00 0. -1.
         11    1    3    3    0    0  0.20747653549E+02  0.12714943621E+02 -0.81838890902E+01  0.25673156409E+02  0.51100000000E-03 0. -1.
        -11    1    3    3    0    0  0.55637601802E+01  0.86255702077E+00 -0.49939722423E+01  0.75259013397E+01  0.51100000000E-03 0.  1.
         12    1    3    3    0    0  0.11720576767E+02  0.50342983592E+01 -0.21936080006E+01  0.12943260632E+02  0.00000000000E+00 0. -1.
</event>
<event>
 7    1  0.2472338E-008  0.4614233E+02  0.7816164E-02  0.1320468E+00
        -11   -1    0    0    0    0  0.00000000000E+00  0.00000000000E+00  0.45593999997E+02  0.45594000000E+02  0.51100000000E-03 0.  1.
         11   -1    0    0    0    0 -0.00000000000E+00 -0.00000000000E+00 -0.45593999997E+02  0.45594000000E+02  0.51100000000E-03 0. -1.
    9900012    2    1    2    0    0  0.38984763134E+02 -0.62684708442E+00  0.22558989949E+02  0.46142326274E+02  0.10000077630E+02 0.  0.
         12    1    1    2    0    0 -0.38984763134E+02  0.62684708442E+00 -0.22558989949E+02  0.45045673726E+02  0.00000000000E+00 0. -1.
         11    1    3    3    0    0  0.96141190177E+01 -0.21421588617E+01  0.35662147451E+01  0.10475591484E+02  0.51100000000E-03 0. -1.
        -11    1    3    3    0    0  0.12929788120E+02  0.40538181572E+01  0.82683149988E+01  0.15873811630E+02  0.51100000000E-03 0.  1.
         12    1    3    3    0    0  0.16440855996E+02 -0.25385063799E+01  0.10724460206E+02  0.19792923160E+02  0.00000000000E+00 0. -1.
</event>
<event>
 7    1  0.2472338E-008  0.4614232E+02  0.7816164E-02  0.1320468E+00
        -11   -1    0    0    0    0  0.00000000000E+00  0.00000000000E+00  0.45593999997E+02  0.45594000000E+02  0.51100000000E-03 0. -1.
         11   -1    0    0    0    0 -0.00000000000E+00 -0.00000000000E+00 -0.45593999997E+02  0.45594000000E+02  0.51100000000E-03 0.  1.
    9900012    2    1    2    0    0  0.19462651128E+02  0.88777627968E+01 -0.39642200695E+02  0.46142317220E+02  0.99999950617E+01 0.  0.
         12    1    1    2    0    0 -0.19462651128E+02 -0.88777627968E+01  0.39642200695E+02  0.45045682780E+02  0.00000000000E+00 0. -1.
         11    1    3    3    0    0  0.59682573098E+00 -0.11561836730E+01 -0.16875703161E+01  0.21309283122E+01  0.51100000000E-03 0. -1.
        -11    1    3    3    0    0  0.43076929489E+01  0.55871885300E+01 -0.12411014891E+02  0.14276070366E+02  0.51100000000E-03 0.  1.
        -12    1    3    3    0    0  0.14558132448E+02  0.44467579398E+01 -0.25543615488E+02  0.29735318542E+02  0.00000000000E+00 0.  1.
</event>
<event>
 7    1  0.2472338E-008  0.4614232E+02  0.7816164E-02  0.1320468E+00
        -11   -1    0    0    0    0  0.00000000000E+00  0.00000000000E+00  0.45593999997E+02  0.45594000000E+02  0.51100000000E-03 0.  1.
         11   -1    0    0    0    0 -0.00000000000E+00 -0.00000000000E+00 -0.45593999997E+02  0.45594000000E+02  0.51100000000E-03 0. -1.
    9900012    2    1    2    0    0 -0.37787793528E+02  0.10219120588E+02  0.22288245223E+02  0.46142316073E+02  0.99999846102E+01 0.  0.
         12    1    1    2    0    0  0.37787793528E+02 -0.10219120588E+02 -0.22288245223E+02  0.45045683927E+02  0.00000000000E+00 0. -1.
         11    1    3    3    0    0 -0.38392862880E+00 -0.12902928004E+00 -0.57473564221E-01  0.40908827754E+00  0.51100000000E-03 0. -1.
        -11    1    3    3    0    0 -0.13645336733E+02 -0.54530627154E+00  0.60815912336E+01  0.14949191472E+02  0.51100000000E-03 0.  1.
         12    1    3    3    0    0 -0.23758528166E+02  0.10893456139E+02  0.16264127554E+02  0.30784036324E+02  0.00000000000E+00 0. -1.
</event>
<event>
 7    1  0.2472338E-008  0.4614232E+02  0.7816164E-02  0.1320468E+00
        -11   -1    0    0    0    0  0.00000000000E+00  0.00000000000E+00  0.45593999997E+02  0.45594000000E+02  0.51100000000E-03 0. -1.
         11   -1    0    0    0    0 -0.00000000000E+00 -0.00000000000E+00 -0.45593999997E+02  0.45594000000E+02  0.51100000000E-03 0.  1.
    9900012    2    1    2    0    0  0.32567152751E+02  0.91797577854E+01 -0.29735939506E+02  0.46142317748E+02  0.99999998799E+01 0.  0.
         12    1    1    2    0    0 -0.32567152751E+02 -0.91797577854E+01  0.29735939506E+02  0.45045682252E+02  0.00000000000E+00 0. -1.
         11    1    3    3    0    0  0.30551102475E+01 -0.90720284541E+00 -0.56510824675E+01  0.64877923011E+01  0.51100000000E-03 0. -1.
        -11    1    3    3    0    0  0.12915325255E+02  0.62704066477E+01 -0.12714598058E+02  0.19177711803E+02  0.51100000000E-03 0.  1.
        -12    1    3    3    0    0  0.16596717248E+02  0.38165539831E+01 -0.11370258980E+02  0.20476813643E+02  0.00000000000E+00 0.  1.
</event>
<event>
 7    1  0.2472338E-008  0.4614232E+02  0.7816164E-02  0.1320468E+00
        -11   -1    0    0    0    0  0.00000000000E+00  0.00000000000E+00  0.45593999997E+02  0.45594000000E+02  0.51100000000E-03 0.  1.
         11   -1    0    0    0    0 -0.00000000000E+00 -0.00000000000E+00 -0.45593999997E+02  0.45594000000E+02  0.51100000000E-03 0. -1.
    9900012    2    1    2    0    0  0.23886280594E+02 -0.53175612556E+01  0.37819076529E+02  0.46142318655E+02  0.10000008155E+02 0.  0.
         12    1    1    2    0    0 -0.23886280594E+02  0.53175612556E+01 -0.37819076529E+02  0.45045681345E+02  0.00000000000E+00 0. -1.
         11    1    3    3    0    0  0.26707270127E+01 -0.19636916438E+01  0.58260113469E+01  0.67030796000E+01  0.51100000000E-03 0. -1.
        -11    1    3    3    0    0  0.71463905588E+01 -0.33566454950E+01  0.61248804952E+01  0.99926036817E+01  0.51100000000E-03 0.  1.
         12    1    3    3    0    0  0.14069163022E+02  0.27758831227E-02  0.25868184687E+02  0.29446635374E+02  0.00000000000E+00 0. -1.
</event>
<event>
 7    1  0.2472338E-008  0.4614232E+02  0.7816164E-02  0.1320468E+00
        -11   -1    0    0    0    0  0.00000000000E+00  0.00000000000E+00  0.45593999997E+02  0.45594000000E+02  0.51100000000E-03 0. -1.
         11   -1    0    0    0    0 -0.00000000000E+00 -0.00000000000E+00 -0.45593999997E+02  0.45594000000E+02  0.51100000000E-03 0.  1.
    9900012    2    1    2    0    0  0.32581737129E+02  0.30708955703E+02  0.49501468675E+01  0.46142317535E+02  0.99999979407E+01 0.  0.
         12    1    1    2    0    0 -0.32581737129E+02 -0.30708955703E+02 -0.49501468675E+01  0.45045682465E+02  0.00000000000E+00 0. -1.
         11    1    3    3    0    0  0.26786238143E+02  0.24838609592E+02  0.18573764875E+01  0.36577437417E+02  0.51100000000E-03 0. -1.
        -11    1    3    3    0    0  0.53504299722E+01  0.49809621831E+01  0.11740767830E+01  0.74037518671E+01  0.51100000000E-03 0.  1.
         12    1    3    3    0    0  0.44506901353E+00  0.88938392760E+00  0.19186935970E+01  0.21611282508E+01  0.00000000000E+00 0. -1.
</event>
<event>
 7    1  0.2472338E-008  0.4614232E+02  0.7816164E-02  0.1320468E+00
        -11   -1    0    0    0    0  0.00000000000E+00  0.00000000000E+00  0.45593999997E+02  0.45594000000E+02  0.51100000000E-03 0. -1.
         11   -1    0    0    0    0 -0.00000000000E+00 -0.00000000000E+00 -0.45593999997E+02  0.45594000000E+02  0.51100000000E-03 0.  1.
    9900012    2    1    2    0    0  0.14655338210E+02 -0.23640695101E+02 -0.35432354241E+02  0.46142321739E+02  0.10000036271E+02 0.  0.
         12    1    1    2    0    0 -0.14655338210E+02  0.23640695101E+02  0.35432354241E+02  0.45045678261E+02  0.00000000000E+00 0. -1.
         11    1    3    3    0    0 -0.46245988827E+00 -0.19880589749E+01 -0.46413240869E+01  0.50703192381E+01  0.51100000000E-03 0. -1.
        -11    1    3    3    0    0  0.11510184762E+01 -0.18813531814E+01 -0.61342396277E+01  0.65186831030E+01  0.51100000000E-03 0.  1.
         12    1    3    3    0    0  0.13966779622E+02 -0.19771282945E+02 -0.24656790527E+02  0.34553319398E+02  0.00000000000E+00 0. -1.
</event>
<event>
 7    1  0.2472338E-008  0.4614232E+02  0.7816164E-02  0.1320468E+00
        -11   -1    0    0    0    0  0.00000000000E+00  0.00000000000E+00  0.45593999997E+02  0.45594000000E+02  0.51100000000E-03 0. -1.
         11   -1    0    0    0    0 -0.00000000000E+00 -0.00000000000E+00 -0.45593999997E+02  0.45594000000E+02  0.51100000000E-03 0.  1.
    9900012    2    1    2    0    0  0.13338328893E+02  0.38793303501E+02 -0.18608658510E+02  0.46142316680E+02  0.99999901443E+01 0.  0.
         12    1    1    2    0    0 -0.13338328893E+02 -0.38793303501E+02  0.18608658510E+02  0.45045683320E+02  0.00000000000E+00 0. -1.
         11    1    3    3    0    0  0.63494403487E+01  0.13481473027E+02 -0.71506628943E+01  0.16528686814E+02  0.51100000000E-03 0. -1.
        -11    1    3    3    0    0  0.38451825525E+01  0.14688478081E+02 -0.25463548427E+01  0.15395477922E+02  0.51100000000E-03 0.  1.
        -12    1    3    3    0    0  0.31437059923E+01  0.10623352393E+02 -0.89116407730E+01  0.14218151944E+02  0.00000000000E+00 0.  1.
</event>
<event>
 7    1  0.2472338E-008  0.4614232E+02  0.7816164E-02  0.1320468E+00
        -11   -1    0    0    0    0  0.00000000000E+00  0.00000000000E+00  0.45593999997E+02  0.45594000000E+02  0.51100000000E-03 0.  1.
         11   -1    0    0    0    0 -0.00000000000E+00 -0.00000000000E+00 -0.45593999997E+02  0.45594000000E+02  0.51100000000E-03 0. -1.
    9900012    2    1    2    0    0  0.33218627231E+01 -0.23625728908E+02  0.38208686161E+02  0.46142317227E+02  0.99999951255E+01 0.  0.
         12    1    1    2    0    0 -0.33218627231E+01  0.23625728908E+02 -0.38208686161E+02  0.45045682773E+02  0.00000000000E+00 0. -1.
         11    1    3    3    0    0  0.57234304827E+00 -0.11467927401E+02  0.10029241152E+02  0.15245544063E+02  0.51100000000E-03 0. -1.
        -11    1    3    3    0    0 -0.13624644560E+00 -0.34012043066E+01  0.64742282094E+01  0.73145324525E+01  0.51100000000E-03 0.  1.
        -12    1    3    3    0    0  0.28857661204E+01 -0.87565972006E+01  0.21705216800E+02  0.23582240711E+02  0.00000000000E+00 0.  1.
</event>
<event>
 7    1  0.2472338E-008  0.4614232E+02  0.7816164E-02  0.1320468E+00
        -11   -1    0    0    0    0  0.00000000000E+00  0.00000000000E+00  0.45593999997E+02  0.45594000000E+02  0.51100000000E-03 0.  1.
         11   -1    0    0    0    0 -0.00000000000E+00 -0.00000000000E+00 -0.45593999997E+02  0.45594000000E+02  0.51100000000E-03 0. -1.
    9900012    2    1    2    0    0 -0.23110829179E+02 -0.35187101162E+01  0.38504827545E+02  0.46142317737E+02  0.99999997826E+01 0.  0.
         12    1    1    2    0    0  0.23110829179E+02  0.35187101162E+01 -0.38504827545E+02  0.45045682263E+02  0.00000000000E+00 0. -1.
         11    1    3    3    0    0 -0.50226327157E+01 -0.46178490205E+01  0.98365856744E+01  0.11971206579E+02  0.51100000000E-03 0. -1.
        -11    1    3    3    0    0 -0.86943903496E+00  0.10635104861E+01  0.19578243013E+01  0.23916636564E+01  0.51100000000E-03 0.  1.
        -12    1    3    3    0    0 -0.17218757429E+02  0.35628418245E-01  0.26710417569E+02  0.31779447502E+02  0.00000000000E+00 0.  1.
</event>
<event>
 7    1  0.2472338E-008  0.4614232E+02  0.7816164E-02  0.1320468E+00
        -11   -1    0    0    0    0  0.00000000000E+00  0.00000000000E+00  0.45593999997E+02  0.45594000000E+02  0.51100000000E-03 0.  1.
         11   -1    0    0    0    0 -0.00000000000E+00 -0.00000000000E+00 -0.45593999997E+02  0.45594000000E+02  0.51100000000E-03 0. -1.
    9900012    2    1    2    0    0  0.26954514297E+02 -0.35850065631E+02  0.41641926478E+01  0.46142317108E+02  0.99999940478E+01 0.  0.
         12    1    1    2    0    0 -0.26954514297E+02  0.35850065631E+02 -0.41641926478E+01  0.45045682892E+02  0.00000000000E+00 0. -1.
         11    1    3    3    0    0  0.10486102014E+02 -0.10818449047E+02 -0.16895090197E+01  0.15160858031E+02  0.51100000000E-03 0. -1.
        -11    1    3    3    0    0  0.15222452500E+02 -0.19724949065E+02  0.55222109893E+01  0.25520413206E+02  0.51100000000E-03 0.  1.
        -12    1    3    3    0    0  0.12459597824E+01 -0.53066675195E+01  0.33149067810E+00  0.54610458716E+01  0.00000000000E+00 0.  1.
</event>
<event>
 7    1  0.2472338E-008  0.4614232E+02  0.7816164E-02  0.1320468E+00
        -11   -1    0    0    0    0  0.00000000000E+00  0.00000000000E+00  0.45593999997E+02  0.45594000000E+02  0.51100000000E-03 0.  1.
         11   -1    0    0    0    0 -0.00000000000E+00 -0.00000000000E+00 -0.45593999997E+02  0.45594000000E+02  0.51100000000E-03 0. -1.
    9900012    2    1    2    0    0 -0.42227794408E+02 -0.25757796143E+01  0.15469073168E+02  0.46142317789E+02  0.10000000257E+02 0.  0.
         12    1    1    2    0    0  0.42227794408E+02  0.25757796143E+01 -0.15469073168E+02  0.45045682211E+02  0.00000000000E+00 0. -1.
         11    1    3    3    0    0 -0.19818035996E+02 -0.36544750282E+01  0.80698374759E+01  0.21707879114E+02  0.51100000000E-03 0. -1.
        -11    1    3    3    0    0 -0.14393583363E+02 -0.14846090694E+01  0.24644013353E+01  0.14678303047E+02  0.51100000000E-03 0.  1.
        -12    1    3    3    0    0 -0.80161750479E+01  0.25633044833E+01  0.49348343566E+01  0.97561356284E+01  0.00000000000E+00 0.  1.
</event>
<event>
 7    1  0.2472338E-008  0.4614232E+02  0.7816164E-02  0.1320468E+00
        -11   -1    0    0    0    0  0.00000000000E+00  0.00000000000E+00  0.45593999997E+02  0.45594000000E+02  0.51100000000E-03 0.  1.
         11   -1    0    0    0    0 -0.00000000000E+00 -0.00000000000E+00 -0.45593999997E+02  0.45594000000E+02  0.51100000000E-03 0. -1.
    9900012    2    1    2    0    0 -0.37884202958E+02  0.94935539552E+01  0.22444890244E+02  0.46142317649E+02  0.99999989738E+01 0.  0.
         12    1    1    2    0    0  0.37884202958E+02 -0.94935539552E+01 -0.22444890244E+02  0.45045682351E+02  0.00000000000E+00 0. -1.
         11    1    3    3    0    0 -0.85609826003E+01 -0.17113083572E+01  0.62313483779E+01  0.10726075808E+02  0.51100000000E-03 0. -1.
        -11    1    3    3    0    0 -0.53606915005E+01  0.11768740837E+01  0.23280851248E+01  0.59617133931E+01  0.51100000000E-03 0.  1.
         12    1    3    3    0    0 -0.23962528857E+02  0.10027988229E+02  0.13885456741E+02  0.29454528447E+02  0.00000000000E+00 0. -1.
</event>
<event>
 7    1  0.2472338E-008  0.4614232E+02  0.7816164E-02  0.1320468E+00
        -11   -1    0    0    0    0  0.00000000000E+00  0.00000000000E+00  0.45593999997E+02  0.45594000000E+02  0.51100000000E-03 0. -1.
         11   -1    0    0    0    0 -0.00000000000E+00 -0.00000000000E+00 -0.45593999997E+02  0.45594000000E+02  0.51100000000E-03 0.  1.
    9900012    2    1    2    0    0  0.22130027683E+02  0.44260648027E+01 -0.38984424811E+02  0.46142317047E+02  0.99999934858E+01 0.  0.
         12    1    1    2    0    0 -0.22130027683E+02 -0.44260648027E+01  0.38984424811E+02  0.45045682953E+02  0.00000000000E+00 0. -1.
         11    1    3    3    0    0  0.64899093302E+01  0.20731055818E+01 -0.71410365761E+01  0.98697058472E+01  0.51100000000E-03 0.  1.
        -11    1    3    3    0    0  0.18888406030E+01 -0.20253006548E+01 -0.72042109616E+01  0.77181744866E+01  0.51100000000E-03 0. -1.
        -12    1    3    3    0    0  0.13751277749E+02  0.43782598757E+01 -0.24639177273E+02  0.28554436713E+02  0.00000000000E+00 0.  1.
</event>
<event>
 7    1  0.2472338E-008  0.4614232E+02  0.7816164E-02  0.1320468E+00
        -11   -1    0    0    0    0  0.00000000000E+00  0.00000000000E+00  0.45593999997E+02  0.45594000000E+02  0.51100000000E-03 0. -1.
         11   -1    0    0    0    0 -0.00000000000E+00 -0.00000000000E+00 -0.45593999997E+02  0.45594000000E+02  0.51100000000E-03 0.  1.
    9900012    2    1    2    0    0 -0.20439622801E+02 -0.34324957118E+02 -0.20811838433E+02  0.46142317850E+02  0.10000000810E+02 0.  0.
         12    1    1    2    0    0  0.20439622801E+02  0.34324957118E+02  0.20811838433E+02  0.45045682150E+02  0.00000000000E+00 0. -1.
         11    1    3    3    0    0 -0.58724755333E+01 -0.62634641147E+01 -0.16046921371E+01  0.87345285346E+01  0.51100000000E-03 0. -1.
        -11    1    3    3    0    0 -0.12553378467E+02 -0.18818950688E+02 -0.14129416223E+02  0.26671719461E+02  0.51100000000E-03 0.  1.
         12    1    3    3    0    0 -0.20137688010E+01 -0.92425423149E+01 -0.50777300730E+01  0.10736069854E+02  0.00000000000E+00 0. -1.
</event>
<event>
 7    1  0.2472338E-008  0.4614232E+02  0.7816164E-02  0.1320468E+00
        -11   -1    0    0    0    0  0.00000000000E+00  0.00000000000E+00  0.45593999997E+02  0.45594000000E+02  0.51100000000E-03 0. -1.
         11   -1    0    0    0    0 -0.00000000000E+00 -0.00000000000E+00 -0.45593999997E+02  0.45594000000E+02  0.51100000000E-03 0.  1.
    9900012    2    1    2    0    0 -0.25919518825E+02 -0.22780584822E+02 -0.28954052240E+02  0.46142316055E+02  0.99999844456E+01 0.  0.
         12    1    1    2    0    0  0.25919518825E+02  0.22780584822E+02  0.28954052240E+02  0.45045683945E+02  0.00000000000E+00 0. -1.
         11    1    3    3    0    0 -0.61311071035E+01 -0.39797074152E+01 -0.65446522077E+01  0.98112699589E+01  0.51100000000E-03 0. -1.
        -11    1    3    3    0    0 -0.16519813550E+02 -0.19137146693E+02 -0.19285846484E+02  0.31797460561E+02  0.51100000000E-03 0.  1.
        -12    1    3    3    0    0 -0.32685981713E+01  0.33626928621E+00 -0.31235535481E+01  0.45335855353E+01  0.00000000000E+00 0.  1.
</event>
<event>
 7    1  0.2472338E-008  0.4614232E+02  0.7816164E-02  0.1320468E+00
        -11   -1    0    0    0    0  0.00000000000E+00  0.00000000000E+00  0.45593999997E+02  0.45594000000E+02  0.51100000000E-03 0. -1.
         11   -1    0    0    0    0 -0.00000000000E+00 -0.00000000000E+00 -0.45593999997E+02  0.45594000000E+02  0.51100000000E-03 0.  1.
    9900012    2    1    2    0    0  0.41272052059E+02  0.15862879170E+02 -0.86081539670E+01  0.46142317283E+02  0.99999956384E+01 0.  0.
         12    1    1    2    0    0 -0.41272052059E+02 -0.15862879170E+02  0.86081539670E+01  0.45045682717E+02  0.00000000000E+00 0. -1.
         11    1    3    3    0    0  0.73182754463E+01  0.17958678051E+01 -0.21089884390E+01  0.78249683180E+01  0.51100000000E-03 0.  1.
        -11    1    3    3    0    0  0.12476812020E+02  0.80057823009E+00 -0.26736973962E+01  0.12785164125E+02  0.51100000000E-03 0. -1.
        -12    1    3    3    0    0  0.21476964593E+02  0.13266433135E+02 -0.38254681318E+01  0.25532184840E+02  0.00000000000E+00 0.  1.
</event>
<event>
 7    1  0.2472338E-008  0.4614232E+02  0.7816164E-02  0.1320468E+00
        -11   -1    0    0    0    0  0.00000000000E+00  0.00000000000E+00  0.45593999997E+02  0.45594000000E+02  0.51100000000E-03 0.  1.
         11   -1    0    0    0    0 -0.00000000000E+00 -0.00000000000E+00 -0.45593999997E+02  0.45594000000E+02  0.51100000000E-03 0. -1.
    9900012    2    1    2    0    0  0.31020544521E+02 -0.21760091571E+02 -0.24358518924E+02  0.46142320832E+02  0.10000027999E+02 0.  0.
         12    1    1    2    0    0 -0.31020544521E+02  0.21760091571E+02  0.24358518924E+02  0.45045679168E+02  0.00000000000E+00 0. -1.
         11    1    3    3    0    0  0.15220731006E+02 -0.79409135573E+01 -0.10654422704E+02  0.20205085595E+02  0.51100000000E-03 0. -1.
        -11    1    3    3    0    0  0.11210746741E+02 -0.89647478899E+01 -0.55349516533E+01  0.15384512904E+02  0.51100000000E-03 0.  1.
         12    1    3    3    0    0  0.45890667746E+01 -0.48544301236E+01 -0.81691445668E+01  0.10552722333E+02  0.00000000000E+00 0. -1.
</event>
<event>
 7    1  0.2472338E-008  0.4614232E+02  0.7816164E-02  0.1320468E+00
        -11   -1    0    0    0    0  0.00000000000E+00  0.00000000000E+00  0.45593999997E+02  0.45594000000E+02  0.51100000000E-03 0.  1.
         11   -1    0    0    0    0 -0.00000000000E+00 -0.00000000000E+00 -0.45593999997E+02  0.45594000000E+02  0.51100000000E-03 0. -1.
    9900012    2    1    2    0    0  0.29875766710E+02  0.13577955561E+01  0.33685433314E+02  0.46142318044E+02  0.10000002580E+02 0.  0.
         12    1    1    2    0    0 -0.29875766710E+02 -0.13577955561E+01 -0.33685433314E+02  0.45045681956E+02  0.00000000000E+00 0. -1.
         11    1    3    3    0    0  0.61472150313E+01 -0.20912206889E+01  0.11949908796E+02  0.13600065335E+02  0.51100000000E-03 0. -1.
        -11    1    3    3    0    0  0.52064082349E+01  0.44315988951E+00  0.67024183864E+01  0.84985581061E+01  0.51100000000E-03 0.  1.
         12    1    3    3    0    0  0.18522143444E+02  0.30058563554E+01  0.15033106132E+02  0.24043694603E+02  0.00000000000E+00 0. -1.
</event>
<event>
 7    1  0.2472338E-008  0.4614232E+02  0.7816164E-02  0.1320468E+00
        -11   -1    0    0    0    0  0.00000000000E+00  0.00000000000E+00  0.45593999997E+02  0.45594000000E+02  0.51100000000E-03 0. -1.
         11   -1    0    0    0    0 -0.00000000000E+00 -0.00000000000E+00 -0.45593999997E+02  0.45594000000E+02  0.51100000000E-03 0.  1.
    9900012    2    1    2    0    0  0.62883471406E+01 -0.11459321406E+02 -0.43107469696E+02  0.46142319847E+02  0.10000019019E+02 0.  0.
         12    1    1    2    0    0 -0.62883471406E+01  0.11459321406E+02  0.43107469696E+02  0.45045680153E+02  0.00000000000E+00 0. -1.
         11    1    3    3    0    0 -0.69994995502E+00 -0.47432442902E+01 -0.18375763455E+02  0.18990970990E+02  0.51100000000E-03 0. -1.
        -11    1    3    3    0    0 -0.74031652055E-01  0.11929001489E+00 -0.59657020226E+01  0.59673538253E+01  0.51100000000E-03 0.  1.
         12    1    3    3    0    0  0.70623287477E+01 -0.68353671305E+01 -0.18766004219E+02  0.21183995031E+02  0.00000000000E+00 0. -1.
</event>
<event>
 7    1  0.2472338E-008  0.4614232E+02  0.7816164E-02  0.1320468E+00
        -11   -1    0    0    0    0  0.00000000000E+00  0.00000000000E+00  0.45593999997E+02  0.45594000000E+02  0.51100000000E-03 0.  1.
         11   -1    0    0    0    0 -0.00000000000E+00 -0.00000000000E+00 -0.45593999997E+02  0.45594000000E+02  0.51100000000E-03 0. -1.
    9900012    2    1    2    0    0 -0.45033626998E+02  0.21364723970E+00 -0.10199101959E+01  0.46142318491E+02  0.10000006659E+02 0.  0.
         12    1    1    2    0    0  0.45033626998E+02 -0.21364723970E+00  0.10199101959E+01  0.45045681509E+02  0.00000000000E+00 0. -1.
         11    1    3    3    0    0 -0.96437790703E+01 -0.21443485615E+01 -0.20764393527E+01  0.10095162513E+02  0.51100000000E-03 0. -1.
        -11    1    3    3    0    0 -0.97621777474E+01  0.15278621528E+01  0.30166143523E+01  0.10331236109E+02  0.51100000000E-03 0.  1.
        -12    1    3    3    0    0 -0.25627670181E+02  0.83013364838E+00 -0.19600851955E+01  0.25715919870E+02  0.00000000000E+00 0.  1.
</event>
<event>
 7    1  0.2472338E-008  0.4614233E+02  0.7816164E-02  0.1320468E+00
        -11   -1    0    0    0    0  0.00000000000E+00  0.00000000000E+00  0.45593999997E+02  0.45594000000E+02  0.51100000000E-03 0.  1.
         11   -1    0    0    0    0 -0.00000000000E+00 -0.00000000000E+00 -0.45593999997E+02  0.45594000000E+02  0.51100000000E-03 0. -1.
    9900012    2    1    2    0    0  0.18770218076E+02 -0.16284085529E+02  0.37571531963E+02  0.46142328264E+02  0.10000095770E+02 0.  0.
         12    1    1    2    0    0 -0.18770218076E+02  0.16284085529E+02 -0.37571531963E+02  0.45045671736E+02  0.00000000000E+00 0. -1.
         11    1    3    3    0    0  0.10387378821E+02 -0.71902220750E+01  0.21088348268E+02  0.24582826632E+02  0.51100000000E-03 0. -1.
        -11    1    3    3    0    0  0.69200655720E+01 -0.33529302398E+01  0.71213483198E+01  0.10480603555E+02  0.51100000000E-03 0.  1.
         12    1    3    3    0    0  0.14627736820E+01 -0.57409332141E+01  0.93618353753E+01  0.11078898077E+02  0.00000000000E+00 0. -1.
</event>
<event>
 7    1  0.2472338E-008  0.4614232E+02  0.7816164E-02  0.1320468E+00
        -11   -1    0    0    0    0  0.00000000000E+00  0.00000000000E+00  0.45593999997E+02  0.45594000000E+02  0.51100000000E-03 0.  1.
         11   -1    0    0    0    0 -0.00000000000E+00 -0.00000000000E+00 -0.45593999997E+02  0.45594000000E+02  0.51100000000E-03 0. -1.
    9900012    2    1    2    0    0  0.30560743540E+01 -0.37399686431E+01  0.44786007730E+02  0.46142318250E+02  0.10000004460E+02 0.  0.
         12    1    1    2    0    0 -0.30560743540E+01  0.37399686431E+01 -0.44786007730E+02  0.45045681750E+02  0.00000000000E+00 0. -1.
         11    1    3    3    0    0  0.14131511419E+01  0.12872511924E+01  0.22313613355E+02  0.22395342216E+02  0.51100000000E-03 0.  1.
        -11    1    3    3    0    0  0.34758102481E+01 -0.36061960191E+01  0.11686678441E+02  0.12714730035E+02  0.51100000000E-03 0. -1.
         12    1    3    3    0    0 -0.18328870359E+01 -0.14210238164E+01  0.10785715934E+02  0.11032245999E+02  0.00000000000E+00 0. -1.
</event>
<event>
 7    1  0.2472338E-008  0.4614233E+02  0.7816164E-02  0.1320468E+00
        -11   -1    0    0    0    0  0.00000000000E+00  0.00000000000E+00  0.45593999997E+02  0.45594000000E+02  0.51100000000E-03 0.  1.
         11   -1    0    0    0    0 -0.00000000000E+00 -0.00000000000E+00 -0.45593999997E+02  0.45594000000E+02  0.51100000000E-03 0. -1.
    9900012    2    1    2    0    0  0.20474301280E+02  0.27033440895E+02  0.29649763813E+02  0.46142329468E+02  0.10000106752E+02 0.  0.
         12    1    1    2    0    0 -0.20474301280E+02 -0.27033440895E+02 -0.29649763813E+02  0.45045670532E+02  0.00000000000E+00 0. -1.
         11    1    3    3    0    0 -0.81742178498E+00  0.52115416738E+00  0.49302724974E+00  0.10875919137E+01  0.51100000000E-03 0. -1.
        -11    1    3    3    0    0  0.15551288517E+02  0.16937612403E+02  0.17345840701E+02  0.28802838026E+02  0.51100000000E-03 0.  1.
         12    1    3    3    0    0  0.57404345482E+01  0.95746743243E+01  0.11810895862E+02  0.16251899529E+02  0.00000000000E+00 0. -1.
</event>
<event>
 7    1  0.2472338E-008  0.4614232E+02  0.7816164E-02  0.1320468E+00
        -11   -1    0    0    0    0  0.00000000000E+00  0.00000000000E+00  0.45593999997E+02  0.45594000000E+02  0.51100000000E-03 0.  1.
         11   -1    0    0    0    0 -0.00000000000E+00 -0.00000000000E+00 -0.45593999997E+02  0.45594000000E+02  0.51100000000E-03 0. -1.
    9900012    2    1    2    0    0 -0.37809603755E+02  0.24199587724E+02  0.37319330461E+01  0.46142317561E+02  0.99999981767E+01 0.  0.
         12    1    1    2    0    0  0.37809603755E+02 -0.24199587724E+02 -0.37319330461E+01  0.45045682439E+02  0.00000000000E+00 0. -1.
         11    1    3    3    0    0 -0.65323595586E+01  0.14511536387E+01  0.33196510027E+00  0.66998335334E+01  0.51100000000E-03 0. -1.
        -11    1    3    3    0    0 -0.25065660977E+02  0.20422467236E+02  0.47341148181E+01  0.32676847638E+02  0.51100000000E-03 0.  1.
        -12    1    3    3    0    0 -0.62115832195E+01  0.23259668494E+01 -0.13341468723E+01  0.67656363894E+01  0.00000000000E+00 0.  1.
</event>
<event>
 7    1  0.2472338E-008  0.4614232E+02  0.7816164E-02  0.1320468E+00
        -11   -1    0    0    0    0  0.00000000000E+00  0.00000000000E+00  0.45593999997E+02  0.45594000000E+02  0.51100000000E-03 0. -1.
         11   -1    0    0    0    0 -0.00000000000E+00 -0.00000000000E+00 -0.45593999997E+02  0.45594000000E+02  0.51100000000E-03 0.  1.
    9900012    2    1    2    0    0 -0.11302342010E+02  0.20604153482E+02 -0.38429671200E+02  0.46142315366E+02  0.99999781568E+01 0.  0.
         12    1    1    2    0    0  0.11302342010E+02 -0.20604153482E+02  0.38429671200E+02  0.45045684634E+02  0.00000000000E+00 0. -1.
         11    1    3    3    0    0  0.19398291184E+00  0.14659448168E+01 -0.78370535624E+00  0.16735644363E+01  0.51100000000E-03 0.  1.
        -11    1    3    3    0    0 -0.82409657968E+01  0.94076189072E+01 -0.14488022266E+02  0.19139477532E+02  0.51100000000E-03 0. -1.
        -12    1    3    3    0    0 -0.32553591255E+01  0.97305897578E+01 -0.23157943578E+02  0.25329273397E+02  0.00000000000E+00 0.  1.
</event>
<event>
 7    1  0.2472338E-008  0.4614232E+02  0.7816164E-02  0.1320468E+00
        -11   -1    0    0    0    0  0.00000000000E+00  0.00000000000E+00  0.45593999997E+02  0.45594000000E+02  0.51100000000E-03 0. -1.
         11   -1    0    0    0    0 -0.00000000000E+00 -0.00000000000E+00 -0.45593999997E+02  0.45594000000E+02  0.51100000000E-03 0.  1.
    9900012    2    1    2    0    0  0.14381156876E+02 -0.40183157236E+02 -0.14408663094E+02  0.46142319067E+02  0.10000011912E+02 0.  0.
         12    1    1    2    0    0 -0.14381156876E+02  0.40183157236E+02  0.14408663094E+02  0.45045680933E+02  0.00000000000E+00 0. -1.
         11    1    3    3    0    0  0.11231844911E+02 -0.19405900613E+02 -0.85710652296E+01  0.24004301242E+02  0.51100000000E-03 0. -1.
        -11    1    3    3    0    0  0.57408042341E-01 -0.33732389624E+01 -0.23741890156E+01  0.41253861060E+01  0.51100000000E-03 0.  1.
         12    1    3    3    0    0  0.30919039227E+01 -0.17404017660E+02 -0.34634088492E+01  0.18012631719E+02  0.00000000000E+00 0. -1.
</event>
<event>
 7    1  0.2472338E-008  0.4614231E+02  0.7816164E-02  0.1320468E+00
        -11   -1    0    0    0    0  0.00000000000E+00  0.00000000000E+00  0.45593999997E+02  0.45594000000E+02  0.51100000000E-03 0.  1.
         11   -1    0    0    0    0 -0.00000000000E+00 -0.00000000000E+00 -0.45593999997E+02  0.45594000000E+02  0.51100000000E-03 0. -1.
    9900012    2    1    2    0    0  0.38686662413E+02 -0.55426682028E+01  0.22399437895E+02  0.46142313885E+02  0.99999646590E+01 0.  0.
         12    1    1    2    0    0 -0.38686662413E+02  0.55426682028E+01 -0.22399437895E+02  0.45045686115E+02  0.00000000000E+00 0. -1.
         11    1    3    3    0    0  0.15779287975E+02 -0.12801335734E+01  0.62378426446E+01  0.17015738364E+02  0.51100000000E-03 0. -1.
        -11    1    3    3    0    0  0.21533532630E+02 -0.22620901696E+01  0.13458467407E+02  0.25493929173E+02  0.51100000000E-03 0.  1.
        -12    1    3    3    0    0  0.13738418083E+01 -0.20004444598E+01  0.27031278441E+01  0.36326463484E+01  0.00000000000E+00 0.  1.
</event>
<event>
 7    1  0.2472338E-008  0.4614232E+02  0.7816164E-02  0.1320468E+00
        -11   -1    0    0    0    0  0.00000000000E+00  0.00000000000E+00  0.45593999997E+02  0.45594000000E+02  0.51100000000E-03 0.  1.
         11   -1    0    0    0    0 -0.00000000000E+00 -0.00000000000E+00 -0.45593999997E+02  0.45594000000E+02  0.51100000000E-03 0. -1.
    9900012    2    1    2    0    0  0.37047828945E+02  0.17755343000E+01  0.25562069160E+02  0.46142317284E+02  0.99999956539E+01 0.  0.
         12    1    1    2    0    0 -0.37047828945E+02 -0.17755343000E+01 -0.25562069160E+02  0.45045682716E+02  0.00000000000E+00 0. -1.
         11    1    3    3    0    0  0.55630537096E+01  0.25538550448E+01  0.25822592178E+01  0.66436289101E+01  0.51100000000E-03 0. -1.
        -11    1    3    3    0    0  0.44558517042E+01  0.43271464569E+00  0.62504449230E+01  0.76882974950E+01  0.51100000000E-03 0.  1.
        -12    1    3    3    0    0  0.27028923531E+02 -0.12110353905E+01  0.16729365019E+02  0.31810390879E+02  0.00000000000E+00 0.  1.
</event>
<event>
 7    1  0.2472338E-008  0.4614232E+02  0.7816164E-02  0.1320468E+00
        -11   -1    0    0    0    0  0.00000000000E+00  0.00000000000E+00  0.45593999997E+02  0.45594000000E+02  0.51100000000E-03 0.  1.
         11   -1    0    0    0    0 -0.00000000000E+00 -0.00000000000E+00 -0.45593999997E+02  0.45594000000E+02  0.51100000000E-03 0. -1.
    9900012    2    1    2    0    0  0.17482025144E+02 -0.41487000931E+02 -0.15234895993E+01  0.46142317965E+02  0.10000001861E+02 0.  0.
         12    1    1    2    0    0 -0.17482025144E+02  0.41487000931E+02  0.15234895993E+01  0.45045682035E+02  0.00000000000E+00 0. -1.
         11    1    3    3    0    0  0.46438494728E+01 -0.51570026587E+01 -0.18916199688E+01  0.71929299118E+01  0.51100000000E-03 0. -1.
        -11    1    3    3    0    0  0.13108340528E+02 -0.31786148704E+02  0.64617356506E+00  0.34389029957E+02  0.51100000000E-03 0.  1.
        -12    1    3    3    0    0 -0.27016485655E+00 -0.45438495684E+01 -0.27804319552E+00  0.45603580965E+01  0.00000000000E+00 0.  1.
</event>
<event>
 7    1  0.2472338E-008  0.4614232E+02  0.7816164E-02  0.1320468E+00
        -11   -1    0    0    0    0  0.00000000000E+00  0.00000000000E+00  0.45593999997E+02  0.45594000000E+02  0.51100000000E-03 0.  1.
         11   -1    0    0    0    0 -0.00000000000E+00 -0.00000000000E+00 -0.45593999997E+02  0.45594000000E+02  0.51100000000E-03 0. -1.
    9900012    2    1    2    0    0 -0.33640578128E+02 -0.14784554355E+02  0.26054593678E+02  0.46142318786E+02  0.10000009350E+02 0.  0.
         12    1    1    2    0    0  0.33640578128E+02  0.14784554355E+02 -0.26054593678E+02  0.45045681214E+02  0.00000000000E+00 0. -1.
         11    1    3    3    0    0 -0.70544869445E+01 -0.26010249746E+01  0.10275031456E+02  0.12732139987E+02  0.51100000000E-03 0. -1.
        -11    1    3    3    0    0 -0.26611578631E+02 -0.12309267415E+02  0.15702715830E+02  0.33260629372E+02  0.51100000000E-03 0.  1.
        -12    1    3    3    0    0  0.25487447449E-01  0.12573803438E+00  0.76846391727E-01  0.14954942725E+00  0.00000000000E+00 0.  1.
</event>
<event>
 7    1  0.2472338E-008  0.4614232E+02  0.7816164E-02  0.1320468E+00
        -11   -1    0    0    0    0  0.00000000000E+00  0.00000000000E+00  0.45593999997E+02  0.45594000000E+02  0.51100000000E-03 0.  1.
         11   -1    0    0    0    0 -0.00000000000E+00 -0.00000000000E+00 -0.45593999997E+02  0.45594000000E+02  0.51100000000E-03 0. -1.
    9900012    2    1    2    0    0 -0.41461791305E+02  0.11792045116E+02  0.13075970335E+02  0.46142318005E+02  0.10000002223E+02 0.  0.
         12    1    1    2    0    0  0.41461791305E+02 -0.11792045116E+02 -0.13075970335E+02  0.45045681995E+02  0.00000000000E+00 0. -1.
         11    1    3    3    0    0 -0.38284970299E+01  0.25979090123E+01  0.37161931894E+01  0.59343586701E+01  0.51100000000E-03 0. -1.
        -11    1    3    3    0    0 -0.33786049294E+01  0.13736498251E+01  0.24642741359E+01  0.44016510981E+01  0.51100000000E-03 0.  1.
         12    1    3    3    0    0 -0.34254689345E+02  0.78204862782E+01  0.68955030098E+01  0.35806308237E+02  0.00000000000E+00 0. -1.
</event>
<event>
 7    1  0.2472338E-008  0.4614231E+02  0.7816164E-02  0.1320468E+00
        -11   -1    0    0    0    0  0.00000000000E+00  0.00000000000E+00  0.45593999997E+02  0.45594000000E+02  0.51100000000E-03 0. -1.
         11   -1    0    0    0    0 -0.00000000000E+00 -0.00000000000E+00 -0.45593999997E+02  0.45594000000E+02  0.51100000000E-03 0.  1.
    9900012    2    1    2    0    0  0.42476652964E+01 -0.19432717282E+02 -0.40415848910E+02  0.46142312032E+02  0.99999477579E+01 0.  0.
         12    1    1    2    0    0 -0.42476652964E+01  0.19432717282E+02  0.40415848910E+02  0.45045687968E+02  0.00000000000E+00 0. -1.
         11    1    3    3    0    0  0.45178802070E+01 -0.66398505891E+01 -0.10277289077E+02  0.13043064381E+02  0.51100000000E-03 0. -1.
        -11    1    3    3    0    0  0.11646107684E+01 -0.92812334850E+01 -0.25142900988E+02  0.26826536929E+02  0.51100000000E-03 0.  1.
         12    1    3    3    0    0 -0.14348256791E+01 -0.35116332075E+01 -0.49956588452E+01  0.62727107228E+01  0.00000000000E+00 0. -1.
</event>
<event>
 7    1  0.2472338E-008  0.4614232E+02  0.7816164E-02  0.1320468E+00
        -11   -1    0    0    0    0  0.00000000000E+00  0.00000000000E+00  0.45593999997E+02  0.45594000000E+02  0.51100000000E-03 0.  1.
         11   -1    0    0    0    0 -0.00000000000E+00 -0.00000000000E+00 -0.45593999997E+02  0.45594000000E+02  0.51100000000E-03 0. -1.
    9900012    2    1    2    0    0 -0.24042722832E+02 -0.90709289839E+01  0.36997015052E+02  0.46142318780E+02  0.10000009287E+02 0.  0.
         12    1    1    2    0    0  0.24042722832E+02  0.90709289839E+01 -0.36997015052E+02  0.45045681220E+02  0.00000000000E+00 0. -1.
         11    1    3    3    0    0 -0.15472964233E+02 -0.47789125622E+01  0.25724740730E+02  0.30397580715E+02  0.51100000000E-03 0. -1.
        -11    1    3    3    0    0 -0.46894282515E+01 -0.45531714923E+01  0.93457627874E+01  0.11404621445E+02  0.51100000000E-03 0.  1.
         12    1    3    3    0    0 -0.38803303474E+01  0.26115507062E+00  0.19265115351E+01  0.43401166195E+01  0.00000000000E+00 0. -1.
</event>
<event>
 7    1  0.2472338E-008  0.4614232E+02  0.7816164E-02  0.1320468E+00
        -11   -1    0    0    0    0  0.00000000000E+00  0.00000000000E+00  0.45593999997E+02  0.45594000000E+02  0.51100000000E-03 0.  1.
         11   -1    0    0    0    0 -0.00000000000E+00 -0.00000000000E+00 -0.45593999997E+02  0.45594000000E+02  0.51100000000E-03 0. -1.
    9900012    2    1    2    0    0 -0.55109497213E+00 -0.40870012176E+01  0.44856506514E+02  0.46142318062E+02  0.10000002747E+02 0.  0.
         12    1    1    2    0    0  0.55109497213E+00  0.40870012176E+01 -0.44856506514E+02  0.45045681938E+02  0.00000000000E+00 0. -1.
         11    1    3    3    0    0 -0.40822510111E+01 -0.36286029080E+01  0.13961867262E+02  0.14992173628E+02  0.51100000000E-03 0. -1.
        -11    1    3    3    0    0  0.17228869033E+01 -0.10991284570E+01  0.17469248775E+02  0.17588378995E+02  0.51100000000E-03 0.  1.
         12    1    3    3    0    0  0.18082691357E+01  0.64073014737E+00  0.13425390477E+02  0.13561765440E+02  0.00000000000E+00 0. -1.
</event>
<event>
 7    1  0.2472338E-008  0.4614232E+02  0.7816164E-02  0.1320468E+00
        -11   -1    0    0    0    0  0.00000000000E+00  0.00000000000E+00  0.45593999997E+02  0.45594000000E+02  0.51100000000E-03 0.  1.
         11   -1    0    0    0    0 -0.00000000000E+00 -0.00000000000E+00 -0.45593999997E+02  0.45594000000E+02  0.51100000000E-03 0. -1.
    9900012    2    1    2    0    0 -0.14151082471E+02 -0.40683954842E+02  0.13178629744E+02  0.46142316538E+02  0.99999888442E+01 0.  0.
         12    1    1    2    0    0  0.14151082471E+02  0.40683954842E+02 -0.13178629744E+02  0.45045683462E+02  0.00000000000E+00 0. -1.
         11    1    3    3    0    0 -0.59822514357E+01 -0.27643339071E+02  0.66983920549E+01  0.29065615143E+02  0.51100000000E-03 0. -1.
        -11    1    3    3    0    0 -0.32640242980E+01 -0.82558221248E+01  0.44478049077E+01  0.99295227646E+01  0.51100000000E-03 0.  1.
         12    1    3    3    0    0 -0.49048067376E+01 -0.47847936453E+01  0.20324327813E+01  0.71471786302E+01  0.00000000000E+00 0. -1.
</event>
<event>
 7    1  0.2472338E-008  0.4614232E+02  0.7816164E-02  0.1320468E+00
        -11   -1    0    0    0    0  0.00000000000E+00  0.00000000000E+00  0.45593999997E+02  0.45594000000E+02  0.51100000000E-03 0.  1.
         11   -1    0    0    0    0 -0.00000000000E+00 -0.00000000000E+00 -0.45593999997E+02  0.45594000000E+02  0.51100000000E-03 0. -1.
    9900012    2    1    2    0    0  0.12428890191E+02 -0.10070658208E+02  0.42109593860E+02  0.46142319151E+02  0.10000012676E+02 0.  0.
         12    1    1    2    0    0 -0.12428890191E+02  0.10070658208E+02 -0.42109593860E+02  0.45045680849E+02  0.00000000000E+00 0. -1.
         11    1    3    3    0    0  0.79934041030E+01 -0.17321674660E+01  0.13771359004E+02  0.16017029761E+02  0.51100000000E-03 0. -1.
        -11    1    3    3    0    0  0.19561502498E+01 -0.35229292986E+01  0.18094515604E+02  0.18537773594E+02  0.51100000000E-03 0.  1.
         12    1    3    3    0    0  0.24793358380E+01 -0.48155614430E+01  0.10243719252E+02  0.11587515796E+02  0.00000000000E+00 0. -1.
</event>
<event>
 7    1  0.2472338E-008  0.4614233E+02  0.7816164E-02  0.1320468E+00
        -11   -1    0    0    0    0  0.00000000000E+00  0.00000000000E+00  0.45593999997E+02  0.45594000000E+02  0.51100000000E-03 0. -1.
         11   -1    0    0    0    0 -0.00000000000E+00 -0.00000000000E+00 -0.45593999997E+02  0.45594000000E+02  0.51100000000E-03 0.  1.
    9900012    2    1    2    0    0  0.98955809533E+01 -0.24255443326E+02 -0.36645101706E+02  0.46142328373E+02  0.10000096763E+02 0.  0.
         12    1    1    2    0    0 -0.98955809533E+01  0.24255443326E+02  0.36645101706E+02  0.45045671627E+02  0.00000000000E+00 0. -1.
         11    1    3    3    0    0  0.18524940193E+00 -0.75551220560E+01 -0.51272532987E+01  0.91325195468E+01  0.51100000000E-03 0. -1.
        -11    1    3    3    0    0  0.17739168589E+01 -0.41194637712E+01 -0.63378562317E+01  0.77643534605E+01  0.51100000000E-03 0.  1.
        -12    1    3    3    0    0  0.79364146925E+01 -0.12580857499E+02 -0.25179992175E+02  0.29245455365E+02  0.00000000000E+00 0.  1.
</event>
<event>
 7    1  0.2472338E-008  0.4614232E+02  0.7816164E-02  0.1320468E+00
        -11   -1    0    0    0    0  0.00000000000E+00  0.00000000000E+00  0.45593999997E+02  0.45594000000E+02  0.51100000000E-03 0.  1.
         11   -1    0    0    0    0 -0.00000000000E+00 -0.00000000000E+00 -0.45593999997E+02  0.45594000000E+02  0.51100000000E-03 0. -1.
    9900012    2    1    2    0    0  0.19876781987E+02  0.30920365508E+01  0.40304669394E+02  0.46142317331E+02  0.99999960800E+01 0.  0.
         12    1    1    2    0    0 -0.19876781987E+02 -0.30920365508E+01 -0.40304669394E+02  0.45045682669E+02  0.00000000000E+00 0. -1.
         11    1    3    3    0    0  0.10218224432E+02 -0.27649244369E+01  0.16718395885E+02  0.19787917498E+02  0.51100000000E-03 0. -1.
        -11    1    3    3    0    0  0.78361485586E+01  0.31237227696E+01  0.17879080599E+02  0.19769278983E+02  0.51100000000E-03 0.  1.
         12    1    3    3    0    0  0.18224089959E+01  0.27332382182E+01  0.57071929098E+01  0.65851208505E+01  0.00000000000E+00 0. -1.
</event>
<event>
 7    1  0.2472338E-008  0.4614232E+02  0.7816164E-02  0.1320468E+00
        -11   -1    0    0    0    0  0.00000000000E+00  0.00000000000E+00  0.45593999997E+02  0.45594000000E+02  0.51100000000E-03 0.  1.
         11   -1    0    0    0    0 -0.00000000000E+00 -0.00000000000E+00 -0.45593999997E+02  0.45594000000E+02  0.51100000000E-03 0. -1.
    9900012    2    1    2    0    0 -0.31027221474E+02  0.55377963534E+01  0.32183194986E+02  0.46142315408E+02  0.99999785432E+01 0.  0.
         12    1    1    2    0    0  0.31027221474E+02 -0.55377963534E+01 -0.32183194986E+02  0.45045684592E+02  0.00000000000E+00 0. -1.
         11    1    3    3    0    0 -0.87645359921E+01  0.15101770107E+01  0.58573895059E+01  0.10649259967E+02  0.51100000000E-03 0. -1.
        -11    1    3    3    0    0 -0.18182537889E+02  0.31917779063E+01  0.16262924130E+02  0.24602333869E+02  0.51100000000E-03 0.  1.
         12    1    3    3    0    0 -0.40801475926E+01  0.83584143647E+00  0.10062881351E+02  0.10890721572E+02  0.00000000000E+00 0. -1.
</event>
<event>
 7    1  0.2472338E-008  0.4614232E+02  0.7816164E-02  0.1320468E+00
        -11   -1    0    0    0    0  0.00000000000E+00  0.00000000000E+00  0.45593999997E+02  0.45594000000E+02  0.51100000000E-03 0. -1.
         11   -1    0    0    0    0 -0.00000000000E+00 -0.00000000000E+00 -0.45593999997E+02  0.45594000000E+02  0.51100000000E-03 0.  1.
    9900012    2    1    2    0    0  0.39845645760E+01  0.43447156188E+02 -0.11206310510E+02  0.46142317289E+02  0.99999956938E+01 0.  0.
         12    1    1    2    0    0 -0.39845645760E+01 -0.43447156188E+02  0.11206310510E+02  0.45045682711E+02  0.00000000000E+00 0. -1.
         11    1    3    3    0    0  0.10993931023E+01  0.71060949914E+01  0.53941058312E+00  0.72108401215E+01  0.51100000000E-03 0. -1.
        -11    1    3    3    0    0 -0.76299206738E+00  0.11838341514E+01  0.54406730390E+00  0.15098442586E+01  0.51100000000E-03 0.  1.
        -12    1    3    3    0    0  0.36481635411E+01  0.35157227045E+02 -0.12289788397E+02  0.37421632909E+02  0.00000000000E+00 0.  1.
</event>
<event>
 7    1  0.2472338E-008  0.4614232E+02  0.7816164E-02  0.1320468E+00
        -11   -1    0    0    0    0  0.00000000000E+00  0.00000000000E+00  0.45593999997E+02  0.45594000000E+02  0.51100000000E-03 0.  1.
         11   -1    0    0    0    0 -0.00000000000E+00 -0.00000000000E+00 -0.45593999997E+02  0.45594000000E+02  0.51100000000E-03 0. -1.
    9900012    2    1    2    0    0 -0.43213462099E+02  0.11421912621E+02  0.55901730623E+01  0.46142318416E+02  0.10000005970E+02 0.  0.
         12    1    1    2    0    0  0.43213462099E+02 -0.11421912621E+02 -0.55901730623E+01  0.45045681584E+02  0.00000000000E+00 0. -1.
         11    1    3    3    0    0 -0.12838638780E+02  0.14145039638E+01  0.54567994339E+01  0.14021702019E+02  0.51100000000E-03 0. -1.
        -11    1    3    3    0    0 -0.15339901052E+02  0.52526400876E+01  0.15503470203E+01  0.16288227906E+02  0.51100000000E-03 0.  1.
         12    1    3    3    0    0 -0.15034922267E+02  0.47547685697E+01 -0.14169733918E+01  0.15832388491E+02  0.00000000000E+00 0. -1.
</event>
<event>
 7    1  0.2472338E-008  0.4614232E+02  0.7816164E-02  0.1320468E+00
        -11   -1    0    0    0    0  0.00000000000E+00  0.00000000000E+00  0.45593999997E+02  0.45594000000E+02  0.51100000000E-03 0.  1.
         11   -1    0    0    0    0 -0.00000000000E+00 -0.00000000000E+00 -0.45593999997E+02  0.45594000000E+02  0.51100000000E-03 0. -1.
    9900012    2    1    2    0    0 -0.17235978016E+02 -0.12140949280E+02  0.39807431084E+02  0.46142321438E+02  0.10000033528E+02 0.  0.
         12    1    1    2    0    0  0.17235978016E+02  0.12140949280E+02 -0.39807431084E+02  0.45045678562E+02  0.00000000000E+00 0. -1.
         11    1    3    3    0    0 -0.80577217518E+01 -0.10034874988E+02  0.24117523371E+02  0.27336432278E+02  0.51100000000E-03 0. -1.
        -11    1    3    3    0    0 -0.23376689837E+00 -0.13720315279E+01  0.22092095754E+01  0.26110773036E+01  0.51100000000E-03 0.  1.
         12    1    3    3    0    0 -0.89444893659E+01 -0.73404276487E+00  0.13480698138E+02  0.16194811857E+02  0.00000000000E+00 0. -1.
</event>
<event>
 7    1  0.2472338E-008  0.4614232E+02  0.7816164E-02  0.1320468E+00
        -11   -1    0    0    0    0  0.00000000000E+00  0.00000000000E+00  0.45593999997E+02  0.45594000000E+02  0.51100000000E-03 0.  1.
         11   -1    0    0    0    0 -0.00000000000E+00 -0.00000000000E+00 -0.45593999997E+02  0.45594000000E+02  0.51100000000E-03 0. -1.
    9900012    2    1    2    0    0  0.42415970199E+01 -0.44720470843E+02  0.33469109095E+01  0.46142317961E+02  0.10000001825E+02 0.  0.
         12    1    1    2    0    0 -0.42415970199E+01  0.44720470843E+02 -0.33469109095E+01  0.45045682039E+02  0.00000000000E+00 0. -1.
         11    1    3    3    0    0  0.23189513592E+01 -0.40466968646E+01  0.21978386625E+01  0.51559466607E+01  0.51100000000E-03 0. -1.
        -11    1    3    3    0    0  0.28341108723E+01 -0.15503837141E+02 -0.22688000354E+00  0.15762380066E+02  0.51100000000E-03 0.  1.
         12    1    3    3    0    0 -0.91146521160E+00 -0.25169936837E+02  0.13759522505E+01  0.25223991235E+02  0.00000000000E+00 0. -1.
</event>
<event>
 7    1  0.2472338E-008  0.4614232E+02  0.7816164E-02  0.1320468E+00
        -11   -1    0    0    0    0  0.00000000000E+00  0.00000000000E+00  0.45593999997E+02  0.45594000000E+02  0.51100000000E-03 0.  1.
         11   -1    0    0    0    0 -0.00000000000E+00 -0.00000000000E+00 -0.45593999997E+02  0.45594000000E+02  0.51100000000E-03 0. -1.
    9900012    2    1    2    0    0 -0.13083446948E+02  0.25459571175E+02  0.34781417594E+02  0.46142319205E+02  0.10000013169E+02 0.  0.
         12    1    1    2    0    0  0.13083446948E+02 -0.25459571175E+02 -0.34781417594E+02  0.45045680795E+02  0.00000000000E+00 0. -1.
         11    1    3    3    0    0 -0.17504184866E+00 -0.31646641249E+00  0.29848600822E+01  0.30066893106E+01  0.51100000000E-03 0. -1.
        -11    1    3    3    0    0 -0.37898745795E+01  0.67302485763E+01  0.11452932077E+02  0.13814088774E+02  0.51100000000E-03 0.  1.
         12    1    3    3    0    0 -0.91185305199E+01  0.19045789011E+02  0.20343625434E+02  0.29321541121E+02  0.00000000000E+00 0. -1.
</event>
<event>
 7    1  0.2472338E-008  0.4614232E+02  0.7816164E-02  0.1320468E+00
        -11   -1    0    0    0    0  0.00000000000E+00  0.00000000000E+00  0.45593999997E+02  0.45594000000E+02  0.51100000000E-03 0. -1.
         11   -1    0    0    0    0 -0.00000000000E+00 -0.00000000000E+00 -0.45593999997E+02  0.45594000000E+02  0.51100000000E-03 0.  1.
    9900012    2    1    2    0    0  0.37879616984E+02 -0.10048332754E+01 -0.24356486933E+02  0.46142317316E+02  0.99999959381E+01 0.  0.
         12    1    1    2    0    0 -0.37879616984E+02  0.10048332754E+01  0.24356486933E+02  0.45045682684E+02  0.00000000000E+00 0. -1.
         11    1    3    3    0    0  0.63369232618E+01 -0.25986350360E+01 -0.15547438870E+01  0.70232990319E+01  0.51100000000E-03 0. -1.
        -11    1    3    3    0    0  0.84726381779E+01 -0.11223142401E+01 -0.56925168999E+01  0.10268881919E+02  0.51100000000E-03 0.  1.
         12    1    3    3    0    0  0.23070055544E+02  0.27161160006E+01 -0.17109226146E+02  0.28850136365E+02  0.00000000000E+00 0. -1.
</event>
<event>
 7    1  0.2472338E-008  0.4614232E+02  0.7816164E-02  0.1320468E+00
        -11   -1    0    0    0    0  0.00000000000E+00  0.00000000000E+00  0.45593999997E+02  0.45594000000E+02  0.51100000000E-03 0.  1.
         11   -1    0    0    0    0 -0.00000000000E+00 -0.00000000000E+00 -0.45593999997E+02  0.45594000000E+02  0.51100000000E-03 0. -1.
    9900012    2    1    2    0    0 -0.14003614731E+02  0.39365314713E+02  0.16834019858E+02  0.46142318159E+02  0.10000003629E+02 0.  0.
         12    1    1    2    0    0  0.14003614731E+02 -0.39365314713E+02 -0.16834019858E+02  0.45045681841E+02  0.00000000000E+00 0. -1.
         11    1    3    3    0    0 -0.43194063047E+01  0.14793662150E+02  0.68700700569E+01  0.16873279868E+02  0.51100000000E-03 0. -1.
        -11    1    3    3    0    0 -0.96417088440E+01  0.24067136202E+02  0.78407225470E+01  0.27086279271E+02  0.51100000000E-03 0.  1.
         12    1    3    3    0    0 -0.42499582205E-01  0.50451636006E+00  0.21232272536E+01  0.21827590207E+01  0.00000000000E+00 0. -1.
</event>
<event>
 7    1  0.2472338E-008  0.4614232E+02  0.7816164E-02  0.1320468E+00
        -11   -1    0    0    0    0  0.00000000000E+00  0.00000000000E+00  0.45593999997E+02  0.45594000000E+02  0.51100000000E-03 0. -1.
         11   -1    0    0    0    0 -0.00000000000E+00 -0.00000000000E+00 -0.45593999997E+02  0.45594000000E+02  0.51100000000E-03 0.  1.
    9900012    2    1    2    0    0  0.11779528480E+02 -0.43392004423E+02 -0.27368064312E+01  0.46142318203E+02  0.10000004032E+02 0.  0.
         12    1    1    2    0    0 -0.11779528480E+02  0.43392004423E+02  0.27368064312E+01  0.45045681797E+02  0.00000000000E+00 0. -1.
         11    1    3    3    0    0  0.74175847297E+01 -0.14395416483E+02 -0.46438722239E+00  0.16200747967E+02  0.51100000000E-03 0. -1.
        -11    1    3    3    0    0  0.41479451839E+01 -0.13209430301E+02 -0.28780698397E+01  0.14141350162E+02  0.51100000000E-03 0.  1.
        -12    1    3    3    0    0  0.21399856609E+00 -0.15787157639E+02  0.60565063096E+00  0.15800220074E+02  0.00000000000E+00 0.  1.
</event>
<event>
 7    1  0.2472338E-008  0.4614232E+02  0.7816164E-02  0.1320468E+00
        -11   -1    0    0    0    0  0.00000000000E+00  0.00000000000E+00  0.45593999997E+02  0.45594000000E+02  0.51100000000E-03 0.  1.
         11   -1    0    0    0    0 -0.00000000000E+00 -0.00000000000E+00 -0.45593999997E+02  0.45594000000E+02  0.51100000000E-03 0. -1.
    9900012    2    1    2    0    0 -0.21860292247E+02  0.32811223250E+02  0.21786798101E+02  0.46142319632E+02  0.10000017059E+02 0.  0.
         12    1    1    2    0    0  0.21860292247E+02 -0.32811223250E+02 -0.21786798101E+02  0.45045680368E+02  0.00000000000E+00 0. -1.
         11    1    3    3    0    0 -0.48296639266E+00  0.29411515759E+01  0.36502814314E+01  0.47125559857E+01  0.51100000000E-03 0.  1.
        -11    1    3    3    0    0 -0.69567933752E+01  0.14596466048E+02  0.65998085605E+01  0.17464571808E+02  0.51100000000E-03 0. -1.
        -12    1    3    3    0    0 -0.14420532479E+02  0.15273605627E+02  0.11536708109E+02  0.23965191838E+02  0.00000000000E+00 0.  1.
</event>
<event>
 7    1  0.2472338E-008  0.4614232E+02  0.7816164E-02  0.1320468E+00
        -11   -1    0    0    0    0  0.00000000000E+00  0.00000000000E+00  0.45593999997E+02  0.45594000000E+02  0.51100000000E-03 0.  1.
         11   -1    0    0    0    0 -0.00000000000E+00 -0.00000000000E+00 -0.45593999997E+02  0.45594000000E+02  0.51100000000E-03 0. -1.
    9900012    2    1    2    0    0 -0.14144251511E+02  0.42737415397E+02  0.16022090584E+01  0.46142316528E+02  0.99999887544E+01 0.  0.
         12    1    1    2    0    0  0.14144251511E+02 -0.42737415397E+02 -0.16022090584E+01  0.45045683472E+02  0.00000000000E+00 0. -1.
         11    1    3    3    0    0 -0.61765504318E+01  0.16143501770E+02  0.16801800048E+01  0.17366215182E+02  0.51100000000E-03 0. -1.
        -11    1    3    3    0    0 -0.73391526469E+01  0.15166873942E+02  0.25306865886E+01  0.17038239393E+02  0.51100000000E-03 0.  1.
         12    1    3    3    0    0 -0.62854843245E+00  0.11427039685E+02 -0.26086575350E+01  0.11737861953E+02  0.00000000000E+00 0. -1.
</event>
<event>
 7    1  0.2472338E-008  0.4614232E+02  0.7816164E-02  0.1320468E+00
        -11   -1    0    0    0    0  0.00000000000E+00  0.00000000000E+00  0.45593999997E+02  0.45594000000E+02  0.51100000000E-03 0.  1.
         11   -1    0    0    0    0 -0.00000000000E+00 -0.00000000000E+00 -0.45593999997E+02  0.45594000000E+02  0.51100000000E-03 0. -1.
    9900012    2    1    2    0    0  0.21651618080E+02  0.20911805873E+02  0.33511449144E+02  0.46142318586E+02  0.10000007519E+02 0.  0.
         12    1    1    2    0    0 -0.21651618080E+02 -0.20911805873E+02 -0.33511449144E+02  0.45045681414E+02  0.00000000000E+00 0. -1.
         11    1    3    3    0    0 -0.67315626707E+00  0.21260803769E+01  0.26234944367E+01  0.34432659568E+01  0.51100000000E-03 0. -1.
        -11    1    3    3    0    0  0.14500838370E+02  0.10644821129E+02  0.16500845604E+02  0.24410334619E+02  0.51100000000E-03 0.  1.
        -12    1    3    3    0    0  0.78239359765E+01  0.81409043668E+01  0.14387109104E+02  0.18288718010E+02  0.00000000000E+00 0.  1.
</event>
<event>
 7    1  0.2472338E-008  0.4614232E+02  0.7816164E-02  0.1320468E+00
        -11   -1    0    0    0    0  0.00000000000E+00  0.00000000000E+00  0.45593999997E+02  0.45594000000E+02  0.51100000000E-03 0. -1.
         11   -1    0    0    0    0 -0.00000000000E+00 -0.00000000000E+00 -0.45593999997E+02  0.45594000000E+02  0.51100000000E-03 0.  1.
    9900012    2    1    2    0    0  0.42722034153E+02  0.13275236642E+02 -0.52639699873E+01  0.46142317742E+02  0.99999998234E+01 0.  0.
         12    1    1    2    0    0 -0.42722034153E+02 -0.13275236642E+02  0.52639699873E+01  0.45045682258E+02  0.00000000000E+00 0. -1.
         11    1    3    3    0    0  0.78382983711E+01 -0.10632144313E+00 -0.15869193832E+01  0.79980334454E+01  0.51100000000E-03 0. -1.
        -11    1    3    3    0    0  0.13467174338E+02  0.69323736395E+01 -0.43782133334E+01  0.15766779670E+02  0.51100000000E-03 0.  1.
         12    1    3    3    0    0  0.21416561444E+02  0.64491844455E+01  0.70116272930E+00  0.22377504626E+02  0.00000000000E+00 0. -1.
</event>
<event>
 7    1  0.2472338E-008  0.4614232E+02  0.7816164E-02  0.1320468E+00
        -11   -1    0    0    0    0  0.00000000000E+00  0.00000000000E+00  0.45593999997E+02  0.45594000000E+02  0.51100000000E-03 0.  1.
         11   -1    0    0    0    0 -0.00000000000E+00 -0.00000000000E+00 -0.45593999997E+02  0.45594000000E+02  0.51100000000E-03 0. -1.
    9900012    2    1    2    0    0  0.12567286608E+02  0.19383385179E+02  0.38671192643E+02  0.46142318141E+02  0.10000003466E+02 0.  0.
         12    1    1    2    0    0 -0.12567286608E+02 -0.19383385179E+02 -0.38671192643E+02  0.45045681859E+02  0.00000000000E+00 0. -1.
         11    1    3    3    0    0  0.80871806822E+00 -0.36605005219E+00  0.95212156282E+00  0.13017500859E+01  0.51100000000E-03 0. -1.
        -11    1    3    3    0    0  0.45139956628E+01  0.19535470779E+01  0.95556382046E+01  0.10747219398E+02  0.51100000000E-03 0.  1.
         12    1    3    3    0    0  0.72445728767E+01  0.17795888153E+02  0.28163432876E+02  0.34093348657E+02  0.00000000000E+00 0. -1.
</event>
<event>
 7    1  0.2472338E-008  0.4614232E+02  0.7816164E-02  0.1320468E+00
        -11   -1    0    0    0    0  0.00000000000E+00  0.00000000000E+00  0.45593999997E+02  0.45594000000E+02  0.51100000000E-03 0.  1.
         11   -1    0    0    0    0 -0.00000000000E+00 -0.00000000000E+00 -0.45593999997E+02  0.45594000000E+02  0.51100000000E-03 0. -1.
    9900012    2    1    2    0    0 -0.23927826175E+01  0.41214427373E+02  0.18021072010E+02  0.46142317979E+02  0.10000001990E+02 0.  0.
         12    1    1    2    0    0  0.23927826175E+01 -0.41214427373E+02 -0.18021072010E+02  0.45045682021E+02  0.00000000000E+00 0. -1.
         11    1    3    3    0    0  0.38469088497E+01  0.15927549953E+02  0.67321649899E+01  0.17714615461E+02  0.51100000000E-03 0.  1.
        -11    1    3    3    0    0 -0.42925719003E+01  0.19939694803E+02  0.86488430929E+01  0.22154459810E+02  0.51100000000E-03 0. -1.
        -12    1    3    3    0    0 -0.19471195670E+01  0.53471826161E+01  0.26400639273E+01  0.62732427084E+01  0.00000000000E+00 0.  1.
</event>
<event>
 7    1  0.2472338E-008  0.4614232E+02  0.7816164E-02  0.1320468E+00
        -11   -1    0    0    0    0  0.00000000000E+00  0.00000000000E+00  0.45593999997E+02  0.45594000000E+02  0.51100000000E-03 0. -1.
         11   -1    0    0    0    0 -0.00000000000E+00 -0.00000000000E+00 -0.45593999997E+02  0.45594000000E+02  0.51100000000E-03 0.  1.
    9900012    2    1    2    0    0 -0.31409092195E+02  0.14428025335E+02 -0.28886236173E+02  0.46142316213E+02  0.99999858833E+01 0.  0.
         12    1    1    2    0    0  0.31409092195E+02 -0.14428025335E+02  0.28886236173E+02  0.45045683787E+02  0.00000000000E+00 0. -1.
         11    1    3    3    0    0 -0.80045215161E+01  0.39067437277E+00 -0.94217397416E+01  0.12369081259E+02  0.51100000000E-03 0. -1.
        -11    1    3    3    0    0 -0.18574896167E+02  0.98137750837E+01 -0.13228141167E+02  0.24825806492E+02  0.51100000000E-03 0.  1.
        -12    1    3    3    0    0 -0.48296745122E+01  0.42235758785E+01 -0.62363552647E+01  0.89474284620E+01  0.00000000000E+00 0.  1.
</event>
<event>
 7    1  0.2472338E-008  0.4614232E+02  0.7816164E-02  0.1320468E+00
        -11   -1    0    0    0    0  0.00000000000E+00  0.00000000000E+00  0.45593999997E+02  0.45594000000E+02  0.51100000000E-03 0. -1.
         11   -1    0    0    0    0 -0.00000000000E+00 -0.00000000000E+00 -0.45593999997E+02  0.45594000000E+02  0.51100000000E-03 0.  1.
    9900012    2    1    2    0    0 -0.19916708701E+02  0.39559239397E+02  0.82161280461E+01  0.46142317996E+02  0.10000002138E+02 0.  0.
         12    1    1    2    0    0  0.19916708701E+02 -0.39559239397E+02 -0.82161280461E+01  0.45045682004E+02  0.00000000000E+00 0. -1.
         11    1    3    3    0    0 -0.85152542540E+01  0.19243074820E+02  0.44115940840E+01  0.21500410372E+02  0.51100000000E-03 0.  1.
        -11    1    3    3    0    0 -0.90084250893E+01  0.10176747552E+02  0.41733129713E+01  0.14217399718E+02  0.51100000000E-03 0. -1.
         12    1    3    3    0    0 -0.23930293581E+01  0.10139417025E+02 -0.36877900910E+00  0.10424507905E+02  0.00000000000E+00 0. -1.
</event>
<event>
 7    1  0.2472338E-008  0.4614232E+02  0.7816164E-02  0.1320468E+00
        -11   -1    0    0    0    0  0.00000000000E+00  0.00000000000E+00  0.45593999997E+02  0.45594000000E+02  0.51100000000E-03 0.  1.
         11   -1    0    0    0    0 -0.00000000000E+00 -0.00000000000E+00 -0.45593999997E+02  0.45594000000E+02  0.51100000000E-03 0. -1.
    9900012    2    1    2    0    0  0.14780237281E+02  0.30256273165E+02  0.29920162747E+02  0.46142316314E+02  0.99999868056E+01 0.  0.
         12    1    1    2    0    0 -0.14780237281E+02 -0.30256273165E+02 -0.29920162747E+02  0.45045683686E+02  0.00000000000E+00 0. -1.
         11    1    3    3    0    0  0.13665454075E+01  0.29762878490E+01  0.57224414552E+01  0.65933354366E+01  0.51100000000E-03 0. -1.
        -11    1    3    3    0    0  0.12443872595E+02  0.23239996448E+02  0.23540328389E+02  0.35342530484E+02  0.51100000000E-03 0.  1.
         12    1    3    3    0    0  0.96981927789E+00  0.40399888680E+01  0.65739290270E+00  0.42064503936E+01  0.00000000000E+00 0. -1.
</event>
<event>
 7    1  0.2472338E-008  0.4614232E+02  0.7816164E-02  0.1320468E+00
        -11   -1    0    0    0    0  0.00000000000E+00  0.00000000000E+00  0.45593999997E+02  0.45594000000E+02  0.51100000000E-03 0. -1.
         11   -1    0    0    0    0 -0.00000000000E+00 -0.00000000000E+00 -0.45593999997E+02  0.45594000000E+02  0.51100000000E-03 0.  1.
    9900012    2    1    2    0    0  0.44766336555E+02  0.36172181811E-01  0.50087221241E+01  0.46142317696E+02  0.99999994042E+01 0.  0.
         12    1    1    2    0    0 -0.44766336555E+02 -0.36172181811E-01 -0.50087221241E+01  0.45045682304E+02  0.00000000000E+00 0. -1.
         11    1    3    3    0    0  0.29313465404E+02  0.10212478637E+01  0.13032020817E+01  0.29360186258E+02  0.51100000000E-03 0. -1.
        -11    1    3    3    0    0  0.14176191353E+02 -0.24501988965E+00  0.16820573587E+01  0.14277736279E+02  0.51100000000E-03 0.  1.
         12    1    3    3    0    0  0.12766797980E+01 -0.74005579219E+00  0.20234626837E+01  0.25043951594E+01  0.00000000000E+00 0. -1.
</event>
<event>
 7    1  0.2472338E-008  0.4614232E+02  0.7816164E-02  0.1320468E+00
        -11   -1    0    0    0    0  0.00000000000E+00  0.00000000000E+00  0.45593999997E+02  0.45594000000E+02  0.51100000000E-03 0. -1.
         11   -1    0    0    0    0 -0.00000000000E+00 -0.00000000000E+00 -0.45593999997E+02  0.45594000000E+02  0.51100000000E-03 0.  1.
    9900012    2    1    2    0    0 -0.38632702354E+02 -0.21173763839E+02  0.93967847145E+01  0.46142317307E+02  0.99999958565E+01 0.  0.
         12    1    1    2    0    0  0.38632702354E+02  0.21173763839E+02 -0.93967847145E+01  0.45045682693E+02  0.00000000000E+00 0. -1.
         11    1    3    3    0    0 -0.59396904051E+00 -0.14305829897E+01 -0.54503660863E+00  0.16420816293E+01  0.51100000000E-03 0. -1.
        -11    1    3    3    0    0 -0.81017534756E+01 -0.18771980741E+01  0.36144354341E+01  0.90678787904E+01  0.51100000000E-03 0.  1.
        -12    1    3    3    0    0 -0.29936979838E+02 -0.17865982776E+02  0.63273858890E+01  0.35432356887E+02  0.00000000000E+00 0.  1.
</event>
<event>
 7    1  0.2472338E-008  0.4614232E+02  0.7816164E-02  0.1320468E+00
        -11   -1    0    0    0    0  0.00000000000E+00  0.00000000000E+00  0.45593999997E+02  0.45594000000E+02  0.51100000000E-03 0.  1.
         11   -1    0    0    0    0 -0.00000000000E+00 -0.00000000000E+00 -0.45593999997E+02  0.45594000000E+02  0.51100000000E-03 0. -1.
    9900012    2    1    2    0    0 -0.27500188401E+02 -0.26153404034E+02  0.24266285291E+02  0.46142317561E+02  0.99999981716E+01 0.  0.
         12    1    1    2    0    0  0.27500188401E+02  0.26153404034E+02 -0.24266285291E+02  0.45045682439E+02  0.00000000000E+00 0. -1.
         11    1    3    3    0    0 -0.18697893261E+01  0.59776036044E+00  0.18606811388E+01  0.27047299559E+01  0.51100000000E-03 0. -1.
        -11    1    3    3    0    0 -0.11073082311E+02 -0.11690664129E+02  0.11775291523E+02  0.19948490428E+02  0.51100000000E-03 0.  1.
        -12    1    3    3    0    0 -0.14557316764E+02 -0.15060500265E+02  0.10630312629E+02  0.23489097176E+02  0.00000000000E+00 0.  1.
</event>
<event>
 7    1  0.2472338E-008  0.4614232E+02  0.7816164E-02  0.1320468E+00
        -11   -1    0    0    0    0  0.00000000000E+00  0.00000000000E+00  0.45593999997E+02  0.45594000000E+02  0.51100000000E-03 0.  1.
         11   -1    0    0    0    0 -0.00000000000E+00 -0.00000000000E+00 -0.45593999997E+02  0.45594000000E+02  0.51100000000E-03 0. -1.
    9900012    2    1    2    0    0  0.80431161629E+01 -0.43965307179E+02  0.56101278078E+01  0.46142317777E+02  0.10000000145E+02 0.  0.
         12    1    1    2    0    0 -0.80431161629E+01  0.43965307179E+02 -0.56101278078E+01  0.45045682223E+02  0.00000000000E+00 0. -1.
         11    1    3    3    0    0  0.91676302437E+00 -0.34259812193E+01 -0.14974108295E+01  0.38496806636E+01  0.51100000000E-03 0. -1.
        -11    1    3    3    0    0  0.45875167908E+01 -0.17804124184E+02  0.16688293529E+00  0.18386407981E+02  0.51100000000E-03 0.  1.
        -12    1    3    3    0    0  0.25388363477E+01 -0.22735201775E+02  0.69406557020E+01  0.23906229133E+02  0.00000000000E+00 0.  1.
</event>
<event>
 7    1  0.2472338E-008  0.4614232E+02  0.7816164E-02  0.1320468E+00
        -11   -1    0    0    0    0  0.00000000000E+00  0.00000000000E+00  0.45593999997E+02  0.45594000000E+02  0.51100000000E-03 0. -1.
         11   -1    0    0    0    0 -0.00000000000E+00 -0.00000000000E+00 -0.45593999997E+02  0.45594000000E+02  0.51100000000E-03 0.  1.
    9900012    2    1    2    0    0  0.23507881854E+02  0.29717210485E+02 -0.24359400029E+02  0.46142317876E+02  0.10000001049E+02 0.  0.
         12    1    1    2    0    0 -0.23507881854E+02 -0.29717210485E+02  0.24359400029E+02  0.45045682124E+02  0.00000000000E+00 0. -1.
         11    1    3    3    0    0  0.49986947650E+01  0.46863788943E+01 -0.64764858194E+01  0.94283596307E+01  0.51100000000E-03 0. -1.
        -11    1    3    3    0    0  0.48624350728E+01  0.22948902498E+01 -0.16566985003E+01  0.56262284239E+01  0.51100000000E-03 0.  1.
        -12    1    3    3    0    0  0.13646752016E+02  0.22735941341E+02 -0.16226215709E+02  0.31087729822E+02  0.00000000000E+00 0.  1.
</event>
<event>
 7    1  0.2472338E-008  0.4614232E+02  0.7816164E-02  0.1320468E+00
        -11   -1    0    0    0    0  0.00000000000E+00  0.00000000000E+00  0.45593999997E+02  0.45594000000E+02  0.51100000000E-03 0.  1.
         11   -1    0    0    0    0 -0.00000000000E+00 -0.00000000000E+00 -0.45593999997E+02  0.45594000000E+02  0.51100000000E-03 0. -1.
    9900012    2    1    2    0    0  0.21428822976E+02  0.33887647380E+02  0.20531592983E+02  0.46142318636E+02  0.10000007982E+02 0.  0.
         12    1    1    2    0    0 -0.21428822976E+02 -0.33887647380E+02 -0.20531592983E+02  0.45045681364E+02  0.00000000000E+00 0. -1.
         11    1    3    3    0    0  0.14957388975E+01  0.80764620640E+00  0.27831457322E+00  0.17224942691E+01  0.51100000000E-03 0. -1.
        -11    1    3    3    0    0  0.10818224462E+02  0.16372794942E+02  0.56207595785E+01  0.20413116695E+02  0.51100000000E-03 0.  1.
         12    1    3    3    0    0  0.91148596163E+01  0.16707206232E+02  0.14632518831E+02  0.24006707672E+02  0.00000000000E+00 0. -1.
</event>
<event>
 7    1  0.2472338E-008  0.4614232E+02  0.7816164E-02  0.1320468E+00
        -11   -1    0    0    0    0  0.00000000000E+00  0.00000000000E+00  0.45593999997E+02  0.45594000000E+02  0.51100000000E-03 0. -1.
         11   -1    0    0    0    0 -0.00000000000E+00 -0.00000000000E+00 -0.45593999997E+02  0.45594000000E+02  0.51100000000E-03 0.  1.
    9900012    2    1    2    0    0  0.34856684585E+01 -0.41173808809E+02 -0.17935466927E+02  0.46142318850E+02  0.10000009925E+02 0.  0.
         12    1    1    2    0    0 -0.34856684585E+01  0.41173808809E+02  0.17935466927E+02  0.45045681150E+02  0.00000000000E+00 0. -1.
         11    1    3    3    0    0  0.54542085490E+01 -0.20439241682E+02 -0.84751763010E+01  0.22789023784E+02  0.51100000000E-03 0.  1.
        -11    1    3    3    0    0  0.10054482198E+01 -0.49952845992E+01 -0.84330511103E+00  0.51647805492E+01  0.51100000000E-03 0. -1.
         12    1    3    3    0    0 -0.29739883103E+01 -0.15739282528E+02 -0.86169855147E+01  0.18188514517E+02  0.00000000000E+00 0. -1.
</event>
<event>
 7    1  0.2472338E-008  0.4614232E+02  0.7816164E-02  0.1320468E+00
        -11   -1    0    0    0    0  0.00000000000E+00  0.00000000000E+00  0.45593999997E+02  0.45594000000E+02  0.51100000000E-03 0. -1.
         11   -1    0    0    0    0 -0.00000000000E+00 -0.00000000000E+00 -0.45593999997E+02  0.45594000000E+02  0.51100000000E-03 0.  1.
    9900012    2    1    2    0    0 -0.29055217409E+02  0.20561501487E+02 -0.27606747572E+02  0.46142317481E+02  0.99999974463E+01 0.  0.
         12    1    1    2    0    0  0.29055217409E+02 -0.20561501487E+02  0.27606747572E+02  0.45045682519E+02  0.00000000000E+00 0. -1.
         11    1    3    3    0    0 -0.20865033907E+01  0.22756360367E+00 -0.12648040154E+01  0.24505124059E+01  0.51100000000E-03 0. -1.
        -11    1    3    3    0    0 -0.22303079406E+02  0.15136630107E+02 -0.16432970469E+02  0.31568773190E+02  0.51100000000E-03 0.  1.
         12    1    3    3    0    0 -0.46656346130E+01  0.51973077759E+01 -0.99089730870E+01  0.12123031886E+02  0.00000000000E+00 0. -1.
</event>
<event>
 7    1  0.2472338E-008  0.4614232E+02  0.7816164E-02  0.1320468E+00
        -11   -1    0    0    0    0  0.00000000000E+00  0.00000000000E+00  0.45593999997E+02  0.45594000000E+02  0.51100000000E-03 0.  1.
         11   -1    0    0    0    0 -0.00000000000E+00 -0.00000000000E+00 -0.45593999997E+02  0.45594000000E+02  0.51100000000E-03 0. -1.
    9900012    2    1    2    0    0  0.35004568956E+02  0.27939261853E+02 -0.48157348346E+01  0.46142317602E+02  0.99999985457E+01 0.  0.
         12    1    1    2    0    0 -0.35004568956E+02 -0.27939261853E+02  0.48157348346E+01  0.45045682398E+02  0.00000000000E+00 0. -1.
         11    1    3    3    0    0  0.18495291302E+01  0.18690119953E+01  0.88074117091E+00  0.27730252637E+01  0.51100000000E-03 0. -1.
        -11    1    3    3    0    0  0.30438200211E+02  0.24521723382E+02 -0.74401124632E+01  0.39788870597E+02  0.51100000000E-03 0.  1.
        -12    1    3    3    0    0  0.27168396155E+01  0.15485264761E+01  0.17436364576E+01  0.35804217405E+01  0.00000000000E+00 0.  1.
</event>
<event>
 7    1  0.2472338E-008  0.4614232E+02  0.7816164E-02  0.1320468E+00
        -11   -1    0    0    0    0  0.00000000000E+00  0.00000000000E+00  0.45593999997E+02  0.45594000000E+02  0.51100000000E-03 0.  1.
         11   -1    0    0    0    0 -0.00000000000E+00 -0.00000000000E+00 -0.45593999997E+02  0.45594000000E+02  0.51100000000E-03 0. -1.
    9900012    2    1    2    0    0 -0.38063178084E+02  0.14240917049E+02  0.19429467505E+02  0.46142318167E+02  0.10000003700E+02 0.  0.
         12    1    1    2    0    0  0.38063178084E+02 -0.14240917049E+02 -0.19429467505E+02  0.45045681833E+02  0.00000000000E+00 0. -1.
         11    1    3    3    0    0 -0.11442609576E+01 -0.20812306289E-01 -0.82389794645E+00  0.14101682093E+01  0.51100000000E-03 0. -1.
        -11    1    3    3    0    0 -0.70478549399E+01  0.10859075760E+01  0.49147498802E+01  0.86606132094E+01  0.51100000000E-03 0.  1.
        -12    1    3    3    0    0 -0.29871062187E+02  0.13175821780E+02  0.15338615572E+02  0.36071536748E+02  0.00000000000E+00 0.  1.
</event>
<event>
 7    1  0.2472338E-008  0.4614232E+02  0.7816164E-02  0.1320468E+00
        -11   -1    0    0    0    0  0.00000000000E+00  0.00000000000E+00  0.45593999997E+02  0.45594000000E+02  0.51100000000E-03 0. -1.
         11   -1    0    0    0    0 -0.00000000000E+00 -0.00000000000E+00 -0.45593999997E+02  0.45594000000E+02  0.51100000000E-03 0.  1.
    9900012    2    1    2    0    0 -0.29483683587E+02 -0.13453447688E+02 -0.31286268447E+02  0.46142318233E+02  0.10000004300E+02 0.  0.
         12    1    1    2    0    0  0.29483683587E+02  0.13453447688E+02  0.31286268447E+02  0.45045681767E+02  0.00000000000E+00 0. -1.
         11    1    3    3    0    0 -0.27827110482E+01 -0.36560035300E+01 -0.19135507738E+01  0.49770994981E+01  0.51100000000E-03 0. -1.
        -11    1    3    3    0    0 -0.94703818047E+01 -0.10826067132E+01 -0.96569983423E+01  0.13569000924E+02  0.51100000000E-03 0.  1.
         12    1    3    3    0    0 -0.17230590734E+02 -0.87148374450E+01 -0.19715719331E+02  0.27596217811E+02  0.00000000000E+00 0. -1.
</event>
<event>
 7    1  0.2472338E-008  0.4614232E+02  0.7816164E-02  0.1320468E+00
        -11   -1    0    0    0    0  0.00000000000E+00  0.00000000000E+00  0.45593999997E+02  0.45594000000E+02  0.51100000000E-03 0.  1.
         11   -1    0    0    0    0 -0.00000000000E+00 -0.00000000000E+00 -0.45593999997E+02  0.45594000000E+02  0.51100000000E-03 0. -1.
    9900012    2    1    2    0    0  0.28129566306E+02  0.86907899215E+01  0.34092683017E+02  0.46142319127E+02  0.10000012458E+02 0.  0.
         12    1    1    2    0    0 -0.28129566306E+02 -0.86907899215E+01 -0.34092683017E+02  0.45045680873E+02  0.00000000000E+00 0. -1.
         11    1    3    3    0    0  0.11154651194E+02  0.25680549035E+01  0.95578069877E+01  0.14912170329E+02  0.51100000000E-03 0.  1.
        -11    1    3    3    0    0  0.13610431429E+02  0.73912288415E+01  0.17794200950E+02  0.23590415324E+02  0.51100000000E-03 0. -1.
         12    1    3    3    0    0  0.33644836828E+01 -0.12684938236E+01  0.67406750792E+01  0.76397334741E+01  0.00000000000E+00 0. -1.
</event>
<event>
 7    1  0.2472338E-008  0.4614232E+02  0.7816164E-02  0.1320468E+00
        -11   -1    0    0    0    0  0.00000000000E+00  0.00000000000E+00  0.45593999997E+02  0.45594000000E+02  0.51100000000E-03 0.  1.
         11   -1    0    0    0    0 -0.00000000000E+00 -0.00000000000E+00 -0.45593999997E+02  0.45594000000E+02  0.51100000000E-03 0. -1.
    9900012    2    1    2    0    0 -0.23188983442E+02 -0.16510880578E+02  0.34910962787E+02  0.46142318151E+02  0.10000003556E+02 0.  0.
         12    1    1    2    0    0  0.23188983442E+02  0.16510880578E+02 -0.34910962787E+02  0.45045681849E+02  0.00000000000E+00 0. -1.
         11    1    3    3    0    0  0.76296109672E+00 -0.84790724210E+00  0.13009996583E+01  0.17302186851E+01  0.51100000000E-03 0. -1.
        -11    1    3    3    0    0 -0.12099171366E+02 -0.99746099454E+01  0.15647451927E+02  0.22152325914E+02  0.51100000000E-03 0.  1.
        -12    1    3    3    0    0 -0.11852773172E+02 -0.56883633903E+01  0.17962511202E+02  0.22259773552E+02  0.00000000000E+00 0.  1.
</event>
<event>
 7    1  0.2472338E-008  0.4614232E+02  0.7816164E-02  0.1320468E+00
        -11   -1    0    0    0    0  0.00000000000E+00  0.00000000000E+00  0.45593999997E+02  0.45594000000E+02  0.51100000000E-03 0.  1.
         11   -1    0    0    0    0 -0.00000000000E+00 -0.00000000000E+00 -0.45593999997E+02  0.45594000000E+02  0.51100000000E-03 0. -1.
    9900012    2    1    2    0    0 -0.17800701495E+02  0.27829993640E+02  0.30622541200E+02  0.46142317085E+02  0.99999938390E+01 0.  0.
         12    1    1    2    0    0  0.17800701495E+02 -0.27829993640E+02 -0.30622541200E+02  0.45045682915E+02  0.00000000000E+00 0. -1.
         11    1    3    3    0    0 -0.31948890421E+01  0.25103187655E+01  0.52493340147E+01  0.66381114901E+01  0.51100000000E-03 0. -1.
        -11    1    3    3    0    0 -0.76551021924E+01  0.70981161085E+01  0.11734110635E+02  0.15705833136E+02  0.51100000000E-03 0.  1.
        -12    1    3    3    0    0 -0.69507102608E+01  0.18221558766E+02  0.13639096550E+02  0.23798372459E+02  0.00000000000E+00 0.  1.
</event>
<event>
 7    1  0.2472338E-008  0.4614232E+02  0.7816164E-02  0.1320468E+00
        -11   -1    0    0    0    0  0.00000000000E+00  0.00000000000E+00  0.45593999997E+02  0.45594000000E+02  0.51100000000E-03 0.  1.
         11   -1    0    0    0    0 -0.00000000000E+00 -0.00000000000E+00 -0.45593999997E+02  0.45594000000E+02  0.51100000000E-03 0. -1.
    9900012    2    1    2    0    0  0.35006078642E+02 -0.97566634867E+01  0.26617581921E+02  0.46142315505E+02  0.99999794305E+01 0.  0.
         12    1    1    2    0    0 -0.35006078642E+02  0.97566634867E+01 -0.26617581921E+02  0.45045684495E+02  0.00000000000E+00 0. -1.
         11    1    3    3    0    0  0.80638878351E+01 -0.27323784664E+01  0.31483079842E+01  0.90776661387E+01  0.51100000000E-03 0.  1.
        -11    1    3    3    0    0  0.10205861219E+02 -0.50782416847E+01  0.63684152318E+01  0.13057750750E+02  0.51100000000E-03 0. -1.
         12    1    3    3    0    0  0.16736329588E+02 -0.19460433356E+01  0.17100858705E+02  0.24006898617E+02  0.00000000000E+00 0. -1.
</event>
<event>
 7    1  0.2472338E-008  0.4614231E+02  0.7816164E-02  0.1320468E+00
        -11   -1    0    0    0    0  0.00000000000E+00  0.00000000000E+00  0.45593999997E+02  0.45594000000E+02  0.51100000000E-03 0.  1.
         11   -1    0    0    0    0 -0.00000000000E+00 -0.00000000000E+00 -0.45593999997E+02  0.45594000000E+02  0.51100000000E-03 0. -1.
    9900012    2    1    2    0    0 -0.34607217497E+02 -0.28831444985E+02  0.44990556491E+00  0.46142310552E+02  0.99999342648E+01 0.  0.
         12    1    1    2    0    0  0.34607217497E+02  0.28831444985E+02 -0.44990556491E+00  0.45045689448E+02  0.00000000000E+00 0. -1.
         11    1    3    3    0    0 -0.11050657987E+02 -0.99941457311E+01  0.43049101353E+01  0.15509101920E+02  0.51100000000E-03 0. -1.
        -11    1    3    3    0    0 -0.75122503555E+00 -0.51576669426E+00 -0.81453373250E+00  0.12222192109E+01  0.51100000000E-03 0.  1.
        -12    1    3    3    0    0 -0.22805334475E+02 -0.18321532560E+02 -0.30404708379E+01  0.29410989421E+02  0.00000000000E+00 0.  1.
</event>
<event>
 7    1  0.2472338E-008  0.4614232E+02  0.7816164E-02  0.1320468E+00
        -11   -1    0    0    0    0  0.00000000000E+00  0.00000000000E+00  0.45593999997E+02  0.45594000000E+02  0.51100000000E-03 0.  1.
         11   -1    0    0    0    0 -0.00000000000E+00 -0.00000000000E+00 -0.45593999997E+02  0.45594000000E+02  0.51100000000E-03 0. -1.
    9900012    2    1    2    0    0 -0.10999540478E+02 -0.56376444213E+01  0.43316747970E+02  0.46142316743E+02  0.99999907187E+01 0.  0.
         12    1    1    2    0    0  0.10999540478E+02  0.56376444213E+01 -0.43316747970E+02  0.45045683257E+02  0.00000000000E+00 0. -1.
         11    1    3    3    0    0 -0.28029570180E+01 -0.10971249281E+01  0.21144119598E+02  0.21357294889E+02  0.51100000000E-03 0. -1.
        -11    1    3    3    0    0 -0.13470982525E+01 -0.37332636973E+00  0.10685981552E+02  0.10777024092E+02  0.51100000000E-03 0.  1.
         12    1    3    3    0    0 -0.68494852076E+01 -0.41671931234E+01  0.11486646820E+02  0.14007997762E+02  0.00000000000E+00 0. -1.
</event>
<event>
 7    1  0.2472338E-008  0.4614232E+02  0.7816164E-02  0.1320468E+00
        -11   -1    0    0    0    0  0.00000000000E+00  0.00000000000E+00  0.45593999997E+02  0.45594000000E+02  0.51100000000E-03 0.  1.
         11   -1    0    0    0    0 -0.00000000000E+00 -0.00000000000E+00 -0.45593999997E+02  0.45594000000E+02  0.51100000000E-03 0. -1.
    9900012    2    1    2    0    0 -0.25618425856E+01 -0.23046179001E+02  0.38618960613E+02  0.46142317379E+02  0.99999965150E+01 0.  0.
         12    1    1    2    0    0  0.25618425856E+01  0.23046179001E+02 -0.38618960613E+02  0.45045682621E+02  0.00000000000E+00 0. -1.
         11    1    3    3    0    0 -0.67370013179E+00  0.48742726133E+00  0.14244024599E+01  0.16493573996E+01  0.51100000000E-03 0. -1.
        -11    1    3    3    0    0  0.21219670620E+00 -0.63457710893E+01  0.15396750843E+02  0.16654542171E+02  0.51100000000E-03 0.  1.
         12    1    3    3    0    0 -0.21003391600E+01 -0.17187835173E+02  0.21797807310E+02  0.27838417808E+02  0.00000000000E+00 0. -1.
</event>
<event>
 7    1  0.2472338E-008  0.4614232E+02  0.7816164E-02  0.1320468E+00
        -11   -1    0    0    0    0  0.00000000000E+00  0.00000000000E+00  0.45593999997E+02  0.45594000000E+02  0.51100000000E-03 0.  1.
         11   -1    0    0    0    0 -0.00000000000E+00 -0.00000000000E+00 -0.45593999997E+02  0.45594000000E+02  0.51100000000E-03 0. -1.
    9900012    2    1    2    0    0  0.37075726575E+02 -0.58224373090E+01  0.24911908999E+02  0.46142317773E+02  0.10000000110E+02 0.  0.
         12    1    1    2    0    0 -0.37075726575E+02  0.58224373090E+01 -0.24911908999E+02  0.45045682227E+02  0.00000000000E+00 0. -1.
         11    1    3    3    0    0  0.18101756092E+02 -0.65433769242E+01  0.11823345600E+02  0.22589396996E+02  0.51100000000E-03 0. -1.
        -11    1    3    3    0    0  0.15863470699E+02 -0.78160833120E+00  0.12079008510E+02  0.19954023681E+02  0.51100000000E-03 0.  1.
         12    1    3    3    0    0  0.31104997838E+01  0.15025479464E+01  0.10095548888E+01  0.35988970963E+01  0.00000000000E+00 0. -1.
</event>
<event>
 7    1  0.2472338E-008  0.4614232E+02  0.7816164E-02  0.1320468E+00
        -11   -1    0    0    0    0  0.00000000000E+00  0.00000000000E+00  0.45593999997E+02  0.45594000000E+02  0.51100000000E-03 0.  1.
         11   -1    0    0    0    0 -0.00000000000E+00 -0.00000000000E+00 -0.45593999997E+02  0.45594000000E+02  0.51100000000E-03 0. -1.
    9900012    2    1    2    0    0 -0.11812336736E+02  0.19342039175E+02  0.38929008300E+02  0.46142318011E+02  0.10000002281E+02 0.  0.
         12    1    1    2    0    0  0.11812336736E+02 -0.19342039175E+02 -0.38929008300E+02  0.45045681989E+02  0.00000000000E+00 0. -1.
         11    1    3    3    0    0 -0.27543197002E+01  0.40445415306E+01  0.30226890259E+01  0.57516295441E+01  0.51100000000E-03 0. -1.
        -11    1    3    3    0    0  0.46496519733E+00  0.24949253847E+01  0.46702430252E+01  0.53152625039E+01  0.51100000000E-03 0.  1.
        -12    1    3    3    0    0 -0.95229822329E+01  0.12802572260E+02  0.31236076249E+02  0.35075425963E+02  0.00000000000E+00 0.  1.
</event>
<event>
 7    1  0.2472338E-008  0.4614232E+02  0.7816164E-02  0.1320468E+00
        -11   -1    0    0    0    0  0.00000000000E+00  0.00000000000E+00  0.45593999997E+02  0.45594000000E+02  0.51100000000E-03 0.  1.
         11   -1    0    0    0    0 -0.00000000000E+00 -0.00000000000E+00 -0.45593999997E+02  0.45594000000E+02  0.51100000000E-03 0. -1.
    9900012    2    1    2    0    0  0.54544882419E+01 -0.12095994281E+02  0.43047055364E+02  0.46142317686E+02  0.99999993157E+01 0.  0.
         12    1    1    2    0    0 -0.54544882419E+01  0.12095994281E+02 -0.43047055364E+02  0.45045682314E+02  0.00000000000E+00 0. -1.
         11    1    3    3    0    0 -0.58231642083E+00 -0.11221069963E+01  0.14604977004E+01  0.19316496368E+01  0.51100000000E-03 0. -1.
        -11    1    3    3    0    0  0.37128203229E+01 -0.44722588619E+01  0.31211743846E+02  0.31748371427E+02  0.51100000000E-03 0.  1.
         12    1    3    3    0    0  0.23239843399E+01 -0.65016284232E+01  0.10374813817E+02  0.12462296622E+02  0.00000000000E+00 0. -1.
</event>
<event>
 7    1  0.2472338E-008  0.4614232E+02  0.7816164E-02  0.1320468E+00
        -11   -1    0    0    0    0  0.00000000000E+00  0.00000000000E+00  0.45593999997E+02  0.45594000000E+02  0.51100000000E-03 0. -1.
         11   -1    0    0    0    0 -0.00000000000E+00 -0.00000000000E+00 -0.45593999997E+02  0.45594000000E+02  0.51100000000E-03 0.  1.
    9900012    2    1    2    0    0 -0.23835350474E+01  0.41393301355E+02  0.17607580216E+02  0.46142317438E+02  0.99999970565E+01 0.  0.
         12    1    1    2    0    0  0.23835350474E+01 -0.41393301355E+02 -0.17607580216E+02  0.45045682562E+02  0.00000000000E+00 0. -1.
         11    1    3    3    0    0  0.31146441249E+01  0.10951799570E+02  0.35597933052E+01  0.11929587188E+02  0.51100000000E-03 0. -1.
        -11    1    3    3    0    0 -0.44269599325E+01  0.28081836021E+02  0.11792821245E+02  0.30777558736E+02  0.51100000000E-03 0.  1.
        -12    1    3    3    0    0 -0.10712192398E+01  0.23596657639E+01  0.22549656664E+01  0.34351715144E+01  0.00000000000E+00 0.  1.
</event>
<event>
 7    1  0.2472338E-008  0.4614231E+02  0.7816164E-02  0.1320468E+00
        -11   -1    0    0    0    0  0.00000000000E+00  0.00000000000E+00  0.45593999997E+02  0.45594000000E+02  0.51100000000E-03 0.  1.
         11   -1    0    0    0    0 -0.00000000000E+00 -0.00000000000E+00 -0.45593999997E+02  0.45594000000E+02  0.51100000000E-03 0. -1.
    9900012    2    1    2    0    0  0.15448351041E+02 -0.92733533952E+01  0.41285194316E+02  0.46142313161E+02  0.99999580529E+01 0.  0.
         12    1    1    2    0    0 -0.15448351041E+02  0.92733533952E+01 -0.41285194316E+02  0.45045686839E+02  0.00000000000E+00 0. -1.
         11    1    3    3    0    0  0.79634555271E+00  0.21693038894E+00 -0.27087379443E+00  0.86867595028E+00  0.51100000000E-03 0. -1.
        -11    1    3    3    0    0  0.72789678620E+01 -0.22707545278E+01  0.18785822167E+02  0.20274289482E+02  0.51100000000E-03 0.  1.
        -12    1    3    3    0    0  0.73730376259E+01 -0.72195292563E+01  0.22770245944E+02  0.24999347729E+02  0.00000000000E+00 0.  1.
</event>
<event>
 7    1  0.2472338E-008  0.4614232E+02  0.7816164E-02  0.1320468E+00
        -11   -1    0    0    0    0  0.00000000000E+00  0.00000000000E+00  0.45593999997E+02  0.45594000000E+02  0.51100000000E-03 0. -1.
         11   -1    0    0    0    0 -0.00000000000E+00 -0.00000000000E+00 -0.45593999997E+02  0.45594000000E+02  0.51100000000E-03 0.  1.
    9900012    2    1    2    0    0  0.26994585441E+01 -0.42950312960E+02 -0.13307779756E+02  0.46142318056E+02  0.10000002685E+02 0.  0.
         12    1    1    2    0    0 -0.26994585441E+01  0.42950312960E+02  0.13307779756E+02  0.45045681944E+02  0.00000000000E+00 0. -1.
         11    1    3    3    0    0  0.31920244900E+01 -0.90060626484E+01 -0.42689675842E+01  0.10465288781E+02  0.51100000000E-03 0. -1.
        -11    1    3    3    0    0 -0.35973253322E+00 -0.12844080909E+02 -0.65733160637E+01  0.14432889739E+02  0.51100000000E-03 0.  1.
        -12    1    3    3    0    0 -0.13283341270E+00 -0.21100169403E+02 -0.24654961082E+01  0.21244139535E+02  0.00000000000E+00 0.  1.
</event>
<event>
 7    1  0.2472338E-008  0.4614232E+02  0.7816164E-02  0.1320468E+00
        -11   -1    0    0    0    0  0.00000000000E+00  0.00000000000E+00  0.45593999997E+02  0.45594000000E+02  0.51100000000E-03 0.  1.
         11   -1    0    0    0    0 -0.00000000000E+00 -0.00000000000E+00 -0.45593999997E+02  0.45594000000E+02  0.51100000000E-03 0. -1.
    9900012    2    1    2    0    0 -0.34792004984E+02 -0.48465266299E+01  0.28198246957E+02  0.46142316936E+02  0.99999924781E+01 0.  0.
         12    1    1    2    0    0  0.34792004984E+02  0.48465266299E+01 -0.28198246957E+02  0.45045683064E+02  0.00000000000E+00 0. -1.
         11    1    3    3    0    0 -0.13186478653E+02 -0.45714292767E+01  0.14542578052E+02  0.20156084976E+02  0.51100000000E-03 0. -1.
        -11    1    3    3    0    0 -0.13003834882E+02 -0.18979984893E+01  0.99370786759E+01  0.16475668508E+02  0.51100000000E-03 0.  1.
        -12    1    3    3    0    0 -0.86016914501E+01  0.16229011362E+01  0.37185902297E+01  0.95105634531E+01  0.00000000000E+00 0.  1.
</event>
<event>
 7    1  0.2472338E-008  0.4614233E+02  0.7816164E-02  0.1320468E+00
        -11   -1    0    0    0    0  0.00000000000E+00  0.00000000000E+00  0.45593999997E+02  0.45594000000E+02  0.51100000000E-03 0.  1.
         11   -1    0    0    0    0 -0.00000000000E+00 -0.00000000000E+00 -0.45593999997E+02  0.45594000000E+02  0.51100000000E-03 0. -1.
    9900012    2    1    2    0    0 -0.23470410227E+02 -0.44979565185E+01  0.38184040819E+02  0.46142326042E+02  0.10000075511E+02 0.  0.
         12    1    1    2    0    0  0.23470410227E+02  0.44979565185E+01 -0.38184040819E+02  0.45045673958E+02  0.00000000000E+00 0. -1.
         11    1    3    3    0    0 -0.50086313816E+00 -0.24168872708E+01  0.31991060792E+01  0.40406048966E+01  0.51100000000E-03 0. -1.
        -11    1    3    3    0    0 -0.62050584235E+01 -0.23499397378E+01  0.10729139313E+02  0.12615046471E+02  0.51100000000E-03 0.  1.
        -12    1    3    3    0    0 -0.16764488666E+02  0.26887049008E+00  0.24255795426E+02  0.29486674674E+02  0.00000000000E+00 0.  1.
</event>
<event>
 7    1  0.2472338E-008  0.4614232E+02  0.7816164E-02  0.1320468E+00
        -11   -1    0    0    0    0  0.00000000000E+00  0.00000000000E+00  0.45593999997E+02  0.45594000000E+02  0.51100000000E-03 0.  1.
         11   -1    0    0    0    0 -0.00000000000E+00 -0.00000000000E+00 -0.45593999997E+02  0.45594000000E+02  0.51100000000E-03 0. -1.
    9900012    2    1    2    0    0 -0.18564002391E+02 -0.31720877037E+02  0.26043758125E+02  0.46142316943E+02  0.99999925420E+01 0.  0.
         12    1    1    2    0    0  0.18564002391E+02  0.31720877037E+02 -0.26043758125E+02  0.45045683057E+02  0.00000000000E+00 0. -1.
         11    1    3    3    0    0 -0.28804679929E+01 -0.45846116519E+01  0.61325118492E+01  0.81806761150E+01  0.51100000000E-03 0. -1.
        -11    1    3    3    0    0 -0.10553760502E+02 -0.18956869958E+02  0.17834686084E+02  0.28085953915E+02  0.51100000000E-03 0.  1.
         12    1    3    3    0    0 -0.51297738964E+01 -0.81793954268E+01  0.20765601919E+01  0.98756869132E+01  0.00000000000E+00 0. -1.
</event>
<event>
 7    1  0.2472338E-008  0.4614232E+02  0.7816164E-02  0.1320468E+00
        -11   -1    0    0    0    0  0.00000000000E+00  0.00000000000E+00  0.45593999997E+02  0.45594000000E+02  0.51100000000E-03 0. -1.
         11   -1    0    0    0    0 -0.00000000000E+00 -0.00000000000E+00 -0.45593999997E+02  0.45594000000E+02  0.51100000000E-03 0.  1.
    9900012    2    1    2    0    0  0.11003294004E+02 -0.28648855440E+02 -0.32973990328E+02  0.46142318353E+02  0.10000005393E+02 0.  0.
         12    1    1    2    0    0 -0.11003294004E+02  0.28648855440E+02  0.32973990328E+02  0.45045681647E+02  0.00000000000E+00 0. -1.
         11    1    3    3    0    0  0.71269118673E+00 -0.24913435486E+00  0.41565966142E+00  0.86184097702E+00  0.51100000000E-03 0. -1.
        -11    1    3    3    0    0  0.38600024465E+01 -0.17361013372E+02 -0.18523795616E+02  0.25679474458E+02  0.51100000000E-03 0.  1.
        -12    1    3    3    0    0  0.64306003713E+01 -0.11038707713E+02 -0.14865854373E+02  0.19601002917E+02  0.00000000000E+00 0.  1.
</event>
<event>
 7    1  0.2472338E-008  0.4614232E+02  0.7816164E-02  0.1320468E+00
        -11   -1    0    0    0    0  0.00000000000E+00  0.00000000000E+00  0.45593999997E+02  0.45594000000E+02  0.51100000000E-03 0. -1.
         11   -1    0    0    0    0 -0.00000000000E+00 -0.00000000000E+00 -0.45593999997E+02  0.45594000000E+02  0.51100000000E-03 0.  1.
    9900012    2    1    2    0    0  0.18141692925E+02  0.19077149987E+02 -0.36552085342E+02  0.46142316337E+02  0.99999870124E+01 0.  0.
         12    1    1    2    0    0 -0.18141692925E+02 -0.19077149987E+02  0.36552085342E+02  0.45045683663E+02  0.00000000000E+00 0. -1.
         11    1    3    3    0    0  0.73188875659E+01  0.46356050934E+01 -0.12126773999E+02  0.14903476027E+02  0.51100000000E-03 0. -1.
        -11    1    3    3    0    0  0.94176727586E+01  0.66546333836E+01 -0.15338669634E+02  0.19189879939E+02  0.51100000000E-03 0.  1.
        -12    1    3    3    0    0  0.14051326006E+01  0.77869115099E+01 -0.90866417092E+01  0.12048960372E+02  0.00000000000E+00 0.  1.
</event>
<event>
 7    1  0.2472338E-008  0.4614232E+02  0.7816164E-02  0.1320468E+00
        -11   -1    0    0    0    0  0.00000000000E+00  0.00000000000E+00  0.45593999997E+02  0.45594000000E+02  0.51100000000E-03 0.  1.
         11   -1    0    0    0    0 -0.00000000000E+00 -0.00000000000E+00 -0.45593999997E+02  0.45594000000E+02  0.51100000000E-03 0. -1.
    9900012    2    1    2    0    0 -0.22550221924E+02  0.34435271562E+02  0.18297898733E+02  0.46142317250E+02  0.99999953421E+01 0.  0.
         12    1    1    2    0    0  0.22550221924E+02 -0.34435271562E+02 -0.18297898733E+02  0.45045682750E+02  0.00000000000E+00 0. -1.
         11    1    3    3    0    0 -0.53508186273E+01  0.12554307892E+02  0.36715906777E+01  0.14132320581E+02  0.51100000000E-03 0. -1.
        -11    1    3    3    0    0 -0.93460690934E+00  0.47779323920E+01  0.23440466909E+01  0.54033955220E+01  0.51100000000E-03 0.  1.
        -12    1    3    3    0    0 -0.16264796387E+02  0.17103031278E+02  0.12282261364E+02  0.26606601147E+02  0.00000000000E+00 0.  1.
</event>
<event>
 7    1  0.2472338E-008  0.4614231E+02  0.7816164E-02  0.1320468E+00
        -11   -1    0    0    0    0  0.00000000000E+00  0.00000000000E+00  0.45593999997E+02  0.45594000000E+02  0.51100000000E-03 0.  1.
         11   -1    0    0    0    0 -0.00000000000E+00 -0.00000000000E+00 -0.45593999997E+02  0.45594000000E+02  0.51100000000E-03 0. -1.
    9900012    2    1    2    0    0  0.64905072145E+00  0.32078608038E+02  0.31617336591E+02  0.46142308379E+02  0.99999144468E+01 0.  0.
         12    1    1    2    0    0 -0.64905072145E+00 -0.32078608038E+02 -0.31617336591E+02  0.45045691621E+02  0.00000000000E+00 0. -1.
         11    1    3    3    0    0  0.34552407275E+01  0.10984679079E+02  0.87837881378E+01  0.14482983024E+02  0.51100000000E-03 0.  1.
        -11    1    3    3    0    0  0.31307451414E+00  0.10102992541E+02  0.13738518825E+02  0.17056241488E+02  0.51100000000E-03 0. -1.
        -12    1    3    3    0    0 -0.31192645202E+01  0.10990936419E+02  0.90950296275E+01  0.14603083867E+02  0.00000000000E+00 0.  1.
</event>
<event>
 7    1  0.2472338E-008  0.4614232E+02  0.7816164E-02  0.1320468E+00
        -11   -1    0    0    0    0  0.00000000000E+00  0.00000000000E+00  0.45593999997E+02  0.45594000000E+02  0.51100000000E-03 0. -1.
         11   -1    0    0    0    0 -0.00000000000E+00 -0.00000000000E+00 -0.45593999997E+02  0.45594000000E+02  0.51100000000E-03 0.  1.
    9900012    2    1    2    0    0 -0.49165204158E+01  0.42022859705E+02  0.15460278080E+02  0.46142321970E+02  0.10000038384E+02 0.  0.
         12    1    1    2    0    0  0.49165204158E+01 -0.42022859705E+02 -0.15460278080E+02  0.45045678030E+02  0.00000000000E+00 0. -1.
         11    1    3    3    0    0 -0.29636231120E+01  0.57171761733E+01  0.75962023947E+00  0.64843032406E+01  0.51100000000E-03 0. -1.
        -11    1    3    3    0    0  0.13464571099E+01  0.14454563857E+02  0.37441039270E+01  0.14992187216E+02  0.51100000000E-03 0.  1.
        -12    1    3    3    0    0 -0.32993544137E+01  0.21851119676E+02  0.10956553914E+02  0.24665831514E+02  0.00000000000E+00 0.  1.
</event>
<event>
 7    1  0.2472338E-008  0.4614232E+02  0.7816164E-02  0.1320468E+00
        -11   -1    0    0    0    0  0.00000000000E+00  0.00000000000E+00  0.45593999997E+02  0.45594000000E+02  0.51100000000E-03 0.  1.
         11   -1    0    0    0    0 -0.00000000000E+00 -0.00000000000E+00 -0.45593999997E+02  0.45594000000E+02  0.51100000000E-03 0. -1.
    9900012    2    1    2    0    0 -0.28141169504E+02  0.13970139856E+02  0.32280384169E+02  0.46142318401E+02  0.10000005831E+02 0.  0.
         12    1    1    2    0    0  0.28141169504E+02 -0.13970139856E+02 -0.32280384169E+02  0.45045681599E+02  0.00000000000E+00 0. -1.
         11    1    3    3    0    0 -0.17757901509E+02  0.53542002111E+01  0.19087359933E+02  0.26614616949E+02  0.51100000000E-03 0.  1.
        -11    1    3    3    0    0 -0.26596784832E-01  0.13015732267E+01  0.10625770355E+00  0.13061742664E+01  0.51100000000E-03 0. -1.
         12    1    3    3    0    0 -0.10356671210E+02  0.73143664184E+01  0.13086766533E+02  0.18221527185E+02  0.00000000000E+00 0. -1.
</event>
<event>
 7    1  0.2472338E-008  0.4614232E+02  0.7816164E-02  0.1320468E+00
        -11   -1    0    0    0    0  0.00000000000E+00  0.00000000000E+00  0.45593999997E+02  0.45594000000E+02  0.51100000000E-03 0.  1.
         11   -1    0    0    0    0 -0.00000000000E+00 -0.00000000000E+00 -0.45593999997E+02  0.45594000000E+02  0.51100000000E-03 0. -1.
    9900012    2    1    2    0    0  0.30098643822E+02 -0.20261175166E+01  0.33452654256E+02  0.46142316645E+02  0.99999898245E+01 0.  0.
         12    1    1    2    0    0 -0.30098643822E+02  0.20261175166E+01 -0.33452654256E+02  0.45045683355E+02  0.00000000000E+00 0. -1.
         11    1    3    3    0    0  0.10168195509E+02  0.73982996834E+00  0.83621439722E+01  0.13185787817E+02  0.51100000000E-03 0. -1.
        -11    1    3    3    0    0  0.13462118664E+02 -0.23837388894E+01  0.11365199205E+02  0.17778599586E+02  0.51100000000E-03 0.  1.
        -12    1    3    3    0    0  0.64683296497E+01 -0.38220859563E+00  0.13725311079E+02  0.15177929242E+02  0.00000000000E+00 0.  1.
</event>
<event>
 7    1  0.2472338E-008  0.4614232E+02  0.7816164E-02  0.1320468E+00
        -11   -1    0    0    0    0  0.00000000000E+00  0.00000000000E+00  0.45593999997E+02  0.45594000000E+02  0.51100000000E-03 0. -1.
         11   -1    0    0    0    0 -0.00000000000E+00 -0.00000000000E+00 -0.45593999997E+02  0.45594000000E+02  0.51100000000E-03 0.  1.
    9900012    2    1    2    0    0  0.54017674102E+01 -0.84603703541E+01 -0.43913055727E+02  0.46142318510E+02  0.10000006826E+02 0.  0.
         12    1    1    2    0    0 -0.54017674102E+01  0.84603703541E+01  0.43913055727E+02  0.45045681490E+02  0.00000000000E+00 0. -1.
         11    1    3    3    0    0  0.13796730649E+01 -0.20102107591E+01 -0.11532612041E+02  0.11787518221E+02  0.51100000000E-03 0. -1.
        -11    1    3    3    0    0 -0.11526342295E+01 -0.34181880037E+01 -0.22568866968E+02  0.22855334856E+02  0.51100000000E-03 0.  1.
         12    1    3    3    0    0  0.51747285748E+01 -0.30319715913E+01 -0.98115767172E+01  0.11499465432E+02  0.00000000000E+00 0. -1.
</event>
<event>
 7    1  0.2472338E-008  0.4614232E+02  0.7816164E-02  0.1320468E+00
        -11   -1    0    0    0    0  0.00000000000E+00  0.00000000000E+00  0.45593999997E+02  0.45594000000E+02  0.51100000000E-03 0.  1.
         11   -1    0    0    0    0 -0.00000000000E+00 -0.00000000000E+00 -0.45593999997E+02  0.45594000000E+02  0.51100000000E-03 0. -1.
    9900012    2    1    2    0    0 -0.22710334879E+02  0.25848200772E+02  0.29072748418E+02  0.46142317699E+02  0.99999994311E+01 0.  0.
         12    1    1    2    0    0  0.22710334879E+02 -0.25848200772E+02 -0.29072748418E+02  0.45045682301E+02  0.00000000000E+00 0. -1.
         11    1    3    3    0    0 -0.20903586706E+01  0.18799055916E+00  0.18521694239E+01  0.27991912507E+01  0.51100000000E-03 0. -1.
        -11    1    3    3    0    0 -0.32715733765E+01  0.72820368468E+00  0.25127879909E+01  0.41889827778E+01  0.51100000000E-03 0.  1.
        -12    1    3    3    0    0 -0.17348402832E+02  0.24932006528E+02  0.24707791003E+02  0.39154143670E+02  0.00000000000E+00 0.  1.
</event>
<event>
 7    1  0.2472338E-008  0.4614233E+02  0.7816164E-02  0.1320468E+00
        -11   -1    0    0    0    0  0.00000000000E+00  0.00000000000E+00  0.45593999997E+02  0.45594000000E+02  0.51100000000E-03 0.  1.
         11   -1    0    0    0    0 -0.00000000000E+00 -0.00000000000E+00 -0.45593999997E+02  0.45594000000E+02  0.51100000000E-03 0. -1.
    9900012    2    1    2    0    0  0.40280729313E+02 -0.32257902580E+01  0.19904001459E+02  0.46142332608E+02  0.10000135381E+02 0.  0.
         12    1    1    2    0    0 -0.40280729313E+02  0.32257902580E+01 -0.19904001459E+02  0.45045667392E+02  0.00000000000E+00 0. -1.
         11    1    3    3    0    0  0.92252858622E+01 -0.20265245587E+01  0.72308779270E+01  0.11895305666E+02  0.51100000000E-03 0. -1.
        -11    1    3    3    0    0  0.15984983871E+02 -0.79946880017E+00  0.10175563365E+02  0.18965783658E+02  0.51100000000E-03 0.  1.
        -12    1    3    3    0    0  0.15070459579E+02 -0.39979689914E+00  0.24975601667E+01  0.15281243283E+02  0.00000000000E+00 0.  1.
</event>
<event>
 7    1  0.2472338E-008  0.4614232E+02  0.7816164E-02  0.1320468E+00
        -11   -1    0    0    0    0  0.00000000000E+00  0.00000000000E+00  0.45593999997E+02  0.45594000000E+02  0.51100000000E-03 0.  1.
         11   -1    0    0    0    0 -0.00000000000E+00 -0.00000000000E+00 -0.45593999997E+02  0.45594000000E+02  0.51100000000E-03 0. -1.
    9900012    2    1    2    0    0 -0.22051650058E+02  0.14771672988E+02  0.36395547070E+02  0.46142318302E+02  0.10000004928E+02 0.  0.
         12    1    1    2    0    0  0.22051650058E+02 -0.14771672988E+02 -0.36395547070E+02  0.45045681698E+02  0.00000000000E+00 0. -1.
         11    1    3    3    0    0 -0.94682564317E+01  0.86506178329E+01  0.18023377562E+02  0.22120651160E+02  0.51100000000E-03 0. -1.
        -11    1    3    3    0    0 -0.31405409561E+01  0.46932466447E+01  0.91065883417E+01  0.10715386743E+02  0.51100000000E-03 0.  1.
         12    1    3    3    0    0 -0.94428526697E+01  0.14278085109E+01  0.92655811663E+01  0.13306280398E+02  0.00000000000E+00 0. -1.
</event>
<event>
 7    1  0.2472338E-008  0.4614232E+02  0.7816164E-02  0.1320468E+00
        -11   -1    0    0    0    0  0.00000000000E+00  0.00000000000E+00  0.45593999997E+02  0.45594000000E+02  0.51100000000E-03 0.  1.
         11   -1    0    0    0    0 -0.00000000000E+00 -0.00000000000E+00 -0.45593999997E+02  0.45594000000E+02  0.51100000000E-03 0. -1.
    9900012    2    1    2    0    0  0.34807136061E+02 -0.28456042310E+02 -0.27982671884E+01  0.46142319142E+02  0.10000012594E+02 0.  0.
         12    1    1    2    0    0 -0.34807136061E+02  0.28456042310E+02  0.27982671884E+01  0.45045680858E+02  0.00000000000E+00 0. -1.
         11    1    3    3    0    0  0.11170171034E+01  0.16180350494E+00 -0.59794336969E+00  0.12772799686E+01  0.51100000000E-03 0. -1.
        -11    1    3    3    0    0  0.50835258471E+01 -0.78298155594E+01  0.83671556108E+00  0.93727445246E+01  0.51100000000E-03 0.  1.
         12    1    3    3    0    0  0.28606593110E+02 -0.20788030255E+02 -0.30370393798E+01  0.35492294649E+02  0.00000000000E+00 0. -1.
</event>
<event>
 7    1  0.2472338E-008  0.4614232E+02  0.7816164E-02  0.1320468E+00
        -11   -1    0    0    0    0  0.00000000000E+00  0.00000000000E+00  0.45593999997E+02  0.45594000000E+02  0.51100000000E-03 0.  1.
         11   -1    0    0    0    0 -0.00000000000E+00 -0.00000000000E+00 -0.45593999997E+02  0.45594000000E+02  0.51100000000E-03 0. -1.
    9900012    2    1    2    0    0 -0.26223363295E+02 -0.77327334678E+01  0.35800181329E+02  0.46142323930E+02  0.10000056257E+02 0.  0.
         12    1    1    2    0    0  0.26223363295E+02  0.77327334678E+01 -0.35800181329E+02  0.45045676070E+02  0.00000000000E+00 0. -1.
         11    1    3    3    0    0 -0.25869007402E+01 -0.12158977653E+01  0.12213397420E+01  0.31083973108E+01  0.51100000000E-03 0. -1.
        -11    1    3    3    0    0 -0.13565383901E+02 -0.42330691681E+01  0.13690998573E+02  0.19732763545E+02  0.51100000000E-03 0.  1.
         12    1    3    3    0    0 -0.10071078654E+02 -0.22837665344E+01  0.20887843014E+02  0.23301163074E+02  0.00000000000E+00 0. -1.
</event>
<event>
 7    1  0.2472338E-008  0.4614232E+02  0.7816164E-02  0.1320468E+00
        -11   -1    0    0    0    0  0.00000000000E+00  0.00000000000E+00  0.45593999997E+02  0.45594000000E+02  0.51100000000E-03 0. -1.
         11   -1    0    0    0    0 -0.00000000000E+00 -0.00000000000E+00 -0.45593999997E+02  0.45594000000E+02  0.51100000000E-03 0.  1.
    9900012    2    1    2    0    0  0.43449415091E+02 -0.64096916509E+01  0.10008876038E+02  0.46142318538E+02  0.10000007085E+02 0.  0.
         12    1    1    2    0    0 -0.43449415091E+02  0.64096916509E+01 -0.10008876038E+02  0.45045681462E+02  0.00000000000E+00 0. -1.
         11    1    3    3    0    0  0.23311005867E+01  0.10543500923E+01  0.19356825507E+01  0.32082006266E+01  0.51100000000E-03 0. -1.
        -11    1    3    3    0    0  0.39393204848E+02 -0.59266219581E+01  0.73183469259E+01  0.40503180591E+02  0.51100000000E-03 0.  1.
        -12    1    3    3    0    0  0.17251096566E+01 -0.15374197851E+01  0.75484656116E+00  0.24309373201E+01  0.00000000000E+00 0.  1.
</event>
<event>
 7    1  0.2472338E-008  0.4614232E+02  0.7816164E-02  0.1320468E+00
        -11   -1    0    0    0    0  0.00000000000E+00  0.00000000000E+00  0.45593999997E+02  0.45594000000E+02  0.51100000000E-03 0.  1.
         11   -1    0    0    0    0 -0.00000000000E+00 -0.00000000000E+00 -0.45593999997E+02  0.45594000000E+02  0.51100000000E-03 0. -1.
    9900012    2    1    2    0    0 -0.15950904838E+02  0.14381116613E+02  0.39596282538E+02  0.46142317953E+02  0.10000001751E+02 0.  0.
         12    1    1    2    0    0  0.15950904838E+02 -0.14381116613E+02 -0.39596282538E+02  0.45045682047E+02  0.00000000000E+00 0. -1.
         11    1    3    3    0    0 -0.38920003544E+00  0.42402153847E+01  0.51657251111E+01  0.66944469048E+01  0.51100000000E-03 0. -1.
        -11    1    3    3    0    0 -0.54531820773E+01  0.45393633370E+01  0.85947817819E+01  0.11145101543E+02  0.51100000000E-03 0.  1.
        -12    1    3    3    0    0 -0.10108522726E+02  0.56015378914E+01  0.25835775645E+02  0.28302769505E+02  0.00000000000E+00 0.  1.
</event>
<event>
 7    1  0.2472338E-008  0.4614232E+02  0.7816164E-02  0.1320468E+00
        -11   -1    0    0    0    0  0.00000000000E+00  0.00000000000E+00  0.45593999997E+02  0.45594000000E+02  0.51100000000E-03 0. -1.
         11   -1    0    0    0    0 -0.00000000000E+00 -0.00000000000E+00 -0.45593999997E+02  0.45594000000E+02  0.51100000000E-03 0.  1.
    9900012    2    1    2    0    0  0.11337109978E+02  0.57005164860E+01 -0.43221378090E+02  0.46142317911E+02  0.10000001367E+02 0.  0.
         12    1    1    2    0    0 -0.11337109978E+02 -0.57005164860E+01  0.43221378090E+02  0.45045682089E+02  0.00000000000E+00 0. -1.
         11    1    3    3    0    0  0.38104521677E+01  0.13672071957E+01 -0.93581713396E+01  0.10196282279E+02  0.51100000000E-03 0. -1.
        -11    1    3    3    0    0  0.62005248136E+01 -0.95978723372E+00 -0.22197253184E+02  0.23066983952E+02  0.51100000000E-03 0.  1.
         12    1    3    3    0    0  0.13261329971E+01  0.52930965240E+01 -0.11665953567E+02  0.12879051679E+02  0.00000000000E+00 0. -1.
</event>
<event>
 7    1  0.2472338E-008  0.4614232E+02  0.7816164E-02  0.1320468E+00
        -11   -1    0    0    0    0  0.00000000000E+00  0.00000000000E+00  0.45593999997E+02  0.45594000000E+02  0.51100000000E-03 0. -1.
         11   -1    0    0    0    0 -0.00000000000E+00 -0.00000000000E+00 -0.45593999997E+02  0.45594000000E+02  0.51100000000E-03 0.  1.
    9900012    2    1    2    0    0 -0.37268194238E+02  0.10936940791E+02 -0.22816189771E+02  0.46142317728E+02  0.99999997024E+01 0.  0.
         12    1    1    2    0    0  0.37268194238E+02 -0.10936940791E+02  0.22816189771E+02  0.45045682272E+02  0.00000000000E+00 0. -1.
         11    1    3    3    0    0 -0.13383202822E+02 -0.34091881101E+00 -0.64271394949E+01  0.14850402882E+02  0.51100000000E-03 0. -1.
        -11    1    3    3    0    0 -0.50197299645E+01  0.32377833955E+01 -0.22502344503E+01  0.63831407298E+01  0.51100000000E-03 0.  1.
        -12    1    3    3    0    0 -0.18865261452E+02  0.80400762060E+01 -0.14138815826E+02  0.24908774117E+02  0.00000000000E+00 0.  1.
</event>
<event>
 7    1  0.2472338E-008  0.4614232E+02  0.7816164E-02  0.1320468E+00
        -11   -1    0    0    0    0  0.00000000000E+00  0.00000000000E+00  0.45593999997E+02  0.45594000000E+02  0.51100000000E-03 0.  1.
         11   -1    0    0    0    0 -0.00000000000E+00 -0.00000000000E+00 -0.45593999997E+02  0.45594000000E+02  0.51100000000E-03 0. -1.
    9900012    2    1    2    0    0  0.43526715878E+02 -0.74412656031E+01  0.88975312868E+01  0.46142317722E+02  0.99999996461E+01 0.  0.
         12    1    1    2    0    0 -0.43526715878E+02  0.74412656031E+01 -0.88975312868E+01  0.45045682278E+02  0.00000000000E+00 0. -1.
         11    1    3    3    0    0  0.26324398043E+01  0.13380331081E+01  0.21695880746E+01  0.36643122951E+01  0.51100000000E-03 0. -1.
        -11    1    3    3    0    0  0.20482907631E+02 -0.28049806087E+01  0.33058206273E+01  0.20936711096E+02  0.51100000000E-03 0.  1.
         12    1    3    3    0    0  0.20411368442E+02 -0.59743181025E+01  0.34221225849E+01  0.21541294331E+02  0.00000000000E+00 0. -1.
</event>
<event>
 7    1  0.2472338E-008  0.4614232E+02  0.7816164E-02  0.1320468E+00
        -11   -1    0    0    0    0  0.00000000000E+00  0.00000000000E+00  0.45593999997E+02  0.45594000000E+02  0.51100000000E-03 0.  1.
         11   -1    0    0    0    0 -0.00000000000E+00 -0.00000000000E+00 -0.45593999997E+02  0.45594000000E+02  0.51100000000E-03 0. -1.
    9900012    2    1    2    0    0  0.25408773866E+02 -0.32593377560E+02  0.17921478679E+02  0.46142318207E+02  0.10000004067E+02 0.  0.
         12    1    1    2    0    0 -0.25408773866E+02  0.32593377560E+02 -0.17921478679E+02  0.45045681793E+02  0.00000000000E+00 0. -1.
         11    1    3    3    0    0  0.82995048796E+01 -0.14252010902E+02  0.86623208785E+01  0.18628939832E+02  0.51100000000E-03 0. -1.
        -11    1    3    3    0    0  0.11884510214E+02 -0.13570049403E+02  0.95915404469E+01  0.20430014005E+02  0.51100000000E-03 0.  1.
         12    1    3    3    0    0  0.52247587728E+01 -0.47713172546E+01 -0.33238264663E+00  0.70833643703E+01  0.00000000000E+00 0. -1.
</event>
<event>
 7    1  0.2472338E-008  0.4614232E+02  0.7816164E-02  0.1320468E+00
        -11   -1    0    0    0    0  0.00000000000E+00  0.00000000000E+00  0.45593999997E+02  0.45594000000E+02  0.51100000000E-03 0.  1.
         11   -1    0    0    0    0 -0.00000000000E+00 -0.00000000000E+00 -0.45593999997E+02  0.45594000000E+02  0.51100000000E-03 0. -1.
    9900012    2    1    2    0    0  0.77869342698E+01  0.19609230071E+02  0.39798935088E+02  0.46142317816E+02  0.10000000500E+02 0.  0.
         12    1    1    2    0    0 -0.77869342698E+01 -0.19609230071E+02 -0.39798935088E+02  0.45045682184E+02  0.00000000000E+00 0. -1.
         11    1    3    3    0    0  0.85173558007E+01  0.14573805812E+02  0.33911460686E+02  0.37880447883E+02  0.51100000000E-03 0. -1.
        -11    1    3    3    0    0 -0.16301737844E+00  0.28623807301E+01  0.51566216242E+01  0.59000461817E+01  0.51100000000E-03 0.  1.
         12    1    3    3    0    0 -0.56740415241E+00  0.21730435290E+01  0.73085277789E+00  0.23618237517E+01  0.00000000000E+00 0. -1.
</event>
<event>
 7    1  0.2472338E-008  0.4614231E+02  0.7816164E-02  0.1320468E+00
        -11   -1    0    0    0    0  0.00000000000E+00  0.00000000000E+00  0.45593999997E+02  0.45594000000E+02  0.51100000000E-03 0.  1.
         11   -1    0    0    0    0 -0.00000000000E+00 -0.00000000000E+00 -0.45593999997E+02  0.45594000000E+02  0.51100000000E-03 0. -1.
    9900012    2    1    2    0    0  0.27563810539E+02 -0.22844299379E+02  0.27340237981E+02  0.46142308992E+02  0.99999200349E+01 0.  0.
         12    1    1    2    0    0 -0.27563810539E+02  0.22844299379E+02 -0.27340237981E+02  0.45045691008E+02  0.00000000000E+00 0. -1.
         11    1    3    3    0    0  0.48163837505E+01 -0.66367557242E+00  0.34457555706E+01  0.59591315987E+01  0.51100000000E-03 0. -1.
        -11    1    3    3    0    0  0.18809058535E+02 -0.17553462153E+02  0.21904779974E+02  0.33789408141E+02  0.51100000000E-03 0.  1.
        -12    1    3    3    0    0  0.39383682536E+01 -0.46271616536E+01  0.19897024364E+01  0.63937692525E+01  0.00000000000E+00 0.  1.
</event>
<event>
 7    1  0.2472338E-008  0.4614232E+02  0.7816164E-02  0.1320468E+00
        -11   -1    0    0    0    0  0.00000000000E+00  0.00000000000E+00  0.45593999997E+02  0.45594000000E+02  0.51100000000E-03 0.  1.
         11   -1    0    0    0    0 -0.00000000000E+00 -0.00000000000E+00 -0.45593999997E+02  0.45594000000E+02  0.51100000000E-03 0. -1.
    9900012    2    1    2    0    0 -0.74467345611E+01  0.75002809550E+01  0.43788188865E+02  0.46142317032E+02  0.99999933474E+01 0.  0.
         12    1    1    2    0    0  0.74467345611E+01 -0.75002809550E+01 -0.43788188865E+02  0.45045682968E+02  0.00000000000E+00 0. -1.
         11    1    3    3    0    0 -0.33396916013E+01  0.16645239223E+01  0.18231732953E+02  0.18609682066E+02  0.51100000000E-03 0. -1.
        -11    1    3    3    0    0 -0.56586779249E+01  0.50418140712E+01  0.14716278212E+02  0.16553228376E+02  0.51100000000E-03 0.  1.
         12    1    3    3    0    0  0.15516349651E+01  0.79394296141E+00  0.10840177700E+02  0.10979406590E+02  0.00000000000E+00 0. -1.
</event>
<event>
 7    1  0.2472338E-008  0.4614232E+02  0.7816164E-02  0.1320468E+00
        -11   -1    0    0    0    0  0.00000000000E+00  0.00000000000E+00  0.45593999997E+02  0.45594000000E+02  0.51100000000E-03 0.  1.
         11   -1    0    0    0    0 -0.00000000000E+00 -0.00000000000E+00 -0.45593999997E+02  0.45594000000E+02  0.51100000000E-03 0. -1.
    9900012    2    1    2    0    0  0.28150346375E+01 -0.25666382839E+02  0.36911053465E+02  0.46142317677E+02  0.99999992373E+01 0.  0.
         12    1    1    2    0    0 -0.28150346375E+01  0.25666382839E+02 -0.36911053465E+02  0.45045682323E+02  0.00000000000E+00 0. -1.
         11    1    3    3    0    0 -0.41440509862E+00 -0.11621746805E+02  0.17239233115E+02  0.20794900554E+02  0.51100000000E-03 0. -1.
        -11    1    3    3    0    0  0.48459931012E+01 -0.11953203458E+02  0.18244474002E+02  0.22343311167E+02  0.51100000000E-03 0.  1.
         12    1    3    3    0    0 -0.16165533651E+01 -0.20914325759E+01  0.14273463473E+01  0.30041059563E+01  0.00000000000E+00 0. -1.
</event>
<event>
 7    1  0.2472338E-008  0.4614232E+02  0.7816164E-02  0.1320468E+00
        -11   -1    0    0    0    0  0.00000000000E+00  0.00000000000E+00  0.45593999997E+02  0.45594000000E+02  0.51100000000E-03 0.  1.
         11   -1    0    0    0    0 -0.00000000000E+00 -0.00000000000E+00 -0.45593999997E+02  0.45594000000E+02  0.51100000000E-03 0. -1.
    9900012    2    1    2    0    0  0.32364894179E+02 -0.17955380022E+02  0.25675502372E+02  0.46142317976E+02  0.10000001961E+02 0.  0.
         12    1    1    2    0    0 -0.32364894179E+02  0.17955380022E+02 -0.25675502372E+02  0.45045682024E+02  0.00000000000E+00 0. -1.
         11    1    3    3    0    0  0.91541122508E+01 -0.72552205273E+01  0.77439830605E+01  0.14014466451E+02  0.51100000000E-03 0. -1.
        -11    1    3    3    0    0  0.17184745512E+02 -0.68863236804E+01  0.16615505055E+02  0.24875930950E+02  0.51100000000E-03 0.  1.
        -12    1    3    3    0    0  0.60260364158E+01 -0.38138358145E+01  0.13160142567E+01  0.72519205751E+01  0.00000000000E+00 0.  1.
</event>
<event>
 7    1  0.2472338E-008  0.4614232E+02  0.7816164E-02  0.1320468E+00
        -11   -1    0    0    0    0  0.00000000000E+00  0.00000000000E+00  0.45593999997E+02  0.45594000000E+02  0.51100000000E-03 0. -1.
         11   -1    0    0    0    0 -0.00000000000E+00 -0.00000000000E+00 -0.45593999997E+02  0.45594000000E+02  0.51100000000E-03 0.  1.
    9900012    2    1    2    0    0 -0.24625884512E+02  0.13080618212E+02 -0.35377630809E+02  0.46142317382E+02  0.99999965458E+01 0.  0.
         12    1    1    2    0    0  0.24625884512E+02 -0.13080618212E+02  0.35377630809E+02  0.45045682618E+02  0.00000000000E+00 0. -1.
         11    1    3    3    0    0 -0.11005372226E+01  0.12318400343E+01 -0.41479249913E-01  0.16523718824E+01  0.51100000000E-03 0. -1.
        -11    1    3    3    0    0 -0.17508617818E+02  0.11584552846E+02 -0.28065488010E+02  0.35048896988E+02  0.51100000000E-03 0.  1.
         12    1    3    3    0    0 -0.60167294722E+01  0.26422533095E+00 -0.72706635489E+01  0.94410485122E+01  0.00000000000E+00 0. -1.
</event>
<event>
 7    1  0.2472338E-008  0.4614232E+02  0.7816164E-02  0.1320468E+00
        -11   -1    0    0    0    0  0.00000000000E+00  0.00000000000E+00  0.45593999997E+02  0.45594000000E+02  0.51100000000E-03 0.  1.
         11   -1    0    0    0    0 -0.00000000000E+00 -0.00000000000E+00 -0.45593999997E+02  0.45594000000E+02  0.51100000000E-03 0. -1.
    9900012    2    1    2    0    0  0.51873766905E+01  0.83091240151E+01  0.43967752316E+02  0.46142315827E+02  0.99999823674E+01 0.  0.
         12    1    1    2    0    0 -0.51873766905E+01 -0.83091240151E+01 -0.43967752316E+02  0.45045684173E+02  0.00000000000E+00 0. -1.
         11    1    3    3    0    0  0.24740918693E+01 -0.23329582853E+00  0.14796422220E+02  0.15003655164E+02  0.51100000000E-03 0. -1.
        -11    1    3    3    0    0  0.41071724977E+01  0.60550593225E+01  0.25260522875E+02  0.26298795134E+02  0.51100000000E-03 0.  1.
        -12    1    3    3    0    0 -0.13938876765E+01  0.24873605211E+01  0.39108072219E+01  0.48398655295E+01  0.00000000000E+00 0.  1.
</event>
<event>
 7    1  0.2472338E-008  0.4614232E+02  0.7816164E-02  0.1320468E+00
        -11   -1    0    0    0    0  0.00000000000E+00  0.00000000000E+00  0.45593999997E+02  0.45594000000E+02  0.51100000000E-03 0.  1.
         11   -1    0    0    0    0 -0.00000000000E+00 -0.00000000000E+00 -0.45593999997E+02  0.45594000000E+02  0.51100000000E-03 0. -1.
    9900012    2    1    2    0    0 -0.32177301051E+02  0.18989542913E+02  0.25162115843E+02  0.46142317447E+02  0.99999971396E+01 0.  0.
         12    1    1    2    0    0  0.32177301051E+02 -0.18989542913E+02 -0.25162115843E+02  0.45045682553E+02  0.00000000000E+00 0. -1.
         11    1    3    3    0    0 -0.12130197896E+02  0.42958894918E+01  0.84539905136E+01  0.15396958251E+02  0.51100000000E-03 0. -1.
        -11    1    3    3    0    0 -0.11944057264E+02  0.96771112430E+01  0.62445294611E+01  0.16592201011E+02  0.51100000000E-03 0.  1.
         12    1    3    3    0    0 -0.81030458907E+01  0.50165421780E+01  0.10463595868E+02  0.14153158185E+02  0.00000000000E+00 0. -1.
</event>
<event>
 7    1  0.2472338E-008  0.4614232E+02  0.7816164E-02  0.1320468E+00
        -11   -1    0    0    0    0  0.00000000000E+00  0.00000000000E+00  0.45593999997E+02  0.45594000000E+02  0.51100000000E-03 0.  1.
         11   -1    0    0    0    0 -0.00000000000E+00 -0.00000000000E+00 -0.45593999997E+02  0.45594000000E+02  0.51100000000E-03 0. -1.
    9900012    2    1    2    0    0  0.11625188190E+02 -0.20458317585E+01  0.43471635076E+02  0.46142317807E+02  0.10000000415E+02 0.  0.
         12    1    1    2    0    0 -0.11625188190E+02  0.20458317585E+01 -0.43471635076E+02  0.45045682193E+02  0.00000000000E+00 0. -1.
         11    1    3    3    0    0  0.16931516650E+01  0.18021251666E+01  0.50767745028E+01  0.56469511500E+01  0.51100000000E-03 0. -1.
        -11    1    3    3    0    0  0.32085436996E+01  0.21488596033E+01  0.11839227589E+02  0.12453098427E+02  0.51100000000E-03 0.  1.
        -12    1    3    3    0    0  0.67234928257E+01 -0.59968165284E+01  0.26555632985E+02  0.28042268230E+02  0.00000000000E+00 0.  1.
</event>
<event>
 7    1  0.2472338E-008  0.4614232E+02  0.7816164E-02  0.1320468E+00
        -11   -1    0    0    0    0  0.00000000000E+00  0.00000000000E+00  0.45593999997E+02  0.45594000000E+02  0.51100000000E-03 0. -1.
         11   -1    0    0    0    0 -0.00000000000E+00 -0.00000000000E+00 -0.45593999997E+02  0.45594000000E+02  0.51100000000E-03 0.  1.
    9900012    2    1    2    0    0 -0.41964831059E+02 -0.15945239473E+02  0.37169591675E+01  0.46142317709E+02  0.99999995224E+01 0.  0.
         12    1    1    2    0    0  0.41964831059E+02  0.15945239473E+02 -0.37169591675E+01  0.45045682291E+02  0.00000000000E+00 0. -1.
         11    1    3    3    0    0 -0.53558834576E+01 -0.16957032320E+00  0.25722575030E+01  0.59439675831E+01  0.51100000000E-03 0. -1.
        -11    1    3    3    0    0 -0.23948321823E+02 -0.76924892125E+01  0.33766176142E+00  0.25155725474E+02  0.51100000000E-03 0.  1.
         12    1    3    3    0    0 -0.12660625778E+02 -0.80831799372E+01  0.80703990307E+00  0.15042624651E+02  0.00000000000E+00 0. -1.
</event>
<event>
 7    1  0.2472338E-008  0.4614232E+02  0.7816164E-02  0.1320468E+00
        -11   -1    0    0    0    0  0.00000000000E+00  0.00000000000E+00  0.45593999997E+02  0.45594000000E+02  0.51100000000E-03 0.  1.
         11   -1    0    0    0    0 -0.00000000000E+00 -0.00000000000E+00 -0.45593999997E+02  0.45594000000E+02  0.51100000000E-03 0. -1.
    9900012    2    1    2    0    0  0.11600243868E+02 -0.24087300265E+02  0.36253962032E+02  0.46142318133E+02  0.10000003395E+02 0.  0.
         12    1    1    2    0    0 -0.11600243868E+02  0.24087300265E+02 -0.36253962032E+02  0.45045681867E+02  0.00000000000E+00 0. -1.
         11    1    3    3    0    0  0.16941323861E+01 -0.75764283412E-01  0.35643676544E+01  0.39472195030E+01  0.51100000000E-03 0. -1.
        -11    1    3    3    0    0  0.54970879162E+01 -0.13062212055E+02  0.12960267326E+02  0.19204371605E+02  0.51100000000E-03 0.  1.
        -12    1    3    3    0    0  0.44090235655E+01 -0.10949323926E+02  0.19729327052E+02  0.22990727025E+02  0.00000000000E+00 0.  1.
</event>
<event>
 7    1  0.2472338E-008  0.4614232E+02  0.7816164E-02  0.1320468E+00
        -11   -1    0    0    0    0  0.00000000000E+00  0.00000000000E+00  0.45593999997E+02  0.45594000000E+02  0.51100000000E-03 0. -1.
         11   -1    0    0    0    0 -0.00000000000E+00 -0.00000000000E+00 -0.45593999997E+02  0.45594000000E+02  0.51100000000E-03 0.  1.
    9900012    2    1    2    0    0  0.31158581482E+02 -0.24580106020E+02  0.21309026180E+02  0.46142318646E+02  0.10000008069E+02 0.  0.
         12    1    1    2    0    0 -0.31158581482E+02  0.24580106020E+02 -0.21309026180E+02  0.45045681354E+02  0.00000000000E+00 0. -1.
         11    1    3    3    0    0  0.17223378611E+02 -0.12667592597E+02  0.14430477915E+02  0.25794405713E+02  0.51100000000E-03 0. -1.
        -11    1    3    3    0    0  0.11929305685E+02 -0.86910554963E+01  0.74113441559E+01  0.16515774345E+02  0.51100000000E-03 0.  1.
         12    1    3    3    0    0  0.20058971870E+01 -0.32214579264E+01 -0.53279589124E+00  0.38321385881E+01  0.00000000000E+00 0. -1.
</event>
<event>
 7    1  0.2472338E-008  0.4614232E+02  0.7816164E-02  0.1320468E+00
        -11   -1    0    0    0    0  0.00000000000E+00  0.00000000000E+00  0.45593999997E+02  0.45594000000E+02  0.51100000000E-03 0.  1.
         11   -1    0    0    0    0 -0.00000000000E+00 -0.00000000000E+00 -0.45593999997E+02  0.45594000000E+02  0.51100000000E-03 0. -1.
    9900012    2    1    2    0    0  0.33707662990E+02  0.23817944728E+02  0.18044734460E+02  0.46142317886E+02  0.10000001143E+02 0.  0.
         12    1    1    2    0    0 -0.33707662990E+02 -0.23817944728E+02 -0.18044734460E+02  0.45045682114E+02  0.00000000000E+00 0. -1.
         11    1    3    3    0    0  0.12374822959E+02  0.59043486565E+01  0.67332593475E+01  0.15275285858E+02  0.51100000000E-03 0. -1.
        -11    1    3    3    0    0  0.10469247141E+01  0.51636493314E+00 -0.91071887347E+00  0.14805719263E+01  0.51100000000E-03 0.  1.
        -12    1    3    3    0    0  0.20285915317E+02  0.17397231138E+02  0.12222193986E+02  0.29386460103E+02  0.00000000000E+00 0.  1.
</event>
<event>
 7    1  0.2472338E-008  0.4614232E+02  0.7816164E-02  0.1320468E+00
        -11   -1    0    0    0    0  0.00000000000E+00  0.00000000000E+00  0.45593999997E+02  0.45594000000E+02  0.51100000000E-03 0.  1.
         11   -1    0    0    0    0 -0.00000000000E+00 -0.00000000000E+00 -0.45593999997E+02  0.45594000000E+02  0.51100000000E-03 0. -1.
    9900012    2    1    2    0    0 -0.28442609137E+02 -0.27129504185E+02  0.22002762059E+02  0.46142317076E+02  0.99999937568E+01 0.  0.
         12    1    1    2    0    0  0.28442609137E+02  0.27129504185E+02 -0.22002762059E+02  0.45045682924E+02  0.00000000000E+00 0. -1.
         11    1    3    3    0    0  0.13461693687E+00 -0.13480013262E+01  0.11612366710E+01  0.17842926224E+01  0.51100000000E-03 0. -1.
        -11    1    3    3    0    0 -0.29552608339E+01 -0.12532794681E+01 -0.15980165687E-01  0.32100672343E+01  0.51100000000E-03 0.  1.
        -12    1    3    3    0    0 -0.25621965240E+02 -0.24528223391E+02  0.20857505553E+02  0.41147957220E+02  0.00000000000E+00 0.  1.
</event>
<event>
 7    1  0.2472338E-008  0.4614232E+02  0.7816164E-02  0.1320468E+00
        -11   -1    0    0    0    0  0.00000000000E+00  0.00000000000E+00  0.45593999997E+02  0.45594000000E+02  0.51100000000E-03 0. -1.
         11   -1    0    0    0    0 -0.00000000000E+00 -0.00000000000E+00 -0.45593999997E+02  0.45594000000E+02  0.51100000000E-03 0.  1.
    9900012    2    1    2    0    0  0.29062458900E+02  0.33457338428E+02  0.80680581816E+01  0.46142316802E+02  0.99999912509E+01 0.  0.
         12    1    1    2    0    0 -0.29062458900E+02 -0.33457338428E+02 -0.80680581816E+01  0.45045683198E+02  0.00000000000E+00 0. -1.
         11    1    3    3    0    0  0.12252854228E+02  0.91692586058E+01  0.52064428320E+01  0.16165233909E+02  0.51100000000E-03 0. -1.
        -11    1    3    3    0    0 -0.20415813711E+00  0.83479081864E+00 -0.19677845685E-01  0.85961836566E+00  0.51100000000E-03 0.  1.
        -12    1    3    3    0    0  0.17013762809E+02  0.23453289003E+02  0.28812931954E+01  0.29117464527E+02  0.00000000000E+00 0.  1.
</event>
<event>
 7    1  0.2472338E-008  0.4614232E+02  0.7816164E-02  0.1320468E+00
        -11   -1    0    0    0    0  0.00000000000E+00  0.00000000000E+00  0.45593999997E+02  0.45594000000E+02  0.51100000000E-03 0. -1.
         11   -1    0    0    0    0 -0.00000000000E+00 -0.00000000000E+00 -0.45593999997E+02  0.45594000000E+02  0.51100000000E-03 0.  1.
    9900012    2    1    2    0    0 -0.15775367437E+01 -0.98185823472E+01 -0.43934272582E+02  0.46142317756E+02  0.99999999567E+01 0.  0.
         12    1    1    2    0    0  0.15775367437E+01  0.98185823472E+01  0.43934272582E+02  0.45045682244E+02  0.00000000000E+00 0. -1.
         11    1    3    3    0    0 -0.82703377267E-01 -0.72659263883E+01 -0.14941321010E+02  0.16614559878E+02  0.51100000000E-03 0. -1.
        -11    1    3    3    0    0 -0.12293067440E+01 -0.99413414662E+00 -0.23169713758E+01  0.28049695880E+01  0.51100000000E-03 0.  1.
         12    1    3    3    0    0 -0.26552662241E+00 -0.15585218123E+01 -0.26675980196E+02  0.26722788291E+02  0.00000000000E+00 0. -1.
</event>
<event>
 7    1  0.2472338E-008  0.4614232E+02  0.7816164E-02  0.1320468E+00
        -11   -1    0    0    0    0  0.00000000000E+00  0.00000000000E+00  0.45593999997E+02  0.45594000000E+02  0.51100000000E-03 0.  1.
         11   -1    0    0    0    0 -0.00000000000E+00 -0.00000000000E+00 -0.45593999997E+02  0.45594000000E+02  0.51100000000E-03 0. -1.
    9900012    2    1    2    0    0  0.31383429387E+01  0.10920845950E+02  0.43588982643E+02  0.46142317848E+02  0.10000000793E+02 0.  0.
         12    1    1    2    0    0 -0.31383429387E+01 -0.10920845950E+02 -0.43588982643E+02  0.45045682152E+02  0.00000000000E+00 0. -1.
         11    1    3    3    0    0  0.20148865863E+01  0.92613106417E+01  0.34430955685E+02  0.35711655694E+02  0.51100000000E-03 0. -1.
        -11    1    3    3    0    0  0.27422691971E+01  0.19487507839E+00  0.58972078955E+01  0.65065411602E+01  0.51100000000E-03 0.  1.
         12    1    3    3    0    0 -0.16188128448E+01  0.14646602296E+01  0.32608190629E+01  0.39241209940E+01  0.00000000000E+00 0. -1.
</event>
<event>
 7    1  0.2472338E-008  0.4614232E+02  0.7816164E-02  0.1320468E+00
        -11   -1    0    0    0    0  0.00000000000E+00  0.00000000000E+00  0.45593999997E+02  0.45594000000E+02  0.51100000000E-03 0.  1.
         11   -1    0    0    0    0 -0.00000000000E+00 -0.00000000000E+00 -0.45593999997E+02  0.45594000000E+02  0.51100000000E-03 0. -1.
    9900012    2    1    2    0    0  0.21484875411E+02  0.38485251590E+02  0.92951079236E+01  0.46142317713E+02  0.99999995602E+01 0.  0.
         12    1    1    2    0    0 -0.21484875411E+02 -0.38485251590E+02 -0.92951079236E+01  0.45045682287E+02  0.00000000000E+00 0. -1.
         11    1    3    3    0    0  0.17505981489E+01  0.67997878453E+01  0.23075674816E+01  0.73909794049E+01  0.51100000000E-03 0. -1.
        -11    1    3    3    0    0  0.16796274213E+02  0.26431977309E+02  0.86816957913E+01  0.32498247553E+02  0.51100000000E-03 0.  1.
         12    1    3    3    0    0  0.29380030489E+01  0.52534864358E+01 -0.16941553493E+01  0.62530907553E+01  0.00000000000E+00 0. -1.
</event>
<event>
 7    1  0.2472338E-008  0.4614232E+02  0.7816164E-02  0.1320468E+00
        -11   -1    0    0    0    0  0.00000000000E+00  0.00000000000E+00  0.45593999997E+02  0.45594000000E+02  0.51100000000E-03 0.  1.
         11   -1    0    0    0    0 -0.00000000000E+00 -0.00000000000E+00 -0.45593999997E+02  0.45594000000E+02  0.51100000000E-03 0. -1.
    9900012    2    1    2    0    0 -0.14642437197E+02 -0.20331008879E+02  0.37434774625E+02  0.46142320514E+02  0.10000025102E+02 0.  0.
         12    1    1    2    0    0  0.14642437197E+02  0.20331008879E+02 -0.37434774625E+02  0.45045679486E+02  0.00000000000E+00 0. -1.
         11    1    3    3    0    0 -0.24364179931E+01  0.15008790111E+00  0.18392825396E+01  0.30564063108E+01  0.51100000000E-03 0. -1.
        -11    1    3    3    0    0 -0.78784110953E+01 -0.14355363294E+02  0.20565653612E+02  0.26288627302E+02  0.51100000000E-03 0.  1.
        -12    1    3    3    0    0 -0.43276081091E+01 -0.61257334868E+01  0.15029838474E+02  0.16797286901E+02  0.00000000000E+00 0.  1.
</event>
<event>
 7    1  0.2472338E-008  0.4614232E+02  0.7816164E-02  0.1320468E+00
        -11   -1    0    0    0    0  0.00000000000E+00  0.00000000000E+00  0.45593999997E+02  0.45594000000E+02  0.51100000000E-03 0.  1.
         11   -1    0    0    0    0 -0.00000000000E+00 -0.00000000000E+00 -0.45593999997E+02  0.45594000000E+02  0.51100000000E-03 0. -1.
    9900012    2    1    2    0    0  0.43993310938E+02 -0.89835633145E+01  0.36052170190E+01  0.46142318666E+02  0.10000008249E+02 0.  0.
         12    1    1    2    0    0 -0.43993310938E+02  0.89835633145E+01 -0.36052170190E+01  0.45045681334E+02  0.00000000000E+00 0. -1.
         11    1    3    3    0    0  0.36955595625E+02 -0.79940061557E+01  0.63105071184E+00  0.37815584190E+02  0.51100000000E-03 0.  1.
        -11    1    3    3    0    0  0.64525023648E+01 -0.18003550916E+01  0.21640832541E+01  0.70398381953E+01  0.51100000000E-03 0. -1.
         12    1    3    3    0    0  0.58521294849E+00  0.81079793287E+00  0.81008305304E+00  0.12868962801E+01  0.00000000000E+00 0. -1.
</event>
<event>
 7    1  0.2472338E-008  0.4614232E+02  0.7816164E-02  0.1320468E+00
        -11   -1    0    0    0    0  0.00000000000E+00  0.00000000000E+00  0.45593999997E+02  0.45594000000E+02  0.51100000000E-03 0.  1.
         11   -1    0    0    0    0 -0.00000000000E+00 -0.00000000000E+00 -0.45593999997E+02  0.45594000000E+02  0.51100000000E-03 0. -1.
    9900012    2    1    2    0    0  0.91867989393E+01  0.14146663610E+02  0.41768267701E+02  0.46142317046E+02  0.99999934834E+01 0.  0.
         12    1    1    2    0    0 -0.91867989393E+01 -0.14146663610E+02 -0.41768267701E+02  0.45045682954E+02  0.00000000000E+00 0. -1.
         11    1    3    3    0    0  0.57404655151E+01  0.14053786102E+01  0.13261866416E+02  0.14519129949E+02  0.51100000000E-03 0. -1.
        -11    1    3    3    0    0  0.27889146471E+01  0.56546870671E+01  0.10317940753E+02  0.12091874643E+02  0.51100000000E-03 0.  1.
         12    1    3    3    0    0  0.65741877707E+00  0.70865979323E+01  0.18188460531E+02  0.19531312455E+02  0.00000000000E+00 0. -1.
</event>
<event>
 7    1  0.2472338E-008  0.4614232E+02  0.7816164E-02  0.1320468E+00
        -11   -1    0    0    0    0  0.00000000000E+00  0.00000000000E+00  0.45593999997E+02  0.45594000000E+02  0.51100000000E-03 0.  1.
         11   -1    0    0    0    0 -0.00000000000E+00 -0.00000000000E+00 -0.45593999997E+02  0.45594000000E+02  0.51100000000E-03 0. -1.
    9900012    2    1    2    0    0  0.95144618517E+01 -0.33809401580E+01  0.43899404204E+02  0.46142318407E+02  0.10000005893E+02 0.  0.
         12    1    1    2    0    0 -0.95144618517E+01  0.33809401580E+01 -0.43899404204E+02  0.45045681593E+02  0.00000000000E+00 0. -1.
         11    1    3    3    0    0  0.12510713785E+01  0.26584255087E+01  0.91080941261E+01  0.95702552030E+01  0.51100000000E-03 0. -1.
        -11    1    3    3    0    0  0.40068106433E+01 -0.24151565305E+00  0.10619480762E+02  0.11352807285E+02  0.51100000000E-03 0.  1.
         12    1    3    3    0    0  0.42565798299E+01 -0.57978500137E+01  0.24171829316E+02  0.25219255919E+02  0.00000000000E+00 0. -1.
</event>
<event>
 7    1  0.2472338E-008  0.4614232E+02  0.7816164E-02  0.1320468E+00
        -11   -1    0    0    0    0  0.00000000000E+00  0.00000000000E+00  0.45593999997E+02  0.45594000000E+02  0.51100000000E-03 0.  1.
         11   -1    0    0    0    0 -0.00000000000E+00 -0.00000000000E+00 -0.45593999997E+02  0.45594000000E+02  0.51100000000E-03 0. -1.
    9900012    2    1    2    0    0  0.15394807021E+02  0.30329203180E+02  0.29533927857E+02  0.46142317150E+02  0.99999944258E+01 0.  0.
         12    1    1    2    0    0 -0.15394807021E+02 -0.30329203180E+02 -0.29533927857E+02  0.45045682850E+02  0.00000000000E+00 0. -1.
         11    1    3    3    0    0  0.51810590405E+01  0.65270335598E+01  0.61093211452E+01  0.10332925287E+02  0.51100000000E-03 0. -1.
        -11    1    3    3    0    0  0.86164702324E+01  0.11039560580E+02  0.14471143212E+02  0.20137761623E+02  0.51100000000E-03 0.  1.
        -12    1    3    3    0    0  0.15972777487E+01  0.12762609041E+02  0.89534634996E+01  0.15671630240E+02  0.00000000000E+00 0.  1.
</event>
<event>
 7    1  0.2472338E-008  0.4614232E+02  0.7816164E-02  0.1320468E+00
        -11   -1    0    0    0    0  0.00000000000E+00  0.00000000000E+00  0.45593999997E+02  0.45594000000E+02  0.51100000000E-03 0.  1.
         11   -1    0    0    0    0 -0.00000000000E+00 -0.00000000000E+00 -0.45593999997E+02  0.45594000000E+02  0.51100000000E-03 0. -1.
    9900012    2    1    2    0    0 -0.12310108388E+02  0.79255214972E+01  0.42600009366E+02  0.46142318104E+02  0.10000003125E+02 0.  0.
         12    1    1    2    0    0  0.12310108388E+02 -0.79255214972E+01 -0.42600009366E+02  0.45045681896E+02  0.00000000000E+00 0. -1.
         11    1    3    3    0    0 -0.27144946872E+01  0.27595105646E+01  0.53284310279E+01  0.65860122565E+01  0.51100000000E-03 0. -1.
        -11    1    3    3    0    0 -0.42269009241E+01  0.23149100396E+01  0.59823479245E+01  0.76820561612E+01  0.51100000000E-03 0.  1.
        -12    1    3    3    0    0 -0.53687127768E+01  0.28511008931E+01  0.31289230413E+02  0.31874249686E+02  0.00000000000E+00 0.  1.
</event>
<event>
 7    1  0.2472338E-008  0.4614232E+02  0.7816164E-02  0.1320468E+00
        -11   -1    0    0    0    0  0.00000000000E+00  0.00000000000E+00  0.45593999997E+02  0.45594000000E+02  0.51100000000E-03 0.  1.
         11   -1    0    0    0    0 -0.00000000000E+00 -0.00000000000E+00 -0.45593999997E+02  0.45594000000E+02  0.51100000000E-03 0. -1.
    9900012    2    1    2    0    0 -0.28653735685E+01  0.39647069265E+01  0.44779283014E+02  0.46142318143E+02  0.10000003484E+02 0.  0.
         12    1    1    2    0    0  0.28653735685E+01 -0.39647069265E+01 -0.44779283014E+02  0.45045681857E+02  0.00000000000E+00 0. -1.
         11    1    3    3    0    0 -0.99334902457E+00  0.11356785957E+00  0.13027602074E+01  0.16422010725E+01  0.51100000000E-03 0. -1.
        -11    1    3    3    0    0 -0.29536385947E+01 -0.19711784550E+01  0.17593127333E+02  0.17947915061E+02  0.51100000000E-03 0.  1.
        -12    1    3    3    0    0  0.10816140508E+01  0.58223175219E+01  0.25883395474E+02  0.26552202009E+02  0.00000000000E+00 0.  1.
</event>
<event>
 7    1  0.2472338E-008  0.4614232E+02  0.7816164E-02  0.1320468E+00
        -11   -1    0    0    0    0  0.00000000000E+00  0.00000000000E+00  0.45593999997E+02  0.45594000000E+02  0.51100000000E-03 0.  1.
         11   -1    0    0    0    0 -0.00000000000E+00 -0.00000000000E+00 -0.45593999997E+02  0.45594000000E+02  0.51100000000E-03 0. -1.
    9900012    2    1    2    0    0 -0.25848263752E+01  0.37247511907E+02  0.25200296543E+02  0.46142318559E+02  0.10000007275E+02 0.  0.
         12    1    1    2    0    0  0.25848263752E+01 -0.37247511907E+02 -0.25200296543E+02  0.45045681441E+02  0.00000000000E+00 0. -1.
         11    1    3    3    0    0  0.98680086591E+00  0.12017010769E+01  0.24288085940E+01  0.28839162392E+01  0.51100000000E-03 0. -1.
        -11    1    3    3    0    0 -0.35600527004E+00  0.14066165885E+02  0.12349289801E+02  0.18721344004E+02  0.51100000000E-03 0.  1.
        -12    1    3    3    0    0 -0.32156219710E+01  0.21979644945E+02  0.10422198148E+02  0.24537058316E+02  0.00000000000E+00 0.  1.
</event>
<event>
 7    1  0.2472338E-008  0.4614232E+02  0.7816164E-02  0.1320468E+00
        -11   -1    0    0    0    0  0.00000000000E+00  0.00000000000E+00  0.45593999997E+02  0.45594000000E+02  0.51100000000E-03 0.  1.
         11   -1    0    0    0    0 -0.00000000000E+00 -0.00000000000E+00 -0.45593999997E+02  0.45594000000E+02  0.51100000000E-03 0. -1.
    9900012    2    1    2    0    0 -0.29399380944E+01  0.65414380765E+01  0.44471112476E+02  0.46142317710E+02  0.99999995323E+01 0.  0.
         12    1    1    2    0    0  0.29399380944E+01 -0.65414380765E+01 -0.44471112476E+02  0.45045682290E+02  0.00000000000E+00 0. -1.
         11    1    3    3    0    0 -0.22274030833E+01 -0.12458455998E+01  0.32301411783E+01  0.41167059704E+01  0.51100000000E-03 0. -1.
        -11    1    3    3    0    0  0.61118072043E+00  0.11261103708E+01  0.73559179572E+01  0.74666723307E+01  0.51100000000E-03 0.  1.
        -12    1    3    3    0    0 -0.13237157315E+01  0.66611733055E+01  0.33885053341E+02  0.34558939409E+02  0.00000000000E+00 0.  1.
</event>
<event>
 7    1  0.2472338E-008  0.4614232E+02  0.7816164E-02  0.1320468E+00
        -11   -1    0    0    0    0  0.00000000000E+00  0.00000000000E+00  0.45593999997E+02  0.45594000000E+02  0.51100000000E-03 0.  1.
         11   -1    0    0    0    0 -0.00000000000E+00 -0.00000000000E+00 -0.45593999997E+02  0.45594000000E+02  0.51100000000E-03 0. -1.
    9900012    2    1    2    0    0 -0.34990441302E+00  0.42462909564E+02  0.15029716222E+02  0.46142317727E+02  0.99999996930E+01 0.  0.
         12    1    1    2    0    0  0.34990441302E+00 -0.42462909564E+02 -0.15029716222E+02  0.45045682273E+02  0.00000000000E+00 0. -1.
         11    1    3    3    0    0  0.13240591268E+01  0.10154080014E+02  0.41498568816E+01  0.11048972165E+02  0.51100000000E-03 0. -1.
        -11    1    3    3    0    0  0.23162488928E+01  0.13265428735E+02  0.72737813283E+01  0.15305048302E+02  0.51100000000E-03 0.  1.
         12    1    3    3    0    0 -0.39902124326E+01  0.19043400814E+02  0.36060780116E+01  0.19788297260E+02  0.00000000000E+00 0. -1.
</event>
<event>
 7    1  0.2472338E-008  0.4614232E+02  0.7816164E-02  0.1320468E+00
        -11   -1    0    0    0    0  0.00000000000E+00  0.00000000000E+00  0.45593999997E+02  0.45594000000E+02  0.51100000000E-03 0. -1.
         11   -1    0    0    0    0 -0.00000000000E+00 -0.00000000000E+00 -0.45593999997E+02  0.45594000000E+02  0.51100000000E-03 0.  1.
    9900012    2    1    2    0    0  0.82013919235E+01  0.26945090752E+02 -0.35154127327E+02  0.46142318595E+02  0.10000007607E+02 0.  0.
         12    1    1    2    0    0 -0.82013919235E+01 -0.26945090752E+02  0.35154127327E+02  0.45045681405E+02  0.00000000000E+00 0. -1.
         11    1    3    3    0    0  0.12290181458E+00  0.76632481727E+01 -0.12028650282E+02  0.14262850531E+02  0.51100000000E-03 0. -1.
        -11    1    3    3    0    0  0.75578015296E+01  0.94650709302E+01 -0.12655472073E+02  0.17517674085E+02  0.51100000000E-03 0.  1.
        -12    1    3    3    0    0  0.52068857938E+00  0.98167716490E+01 -0.10470004971E+02  0.14361793979E+02  0.00000000000E+00 0.  1.
</event>
<event>
 7    1  0.2472338E-008  0.4614232E+02  0.7816164E-02  0.1320468E+00
        -11   -1    0    0    0    0  0.00000000000E+00  0.00000000000E+00  0.45593999997E+02  0.45594000000E+02  0.51100000000E-03 0.  1.
         11   -1    0    0    0    0 -0.00000000000E+00 -0.00000000000E+00 -0.45593999997E+02  0.45594000000E+02  0.51100000000E-03 0. -1.
    9900012    2    1    2    0    0 -0.22990556327E+02  0.11926094772E+01  0.38718541212E+02  0.46142318397E+02  0.10000005794E+02 0.  0.
         12    1    1    2    0    0  0.22990556327E+02 -0.11926094772E+01 -0.38718541212E+02  0.45045681603E+02  0.00000000000E+00 0. -1.
         11    1    3    3    0    0 -0.69586226793E+00 -0.94829576424E+00  0.39866600125E+00  0.12419436356E+01  0.51100000000E-03 0. -1.
        -11    1    3    3    0    0 -0.17469793839E+02 -0.37235882336E+00  0.24897366474E+02  0.30417284649E+02  0.51100000000E-03 0.  1.
         12    1    3    3    0    0 -0.48249002200E+01  0.25132640648E+01  0.13422508737E+02  0.14483090112E+02  0.00000000000E+00 0. -1.
</event>
<event>
 7    1  0.2472338E-008  0.4614232E+02  0.7816164E-02  0.1320468E+00
        -11   -1    0    0    0    0  0.00000000000E+00  0.00000000000E+00  0.45593999997E+02  0.45594000000E+02  0.51100000000E-03 0.  1.
         11   -1    0    0    0    0 -0.00000000000E+00 -0.00000000000E+00 -0.45593999997E+02  0.45594000000E+02  0.51100000000E-03 0. -1.
    9900012    2    1    2    0    0 -0.35902533829E+02 -0.22217989929E+02  0.15699758296E+02  0.46142318494E+02  0.10000006679E+02 0.  0.
         12    1    1    2    0    0  0.35902533829E+02  0.22217989929E+02 -0.15699758296E+02  0.45045681506E+02  0.00000000000E+00 0. -1.
         11    1    3    3    0    0 -0.12789540350E+01  0.41559631477E+00  0.11612630480E+01  0.17767880707E+01  0.51100000000E-03 0. -1.
        -11    1    3    3    0    0 -0.27318874887E+02 -0.14583558854E+02  0.11933824443E+02  0.33187607326E+02  0.51100000000E-03 0.  1.
         12    1    3    3    0    0 -0.73047049072E+01 -0.80500273898E+01  0.26046708049E+01  0.11177923097E+02  0.00000000000E+00 0. -1.
</event>
<event>
 7    1  0.2472338E-008  0.4614232E+02  0.7816164E-02  0.1320468E+00
        -11   -1    0    0    0    0  0.00000000000E+00  0.00000000000E+00  0.45593999997E+02  0.45594000000E+02  0.51100000000E-03 0.  1.
         11   -1    0    0    0    0 -0.00000000000E+00 -0.00000000000E+00 -0.45593999997E+02  0.45594000000E+02  0.51100000000E-03 0. -1.
    9900012    2    1    2    0    0  0.27380301185E+02 -0.32152052148E+02  0.15674122201E+02  0.46142318109E+02  0.10000003170E+02 0.  0.
         12    1    1    2    0    0 -0.27380301185E+02  0.32152052148E+02 -0.15674122201E+02  0.45045681891E+02  0.00000000000E+00 0. -1.
         11    1    3    3    0    0  0.13633121577E+02 -0.14485950837E+02  0.53170828775E+01  0.20590681051E+02  0.51100000000E-03 0. -1.
        -11    1    3    3    0    0  0.10268923531E+02 -0.15706826329E+02  0.61400826923E+01  0.19744766383E+02  0.51100000000E-03 0.  1.
         12    1    3    3    0    0  0.34782560779E+01 -0.19592749819E+01  0.42169566310E+01  0.58068706741E+01  0.00000000000E+00 0. -1.
</event>
<event>
 7    1  0.2472338E-008  0.4614232E+02  0.7816164E-02  0.1320468E+00
        -11   -1    0    0    0    0  0.00000000000E+00  0.00000000000E+00  0.45593999997E+02  0.45594000000E+02  0.51100000000E-03 0.  1.
         11   -1    0    0    0    0 -0.00000000000E+00 -0.00000000000E+00 -0.45593999997E+02  0.45594000000E+02  0.51100000000E-03 0. -1.
    9900012    2    1    2    0    0 -0.41091401445E+02  0.14813251241E+02  0.11008060542E+02  0.46142322273E+02  0.10000041141E+02 0.  0.
         12    1    1    2    0    0  0.41091401445E+02 -0.14813251241E+02 -0.11008060542E+02  0.45045677727E+02  0.00000000000E+00 0. -1.
         11    1    3    3    0    0 -0.25661596160E+02  0.10248614230E+02  0.35914716262E+01  0.27864857434E+02  0.51100000000E-03 0. -1.
        -11    1    3    3    0    0 -0.46343667573E+01  0.22313871794E+00  0.32524701034E+00  0.46511215860E+01  0.51100000000E-03 0.  1.
        -12    1    3    3    0    0 -0.10795438527E+02  0.43414982934E+01  0.70913419050E+01  0.13626343253E+02  0.00000000000E+00 0.  1.
</event>
<event>
 7    1  0.2472338E-008  0.4614232E+02  0.7816164E-02  0.1320468E+00
        -11   -1    0    0    0    0  0.00000000000E+00  0.00000000000E+00  0.45593999997E+02  0.45594000000E+02  0.51100000000E-03 0.  1.
         11   -1    0    0    0    0 -0.00000000000E+00 -0.00000000000E+00 -0.45593999997E+02  0.45594000000E+02  0.51100000000E-03 0. -1.
    9900012    2    1    2    0    0 -0.15686371203E+02  0.20801697357E+02  0.36746980272E+02  0.46142318592E+02  0.10000007573E+02 0.  0.
         12    1    1    2    0    0  0.15686371203E+02 -0.20801697357E+02 -0.36746980272E+02  0.45045681408E+02  0.00000000000E+00 0. -1.
         11    1    3    3    0    0 -0.11386853479E+02  0.16503212939E+02  0.29667893227E+02  0.35807825377E+02  0.51100000000E-03 0. -1.
        -11    1    3    3    0    0 -0.46533893764E+01  0.49434667001E+01  0.62788902492E+01  0.92475055408E+01  0.51100000000E-03 0.  1.
         12    1    3    3    0    0  0.35387165225E+00 -0.64498228223E+00  0.80019679539E+00  0.10869876733E+01  0.00000000000E+00 0. -1.
</event>
<event>
 7    1  0.2472338E-008  0.4614232E+02  0.7816164E-02  0.1320468E+00
        -11   -1    0    0    0    0  0.00000000000E+00  0.00000000000E+00  0.45593999997E+02  0.45594000000E+02  0.51100000000E-03 0. -1.
         11   -1    0    0    0    0 -0.00000000000E+00 -0.00000000000E+00 -0.45593999997E+02  0.45594000000E+02  0.51100000000E-03 0.  1.
    9900012    2    1    2    0    0  0.15454289497E+02 -0.23842357721E+02  0.34954547749E+02  0.46142317700E+02  0.99999994391E+01 0.  0.
         12    1    1    2    0    0 -0.15454289497E+02  0.23842357721E+02 -0.34954547749E+02  0.45045682300E+02  0.00000000000E+00 0. -1.
         11    1    3    3    0    0  0.12837239420E+02 -0.21197670875E+02  0.25361163646E+02  0.35458773078E+02  0.51100000000E-03 0.  1.
        -11    1    3    3    0    0  0.23293450247E+01 -0.31075034874E+00  0.48116455047E+01  0.53548432981E+01  0.51100000000E-03 0. -1.
        -12    1    3    3    0    0  0.28770505235E+00 -0.23339364972E+01  0.47817385989E+01  0.53287013238E+01  0.00000000000E+00 0.  1.
</event>
<event>
 7    1  0.2472338E-008  0.4614232E+02  0.7816164E-02  0.1320468E+00
        -11   -1    0    0    0    0  0.00000000000E+00  0.00000000000E+00  0.45593999997E+02  0.45594000000E+02  0.51100000000E-03 0.  1.
         11   -1    0    0    0    0 -0.00000000000E+00 -0.00000000000E+00 -0.45593999997E+02  0.45594000000E+02  0.51100000000E-03 0. -1.
    9900012    2    1    2    0    0 -0.18867350581E+02 -0.34701784678E+02  0.21654623700E+02  0.46142317573E+02  0.99999982841E+01 0.  0.
         12    1    1    2    0    0  0.18867350581E+02  0.34701784678E+02 -0.21654623700E+02  0.45045682427E+02  0.00000000000E+00 0. -1.
         11    1    3    3    0    0 -0.53292996271E+01 -0.38948110550E+01  0.51544759939E+01  0.83749394447E+01  0.51100000000E-03 0. -1.
        -11    1    3    3    0    0 -0.40559539501E+01 -0.13131085406E+02  0.85808418275E+01  0.16202068174E+02  0.51100000000E-03 0.  1.
        -12    1    3    3    0    0 -0.94820970034E+01 -0.17675888216E+02  0.79193058783E+01  0.21565309954E+02  0.00000000000E+00 0.  1.
</event>
<event>
 7    1  0.2472338E-008  0.4614232E+02  0.7816164E-02  0.1320468E+00
        -11   -1    0    0    0    0  0.00000000000E+00  0.00000000000E+00  0.45593999997E+02  0.45594000000E+02  0.51100000000E-03 0.  1.
         11   -1    0    0    0    0 -0.00000000000E+00 -0.00000000000E+00 -0.45593999997E+02  0.45594000000E+02  0.51100000000E-03 0. -1.
    9900012    2    1    2    0    0 -0.42159743259E+02  0.13547061577E+02 -0.82551021940E+01  0.46142317174E+02  0.99999946437E+01 0.  0.
         12    1    1    2    0    0  0.42159743259E+02 -0.13547061577E+02  0.82551021940E+01  0.45045682826E+02  0.00000000000E+00 0. -1.
         11    1    3    3    0    0 -0.71177025117E+01  0.60419821797E+00 -0.32948656682E+01  0.78665675211E+01  0.51100000000E-03 0. -1.
        -11    1    3    3    0    0 -0.18198174480E+02  0.10185800426E+02 -0.34860491648E+01  0.21144186524E+02  0.51100000000E-03 0.  1.
        -12    1    3    3    0    0 -0.16843866268E+02  0.27570629334E+01 -0.14741873610E+01  0.17131563129E+02  0.00000000000E+00 0.  1.
</event>
<event>
 7    1  0.2472338E-008  0.4614232E+02  0.7816164E-02  0.1320468E+00
        -11   -1    0    0    0    0  0.00000000000E+00  0.00000000000E+00  0.45593999997E+02  0.45594000000E+02  0.51100000000E-03 0.  1.
         11   -1    0    0    0    0 -0.00000000000E+00 -0.00000000000E+00 -0.45593999997E+02  0.45594000000E+02  0.51100000000E-03 0. -1.
    9900012    2    1    2    0    0 -0.22699504715E+01  0.17859353987E+02  0.41291698099E+02  0.46142317279E+02  0.99999955993E+01 0.  0.
         12    1    1    2    0    0  0.22699504715E+01 -0.17859353987E+02 -0.41291698099E+02  0.45045682721E+02  0.00000000000E+00 0. -1.
         11    1    3    3    0    0  0.11830941324E+01  0.60013450671E+01  0.14751779663E+02  0.15969685590E+02  0.51100000000E-03 0. -1.
        -11    1    3    3    0    0  0.19652393051E+01  0.24498183400E+01  0.91281400497E+01  0.96533267040E+01  0.51100000000E-03 0.  1.
         12    1    3    3    0    0 -0.54182839090E+01  0.94081905801E+01  0.17411778385E+02  0.20519304985E+02  0.00000000000E+00 0. -1.
</event>
<event>
 7    1  0.2472338E-008  0.4614232E+02  0.7816164E-02  0.1320468E+00
        -11   -1    0    0    0    0  0.00000000000E+00  0.00000000000E+00  0.45593999997E+02  0.45594000000E+02  0.51100000000E-03 0.  1.
         11   -1    0    0    0    0 -0.00000000000E+00 -0.00000000000E+00 -0.45593999997E+02  0.45594000000E+02  0.51100000000E-03 0. -1.
    9900012    2    1    2    0    0 -0.17208556892E+02 -0.14599840666E+02  0.38984915237E+02  0.46142318811E+02  0.10000009573E+02 0.  0.
         12    1    1    2    0    0  0.17208556892E+02  0.14599840666E+02 -0.38984915237E+02  0.45045681189E+02  0.00000000000E+00 0. -1.
         11    1    3    3    0    0 -0.41890538138E+01 -0.74342545259E+01  0.84117212645E+01  0.11982210443E+02  0.51100000000E-03 0. -1.
        -11    1    3    3    0    0 -0.17962537228E+01 -0.23776237210E+01  0.72350840697E+01  0.78247085410E+01  0.51100000000E-03 0.  1.
        -12    1    3    3    0    0 -0.11223249355E+02 -0.47879624196E+01  0.23338109902E+02  0.26335399827E+02  0.00000000000E+00 0.  1.
</event>
<event>
 7    1  0.2472338E-008  0.4614232E+02  0.7816164E-02  0.1320468E+00
        -11   -1    0    0    0    0  0.00000000000E+00  0.00000000000E+00  0.45593999997E+02  0.45594000000E+02  0.51100000000E-03 0.  1.
         11   -1    0    0    0    0 -0.00000000000E+00 -0.00000000000E+00 -0.45593999997E+02  0.45594000000E+02  0.51100000000E-03 0. -1.
    9900012    2    1    2    0    0  0.25850583254E+01  0.35771589207E+00  0.44970023370E+02  0.46142317753E+02  0.99999999284E+01 0.  0.
         12    1    1    2    0    0 -0.25850583254E+01 -0.35771589207E+00 -0.44970023370E+02  0.45045682247E+02  0.00000000000E+00 0. -1.
         11    1    3    3    0    0 -0.16342340917E+00  0.14131215811E+01  0.57184964266E+01  0.58927770581E+01  0.51100000000E-03 0. -1.
        -11    1    3    3    0    0  0.11515769455E+01  0.30598795437E+01  0.73537366622E+01  0.80477596536E+01  0.51100000000E-03 0.  1.
        -12    1    3    3    0    0  0.15969047891E+01 -0.41152852327E+01  0.31897790281E+02  0.32201781042E+02  0.00000000000E+00 0.  1.
</event>
<event>
 7    1  0.2472338E-008  0.4614232E+02  0.7816164E-02  0.1320468E+00
        -11   -1    0    0    0    0  0.00000000000E+00  0.00000000000E+00  0.45593999997E+02  0.45594000000E+02  0.51100000000E-03 0. -1.
         11   -1    0    0    0    0 -0.00000000000E+00 -0.00000000000E+00 -0.45593999997E+02  0.45594000000E+02  0.51100000000E-03 0.  1.
    9900012    2    1    2    0    0 -0.38253111757E+02  0.10737122529E+02 -0.21225624107E+02  0.46142317875E+02  0.10000001040E+02 0.  0.
         12    1    1    2    0    0  0.38253111757E+02 -0.10737122529E+02  0.21225624107E+02  0.45045682125E+02  0.00000000000E+00 0. -1.
         11    1    3    3    0    0 -0.96452465844E+01  0.54808417494E+01 -0.20090241394E+01  0.11274155676E+02  0.51100000000E-03 0. -1.
        -11    1    3    3    0    0 -0.22801785538E+02  0.43972881176E+01 -0.15560204499E+02  0.27953130966E+02  0.51100000000E-03 0.  1.
         12    1    3    3    0    0 -0.58060796347E+01  0.85899266249E+00 -0.36563954693E+01  0.69150312326E+01  0.00000000000E+00 0. -1.
</event>
<event>
 7    1  0.2472338E-008  0.4614232E+02  0.7816164E-02  0.1320468E+00
        -11   -1    0    0    0    0  0.00000000000E+00  0.00000000000E+00  0.45593999997E+02  0.45594000000E+02  0.51100000000E-03 0.  1.
         11   -1    0    0    0    0 -0.00000000000E+00 -0.00000000000E+00 -0.45593999997E+02  0.45594000000E+02  0.51100000000E-03 0. -1.
    9900012    2    1    2    0    0 -0.40180936276E+02 -0.86742837295E+01  0.18421798836E+02  0.46142317515E+02  0.99999977515E+01 0.  0.
         12    1    1    2    0    0  0.40180936276E+02  0.86742837295E+01 -0.18421798836E+02  0.45045682485E+02  0.00000000000E+00 0. -1.
         11    1    3    3    0    0 -0.19777033162E+02 -0.25656838956E+01  0.77188042202E+01  0.21384426889E+02  0.51100000000E-03 0. -1.
        -11    1    3    3    0    0 -0.14937193697E+02 -0.16983858186E+01  0.90319413326E+01  0.17537965516E+02  0.51100000000E-03 0.  1.
         12    1    3    3    0    0 -0.54667094169E+01 -0.44102140153E+01  0.16710532833E+01  0.72199251094E+01  0.00000000000E+00 0. -1.
</event>
<event>
 7    1  0.2472338E-008  0.4614232E+02  0.7816164E-02  0.1320468E+00
        -11   -1    0    0    0    0  0.00000000000E+00  0.00000000000E+00  0.45593999997E+02  0.45594000000E+02  0.51100000000E-03 0.  1.
         11   -1    0    0    0    0 -0.00000000000E+00 -0.00000000000E+00 -0.45593999997E+02  0.45594000000E+02  0.51100000000E-03 0. -1.
    9900012    2    1    2    0    0 -0.44708371649E+02  0.17751560428E+01  0.52080528852E+01  0.46142317750E+02  0.99999999001E+01 0.  0.
         12    1    1    2    0    0  0.44708371649E+02 -0.17751560428E+01 -0.52080528852E+01  0.45045682250E+02  0.00000000000E+00 0. -1.
         11    1    3    3    0    0 -0.70344995907E+01  0.33602846392E+00  0.10766111403E+00  0.70433437227E+01  0.51100000000E-03 0.  1.
        -11    1    3    3    0    0 -0.43479745054E+01  0.15992521757E+01 -0.19645004607E+01  0.50320723506E+01  0.51100000000E-03 0. -1.
         12    1    3    3    0    0 -0.33325897553E+02 -0.16012459679E+00  0.70648922318E+01  0.34066901677E+02  0.00000000000E+00 0. -1.
</event>
<event>
 7    1  0.2472338E-008  0.4614232E+02  0.7816164E-02  0.1320468E+00
        -11   -1    0    0    0    0  0.00000000000E+00  0.00000000000E+00  0.45593999997E+02  0.45594000000E+02  0.51100000000E-03 0. -1.
         11   -1    0    0    0    0 -0.00000000000E+00 -0.00000000000E+00 -0.45593999997E+02  0.45594000000E+02  0.51100000000E-03 0.  1.
    9900012    2    1    2    0    0  0.32367871218E+02 -0.32652778219E+01 -0.31157219159E+02  0.46142318386E+02  0.10000005694E+02 0.  0.
         12    1    1    2    0    0 -0.32367871218E+02  0.32652778219E+01  0.31157219159E+02  0.45045681614E+02  0.00000000000E+00 0. -1.
         11    1    3    3    0    0  0.13171434543E+02 -0.42592950768E+01 -0.16368936333E+02  0.21437592202E+02  0.51100000000E-03 0. -1.
        -11    1    3    3    0    0  0.16614619823E+02 -0.50054549070E+00 -0.13661310408E+02  0.21515750974E+02  0.51100000000E-03 0.  1.
         12    1    3    3    0    0  0.25818168521E+01  0.14945627456E+01 -0.11269724168E+01  0.31889752095E+01  0.00000000000E+00 0. -1.
</event>
<event>
 7    1  0.2472338E-008  0.4614232E+02  0.7816164E-02  0.1320468E+00
        -11   -1    0    0    0    0  0.00000000000E+00  0.00000000000E+00  0.45593999997E+02  0.45594000000E+02  0.51100000000E-03 0. -1.
         11   -1    0    0    0    0 -0.00000000000E+00 -0.00000000000E+00 -0.45593999997E+02  0.45594000000E+02  0.51100000000E-03 0.  1.
    9900012    2    1    2    0    0  0.34503908548E+02  0.18943918834E+02 -0.21902550378E+02  0.46142317866E+02  0.10000000957E+02 0.  0.
         12    1    1    2    0    0 -0.34503908548E+02 -0.18943918834E+02  0.21902550378E+02  0.45045682134E+02  0.00000000000E+00 0. -1.
         11    1    3    3    0    0  0.18660492117E+02  0.88607637761E+01 -0.95593432038E+01  0.22761989006E+02  0.51100000000E-03 0. -1.
        -11    1    3    3    0    0  0.10409152662E+02  0.47239375525E+01 -0.40940707724E+01  0.12141971047E+02  0.51100000000E-03 0.  1.
         12    1    3    3    0    0  0.54342637681E+01  0.53592175049E+01 -0.82491364020E+01  0.11238357813E+02  0.00000000000E+00 0. -1.
</event>
<event>
 7    1  0.2472338E-008  0.4614232E+02  0.7816164E-02  0.1320468E+00
        -11   -1    0    0    0    0  0.00000000000E+00  0.00000000000E+00  0.45593999997E+02  0.45594000000E+02  0.51100000000E-03 0. -1.
         11   -1    0    0    0    0 -0.00000000000E+00 -0.00000000000E+00 -0.45593999997E+02  0.45594000000E+02  0.51100000000E-03 0.  1.
    9900012    2    1    2    0    0 -0.40194806084E+02 -0.11673602259E+02 -0.16649860922E+02  0.46142319912E+02  0.10000019616E+02 0.  0.
         12    1    1    2    0    0  0.40194806084E+02  0.11673602259E+02  0.16649860922E+02  0.45045680088E+02  0.00000000000E+00 0. -1.
         11    1    3    3    0    0 -0.15888628673E+02 -0.82967252892E+01 -0.88250829977E+01  0.19979145673E+02  0.51100000000E-03 0. -1.
        -11    1    3    3    0    0 -0.10756620550E+02 -0.35342742550E+01 -0.46870722961E+01  0.12254167746E+02  0.51100000000E-03 0.  1.
        -12    1    3    3    0    0 -0.13549556861E+02  0.15739728560E+00 -0.31377056283E+01  0.13909006493E+02  0.00000000000E+00 0.  1.
</event>
<event>
 7    1  0.2472338E-008  0.4614232E+02  0.7816164E-02  0.1320468E+00
        -11   -1    0    0    0    0  0.00000000000E+00  0.00000000000E+00  0.45593999997E+02  0.45594000000E+02  0.51100000000E-03 0.  1.
         11   -1    0    0    0    0 -0.00000000000E+00 -0.00000000000E+00 -0.45593999997E+02  0.45594000000E+02  0.51100000000E-03 0. -1.
    9900012    2    1    2    0    0  0.23246584580E+02  0.25855919536E+02 -0.28638805824E+02  0.46142317979E+02  0.10000001991E+02 0.  0.
         12    1    1    2    0    0 -0.23246584580E+02 -0.25855919536E+02  0.28638805824E+02  0.45045682021E+02  0.00000000000E+00 0. -1.
         11    1    3    3    0    0  0.15449688096E+02  0.11346464750E+02 -0.18288114759E+02  0.26493211702E+02  0.51100000000E-03 0. -1.
        -11    1    3    3    0    0  0.61653392414E+01  0.10646495979E+02 -0.90008065283E+01  0.15243811958E+02  0.51100000000E-03 0.  1.
        -12    1    3    3    0    0  0.16315572426E+01  0.38629588062E+01 -0.13498845366E+01  0.44052943189E+01  0.00000000000E+00 0.  1.
</event>
<event>
 7    1  0.2472338E-008  0.4614232E+02  0.7816164E-02  0.1320468E+00
        -11   -1    0    0    0    0  0.00000000000E+00  0.00000000000E+00  0.45593999997E+02  0.45594000000E+02  0.51100000000E-03 0. -1.
         11   -1    0    0    0    0 -0.00000000000E+00 -0.00000000000E+00 -0.45593999997E+02  0.45594000000E+02  0.51100000000E-03 0.  1.
    9900012    2    1    2    0    0  0.21184333124E+02 -0.39662497324E+02 -0.26877248634E+01  0.46142317312E+02  0.99999959090E+01 0.  0.
         12    1    1    2    0    0 -0.21184333124E+02  0.39662497324E+02  0.26877248634E+01  0.45045682688E+02  0.00000000000E+00 0. -1.
         11    1    3    3    0    0  0.72127715040E+01 -0.11535599279E+02 -0.37873650261E+01  0.14122261065E+02  0.51100000000E-03 0. -1.
        -11    1    3    3    0    0  0.30172211519E+01 -0.10580453557E+02 -0.17465338671E+01  0.11140018033E+02  0.51100000000E-03 0.  1.
         12    1    3    3    0    0  0.10954340468E+02 -0.17546444487E+02  0.28461740298E+01  0.20880038214E+02  0.00000000000E+00 0. -1.
</event>
<event>
 7    1  0.2472338E-008  0.4614233E+02  0.7816164E-02  0.1320468E+00
        -11   -1    0    0    0    0  0.00000000000E+00  0.00000000000E+00  0.45593999997E+02  0.45594000000E+02  0.51100000000E-03 0. -1.
         11   -1    0    0    0    0 -0.00000000000E+00 -0.00000000000E+00 -0.45593999997E+02  0.45594000000E+02  0.51100000000E-03 0.  1.
    9900012    2    1    2    0    0 -0.24767096227E+02 -0.28858814313E+02 -0.24142753117E+02  0.46142325989E+02  0.10000075028E+02 0.  0.
         12    1    1    2    0    0  0.24767096227E+02  0.28858814313E+02  0.24142753117E+02  0.45045674011E+02  0.00000000000E+00 0. -1.
         11    1    3    3    0    0 -0.87592645435E+01 -0.10438149788E+02 -0.41508455591E+01  0.14244620229E+02  0.51100000000E-03 0. -1.
        -11    1    3    3    0    0 -0.19297436193E+01 -0.31960556834E+01 -0.12223019508E+01  0.39284481272E+01  0.51100000000E-03 0.  1.
        -12    1    3    3    0    0 -0.14078088064E+02 -0.15224608841E+02 -0.18769605607E+02  0.27969257633E+02  0.00000000000E+00 0.  1.
</event>
<event>
 7    1  0.2472338E-008  0.4614232E+02  0.7816164E-02  0.1320468E+00
        -11   -1    0    0    0    0  0.00000000000E+00  0.00000000000E+00  0.45593999997E+02  0.45594000000E+02  0.51100000000E-03 0.  1.
         11   -1    0    0    0    0 -0.00000000000E+00 -0.00000000000E+00 -0.45593999997E+02  0.45594000000E+02  0.51100000000E-03 0. -1.
    9900012    2    1    2    0    0 -0.88473032039E+01  0.17733646057E+02  0.40451903566E+02  0.46142317870E+02  0.10000000993E+02 0.  0.
         12    1    1    2    0    0  0.88473032039E+01 -0.17733646057E+02 -0.40451903566E+02  0.45045682130E+02  0.00000000000E+00 0. -1.
         11    1    3    3    0    0 -0.23484498485E+01  0.33293724641E+01  0.10230275299E+02  0.11011742399E+02  0.51100000000E-03 0.  1.
        -11    1    3    3    0    0  0.15671151668E+01  0.53848593929E+01  0.12153508668E+02  0.13385078776E+02  0.51100000000E-03 0. -1.
         12    1    3    3    0    0 -0.80659685222E+01  0.90194142001E+01  0.18068119598E+02  0.21745496695E+02  0.00000000000E+00 0. -1.
</event>
<event>
 7    1  0.2472338E-008  0.4614232E+02  0.7816164E-02  0.1320468E+00
        -11   -1    0    0    0    0  0.00000000000E+00  0.00000000000E+00  0.45593999997E+02  0.45594000000E+02  0.51100000000E-03 0.  1.
         11   -1    0    0    0    0 -0.00000000000E+00 -0.00000000000E+00 -0.45593999997E+02  0.45594000000E+02  0.51100000000E-03 0. -1.
    9900012    2    1    2    0    0 -0.79843869130E+01 -0.22695747749E+02  0.38082358272E+02  0.46142318611E+02  0.10000007747E+02 0.  0.
         12    1    1    2    0    0  0.79843869130E+01  0.22695747749E+02 -0.38082358272E+02  0.45045681389E+02  0.00000000000E+00 0. -1.
         11    1    3    3    0    0  0.72998057962E+00 -0.25508723978E+01  0.36929815531E+01  0.45472997097E+01  0.51100000000E-03 0. -1.
        -11    1    3    3    0    0 -0.66681590995E+00 -0.11035327571E+02  0.19024696269E+02  0.22003685293E+02  0.51100000000E-03 0.  1.
         12    1    3    3    0    0 -0.80475515827E+01 -0.91095477797E+01  0.15364680450E+02  0.19591333608E+02  0.00000000000E+00 0. -1.
</event>
<event>
 7    1  0.2472338E-008  0.4614232E+02  0.7816164E-02  0.1320468E+00
        -11   -1    0    0    0    0  0.00000000000E+00  0.00000000000E+00  0.45593999997E+02  0.45594000000E+02  0.51100000000E-03 0. -1.
         11   -1    0    0    0    0 -0.00000000000E+00 -0.00000000000E+00 -0.45593999997E+02  0.45594000000E+02  0.51100000000E-03 0.  1.
    9900012    2    1    2    0    0  0.33557532366E+02 -0.27063844079E+02  0.13059626957E+02  0.46142317731E+02  0.99999997275E+01 0.  0.
         12    1    1    2    0    0 -0.33557532366E+02  0.27063844079E+02 -0.13059626957E+02  0.45045682269E+02  0.00000000000E+00 0. -1.
         11    1    3    3    0    0  0.33790703762E+01 -0.61810874486E+01  0.45268537961E+00  0.70589576404E+01  0.51100000000E-03 0. -1.
        -11    1    3    3    0    0  0.22184938326E+02 -0.15413039767E+02  0.70567650365E+01  0.27920086254E+02  0.51100000000E-03 0.  1.
         12    1    3    3    0    0  0.79935236633E+01 -0.54697168636E+01  0.55501765405E+01  0.11163273837E+02  0.00000000000E+00 0. -1.
</event>
<event>
 7    1  0.2472338E-008  0.4614232E+02  0.7816164E-02  0.1320468E+00
        -11   -1    0    0    0    0  0.00000000000E+00  0.00000000000E+00  0.45593999997E+02  0.45594000000E+02  0.51100000000E-03 0.  1.
         11   -1    0    0    0    0 -0.00000000000E+00 -0.00000000000E+00 -0.45593999997E+02  0.45594000000E+02  0.51100000000E-03 0. -1.
    9900012    2    1    2    0    0  0.57339888315E+01 -0.44112736529E+02  0.70923436312E+01  0.46142317741E+02  0.99999998121E+01 0.  0.
         12    1    1    2    0    0 -0.57339888315E+01  0.44112736529E+02 -0.70923436312E+01  0.45045682259E+02  0.00000000000E+00 0. -1.
         11    1    3    3    0    0  0.12143976169E+01 -0.10484590178E+02  0.19779766405E+01  0.10738425612E+02  0.51100000000E-03 0. -1.
        -11    1    3    3    0    0  0.43755479570E+01 -0.32211033586E+02  0.67860720531E+01  0.33207632839E+02  0.51100000000E-03 0.  1.
         12    1    3    3    0    0  0.14404325763E+00 -0.14171127648E+01 -0.16717050623E+01  0.21962592888E+01  0.00000000000E+00 0. -1.
</event>
<event>
 7    1  0.2472338E-008  0.4614232E+02  0.7816164E-02  0.1320468E+00
        -11   -1    0    0    0    0  0.00000000000E+00  0.00000000000E+00  0.45593999997E+02  0.45594000000E+02  0.51100000000E-03 0.  1.
         11   -1    0    0    0    0 -0.00000000000E+00 -0.00000000000E+00 -0.45593999997E+02  0.45594000000E+02  0.51100000000E-03 0. -1.
    9900012    2    1    2    0    0  0.32725545896E+02 -0.86865833525E+01  0.29710193785E+02  0.46142315420E+02  0.99999786510E+01 0.  0.
         12    1    1    2    0    0 -0.32725545896E+02  0.86865833525E+01 -0.29710193785E+02  0.45045684580E+02  0.00000000000E+00 0. -1.
         11    1    3    3    0    0  0.74548457717E+01 -0.30735413431E+01  0.38904478386E+01  0.89530423049E+01  0.51100000000E-03 0. -1.
        -11    1    3    3    0    0  0.71501007602E+01 -0.33554197412E+01  0.11653576380E+02  0.14077948189E+02  0.51100000000E-03 0.  1.
        -12    1    3    3    0    0  0.18120599364E+02 -0.22576222682E+01  0.14166169567E+02  0.23111324926E+02  0.00000000000E+00 0.  1.
</event>
<event>
 7    1  0.2472338E-008  0.4614232E+02  0.7816164E-02  0.1320468E+00
        -11   -1    0    0    0    0  0.00000000000E+00  0.00000000000E+00  0.45593999997E+02  0.45594000000E+02  0.51100000000E-03 0.  1.
         11   -1    0    0    0    0 -0.00000000000E+00 -0.00000000000E+00 -0.45593999997E+02  0.45594000000E+02  0.51100000000E-03 0. -1.
    9900012    2    1    2    0    0  0.38007564090E+02  0.16028679847E+02  0.18100273134E+02  0.46142318817E+02  0.10000009628E+02 0.  0.
         12    1    1    2    0    0 -0.38007564090E+02 -0.16028679847E+02 -0.18100273134E+02  0.45045681183E+02  0.00000000000E+00 0. -1.
         11    1    3    3    0    0  0.10962997754E+02  0.47737698799E+01  0.28505509854E+01  0.12292348832E+02  0.51100000000E-03 0. -1.
        -11    1    3    3    0    0  0.14916380817E+02  0.22365158313E+01  0.69502595050E+01  0.16607423858E+02  0.51100000000E-03 0.  1.
         12    1    3    3    0    0  0.12128185519E+02  0.90183941359E+01  0.82994626441E+01  0.17242546127E+02  0.00000000000E+00 0. -1.
</event>
<event>
 7    1  0.2472338E-008  0.4614232E+02  0.7816164E-02  0.1320468E+00
        -11   -1    0    0    0    0  0.00000000000E+00  0.00000000000E+00  0.45593999997E+02  0.45594000000E+02  0.51100000000E-03 0.  1.
         11   -1    0    0    0    0 -0.00000000000E+00 -0.00000000000E+00 -0.45593999997E+02  0.45594000000E+02  0.51100000000E-03 0. -1.
    9900012    2    1    2    0    0 -0.98951306399E+01 -0.36884867712E+02  0.23889464939E+02  0.46142316393E+02  0.99999875265E+01 0.  0.
         12    1    1    2    0    0  0.98951306399E+01  0.36884867712E+02 -0.23889464939E+02  0.45045683607E+02  0.00000000000E+00 0. -1.
         11    1    3    3    0    0 -0.28049885914E+01 -0.18296769258E+01  0.94413989972E+00  0.34795228211E+01  0.51100000000E-03 0. -1.
        -11    1    3    3    0    0 -0.45524784763E+01 -0.16536727122E+02  0.12748292016E+02  0.21370712523E+02  0.51100000000E-03 0.  1.
         12    1    3    3    0    0 -0.25376635721E+01 -0.18518463665E+02  0.10197033024E+02  0.21292081049E+02  0.00000000000E+00 0. -1.
</event>
<event>
 7    1  0.2472338E-008  0.4614232E+02  0.7816164E-02  0.1320468E+00
        -11   -1    0    0    0    0  0.00000000000E+00  0.00000000000E+00  0.45593999997E+02  0.45594000000E+02  0.51100000000E-03 0. -1.
         11   -1    0    0    0    0 -0.00000000000E+00 -0.00000000000E+00 -0.45593999997E+02  0.45594000000E+02  0.51100000000E-03 0.  1.
    9900012    2    1    2    0    0  0.37355723719E+02  0.21014950439E+02 -0.13857677787E+02  0.46142317963E+02  0.10000001840E+02 0.  0.
         12    1    1    2    0    0 -0.37355723719E+02 -0.21014950439E+02  0.13857677787E+02  0.45045682037E+02  0.00000000000E+00 0. -1.
         11    1    3    3    0    0  0.96806389534E+01  0.75540318764E+01 -0.50866753437E+01  0.13291065964E+02  0.51100000000E-03 0. -1.
        -11    1    3    3    0    0  0.43280453968E+01  0.28138378119E+01 -0.44791103812E+01  0.68346243684E+01  0.51100000000E-03 0.  1.
        -12    1    3    3    0    0  0.23347039369E+02  0.10647080751E+02 -0.42918920618E+01  0.26016627631E+02  0.00000000000E+00 0.  1.
</event>
<event>
 7    1  0.2472338E-008  0.4614232E+02  0.7816164E-02  0.1320468E+00
        -11   -1    0    0    0    0  0.00000000000E+00  0.00000000000E+00  0.45593999997E+02  0.45594000000E+02  0.51100000000E-03 0. -1.
         11   -1    0    0    0    0 -0.00000000000E+00 -0.00000000000E+00 -0.45593999997E+02  0.45594000000E+02  0.51100000000E-03 0.  1.
    9900012    2    1    2    0    0  0.15515963509E+02 -0.42269642932E+02 -0.12828324138E+01  0.46142317674E+02  0.99999992043E+01 0.  0.
         12    1    1    2    0    0 -0.15515963509E+02  0.42269642932E+02  0.12828324138E+01  0.45045682326E+02  0.00000000000E+00 0. -1.
         11    1    3    3    0    0  0.39255750514E+00 -0.15154515726E+01  0.44092111361E+00  0.16263783549E+01  0.51100000000E-03 0. -1.
        -11    1    3    3    0    0  0.85577245094E+01 -0.32350537312E+02  0.11091835702E+01  0.33481669636E+02  0.51100000000E-03 0.  1.
         12    1    3    3    0    0  0.65656814949E+01 -0.84036540477E+01 -0.28329370976E+01  0.11034269683E+02  0.00000000000E+00 0. -1.
</event>
<event>
 7    1  0.2472338E-008  0.4614232E+02  0.7816164E-02  0.1320468E+00
        -11   -1    0    0    0    0  0.00000000000E+00  0.00000000000E+00  0.45593999997E+02  0.45594000000E+02  0.51100000000E-03 0. -1.
         11   -1    0    0    0    0 -0.00000000000E+00 -0.00000000000E+00 -0.45593999997E+02  0.45594000000E+02  0.51100000000E-03 0.  1.
    9900012    2    1    2    0    0  0.54554612530E+01 -0.25788220514E+02 -0.36528333163E+02  0.46142317649E+02  0.99999989796E+01 0.  0.
         12    1    1    2    0    0 -0.54554612530E+01  0.25788220514E+02  0.36528333163E+02  0.45045682351E+02  0.00000000000E+00 0. -1.
         11    1    3    3    0    0  0.44390854330E+00 -0.35580116414E+01 -0.90630556153E+01  0.97465624188E+01  0.51100000000E-03 0. -1.
        -11    1    3    3    0    0  0.18641909291E+01 -0.53870441960E+00 -0.18267585901E+01  0.26650436168E+01  0.51100000000E-03 0.  1.
        -12    1    3    3    0    0  0.31473617806E+01 -0.21691504453E+02 -0.25638518958E+02  0.33730711614E+02  0.00000000000E+00 0.  1.
</event>
<event>
 7    1  0.2472338E-008  0.4614232E+02  0.7816164E-02  0.1320468E+00
        -11   -1    0    0    0    0  0.00000000000E+00  0.00000000000E+00  0.45593999997E+02  0.45594000000E+02  0.51100000000E-03 0. -1.
         11   -1    0    0    0    0 -0.00000000000E+00 -0.00000000000E+00 -0.45593999997E+02  0.45594000000E+02  0.51100000000E-03 0.  1.
    9900012    2    1    2    0    0  0.43096033760E+02  0.13541457862E+01  0.13038852679E+02  0.46142317456E+02  0.99999972149E+01 0.  0.
         12    1    1    2    0    0 -0.43096033760E+02 -0.13541457862E+01 -0.13038852679E+02  0.45045682544E+02  0.00000000000E+00 0. -1.
         11    1    3    3    0    0  0.16865696408E+00  0.52074886181E+00  0.15387759155E+01  0.16332348661E+01  0.51100000000E-03 0. -1.
        -11    1    3    3    0    0  0.20620616139E+02  0.32511331052E+00  0.43304801951E+01  0.21072934480E+02  0.51100000000E-03 0.  1.
         12    1    3    3    0    0  0.22306760658E+02  0.50828361384E+00  0.71695965688E+01  0.23436148110E+02  0.00000000000E+00 0. -1.
</event>
<event>
 7    1  0.2472338E-008  0.4614232E+02  0.7816164E-02  0.1320468E+00
        -11   -1    0    0    0    0  0.00000000000E+00  0.00000000000E+00  0.45593999997E+02  0.45594000000E+02  0.51100000000E-03 0.  1.
         11   -1    0    0    0    0 -0.00000000000E+00 -0.00000000000E+00 -0.45593999997E+02  0.45594000000E+02  0.51100000000E-03 0. -1.
    9900012    2    1    2    0    0  0.28896916990E+02  0.16308943819E+02  0.30464734924E+02  0.46142317255E+02  0.99999953829E+01 0.  0.
         12    1    1    2    0    0 -0.28896916990E+02 -0.16308943819E+02 -0.30464734924E+02  0.45045682745E+02  0.00000000000E+00 0. -1.
         11    1    3    3    0    0  0.21168050796E+02  0.12748411254E+02  0.19491977743E+02  0.31472933778E+02  0.51100000000E-03 0. -1.
        -11    1    3    3    0    0  0.53736010173E+01  0.43568289805E+01  0.62080644481E+01  0.92950315283E+01  0.51100000000E-03 0.  1.
         12    1    3    3    0    0  0.23552651763E+01 -0.79629641503E+00  0.47646927320E+01  0.53743519481E+01  0.00000000000E+00 0. -1.
</event>
<event>
 7    1  0.2472338E-008  0.4614232E+02  0.7816164E-02  0.1320468E+00
        -11   -1    0    0    0    0  0.00000000000E+00  0.00000000000E+00  0.45593999997E+02  0.45594000000E+02  0.51100000000E-03 0.  1.
         11   -1    0    0    0    0 -0.00000000000E+00 -0.00000000000E+00 -0.45593999997E+02  0.45594000000E+02  0.51100000000E-03 0. -1.
    9900012    2    1    2    0    0 -0.40889991422E+02  0.11178805543E+02 -0.15236679095E+02  0.46142317835E+02  0.10000000674E+02 0.  0.
         12    1    1    2    0    0  0.40889991422E+02 -0.11178805543E+02  0.15236679095E+02  0.45045682165E+02  0.00000000000E+00 0. -1.
         11    1    3    3    0    0 -0.17074186040E+01  0.18363166814E+01 -0.30507485905E+01  0.39489751161E+01  0.51100000000E-03 0. -1.
        -11    1    3    3    0    0 -0.34138442195E+01  0.16718076267E+01 -0.84814584366E+00  0.38946918657E+01  0.51100000000E-03 0.  1.
        -12    1    3    3    0    0 -0.35768728598E+02  0.76706812354E+01 -0.11337784661E+02  0.38298650853E+02  0.00000000000E+00 0.  1.
</event>
<event>
 7    1  0.2472338E-008  0.4614232E+02  0.7816164E-02  0.1320468E+00
        -11   -1    0    0    0    0  0.00000000000E+00  0.00000000000E+00  0.45593999997E+02  0.45594000000E+02  0.51100000000E-03 0.  1.
         11   -1    0    0    0    0 -0.00000000000E+00 -0.00000000000E+00 -0.45593999997E+02  0.45594000000E+02  0.51100000000E-03 0. -1.
    9900012    2    1    2    0    0  0.19602212601E+02  0.80407515181E+01  0.39751894156E+02  0.46142317490E+02  0.99999975241E+01 0.  0.
         12    1    1    2    0    0 -0.19602212601E+02 -0.80407515181E+01 -0.39751894156E+02  0.45045682510E+02  0.00000000000E+00 0. -1.
         11    1    3    3    0    0  0.26688870576E+00  0.22751662834E+01  0.20254522799E+01  0.30577881545E+01  0.51100000000E-03 0. -1.
        -11    1    3    3    0    0  0.92853769667E+01  0.49127616217E+01  0.16133220426E+02  0.19251863643E+02  0.51100000000E-03 0.  1.
         12    1    3    3    0    0  0.10049946929E+02  0.85282361307E+00  0.21593221450E+02  0.23832665692E+02  0.00000000000E+00 0. -1.
</event>
<event>
 7    1  0.2472338E-008  0.4614232E+02  0.7816164E-02  0.1320468E+00
        -11   -1    0    0    0    0  0.00000000000E+00  0.00000000000E+00  0.45593999997E+02  0.45594000000E+02  0.51100000000E-03 0.  1.
         11   -1    0    0    0    0 -0.00000000000E+00 -0.00000000000E+00 -0.45593999997E+02  0.45594000000E+02  0.51100000000E-03 0. -1.
    9900012    2    1    2    0    0  0.26087117131E+02  0.69531772163E+01  0.36058690667E+02  0.46142317340E+02  0.99999961643E+01 0.  0.
         12    1    1    2    0    0 -0.26087117131E+02 -0.69531772163E+01 -0.36058690667E+02  0.45045682660E+02  0.00000000000E+00 0. -1.
         11    1    3    3    0    0  0.18794559578E+02  0.41137177533E+01  0.30477451919E+02  0.36042103424E+02  0.51100000000E-03 0. -1.
        -11    1    3    3    0    0  0.39878594619E+01  0.12249213945E+01  0.47642136333E+01  0.63325498273E+01  0.51100000000E-03 0.  1.
         12    1    3    3    0    0  0.33046980918E+01  0.16145380685E+01  0.81702511505E+00  0.37676640895E+01  0.00000000000E+00 0. -1.
</event>
<event>
 7    1  0.2472338E-008  0.4614232E+02  0.7816164E-02  0.1320468E+00
        -11   -1    0    0    0    0  0.00000000000E+00  0.00000000000E+00  0.45593999997E+02  0.45594000000E+02  0.51100000000E-03 0.  1.
         11   -1    0    0    0    0 -0.00000000000E+00 -0.00000000000E+00 -0.45593999997E+02  0.45594000000E+02  0.51100000000E-03 0. -1.
    9900012    2    1    2    0    0  0.15039109523E+01 -0.14414854066E+02  0.42650483810E+02  0.46142317242E+02  0.99999952658E+01 0.  0.
         12    1    1    2    0    0 -0.15039109523E+01  0.14414854066E+02 -0.42650483810E+02  0.45045682758E+02  0.00000000000E+00 0. -1.
         11    1    3    3    0    0 -0.12217666400E+01 -0.14343623890E+01  0.18308213603E+01  0.26271688754E+01  0.51100000000E-03 0. -1.
        -11    1    3    3    0    0 -0.16197096940E+00 -0.96093757298E+01  0.34350043601E+02  0.35669200049E+02  0.51100000000E-03 0.  1.
         12    1    3    3    0    0  0.28876485617E+01 -0.33711159473E+01  0.64696188491E+01  0.78459483174E+01  0.00000000000E+00 0. -1.
</event>
<event>
 7    1  0.2472338E-008  0.4614232E+02  0.7816164E-02  0.1320468E+00
        -11   -1    0    0    0    0  0.00000000000E+00  0.00000000000E+00  0.45593999997E+02  0.45594000000E+02  0.51100000000E-03 0.  1.
         11   -1    0    0    0    0 -0.00000000000E+00 -0.00000000000E+00 -0.45593999997E+02  0.45594000000E+02  0.51100000000E-03 0. -1.
    9900012    2    1    2    0    0 -0.38151581353E+02  0.22244156389E+02  0.88751232664E+01  0.46142318007E+02  0.10000002244E+02 0.  0.
         12    1    1    2    0    0  0.38151581353E+02 -0.22244156389E+02 -0.88751232664E+01  0.45045681993E+02  0.00000000000E+00 0. -1.
         11    1    3    3    0    0 -0.70493755056E-01  0.29442868030E+00  0.44710389195E+00  0.53996274742E+00  0.51100000000E-03 0. -1.
        -11    1    3    3    0    0 -0.34423886022E+02  0.22490257131E+02  0.77798524075E+01  0.41849034618E+02  0.51100000000E-03 0.  1.
         12    1    3    3    0    0 -0.36572015763E+01 -0.54052942258E+00  0.64816696693E+00  0.37533206422E+01  0.00000000000E+00 0. -1.
</event>
<event>
 7    1  0.2472338E-008  0.4614232E+02  0.7816164E-02  0.1320468E+00
        -11   -1    0    0    0    0  0.00000000000E+00  0.00000000000E+00  0.45593999997E+02  0.45594000000E+02  0.51100000000E-03 0.  1.
         11   -1    0    0    0    0 -0.00000000000E+00 -0.00000000000E+00 -0.45593999997E+02  0.45594000000E+02  0.51100000000E-03 0. -1.
    9900012    2    1    2    0    0  0.17266309736E+02 -0.24026868434E+02  0.33966125462E+02  0.46142317215E+02  0.99999950161E+01 0.  0.
         12    1    1    2    0    0 -0.17266309736E+02  0.24026868434E+02 -0.33966125462E+02  0.45045682785E+02  0.00000000000E+00 0. -1.
         11    1    3    3    0    0  0.60151615329E+01 -0.23640653690E+01  0.52846602733E+01  0.83485692069E+01  0.51100000000E-03 0. -1.
        -11    1    3    3    0    0  0.41245926661E+01 -0.58964277993E+01  0.10133904438E+02  0.12428843264E+02  0.51100000000E-03 0.  1.
        -12    1    3    3    0    0  0.71265555374E+01 -0.15766375266E+02  0.18547560751E+02  0.25364904744E+02  0.00000000000E+00 0.  1.
</event>
<event>
 7    1  0.2472338E-008  0.4614232E+02  0.7816164E-02  0.1320468E+00
        -11   -1    0    0    0    0  0.00000000000E+00  0.00000000000E+00  0.45593999997E+02  0.45594000000E+02  0.51100000000E-03 0.  1.
         11   -1    0    0    0    0 -0.00000000000E+00 -0.00000000000E+00 -0.45593999997E+02  0.45594000000E+02  0.51100000000E-03 0. -1.
    9900012    2    1    2    0    0 -0.31954262908E+02  0.31745265589E+02 -0.52601546334E+00  0.46142317659E+02  0.99999990680E+01 0.  0.
         12    1    1    2    0    0  0.31954262908E+02 -0.31745265589E+02  0.52601546334E+00  0.45045682341E+02  0.00000000000E+00 0. -1.
         11    1    3    3    0    0 -0.11754851403E+02  0.96591193428E+01  0.86471807060E+00  0.15238860049E+02  0.51100000000E-03 0. -1.
        -11    1    3    3    0    0 -0.19414852856E+02  0.22628191217E+02 -0.89581808989E+00  0.29829080433E+02  0.51100000000E-03 0.  1.
         12    1    3    3    0    0 -0.78455864865E+00 -0.54204496991E+00 -0.49491544405E+00  0.10743771774E+01  0.00000000000E+00 0. -1.
</event>
<event>
 7    1  0.2472338E-008  0.4614232E+02  0.7816164E-02  0.1320468E+00
        -11   -1    0    0    0    0  0.00000000000E+00  0.00000000000E+00  0.45593999997E+02  0.45594000000E+02  0.51100000000E-03 0.  1.
         11   -1    0    0    0    0 -0.00000000000E+00 -0.00000000000E+00 -0.45593999997E+02  0.45594000000E+02  0.51100000000E-03 0. -1.
    9900012    2    1    2    0    0  0.49226205290E+00 -0.16152446528E+02  0.42047230661E+02  0.46142318109E+02  0.10000003173E+02 0.  0.
         12    1    1    2    0    0 -0.49226205290E+00  0.16152446528E+02 -0.42047230661E+02  0.45045681891E+02  0.00000000000E+00 0. -1.
         11    1    3    3    0    0  0.24631405565E+01 -0.35742258777E+01  0.48802349159E+01  0.65313739076E+01  0.51100000000E-03 0. -1.
        -11    1    3    3    0    0  0.14046679726E+01 -0.13876549600E+01  0.64382455771E+01  0.67342174581E+01  0.51100000000E-03 0.  1.
        -12    1    3    3    0    0 -0.33755464761E+01 -0.11190565691E+02  0.30728750168E+02  0.32876726743E+02  0.00000000000E+00 0.  1.
</event>
<event>
 7    1  0.2472338E-008  0.4614232E+02  0.7816164E-02  0.1320468E+00
        -11   -1    0    0    0    0  0.00000000000E+00  0.00000000000E+00  0.45593999997E+02  0.45594000000E+02  0.51100000000E-03 0.  1.
         11   -1    0    0    0    0 -0.00000000000E+00 -0.00000000000E+00 -0.45593999997E+02  0.45594000000E+02  0.51100000000E-03 0. -1.
    9900012    2    1    2    0    0 -0.23356306521E+02  0.14396008533E+02  0.35726060845E+02  0.46142317194E+02  0.99999948292E+01 0.  0.
         12    1    1    2    0    0  0.23356306521E+02 -0.14396008533E+02 -0.35726060845E+02  0.45045682806E+02  0.00000000000E+00 0. -1.
         11    1    3    3    0    0 -0.28965634799E+01  0.53681606952E+01  0.58503110800E+01  0.84518263846E+01  0.51100000000E-03 0. -1.
        -11    1    3    3    0    0 -0.74555178525E+01  0.59978778267E+01  0.13796225109E+02  0.16789732350E+02  0.51100000000E-03 0.  1.
         12    1    3    3    0    0 -0.13004225188E+02  0.30299700114E+01  0.16079524656E+02  0.20900758459E+02  0.00000000000E+00 0. -1.
</event>
<event>
 7    1  0.2472338E-008  0.4614232E+02  0.7816164E-02  0.1320468E+00
        -11   -1    0    0    0    0  0.00000000000E+00  0.00000000000E+00  0.45593999997E+02  0.45594000000E+02  0.51100000000E-03 0. -1.
         11   -1    0    0    0    0 -0.00000000000E+00 -0.00000000000E+00 -0.45593999997E+02  0.45594000000E+02  0.51100000000E-03 0.  1.
    9900012    2    1    2    0    0  0.31841372911E+02  0.29564706188E+02 -0.11881440501E+02  0.46142317529E+02  0.99999978866E+01 0.  0.
         12    1    1    2    0    0 -0.31841372911E+02 -0.29564706188E+02  0.11881440501E+02  0.45045682471E+02  0.00000000000E+00 0. -1.
         11    1    3    3    0    0  0.38412251810E+01  0.57879297666E+00 -0.25709003032E+01  0.46582765946E+01  0.51100000000E-03 0. -1.
        -11    1    3    3    0    0  0.16217351670E+02  0.14680558195E+02 -0.44325954892E+01  0.22319704011E+02  0.51100000000E-03 0.  1.
        -12    1    3    3    0    0  0.11782796060E+02  0.14305355017E+02 -0.48779447083E+01  0.19164336924E+02  0.00000000000E+00 0.  1.
</event>
<event>
 7    1  0.2472338E-008  0.4614232E+02  0.7816164E-02  0.1320468E+00
        -11   -1    0    0    0    0  0.00000000000E+00  0.00000000000E+00  0.45593999997E+02  0.45594000000E+02  0.51100000000E-03 0.  1.
         11   -1    0    0    0    0 -0.00000000000E+00 -0.00000000000E+00 -0.45593999997E+02  0.45594000000E+02  0.51100000000E-03 0. -1.
    9900012    2    1    2    0    0  0.38052727237E+02 -0.10824103854E+02  0.21539318046E+02  0.46142317673E+02  0.99999991953E+01 0.  0.
         12    1    1    2    0    0 -0.38052727237E+02  0.10824103854E+02 -0.21539318046E+02  0.45045682327E+02  0.00000000000E+00 0. -1.
         11    1    3    3    0    0  0.25636485515E+02 -0.92418122988E+01  0.13577871845E+02  0.30446659722E+02  0.51100000000E-03 0.  1.
        -11    1    3    3    0    0  0.22070450365E+01 -0.18040092978E+01  0.17829197791E+00  0.28560962221E+01  0.51100000000E-03 0. -1.
        -12    1    3    3    0    0  0.10209196685E+02  0.22171774262E+00  0.77831542230E+01  0.12839561728E+02  0.00000000000E+00 0.  1.
</event>
<event>
 7    1  0.2472338E-008  0.4614232E+02  0.7816164E-02  0.1320468E+00
        -11   -1    0    0    0    0  0.00000000000E+00  0.00000000000E+00  0.45593999997E+02  0.45594000000E+02  0.51100000000E-03 0. -1.
         11   -1    0    0    0    0 -0.00000000000E+00 -0.00000000000E+00 -0.45593999997E+02  0.45594000000E+02  0.51100000000E-03 0.  1.
    9900012    2    1    2    0    0 -0.16686124511E+02 -0.41341209398E+02 -0.64491198406E+01  0.46142317716E+02  0.99999995932E+01 0.  0.
         12    1    1    2    0    0  0.16686124511E+02  0.41341209398E+02  0.64491198406E+01  0.45045682284E+02  0.00000000000E+00 0. -1.
         11    1    3    3    0    0 -0.92050669906E+01 -0.27470216122E+02 -0.25233199696E+01  0.29081148120E+02  0.51100000000E-03 0. -1.
        -11    1    3    3    0    0 -0.63441283139E+01 -0.12136194667E+02 -0.13597899702E+01  0.13761693722E+02  0.51100000000E-03 0.  1.
        -12    1    3    3    0    0 -0.11369292070E+01 -0.17347986085E+01 -0.25660099008E+01  0.32994758743E+01  0.00000000000E+00 0.  1.
</event>
<event>
 7    1  0.2472338E-008  0.4614231E+02  0.7816164E-02  0.1320468E+00
        -11   -1    0    0    0    0  0.00000000000E+00  0.00000000000E+00  0.45593999997E+02  0.45594000000E+02  0.51100000000E-03 0. -1.
         11   -1    0    0    0    0 -0.00000000000E+00 -0.00000000000E+00 -0.45593999997E+02  0.45594000000E+02  0.51100000000E-03 0.  1.
    9900012    2    1    2    0    0  0.27141688063E+02 -0.21356438650E+02 -0.28919631011E+02  0.46142314740E+02  0.99999724550E+01 0.  0.
         12    1    1    2    0    0 -0.27141688063E+02  0.21356438650E+02  0.28919631011E+02  0.45045685260E+02  0.00000000000E+00 0. -1.
         11    1    3    3    0    0  0.22301847122E+02 -0.14614038657E+02 -0.17254252133E+02  0.31759277823E+02  0.51100000000E-03 0.  1.
        -11    1    3    3    0    0  0.25120231313E+01 -0.23557986743E+01 -0.45628372172E+01  0.57166013800E+01  0.51100000000E-03 0. -1.
        -12    1    3    3    0    0  0.23278178098E+01 -0.43866013182E+01 -0.71025416606E+01  0.86664355372E+01  0.00000000000E+00 0.  1.
</event>
<event>
 7    1  0.2472338E-008  0.4614232E+02  0.7816164E-02  0.1320468E+00
        -11   -1    0    0    0    0  0.00000000000E+00  0.00000000000E+00  0.45593999997E+02  0.45594000000E+02  0.51100000000E-03 0.  1.
         11   -1    0    0    0    0 -0.00000000000E+00 -0.00000000000E+00 -0.45593999997E+02  0.45594000000E+02  0.51100000000E-03 0. -1.
    9900012    2    1    2    0    0  0.15813729543E+02  0.49173426741E+01  0.41891039560E+02  0.46142317671E+02  0.99999991791E+01 0.  0.
         12    1    1    2    0    0 -0.15813729543E+02 -0.49173426741E+01 -0.41891039560E+02  0.45045682329E+02  0.00000000000E+00 0. -1.
         11    1    3    3    0    0  0.48050938424E+01  0.25998889337E+01  0.12627100392E+02  0.13758343428E+02  0.51100000000E-03 0. -1.
        -11    1    3    3    0    0  0.86906433006E+01  0.48585326285E+01  0.17573208651E+02  0.20197779156E+02  0.51100000000E-03 0.  1.
         12    1    3    3    0    0  0.23179923997E+01 -0.25410788880E+01  0.11690730517E+02  0.12186195087E+02  0.00000000000E+00 0. -1.
</event>
<event>
 7    1  0.2472338E-008  0.4614232E+02  0.7816164E-02  0.1320468E+00
        -11   -1    0    0    0    0  0.00000000000E+00  0.00000000000E+00  0.45593999997E+02  0.45594000000E+02  0.51100000000E-03 0.  1.
         11   -1    0    0    0    0 -0.00000000000E+00 -0.00000000000E+00 -0.45593999997E+02  0.45594000000E+02  0.51100000000E-03 0. -1.
    9900012    2    1    2    0    0 -0.24579404698E+02  0.32479518898E+02  0.19236610268E+02  0.46142318101E+02  0.10000003098E+02 0.  0.
         12    1    1    2    0    0  0.24579404698E+02 -0.32479518898E+02 -0.19236610268E+02  0.45045681899E+02  0.00000000000E+00 0. -1.
         11    1    3    3    0    0 -0.19639361583E+01  0.16972435083E+01  0.53169300584E+00  0.26495996818E+01  0.51100000000E-03 0. -1.
        -11    1    3    3    0    0 -0.22980134396E+02  0.28492491078E+02  0.16052914864E+02  0.39970047543E+02  0.51100000000E-03 0.  1.
         12    1    3    3    0    0  0.36466585650E+00  0.22897843121E+01  0.26520023981E+01  0.35226708762E+01  0.00000000000E+00 0. -1.
</event>
<event>
 7    1  0.2472338E-008  0.4614232E+02  0.7816164E-02  0.1320468E+00
        -11   -1    0    0    0    0  0.00000000000E+00  0.00000000000E+00  0.45593999997E+02  0.45594000000E+02  0.51100000000E-03 0. -1.
         11   -1    0    0    0    0 -0.00000000000E+00 -0.00000000000E+00 -0.45593999997E+02  0.45594000000E+02  0.51100000000E-03 0.  1.
    9900012    2    1    2    0    0 -0.43330780093E+02 -0.45296587519E+01 -0.11447240273E+02  0.46142316281E+02  0.99999864990E+01 0.  0.
         12    1    1    2    0    0  0.43330780093E+02  0.45296587519E+01  0.11447240273E+02  0.45045683719E+02  0.00000000000E+00 0. -1.
         11    1    3    3    0    0 -0.12457974263E+02 -0.44997336674E+01 -0.22908734422E+01  0.13442351996E+02  0.51100000000E-03 0. -1.
        -11    1    3    3    0    0 -0.69249209181E+01 -0.23938688332E+01 -0.20543036609E+01  0.76095533052E+01  0.51100000000E-03 0.  1.
         12    1    3    3    0    0 -0.23947884912E+02  0.23639437487E+01 -0.71020631697E+01  0.25090410979E+02  0.00000000000E+00 0. -1.
</event>
<event>
 7    1  0.2472338E-008  0.4614232E+02  0.7816164E-02  0.1320468E+00
        -11   -1    0    0    0    0  0.00000000000E+00  0.00000000000E+00  0.45593999997E+02  0.45594000000E+02  0.51100000000E-03 0. -1.
         11   -1    0    0    0    0 -0.00000000000E+00 -0.00000000000E+00 -0.45593999997E+02  0.45594000000E+02  0.51100000000E-03 0.  1.
    9900012    2    1    2    0    0 -0.20159306902E+02  0.14809495329E+02 -0.37461911006E+02  0.46142316712E+02  0.99999904312E+01 0.  0.
         12    1    1    2    0    0  0.20159306902E+02 -0.14809495329E+02  0.37461911006E+02  0.45045683288E+02  0.00000000000E+00 0. -1.
         11    1    3    3    0    0 -0.94260385319E+01  0.72148246639E+01 -0.15616431758E+02  0.19615729363E+02  0.51100000000E-03 0. -1.
        -11    1    3    3    0    0 -0.88159578672E+01  0.47238908518E+01 -0.98250666041E+01  0.14020277884E+02  0.51100000000E-03 0.  1.
         12    1    3    3    0    0 -0.19173105031E+01  0.28707798129E+01 -0.12020412644E+02  0.12506309465E+02  0.00000000000E+00 0. -1.
</event>
<event>
 7    1  0.2472338E-008  0.4614232E+02  0.7816164E-02  0.1320468E+00
        -11   -1    0    0    0    0  0.00000000000E+00  0.00000000000E+00  0.45593999997E+02  0.45594000000E+02  0.51100000000E-03 0.  1.
         11   -1    0    0    0    0 -0.00000000000E+00 -0.00000000000E+00 -0.45593999997E+02  0.45594000000E+02  0.51100000000E-03 0. -1.
    9900012    2    1    2    0    0 -0.36429413254E+02 -0.93246884225E+01  0.24800430580E+02  0.46142319618E+02  0.10000016929E+02 0.  0.
         12    1    1    2    0    0  0.36429413254E+02  0.93246884225E+01 -0.24800430580E+02  0.45045680382E+02  0.00000000000E+00 0. -1.
         11    1    3    3    0    0 -0.71183108313E+01  0.91937253528E+00  0.67278351513E+01  0.98376501785E+01  0.51100000000E-03 0.  1.
        -11    1    3    3    0    0 -0.83469728637E+01 -0.13413501439E+01  0.70185682798E+01  0.10987787637E+02  0.51100000000E-03 0. -1.
         12    1    3    3    0    0 -0.20964129558E+02 -0.89027108139E+01  0.11054027149E+02  0.25316881802E+02  0.00000000000E+00 0. -1.
</event>
<event>
 7    1  0.2472338E-008  0.4614232E+02  0.7816164E-02  0.1320468E+00
        -11   -1    0    0    0    0  0.00000000000E+00  0.00000000000E+00  0.45593999997E+02  0.45594000000E+02  0.51100000000E-03 0.  1.
         11   -1    0    0    0    0 -0.00000000000E+00 -0.00000000000E+00 -0.45593999997E+02  0.45594000000E+02  0.51100000000E-03 0. -1.
    9900012    2    1    2    0    0  0.13484903245E+01 -0.19103441914E+02  0.40771969084E+02  0.46142318941E+02  0.10000010755E+02 0.  0.
         12    1    1    2    0    0 -0.13484903245E+01  0.19103441914E+02 -0.40771969084E+02  0.45045681059E+02  0.00000000000E+00 0. -1.
         11    1    3    3    0    0  0.15150461532E+01 -0.93747557786E+00  0.87647326826E+00  0.19855555788E+01  0.51100000000E-03 0. -1.
        -11    1    3    3    0    0 -0.25878404585E+01 -0.75839364685E+01  0.15274779392E+02  0.17249112914E+02  0.51100000000E-03 0.  1.
        -12    1    3    3    0    0  0.24212846298E+01 -0.10582029868E+02  0.24620716424E+02  0.26907650447E+02  0.00000000000E+00 0.  1.
</event>
<event>
 7    1  0.2472338E-008  0.4614232E+02  0.7816164E-02  0.1320468E+00
        -11   -1    0    0    0    0  0.00000000000E+00  0.00000000000E+00  0.45593999997E+02  0.45594000000E+02  0.51100000000E-03 0.  1.
         11   -1    0    0    0    0 -0.00000000000E+00 -0.00000000000E+00 -0.45593999997E+02  0.45594000000E+02  0.51100000000E-03 0. -1.
    9900012    2    1    2    0    0 -0.21696366096E+02 -0.51576903447E+01  0.39137953708E+02  0.46142317721E+02  0.99999996387E+01 0.  0.
         12    1    1    2    0    0  0.21696366096E+02  0.51576903447E+01 -0.39137953708E+02  0.45045682279E+02  0.00000000000E+00 0. -1.
         11    1    3    3    0    0 -0.21127583477E+01 -0.98237364758E+00  0.10181926444E+01  0.25427391414E+01  0.51100000000E-03 0. -1.
        -11    1    3    3    0    0 -0.15830383513E+02 -0.40246661345E+00  0.28150817573E+02  0.32299095217E+02  0.51100000000E-03 0.  1.
         12    1    3    3    0    0 -0.37532242349E+01 -0.37728500836E+01  0.99689434910E+01  0.11300483363E+02  0.00000000000E+00 0. -1.
</event>
<event>
 7    1  0.2472338E-008  0.4614231E+02  0.7816164E-02  0.1320468E+00
        -11   -1    0    0    0    0  0.00000000000E+00  0.00000000000E+00  0.45593999997E+02  0.45594000000E+02  0.51100000000E-03 0.  1.
         11   -1    0    0    0    0 -0.00000000000E+00 -0.00000000000E+00 -0.45593999997E+02  0.45594000000E+02  0.51100000000E-03 0. -1.
    9900012    2    1    2    0    0  0.25616911441E+02  0.32056342231E+02  0.18581672730E+02  0.46142314408E+02  0.99999694256E+01 0.  0.
         12    1    1    2    0    0 -0.25616911441E+02 -0.32056342231E+02 -0.18581672730E+02  0.45045685592E+02  0.00000000000E+00 0. -1.
         11    1    3    3    0    0  0.21318740174E+01  0.11792038710E+01  0.10446069158E+01  0.26507758232E+01  0.51100000000E-03 0. -1.
        -11    1    3    3    0    0  0.91519068943E+01  0.19155825586E+02  0.10492163654E+02  0.23680974475E+02  0.51100000000E-03 0.  1.
        -12    1    3    3    0    0  0.14333130529E+02  0.11721312774E+02  0.70449021605E+01  0.19810564110E+02  0.00000000000E+00 0.  1.
</event>
<event>
 7    1  0.2472338E-008  0.4614232E+02  0.7816164E-02  0.1320468E+00
        -11   -1    0    0    0    0  0.00000000000E+00  0.00000000000E+00  0.45593999997E+02  0.45594000000E+02  0.51100000000E-03 0.  1.
         11   -1    0    0    0    0 -0.00000000000E+00 -0.00000000000E+00 -0.45593999997E+02  0.45594000000E+02  0.51100000000E-03 0. -1.
    9900012    2    1    2    0    0  0.34168023673E+02 -0.23459453545E+02  0.17644083009E+02  0.46142317992E+02  0.10000002106E+02 0.  0.
         12    1    1    2    0    0 -0.34168023673E+02  0.23459453545E+02 -0.17644083009E+02  0.45045682008E+02  0.00000000000E+00 0. -1.
         11    1    3    3    0    0  0.18402610863E+02 -0.11938913105E+02  0.80524818808E+01  0.23367417432E+02  0.51100000000E-03 0. -1.
        -11    1    3    3    0    0  0.14273053954E+02 -0.72694838664E+01  0.63777050763E+01  0.17240666668E+02  0.51100000000E-03 0.  1.
        -12    1    3    3    0    0  0.14923588554E+01 -0.42510565735E+01  0.32138960519E+01  0.55342338925E+01  0.00000000000E+00 0.  1.
</event>
<event>
 7    1  0.2472338E-008  0.4614232E+02  0.7816164E-02  0.1320468E+00
        -11   -1    0    0    0    0  0.00000000000E+00  0.00000000000E+00  0.45593999997E+02  0.45594000000E+02  0.51100000000E-03 0. -1.
         11   -1    0    0    0    0 -0.00000000000E+00 -0.00000000000E+00 -0.45593999997E+02  0.45594000000E+02  0.51100000000E-03 0.  1.
    9900012    2    1    2    0    0 -0.32535749383E+02 -0.25619488286E+02 -0.17725131511E+02  0.46142318131E+02  0.10000003371E+02 0.  0.
         12    1    1    2    0    0  0.32535749383E+02  0.25619488286E+02  0.17725131511E+02  0.45045681869E+02  0.00000000000E+00 0. -1.
         11    1    3    3    0    0 -0.11596733789E+02 -0.10180366932E+02 -0.28492796044E+01  0.15692115854E+02  0.51100000000E-03 0. -1.
        -11    1    3    3    0    0 -0.80293802909E+00 -0.19193961279E+01 -0.23984654861E+01  0.31751264421E+01  0.51100000000E-03 0.  1.
        -12    1    3    3    0    0 -0.20136077565E+02 -0.13519725226E+02 -0.12477386421E+02  0.27275075835E+02  0.00000000000E+00 0.  1.
</event>
<event>
 7    1  0.2472338E-008  0.4614232E+02  0.7816164E-02  0.1320468E+00
        -11   -1    0    0    0    0  0.00000000000E+00  0.00000000000E+00  0.45593999997E+02  0.45594000000E+02  0.51100000000E-03 0. -1.
         11   -1    0    0    0    0 -0.00000000000E+00 -0.00000000000E+00 -0.45593999997E+02  0.45594000000E+02  0.51100000000E-03 0.  1.
    9900012    2    1    2    0    0 -0.17242201153E+02 -0.37980442446E+02 -0.17009003116E+02  0.46142315456E+02  0.99999789844E+01 0.  0.
         12    1    1    2    0    0  0.17242201153E+02  0.37980442446E+02  0.17009003116E+02  0.45045684544E+02  0.00000000000E+00 0. -1.
         11    1    3    3    0    0 -0.86842657913E+00 -0.69498863289E+00  0.50182585757E+00  0.12202472600E+01  0.51100000000E-03 0. -1.
        -11    1    3    3    0    0 -0.20999903103E+01 -0.13238038201E+02 -0.55753715397E+01  0.14516899902E+02  0.51100000000E-03 0.  1.
        -12    1    3    3    0    0 -0.14273784263E+02 -0.24047415612E+02 -0.11935457434E+02  0.30405168294E+02  0.00000000000E+00 0.  1.
</event>
<event>
 7    1  0.2472338E-008  0.4614232E+02  0.7816164E-02  0.1320468E+00
        -11   -1    0    0    0    0  0.00000000000E+00  0.00000000000E+00  0.45593999997E+02  0.45594000000E+02  0.51100000000E-03 0.  1.
         11   -1    0    0    0    0 -0.00000000000E+00 -0.00000000000E+00 -0.45593999997E+02  0.45594000000E+02  0.51100000000E-03 0. -1.
    9900012    2    1    2    0    0  0.22939075626E+02 -0.53690101926E+01  0.38393820283E+02  0.46142324325E+02  0.10000059857E+02 0.  0.
         12    1    1    2    0    0 -0.22939075626E+02  0.53690101926E+01 -0.38393820283E+02  0.45045675675E+02  0.00000000000E+00 0. -1.
         11    1    3    3    0    0  0.69536766166E+01 -0.37051278840E+01  0.11601260362E+02  0.14023937869E+02  0.51100000000E-03 0. -1.
        -11    1    3    3    0    0  0.16767858217E+00 -0.16273989961E+01  0.11876054322E+01  0.20216207664E+01  0.51100000000E-03 0.  1.
        -12    1    3    3    0    0  0.15817720427E+02 -0.36483312488E-01  0.25604954489E+02  0.30096765689E+02  0.00000000000E+00 0.  1.
</event>
<event>
 7    1  0.2472338E-008  0.4614232E+02  0.7816164E-02  0.1320468E+00
        -11   -1    0    0    0    0  0.00000000000E+00  0.00000000000E+00  0.45593999997E+02  0.45594000000E+02  0.51100000000E-03 0. -1.
         11   -1    0    0    0    0 -0.00000000000E+00 -0.00000000000E+00 -0.45593999997E+02  0.45594000000E+02  0.51100000000E-03 0.  1.
    9900012    2    1    2    0    0 -0.32510062390E+01  0.44032763003E+02 -0.89252603076E+01  0.46142317291E+02  0.99999957087E+01 0.  0.
         12    1    1    2    0    0  0.32510062390E+01 -0.44032763003E+02  0.89252603076E+01  0.45045682709E+02  0.00000000000E+00 0. -1.
         11    1    3    3    0    0 -0.18376947793E+01  0.18675364767E+02 -0.44602651215E+01  0.19288347169E+02  0.51100000000E-03 0. -1.
        -11    1    3    3    0    0 -0.12953691282E+01  0.25895943942E+02 -0.43474330809E+01  0.26290265660E+02  0.51100000000E-03 0.  1.
         12    1    3    3    0    0 -0.11794233142E+00 -0.53854570651E+00 -0.11756210519E+00  0.56370446168E+00  0.00000000000E+00 0. -1.
</event>
<event>
 7    1  0.2472338E-008  0.4614231E+02  0.7816164E-02  0.1320468E+00
        -11   -1    0    0    0    0  0.00000000000E+00  0.00000000000E+00  0.45593999997E+02  0.45594000000E+02  0.51100000000E-03 0. -1.
         11   -1    0    0    0    0 -0.00000000000E+00 -0.00000000000E+00 -0.45593999997E+02  0.45594000000E+02  0.51100000000E-03 0.  1.
    9900012    2    1    2    0    0 -0.44610098653E+02 -0.10241283118E+01 -0.61647705524E+01  0.46142310566E+02  0.99999343859E+01 0.  0.
         12    1    1    2    0    0  0.44610098653E+02  0.10241283118E+01  0.61647705524E+01  0.45045689434E+02  0.00000000000E+00 0. -1.
         11    1    3    3    0    0 -0.61220764739E+01  0.27547984763E+00 -0.26681787151E+01  0.66839275441E+01  0.51100000000E-03 0. -1.
        -11    1    3    3    0    0 -0.32542140399E+02  0.17922533708E+01 -0.25652953801E+01  0.32692259245E+02  0.51100000000E-03 0.  1.
         12    1    3    3    0    0 -0.59458817803E+01 -0.30918615302E+01 -0.93129645718E+00  0.67661237764E+01  0.00000000000E+00 0. -1.
</event>
<event>
 7    1  0.2472338E-008  0.4614232E+02  0.7816164E-02  0.1320468E+00
        -11   -1    0    0    0    0  0.00000000000E+00  0.00000000000E+00  0.45593999997E+02  0.45594000000E+02  0.51100000000E-03 0. -1.
         11   -1    0    0    0    0 -0.00000000000E+00 -0.00000000000E+00 -0.45593999997E+02  0.45594000000E+02  0.51100000000E-03 0.  1.
    9900012    2    1    2    0    0 -0.15914466348E+01  0.39307466014E+02 -0.21943195482E+02  0.46142318578E+02  0.10000007450E+02 0.  0.
         12    1    1    2    0    0  0.15914466348E+01 -0.39307466014E+02  0.21943195482E+02  0.45045681422E+02  0.00000000000E+00 0. -1.
         11    1    3    3    0    0 -0.90887802407E+00  0.97294021404E+00 -0.96310531558E-01  0.13348962141E+01  0.51100000000E-03 0. -1.
        -11    1    3    3    0    0  0.72084477721E+00  0.80973001466E+01 -0.83861922540E+01  0.11679645013E+02  0.51100000000E-03 0.  1.
        -12    1    3    3    0    0 -0.14034133879E+01  0.30237225653E+02 -0.13460692696E+02  0.33127777351E+02  0.00000000000E+00 0.  1.
</event>
<event>
 7    1  0.2472338E-008  0.4614232E+02  0.7816164E-02  0.1320468E+00
        -11   -1    0    0    0    0  0.00000000000E+00  0.00000000000E+00  0.45593999997E+02  0.45594000000E+02  0.51100000000E-03 0.  1.
         11   -1    0    0    0    0 -0.00000000000E+00 -0.00000000000E+00 -0.45593999997E+02  0.45594000000E+02  0.51100000000E-03 0. -1.
    9900012    2    1    2    0    0 -0.20238832139E+02 -0.26123294298E+02  0.30611708280E+02  0.46142317464E+02  0.99999972887E+01 0.  0.
         12    1    1    2    0    0  0.20238832139E+02  0.26123294298E+02 -0.30611708280E+02  0.45045682536E+02  0.00000000000E+00 0. -1.
         11    1    3    3    0    0 -0.13372975229E+02 -0.18093832114E+02  0.14900668905E+02  0.26986166106E+02  0.51100000000E-03 0. -1.
        -11    1    3    3    0    0 -0.47326149467E+01 -0.32937134160E+01  0.82653918550E+01  0.10077841787E+02  0.51100000000E-03 0.  1.
         12    1    3    3    0    0 -0.21332419636E+01 -0.47357487676E+01  0.74456475203E+01  0.90783095707E+01  0.00000000000E+00 0. -1.
</event>
<event>
 7    1  0.2472338E-008  0.4614232E+02  0.7816164E-02  0.1320468E+00
        -11   -1    0    0    0    0  0.00000000000E+00  0.00000000000E+00  0.45593999997E+02  0.45594000000E+02  0.51100000000E-03 0.  1.
         11   -1    0    0    0    0 -0.00000000000E+00 -0.00000000000E+00 -0.45593999997E+02  0.45594000000E+02  0.51100000000E-03 0. -1.
    9900012    2    1    2    0    0  0.23797606762E+02 -0.76664897578E+01  0.37470154364E+02  0.46142316290E+02  0.99999865867E+01 0.  0.
         12    1    1    2    0    0 -0.23797606762E+02  0.76664897578E+01 -0.37470154364E+02  0.45045683710E+02  0.00000000000E+00 0. -1.
         11    1    3    3    0    0  0.18884440652E+02 -0.53229651857E+01  0.30579948676E+02  0.36333033432E+02  0.51100000000E-03 0.  1.
        -11    1    3    3    0    0  0.21701293377E+01  0.10327835967E+01  0.13209822161E+01  0.27424619553E+01  0.51100000000E-03 0. -1.
         12    1    3    3    0    0  0.27430367722E+01 -0.33763081688E+01  0.55692234720E+01  0.70668209024E+01  0.00000000000E+00 0. -1.
</event>
<event>
 7    1  0.2472338E-008  0.4614232E+02  0.7816164E-02  0.1320468E+00
        -11   -1    0    0    0    0  0.00000000000E+00  0.00000000000E+00  0.45593999997E+02  0.45594000000E+02  0.51100000000E-03 0. -1.
         11   -1    0    0    0    0 -0.00000000000E+00 -0.00000000000E+00 -0.45593999997E+02  0.45594000000E+02  0.51100000000E-03 0.  1.
    9900012    2    1    2    0    0 -0.19309183462E+02 -0.19847160415E+02 -0.35529695831E+02  0.46142316207E+02  0.99999858306E+01 0.  0.
         12    1    1    2    0    0  0.19309183462E+02  0.19847160415E+02  0.35529695831E+02  0.45045683793E+02  0.00000000000E+00 0. -1.
         11    1    3    3    0    0 -0.27724477855E+01 -0.49991585025E+01 -0.59483600051E+01  0.82499114824E+01  0.51100000000E-03 0. -1.
        -11    1    3    3    0    0 -0.11782933104E+02 -0.13601005454E+02 -0.18697318810E+02  0.25950233001E+02  0.51100000000E-03 0.  1.
         12    1    3    3    0    0 -0.47538025732E+01 -0.12469964586E+01 -0.10884017016E+02  0.11942171723E+02  0.00000000000E+00 0. -1.
</event>
<event>
 7    1  0.2472338E-008  0.4614232E+02  0.7816164E-02  0.1320468E+00
        -11   -1    0    0    0    0  0.00000000000E+00  0.00000000000E+00  0.45593999997E+02  0.45594000000E+02  0.51100000000E-03 0.  1.
         11   -1    0    0    0    0 -0.00000000000E+00 -0.00000000000E+00 -0.45593999997E+02  0.45594000000E+02  0.51100000000E-03 0. -1.
    9900012    2    1    2    0    0 -0.11788799247E+02 -0.27507916421E+02  0.33666781849E+02  0.46142318148E+02  0.10000003525E+02 0.  0.
         12    1    1    2    0    0  0.11788799247E+02  0.27507916421E+02 -0.33666781849E+02  0.45045681852E+02  0.00000000000E+00 0. -1.
         11    1    3    3    0    0 -0.45618999834E+01 -0.12697562023E+02  0.96972929324E+01  0.16615550044E+02  0.51100000000E-03 0. -1.
        -11    1    3    3    0    0 -0.35404316894E+01 -0.63291086482E+01  0.64007133866E+01  0.96727144560E+01  0.51100000000E-03 0.  1.
        -12    1    3    3    0    0 -0.36864675739E+01 -0.84812457499E+01  0.17568775530E+02  0.19854053648E+02  0.00000000000E+00 0.  1.
</event>
<event>
 7    1  0.2472338E-008  0.4614233E+02  0.7816164E-02  0.1320468E+00
        -11   -1    0    0    0    0  0.00000000000E+00  0.00000000000E+00  0.45593999997E+02  0.45594000000E+02  0.51100000000E-03 0.  1.
         11   -1    0    0    0    0 -0.00000000000E+00 -0.00000000000E+00 -0.45593999997E+02  0.45594000000E+02  0.51100000000E-03 0. -1.
    9900012    2    1    2    0    0 -0.41423742503E+02  0.10970369599E+02  0.13886584105E+02  0.46142326843E+02  0.10000082815E+02 0.  0.
         12    1    1    2    0    0  0.41423742503E+02 -0.10970369599E+02 -0.13886584105E+02  0.45045673157E+02  0.00000000000E+00 0. -1.
         11    1    3    3    0    0 -0.25198733070E+02  0.20202534594E+01  0.81385562479E+01  0.26557365653E+02  0.51100000000E-03 0. -1.
        -11    1    3    3    0    0 -0.23985213722E+01  0.20716267993E+01  0.19993581445E+00  0.31756128478E+01  0.51100000000E-03 0.  1.
        -12    1    3    3    0    0 -0.13826488061E+02  0.68784893405E+01  0.55480920422E+01  0.16409348342E+02  0.00000000000E+00 0.  1.
</event>
<event>
 7    1  0.2472338E-008  0.4614231E+02  0.7816164E-02  0.1320468E+00
        -11   -1    0    0    0    0  0.00000000000E+00  0.00000000000E+00  0.45593999997E+02  0.45594000000E+02  0.51100000000E-03 0. -1.
         11   -1    0    0    0    0 -0.00000000000E+00 -0.00000000000E+00 -0.45593999997E+02  0.45594000000E+02  0.51100000000E-03 0.  1.
    9900012    2    1    2    0    0  0.83388732068E+01  0.20504590539E+02 -0.39231860110E+02  0.46142313334E+02  0.99999596269E+01 0.  0.
         12    1    1    2    0    0 -0.83388732068E+01 -0.20504590539E+02  0.39231860110E+02  0.45045686666E+02  0.00000000000E+00 0. -1.
         11    1    3    3    0    0  0.22143348474E+01  0.22369445670E+01 -0.19129653254E+01  0.36832915184E+01  0.51100000000E-03 0. -1.
        -11    1    3    3    0    0 -0.34531489951E-02  0.17477371439E+01 -0.85211937120E+01  0.86985826195E+01  0.51100000000E-03 0.  1.
        -12    1    3    3    0    0  0.61279915084E+01  0.16519908828E+02 -0.28797701073E+02  0.33760439196E+02  0.00000000000E+00 0.  1.
</event>
<event>
 7    1  0.2472338E-008  0.4614232E+02  0.7816164E-02  0.1320468E+00
        -11   -1    0    0    0    0  0.00000000000E+00  0.00000000000E+00  0.45593999997E+02  0.45594000000E+02  0.51100000000E-03 0.  1.
         11   -1    0    0    0    0 -0.00000000000E+00 -0.00000000000E+00 -0.45593999997E+02  0.45594000000E+02  0.51100000000E-03 0. -1.
    9900012    2    1    2    0    0  0.16357719819E+02 -0.40502443369E+02  0.11004114596E+02  0.46142318136E+02  0.10000003416E+02 0.  0.
         12    1    1    2    0    0 -0.16357719819E+02  0.40502443369E+02 -0.11004114596E+02  0.45045681864E+02  0.00000000000E+00 0. -1.
         11    1    3    3    0    0  0.30714860979E+01 -0.13518093446E+02  0.51834107453E+01  0.14800021097E+02  0.51100000000E-03 0. -1.
        -11    1    3    3    0    0  0.45875412161E+01 -0.16278061790E+02  0.20112057317E+01  0.17031317589E+02  0.51100000000E-03 0.  1.
        -12    1    3    3    0    0  0.86986925054E+01 -0.10706288133E+02  0.38094981194E+01  0.14310979450E+02  0.00000000000E+00 0.  1.
</event>
<event>
 7    1  0.2472338E-008  0.4614232E+02  0.7816164E-02  0.1320468E+00
        -11   -1    0    0    0    0  0.00000000000E+00  0.00000000000E+00  0.45593999997E+02  0.45594000000E+02  0.51100000000E-03 0. -1.
         11   -1    0    0    0    0 -0.00000000000E+00 -0.00000000000E+00 -0.45593999997E+02  0.45594000000E+02  0.51100000000E-03 0.  1.
    9900012    2    1    2    0    0  0.13187546165E+02 -0.39801627263E+02  0.16463067072E+02  0.46142317809E+02  0.10000000437E+02 0.  0.
         12    1    1    2    0    0 -0.13187546165E+02  0.39801627263E+02 -0.16463067072E+02  0.45045682191E+02  0.00000000000E+00 0. -1.
         11    1    3    3    0    0  0.45768083851E+01 -0.46232105640E+01  0.18070363444E+01  0.67517872836E+01  0.51100000000E-03 0. -1.
        -11    1    3    3    0    0  0.11371676863E+01 -0.93619656392E+00  0.23620312833E+00  0.14917796526E+01  0.51100000000E-03 0.  1.
         12    1    3    3    0    0  0.74735700936E+01 -0.34242220135E+02  0.14419827599E+02  0.37898750873E+02  0.00000000000E+00 0. -1.
</event>
<event>
 7    1  0.2472338E-008  0.4614232E+02  0.7816164E-02  0.1320468E+00
        -11   -1    0    0    0    0  0.00000000000E+00  0.00000000000E+00  0.45593999997E+02  0.45594000000E+02  0.51100000000E-03 0. -1.
         11   -1    0    0    0    0 -0.00000000000E+00 -0.00000000000E+00 -0.45593999997E+02  0.45594000000E+02  0.51100000000E-03 0.  1.
    9900012    2    1    2    0    0  0.22207253991E+02 -0.37639324358E+02 -0.10919371616E+02  0.46142317138E+02  0.99999943195E+01 0.  0.
         12    1    1    2    0    0 -0.22207253991E+02  0.37639324358E+02  0.10919371616E+02  0.45045682862E+02  0.00000000000E+00 0. -1.
         11    1    3    3    0    0  0.83365728479E+01 -0.17647937282E+02 -0.58697460634E+01  0.20381414481E+02  0.51100000000E-03 0. -1.
        -11    1    3    3    0    0  0.50749171954E+01 -0.13193842193E+02 -0.24920668306E+01  0.14354185930E+02  0.51100000000E-03 0.  1.
         12    1    3    3    0    0  0.87957639481E+01 -0.67975448836E+01 -0.25575587219E+01  0.11406716727E+02  0.00000000000E+00 0. -1.
</event>
<event>
 7    1  0.2472338E-008  0.4614232E+02  0.7816164E-02  0.1320468E+00
        -11   -1    0    0    0    0  0.00000000000E+00  0.00000000000E+00  0.45593999997E+02  0.45594000000E+02  0.51100000000E-03 0.  1.
         11   -1    0    0    0    0 -0.00000000000E+00 -0.00000000000E+00 -0.45593999997E+02  0.45594000000E+02  0.51100000000E-03 0. -1.
    9900012    2    1    2    0    0 -0.32590450920E+02 -0.10722122857E+02  0.29189248776E+02  0.46142315925E+02  0.99999832533E+01 0.  0.
         12    1    1    2    0    0  0.32590450920E+02  0.10722122857E+02 -0.29189248776E+02  0.45045684075E+02  0.00000000000E+00 0. -1.
         11    1    3    3    0    0  0.44190913765E+00 -0.34963036859E-01  0.11714632479E+00  0.45850803964E+00  0.51100000000E-03 0. -1.
        -11    1    3    3    0    0 -0.36992865282E+01 -0.32864009192E+01  0.48574372883E+01  0.69339634475E+01  0.51100000000E-03 0.  1.
        -12    1    3    3    0    0 -0.29333073530E+02 -0.74007589011E+01  0.24214665162E+02  0.38749844437E+02  0.00000000000E+00 0.  1.
</event>
<event>
 7    1  0.2472338E-008  0.4614232E+02  0.7816164E-02  0.1320468E+00
        -11   -1    0    0    0    0  0.00000000000E+00  0.00000000000E+00  0.45593999997E+02  0.45594000000E+02  0.51100000000E-03 0.  1.
         11   -1    0    0    0    0 -0.00000000000E+00 -0.00000000000E+00 -0.45593999997E+02  0.45594000000E+02  0.51100000000E-03 0. -1.
    9900012    2    1    2    0    0 -0.38094594476E+02 -0.21816924823E+02  0.10096392602E+02  0.46142317847E+02  0.10000000786E+02 0.  0.
         12    1    1    2    0    0  0.38094594476E+02  0.21816924823E+02 -0.10096392602E+02  0.45045682153E+02  0.00000000000E+00 0. -1.
         11    1    3    3    0    0 -0.21017259614E+02 -0.10689079046E+02  0.75144106929E+01  0.24747686374E+02  0.51100000000E-03 0.  1.
        -11    1    3    3    0    0 -0.73086273977E+01 -0.75405338998E+01  0.31764088483E+01  0.10971110216E+02  0.51100000000E-03 0. -1.
         12    1    3    3    0    0 -0.97687074643E+01 -0.35873118778E+01 -0.59442693919E+00  0.10423521258E+02  0.00000000000E+00 0. -1.
</event>
<event>
 7    1  0.2472338E-008  0.4614232E+02  0.7816164E-02  0.1320468E+00
        -11   -1    0    0    0    0  0.00000000000E+00  0.00000000000E+00  0.45593999997E+02  0.45594000000E+02  0.51100000000E-03 0. -1.
         11   -1    0    0    0    0 -0.00000000000E+00 -0.00000000000E+00 -0.45593999997E+02  0.45594000000E+02  0.51100000000E-03 0.  1.
    9900012    2    1    2    0    0 -0.30148071762E+02 -0.26557231586E+02  0.20369601802E+02  0.46142318098E+02  0.10000003072E+02 0.  0.
         12    1    1    2    0    0  0.30148071762E+02  0.26557231586E+02 -0.20369601802E+02  0.45045681902E+02  0.00000000000E+00 0. -1.
         11    1    3    3    0    0 -0.16727620164E+02 -0.16486337372E+02  0.10435774665E+02  0.25700544535E+02  0.51100000000E-03 0. -1.
        -11    1    3    3    0    0 -0.13622442916E+02 -0.10620931736E+02  0.95080183813E+01  0.19717442931E+02  0.51100000000E-03 0.  1.
         12    1    3    3    0    0  0.20199131857E+00  0.55003752146E+00  0.42580875608E+00  0.72433063207E+00  0.00000000000E+00 0. -1.
</event>
<event>
 7    1  0.2472338E-008  0.4614232E+02  0.7816164E-02  0.1320468E+00
        -11   -1    0    0    0    0  0.00000000000E+00  0.00000000000E+00  0.45593999997E+02  0.45594000000E+02  0.51100000000E-03 0. -1.
         11   -1    0    0    0    0 -0.00000000000E+00 -0.00000000000E+00 -0.45593999997E+02  0.45594000000E+02  0.51100000000E-03 0.  1.
    9900012    2    1    2    0    0  0.21658806293E+02  0.30294410016E+02 -0.25342817080E+02  0.46142317123E+02  0.99999941820E+01 0.  0.
         12    1    1    2    0    0 -0.21658806293E+02 -0.30294410016E+02  0.25342817080E+02  0.45045682877E+02  0.00000000000E+00 0. -1.
         11    1    3    3    0    0  0.30514872392E+01  0.49504276802E+01 -0.26520889423E+00  0.58213954174E+01  0.51100000000E-03 0. -1.
        -11    1    3    3    0    0  0.28181631504E+01  0.43721170112E+01 -0.28979463923E+01  0.59544558320E+01  0.51100000000E-03 0.  1.
        -12    1    3    3    0    0  0.15789155904E+02  0.20971865325E+02 -0.22179661794E+02  0.34366465874E+02  0.00000000000E+00 0.  1.
</event>
<event>
 7    1  0.2472338E-008  0.4614232E+02  0.7816164E-02  0.1320468E+00
        -11   -1    0    0    0    0  0.00000000000E+00  0.00000000000E+00  0.45593999997E+02  0.45594000000E+02  0.51100000000E-03 0.  1.
         11   -1    0    0    0    0 -0.00000000000E+00 -0.00000000000E+00 -0.45593999997E+02  0.45594000000E+02  0.51100000000E-03 0. -1.
    9900012    2    1    2    0    0 -0.13730191505E+02  0.33771857031E+02  0.26458589716E+02  0.46142318122E+02  0.10000003289E+02 0.  0.
         12    1    1    2    0    0  0.13730191505E+02 -0.33771857031E+02 -0.26458589716E+02  0.45045681878E+02  0.00000000000E+00 0. -1.
         11    1    3    3    0    0 -0.44131388905E+01  0.64156170026E+01  0.65357230040E+01  0.10166199479E+02  0.51100000000E-03 0. -1.
        -11    1    3    3    0    0 -0.26711094009E+01  0.17847475076E+02  0.14597782815E+02  0.23211257084E+02  0.51100000000E-03 0.  1.
        -12    1    3    3    0    0 -0.66459432139E+01  0.95087649529E+01  0.53250838963E+01  0.12764861560E+02  0.00000000000E+00 0.  1.
</event>
<event>
 7    1  0.2472338E-008  0.4614231E+02  0.7816164E-02  0.1320468E+00
        -11   -1    0    0    0    0  0.00000000000E+00  0.00000000000E+00  0.45593999997E+02  0.45594000000E+02  0.51100000000E-03 0.  1.
         11   -1    0    0    0    0 -0.00000000000E+00 -0.00000000000E+00 -0.45593999997E+02  0.45594000000E+02  0.51100000000E-03 0. -1.
    9900012    2    1    2    0    0 -0.27960638512E+02  0.11877643010E+02  0.33260167115E+02  0.46142307354E+02  0.99999050990E+01 0.  0.
         12    1    1    2    0    0  0.27960638512E+02 -0.11877643010E+02 -0.33260167115E+02  0.45045692646E+02  0.00000000000E+00 0. -1.
         11    1    3    3    0    0 -0.52797478033E+00 -0.64901304769E+00  0.63167775754E-01  0.83902665855E+00  0.51100000000E-03 0. -1.
        -11    1    3    3    0    0 -0.13584080035E+02  0.45137366732E+01  0.11594655700E+02  0.18421104479E+02  0.51100000000E-03 0.  1.
         12    1    3    3    0    0 -0.13848583697E+02  0.80129193841E+01  0.21602343639E+02  0.26882176217E+02  0.00000000000E+00 0. -1.
</event>
<event>
 7    1  0.2472338E-008  0.4614232E+02  0.7816164E-02  0.1320468E+00
        -11   -1    0    0    0    0  0.00000000000E+00  0.00000000000E+00  0.45593999997E+02  0.45594000000E+02  0.51100000000E-03 0. -1.
         11   -1    0    0    0    0 -0.00000000000E+00 -0.00000000000E+00 -0.45593999997E+02  0.45594000000E+02  0.51100000000E-03 0.  1.
    9900012    2    1    2    0    0  0.41122823751E+02 -0.21232406348E+01  0.18262497352E+02  0.46142316594E+02  0.99999893555E+01 0.  0.
         12    1    1    2    0    0 -0.41122823751E+02  0.21232406348E+01 -0.18262497352E+02  0.45045683406E+02  0.00000000000E+00 0. -1.
         11    1    3    3    0    0  0.20001044083E+01  0.10304863605E+01 -0.34889769469E+00  0.22768508176E+01  0.51100000000E-03 0. -1.
        -11    1    3    3    0    0  0.35903542268E+02 -0.18341080903E+01  0.15328123685E+02  0.39081705130E+02  0.51100000000E-03 0.  1.
         12    1    3    3    0    0  0.32191770741E+01 -0.13196189050E+01  0.32832713615E+01  0.47837606465E+01  0.00000000000E+00 0. -1.
</event>
<event>
 7    1  0.2472338E-008  0.4614232E+02  0.7816164E-02  0.1320468E+00
        -11   -1    0    0    0    0  0.00000000000E+00  0.00000000000E+00  0.45593999997E+02  0.45594000000E+02  0.51100000000E-03 0.  1.
         11   -1    0    0    0    0 -0.00000000000E+00 -0.00000000000E+00 -0.45593999997E+02  0.45594000000E+02  0.51100000000E-03 0. -1.
    9900012    2    1    2    0    0  0.40055001945E+02  0.14751832270E+02  0.14390751833E+02  0.46142317915E+02  0.10000001406E+02 0.  0.
         12    1    1    2    0    0 -0.40055001945E+02 -0.14751832270E+02 -0.14390751833E+02  0.45045682085E+02  0.00000000000E+00 0. -1.
         11    1    3    3    0    0  0.12856790892E+02  0.79466407017E+01  0.44236320705E+01  0.15748482195E+02  0.51100000000E-03 0. -1.
        -11    1    3    3    0    0  0.68162503899E+01  0.26346436402E+01 -0.40194260566E-01  0.73078199436E+01  0.51100000000E-03 0.  1.
        -12    1    3    3    0    0  0.20381960663E+02  0.41705479285E+01  0.10007314023E+02  0.23086015777E+02  0.00000000000E+00 0.  1.
</event>
<event>
 7    1  0.2472338E-008  0.4614232E+02  0.7816164E-02  0.1320468E+00
        -11   -1    0    0    0    0  0.00000000000E+00  0.00000000000E+00  0.45593999997E+02  0.45594000000E+02  0.51100000000E-03 0.  1.
         11   -1    0    0    0    0 -0.00000000000E+00 -0.00000000000E+00 -0.45593999997E+02  0.45594000000E+02  0.51100000000E-03 0. -1.
    9900012    2    1    2    0    0  0.38743283281E+02 -0.21191870859E+02  0.88868474365E+01  0.46142318217E+02  0.10000004157E+02 0.  0.
         12    1    1    2    0    0 -0.38743283281E+02  0.21191870859E+02 -0.88868474365E+01  0.45045681783E+02  0.00000000000E+00 0. -1.
         11    1    3    3    0    0  0.99730585687E+01 -0.40265597249E+01 -0.84322827731E+00  0.10788239644E+02  0.51100000000E-03 0. -1.
        -11    1    3    3    0    0  0.24825667272E+02 -0.15812393404E+02  0.66656341968E+01  0.30179069240E+02  0.51100000000E-03 0.  1.
         12    1    3    3    0    0  0.39445574406E+01 -0.13529177304E+01  0.30644415170E+01  0.51750093332E+01  0.00000000000E+00 0. -1.
</event>
<event>
 7    1  0.2472338E-008  0.4614232E+02  0.7816164E-02  0.1320468E+00
        -11   -1    0    0    0    0  0.00000000000E+00  0.00000000000E+00  0.45593999997E+02  0.45594000000E+02  0.51100000000E-03 0. -1.
         11   -1    0    0    0    0 -0.00000000000E+00 -0.00000000000E+00 -0.45593999997E+02  0.45594000000E+02  0.51100000000E-03 0.  1.
    9900012    2    1    2    0    0 -0.31836231041E+02  0.13622438756E+02 -0.28809669342E+02  0.46142317719E+02  0.99999996163E+01 0.  0.
         12    1    1    2    0    0  0.31836231041E+02 -0.13622438756E+02  0.28809669342E+02  0.45045682281E+02  0.00000000000E+00 0. -1.
         11    1    3    3    0    0 -0.60861193604E+01  0.20145877205E+01 -0.47228157217E+01  0.79626880609E+01  0.51100000000E-03 0. -1.
        -11    1    3    3    0    0 -0.24740239517E+02  0.88415089023E+01 -0.23337178111E+02  0.35140796995E+02  0.51100000000E-03 0.  1.
         12    1    3    3    0    0 -0.10098721638E+01  0.27663421328E+01 -0.74967550942E+00  0.30388326628E+01  0.00000000000E+00 0. -1.
</event>
<event>
 7    1  0.2472338E-008  0.4614232E+02  0.7816164E-02  0.1320468E+00
        -11   -1    0    0    0    0  0.00000000000E+00  0.00000000000E+00  0.45593999997E+02  0.45594000000E+02  0.51100000000E-03 0.  1.
         11   -1    0    0    0    0 -0.00000000000E+00 -0.00000000000E+00 -0.45593999997E+02  0.45594000000E+02  0.51100000000E-03 0. -1.
    9900012    2    1    2    0    0 -0.40318742775E+02  0.69033617925E+01  0.18864145262E+02  0.46142318748E+02  0.10000009002E+02 0.  0.
         12    1    1    2    0    0  0.40318742775E+02 -0.69033617925E+01 -0.18864145262E+02  0.45045681252E+02  0.00000000000E+00 0. -1.
         11    1    3    3    0    0 -0.65876801314E+00  0.16501407259E+01  0.13025221505E+01  0.22030669358E+01  0.51100000000E-03 0. -1.
        -11    1    3    3    0    0 -0.18149317932E+01  0.11058685268E+01  0.33462477026E+00  0.21514870696E+01  0.51100000000E-03 0.  1.
        -12    1    3    3    0    0 -0.37845042968E+02  0.41473525398E+01  0.17226998341E+02  0.41787764743E+02  0.00000000000E+00 0.  1.
</event>
<event>
 7    1  0.2472338E-008  0.4614232E+02  0.7816164E-02  0.1320468E+00
        -11   -1    0    0    0    0  0.00000000000E+00  0.00000000000E+00  0.45593999997E+02  0.45594000000E+02  0.51100000000E-03 0.  1.
         11   -1    0    0    0    0 -0.00000000000E+00 -0.00000000000E+00 -0.45593999997E+02  0.45594000000E+02  0.51100000000E-03 0. -1.
    9900012    2    1    2    0    0 -0.38701421880E+01 -0.39166279939E+00  0.44877410954E+02  0.46142318584E+02  0.10000007504E+02 0.  0.
         12    1    1    2    0    0  0.38701421880E+01  0.39166279939E+00 -0.44877410954E+02  0.45045681416E+02  0.00000000000E+00 0. -1.
         11    1    3    3    0    0 -0.89634502170E+00  0.60647128292E+00  0.84228359666E+00  0.13713802293E+01  0.51100000000E-03 0. -1.
        -11    1    3    3    0    0 -0.17724691387E+01 -0.20310822056E+01  0.48105384872E+01  0.55143651105E+01  0.51100000000E-03 0.  1.
        -12    1    3    3    0    0 -0.12013280276E+01  0.10329481233E+01  0.39224588870E+02  0.39256573244E+02  0.00000000000E+00 0.  1.
</event>
<event>
 7    1  0.2472338E-008  0.4614232E+02  0.7816164E-02  0.1320468E+00
        -11   -1    0    0    0    0  0.00000000000E+00  0.00000000000E+00  0.45593999997E+02  0.45594000000E+02  0.51100000000E-03 0.  1.
         11   -1    0    0    0    0 -0.00000000000E+00 -0.00000000000E+00 -0.45593999997E+02  0.45594000000E+02  0.51100000000E-03 0. -1.
    9900012    2    1    2    0    0  0.67841858204E+01  0.18237827477E+02  0.40625973553E+02  0.46142320347E+02  0.10000023578E+02 0.  0.
         12    1    1    2    0    0 -0.67841858204E+01 -0.18237827477E+02 -0.40625973553E+02  0.45045679653E+02  0.00000000000E+00 0. -1.
         11    1    3    3    0    0  0.23188054212E+01  0.23762002088E+01  0.41908154636E+01  0.53465989680E+01  0.51100000000E-03 0. -1.
        -11    1    3    3    0    0 -0.16865016089E+01  0.83473595401E+01  0.14677311732E+02  0.16968976955E+02  0.51100000000E-03 0.  1.
         12    1    3    3    0    0  0.61518820082E+01  0.75142677278E+01  0.21757846357E+02  0.23826744424E+02  0.00000000000E+00 0. -1.
</event>
<event>
 7    1  0.2472338E-008  0.4614231E+02  0.7816164E-02  0.1320468E+00
        -11   -1    0    0    0    0  0.00000000000E+00  0.00000000000E+00  0.45593999997E+02  0.45594000000E+02  0.51100000000E-03 0.  1.
         11   -1    0    0    0    0 -0.00000000000E+00 -0.00000000000E+00 -0.45593999997E+02  0.45594000000E+02  0.51100000000E-03 0. -1.
    9900012    2    1    2    0    0  0.73452630860E+01 -0.42450454566E+02 -0.13157507608E+02  0.46142312203E+02  0.99999493194E+01 0.  0.
         12    1    1    2    0    0 -0.73452630860E+01  0.42450454566E+02  0.13157507608E+02  0.45045687797E+02  0.00000000000E+00 0. -1.
         11    1    3    3    0    0 -0.16943512395E+01 -0.41403345169E+01 -0.29098864760E+01  0.53367251755E+01  0.51100000000E-03 0. -1.
        -11    1    3    3    0    0  0.37953273571E+01 -0.19531248062E+02 -0.36967028102E+01  0.20237089033E+02  0.51100000000E-03 0.  1.
         12    1    3    3    0    0  0.52442869684E+01 -0.18778871987E+02 -0.65509183217E+01  0.20568497995E+02  0.00000000000E+00 0. -1.
</event>
<event>
 7    1  0.2472338E-008  0.4614232E+02  0.7816164E-02  0.1320468E+00
        -11   -1    0    0    0    0  0.00000000000E+00  0.00000000000E+00  0.45593999997E+02  0.45594000000E+02  0.51100000000E-03 0. -1.
         11   -1    0    0    0    0 -0.00000000000E+00 -0.00000000000E+00 -0.45593999997E+02  0.45594000000E+02  0.51100000000E-03 0.  1.
    9900012    2    1    2    0    0  0.82351961608E+01  0.41441294074E+02 -0.15617751093E+02  0.46142318081E+02  0.10000002920E+02 0.  0.
         12    1    1    2    0    0 -0.82351961608E+01 -0.41441294074E+02  0.15617751093E+02  0.45045681919E+02  0.00000000000E+00 0. -1.
         11    1    3    3    0    0  0.63101995425E+01  0.11770754872E+02 -0.41158501811E+01  0.13975317939E+02  0.51100000000E-03 0. -1.
        -11    1    3    3    0    0  0.73821503622E+00  0.84727749389E+00 -0.36425291279E-01  0.11243521042E+01  0.51100000000E-03 0.  1.
        -12    1    3    3    0    0  0.11867815821E+01  0.28823261708E+02 -0.11465475621E+02  0.31042648038E+02  0.00000000000E+00 0.  1.
</event>
<event>
 7    1  0.2472338E-008  0.4614232E+02  0.7816164E-02  0.1320468E+00
        -11   -1    0    0    0    0  0.00000000000E+00  0.00000000000E+00  0.45593999997E+02  0.45594000000E+02  0.51100000000E-03 0.  1.
         11   -1    0    0    0    0 -0.00000000000E+00 -0.00000000000E+00 -0.45593999997E+02  0.45594000000E+02  0.51100000000E-03 0. -1.
    9900012    2    1    2    0    0 -0.16217921134E+02 -0.20720118560E+02  0.36561856587E+02  0.46142316121E+02  0.99999850408E+01 0.  0.
         12    1    1    2    0    0  0.16217921134E+02  0.20720118560E+02 -0.36561856587E+02  0.45045683879E+02  0.00000000000E+00 0. -1.
         11    1    3    3    0    0 -0.10388137696E+01 -0.28201670837E+01  0.73178713047E+01  0.79109871142E+01  0.51100000000E-03 0. -1.
        -11    1    3    3    0    0 -0.62606797524E+00 -0.48525275710E+01  0.40959086920E+01  0.63808661804E+01  0.51100000000E-03 0.  1.
        -12    1    3    3    0    0 -0.14553039389E+02 -0.13047423905E+02  0.25148076591E+02  0.31850462826E+02  0.00000000000E+00 0.  1.
</event>
<event>
 7    1  0.2472338E-008  0.4614231E+02  0.7816164E-02  0.1320468E+00
        -11   -1    0    0    0    0  0.00000000000E+00  0.00000000000E+00  0.45593999997E+02  0.45594000000E+02  0.51100000000E-03 0.  1.
         11   -1    0    0    0    0 -0.00000000000E+00 -0.00000000000E+00 -0.45593999997E+02  0.45594000000E+02  0.51100000000E-03 0. -1.
    9900012    2    1    2    0    0 -0.14977554839E+02 -0.16385993992E+02  0.39195484924E+02  0.46142312232E+02  0.99999495784E+01 0.  0.
         12    1    1    2    0    0  0.14977554839E+02  0.16385993992E+02 -0.39195484924E+02  0.45045687768E+02  0.00000000000E+00 0. -1.
         11    1    3    3    0    0  0.66892761907E+00 -0.79117290617E+00  0.65895587973E+01  0.66705100353E+01  0.51100000000E-03 0. -1.
        -11    1    3    3    0    0 -0.14766981492E+01 -0.64775398412E+00  0.30092277603E+01  0.34140408056E+01  0.51100000000E-03 0.  1.
         12    1    3    3    0    0 -0.14169784309E+02 -0.14947067102E+02  0.29596698367E+02  0.36057761391E+02  0.00000000000E+00 0. -1.
</event>
<event>
 7    1  0.2472338E-008  0.4614232E+02  0.7816164E-02  0.1320468E+00
        -11   -1    0    0    0    0  0.00000000000E+00  0.00000000000E+00  0.45593999997E+02  0.45594000000E+02  0.51100000000E-03 0.  1.
         11   -1    0    0    0    0 -0.00000000000E+00 -0.00000000000E+00 -0.45593999997E+02  0.45594000000E+02  0.51100000000E-03 0. -1.
    9900012    2    1    2    0    0  0.18570135860E+02 -0.29694881659E+02  0.28328032984E+02  0.46142318794E+02  0.10000009419E+02 0.  0.
         12    1    1    2    0    0 -0.18570135860E+02  0.29694881659E+02 -0.28328032984E+02  0.45045681206E+02  0.00000000000E+00 0. -1.
         11    1    3    3    0    0  0.12785598168E+02 -0.20277187201E+02  0.16711650358E+02  0.29221825734E+02  0.51100000000E-03 0. -1.
        -11    1    3    3    0    0  0.54268854413E+01 -0.93602250198E+01  0.12154014065E+02  0.16272214237E+02  0.51100000000E-03 0.  1.
        -12    1    3    3    0    0  0.35765225079E+00 -0.57469437728E-01 -0.53763143872E+00  0.64827882325E+00  0.00000000000E+00 0.  1.
</event>
<event>
 7    1  0.2472338E-008  0.4614232E+02  0.7816164E-02  0.1320468E+00
        -11   -1    0    0    0    0  0.00000000000E+00  0.00000000000E+00  0.45593999997E+02  0.45594000000E+02  0.51100000000E-03 0. -1.
         11   -1    0    0    0    0 -0.00000000000E+00 -0.00000000000E+00 -0.45593999997E+02  0.45594000000E+02  0.51100000000E-03 0.  1.
    9900012    2    1    2    0    0  0.32356840116E+01  0.40698173173E+02 -0.19034247189E+02  0.46142317447E+02  0.99999971315E+01 0.  0.
         12    1    1    2    0    0 -0.32356840116E+01 -0.40698173173E+02  0.19034247189E+02  0.45045682553E+02  0.00000000000E+00 0. -1.
         11    1    3    3    0    0 -0.43852757364E-01  0.20234341501E+02 -0.52963737299E+01  0.20916072146E+02  0.51100000000E-03 0.  1.
        -11    1    3    3    0    0  0.48288652440E-01  0.20732710982E+01 -0.31194989536E+01  0.37459389775E+01  0.51100000000E-03 0. -1.
         12    1    3    3    0    0  0.32312481166E+01  0.18390560573E+02 -0.10618374506E+02  0.21480306323E+02  0.00000000000E+00 0. -1.
</event>
<event>
 7    1  0.2472338E-008  0.4614232E+02  0.7816164E-02  0.1320468E+00
        -11   -1    0    0    0    0  0.00000000000E+00  0.00000000000E+00  0.45593999997E+02  0.45594000000E+02  0.51100000000E-03 0.  1.
         11   -1    0    0    0    0 -0.00000000000E+00 -0.00000000000E+00 -0.45593999997E+02  0.45594000000E+02  0.51100000000E-03 0. -1.
    9900012    2    1    2    0    0  0.19658590714E+01 -0.34285971410E+02  0.29149975834E+02  0.46142317315E+02  0.99999959360E+01 0.  0.
         12    1    1    2    0    0 -0.19658590714E+01  0.34285971410E+02 -0.29149975834E+02  0.45045682685E+02  0.00000000000E+00 0. -1.
         11    1    3    3    0    0  0.61264922777E+00 -0.71571411888E+01  0.61451856835E+01  0.94532172522E+01  0.51100000000E-03 0. -1.
        -11    1    3    3    0    0 -0.26658659809E+01 -0.18235638612E+02  0.17830001107E+02  0.25642821544E+02  0.51100000000E-03 0.  1.
         12    1    3    3    0    0  0.40190758245E+01 -0.88931916085E+01  0.51747890442E+01  0.11046278519E+02  0.00000000000E+00 0. -1.
</event>
<event>
 7    1  0.2472338E-008  0.4614232E+02  0.7816164E-02  0.1320468E+00
        -11   -1    0    0    0    0  0.00000000000E+00  0.00000000000E+00  0.45593999997E+02  0.45594000000E+02  0.51100000000E-03 0. -1.
         11   -1    0    0    0    0 -0.00000000000E+00 -0.00000000000E+00 -0.45593999997E+02  0.45594000000E+02  0.51100000000E-03 0.  1.
    9900012    2    1    2    0    0 -0.26719715966E+02  0.22359821524E+02 -0.28551857659E+02  0.46142318568E+02  0.10000007356E+02 0.  0.
         12    1    1    2    0    0  0.26719715966E+02 -0.22359821524E+02  0.28551857659E+02  0.45045681432E+02  0.00000000000E+00 0. -1.
         11    1    3    3    0    0 -0.31261420977E+01  0.36833015370E+01 -0.50864961818E+01  0.70151206901E+01  0.51100000000E-03 0.  1.
        -11    1    3    3    0    0 -0.14730477391E+02  0.78756446886E+01 -0.88322394768E+01  0.18895004574E+02  0.51100000000E-03 0. -1.
         12    1    3    3    0    0 -0.88630964772E+01  0.10800875298E+02 -0.14633122001E+02  0.20232193303E+02  0.00000000000E+00 0. -1.
</event>
<event>
 7    1  0.2472338E-008  0.4614232E+02  0.7816164E-02  0.1320468E+00
        -11   -1    0    0    0    0  0.00000000000E+00  0.00000000000E+00  0.45593999997E+02  0.45594000000E+02  0.51100000000E-03 0.  1.
         11   -1    0    0    0    0 -0.00000000000E+00 -0.00000000000E+00 -0.45593999997E+02  0.45594000000E+02  0.51100000000E-03 0. -1.
    9900012    2    1    2    0    0 -0.37425253580E+02 -0.21840546968E+02  0.12306678937E+02  0.46142318255E+02  0.10000004505E+02 0.  0.
         12    1    1    2    0    0  0.37425253580E+02  0.21840546968E+02 -0.12306678937E+02  0.45045681745E+02  0.00000000000E+00 0. -1.
         11    1    3    3    0    0 -0.96076631755E+01 -0.45181889770E+01  0.85887084945E+00  0.10651707972E+02  0.51100000000E-03 0. -1.
        -11    1    3    3    0    0 -0.27684207883E+02 -0.17537946360E+02  0.11986581568E+02  0.34895172540E+02  0.51100000000E-03 0.  1.
        -12    1    3    3    0    0 -0.13338252128E+00  0.21558836919E+00 -0.53877348083E+00  0.59543774281E+00  0.00000000000E+00 0.  1.
</event>
<event>
 7    1  0.2472338E-008  0.4614232E+02  0.7816164E-02  0.1320468E+00
        -11   -1    0    0    0    0  0.00000000000E+00  0.00000000000E+00  0.45593999997E+02  0.45594000000E+02  0.51100000000E-03 0.  1.
         11   -1    0    0    0    0 -0.00000000000E+00 -0.00000000000E+00 -0.45593999997E+02  0.45594000000E+02  0.51100000000E-03 0. -1.
    9900012    2    1    2    0    0  0.25958087050E+02 -0.28202324873E+02  0.23662626578E+02  0.46142319762E+02  0.10000018242E+02 0.  0.
         12    1    1    2    0    0 -0.25958087050E+02  0.28202324873E+02 -0.23662626578E+02  0.45045680238E+02  0.00000000000E+00 0. -1.
         11    1    3    3    0    0  0.33773151059E+01 -0.62036662064E+01  0.22882419901E+01  0.74248086434E+01  0.51100000000E-03 0. -1.
        -11    1    3    3    0    0  0.12082104638E+02 -0.69848704958E+01  0.88542095069E+01  0.16527634270E+02  0.51100000000E-03 0.  1.
         12    1    3    3    0    0  0.10498667307E+02 -0.15013788171E+02  0.12520175081E+02  0.22189876848E+02  0.00000000000E+00 0. -1.
</event>
<event>
 7    1  0.2472338E-008  0.4614232E+02  0.7816164E-02  0.1320468E+00
        -11   -1    0    0    0    0  0.00000000000E+00  0.00000000000E+00  0.45593999997E+02  0.45594000000E+02  0.51100000000E-03 0.  1.
         11   -1    0    0    0    0 -0.00000000000E+00 -0.00000000000E+00 -0.45593999997E+02  0.45594000000E+02  0.51100000000E-03 0. -1.
    9900012    2    1    2    0    0 -0.21718485485E+02  0.14942240191E+02  0.36526023287E+02  0.46142317289E+02  0.99999956982E+01 0.  0.
         12    1    1    2    0    0  0.21718485485E+02 -0.14942240191E+02 -0.36526023287E+02  0.45045682711E+02  0.00000000000E+00 0. -1.
         11    1    3    3    0    0 -0.72282409132E+01  0.59392365410E+01  0.64447839095E+01  0.11360336143E+02  0.51100000000E-03 0. -1.
        -11    1    3    3    0    0 -0.66605588130E+01  0.22465944550E+01  0.10466045317E+02  0.12607471404E+02  0.51100000000E-03 0.  1.
        -12    1    3    3    0    0 -0.78296857591E+01  0.67564091950E+01  0.19615194060E+02  0.22174509742E+02  0.00000000000E+00 0.  1.
</event>
<event>
 7    1  0.2472338E-008  0.4614232E+02  0.7816164E-02  0.1320468E+00
        -11   -1    0    0    0    0  0.00000000000E+00  0.00000000000E+00  0.45593999997E+02  0.45594000000E+02  0.51100000000E-03 0. -1.
         11   -1    0    0    0    0 -0.00000000000E+00 -0.00000000000E+00 -0.45593999997E+02  0.45594000000E+02  0.51100000000E-03 0.  1.
    9900012    2    1    2    0    0 -0.24329125409E+02 -0.37892437832E+02  0.11705812095E+01  0.46142318205E+02  0.10000004048E+02 0.  0.
         12    1    1    2    0    0  0.24329125409E+02  0.37892437832E+02 -0.11705812095E+01  0.45045681795E+02  0.00000000000E+00 0. -1.
         11    1    3    3    0    0 -0.20375637559E+02 -0.32879282351E+02  0.22723906187E+01  0.38747613775E+02  0.51100000000E-03 0. -1.
        -11    1    3    3    0    0 -0.27164720597E+01 -0.52381842036E+01 -0.30992322208E+00  0.59087940281E+01  0.51100000000E-03 0.  1.
         12    1    3    3    0    0 -0.12370157896E+01  0.22502872254E+00 -0.79188618708E+00  0.14859104021E+01  0.00000000000E+00 0. -1.
</event>
<event>
 7    1  0.2472338E-008  0.4614232E+02  0.7816164E-02  0.1320468E+00
        -11   -1    0    0    0    0  0.00000000000E+00  0.00000000000E+00  0.45593999997E+02  0.45594000000E+02  0.51100000000E-03 0.  1.
         11   -1    0    0    0    0 -0.00000000000E+00 -0.00000000000E+00 -0.45593999997E+02  0.45594000000E+02  0.51100000000E-03 0. -1.
    9900012    2    1    2    0    0 -0.26445662744E+02  0.32256795010E+02  0.17007047098E+02  0.46142317040E+02  0.99999934263E+01 0.  0.
         12    1    1    2    0    0  0.26445662744E+02 -0.32256795010E+02 -0.17007047098E+02  0.45045682960E+02  0.00000000000E+00 0. -1.
         11    1    3    3    0    0 -0.11663747109E+02  0.13332378805E+02  0.36049289479E+01  0.18077356947E+02  0.51100000000E-03 0. -1.
        -11    1    3    3    0    0 -0.47158139287E+01  0.93002250797E+01  0.35874133931E+01  0.11027357918E+02  0.51100000000E-03 0.  1.
        -12    1    3    3    0    0 -0.10066101707E+02  0.96241911251E+01  0.98147047571E+01  0.17037602174E+02  0.00000000000E+00 0.  1.
</event>
<event>
 7    1  0.2472338E-008  0.4614232E+02  0.7816164E-02  0.1320468E+00
        -11   -1    0    0    0    0  0.00000000000E+00  0.00000000000E+00  0.45593999997E+02  0.45594000000E+02  0.51100000000E-03 0.  1.
         11   -1    0    0    0    0 -0.00000000000E+00 -0.00000000000E+00 -0.45593999997E+02  0.45594000000E+02  0.51100000000E-03 0. -1.
    9900012    2    1    2    0    0 -0.18583594929E+02 -0.11787916122E+02  0.39304053292E+02  0.46142316830E+02  0.99999915125E+01 0.  0.
         12    1    1    2    0    0  0.18583594929E+02  0.11787916122E+02 -0.39304053292E+02  0.45045683170E+02  0.00000000000E+00 0. -1.
         11    1    3    3    0    0 -0.29317188631E+01 -0.56723925526E+01  0.11878297865E+02  0.13485732208E+02  0.51100000000E-03 0. -1.
        -11    1    3    3    0    0 -0.58166954948E+01 -0.51871911394E+01  0.13386037987E+02  0.15489574289E+02  0.51100000000E-03 0.  1.
         12    1    3    3    0    0 -0.98351805715E+01 -0.92833243014E+00  0.14039717440E+02  0.17167010333E+02  0.00000000000E+00 0. -1.
</event>
<event>
 7    1  0.2472338E-008  0.4614232E+02  0.7816164E-02  0.1320468E+00
        -11   -1    0    0    0    0  0.00000000000E+00  0.00000000000E+00  0.45593999997E+02  0.45594000000E+02  0.51100000000E-03 0.  1.
         11   -1    0    0    0    0 -0.00000000000E+00 -0.00000000000E+00 -0.45593999997E+02  0.45594000000E+02  0.51100000000E-03 0. -1.
    9900012    2    1    2    0    0 -0.21475040104E+02 -0.57068626559E+01  0.39183770385E+02  0.46142317738E+02  0.99999997910E+01 0.  0.
         12    1    1    2    0    0  0.21475040104E+02  0.57068626559E+01 -0.39183770385E+02  0.45045682262E+02  0.00000000000E+00 0. -1.
         11    1    3    3    0    0 -0.18450007018E+02 -0.13007172206E+01  0.26234766068E+02  0.32099183403E+02  0.51100000000E-03 0. -1.
        -11    1    3    3    0    0 -0.10154140776E+01 -0.23461388309E+01  0.60514162121E+01  0.65692519814E+01  0.51100000000E-03 0.  1.
         12    1    3    3    0    0 -0.20096190087E+01 -0.20600066045E+01  0.68975881047E+01  0.74738823534E+01  0.00000000000E+00 0. -1.
</event>
<event>
 7    1  0.2472338E-008  0.4614232E+02  0.7816164E-02  0.1320468E+00
        -11   -1    0    0    0    0  0.00000000000E+00  0.00000000000E+00  0.45593999997E+02  0.45594000000E+02  0.51100000000E-03 0. -1.
         11   -1    0    0    0    0 -0.00000000000E+00 -0.00000000000E+00 -0.45593999997E+02  0.45594000000E+02  0.51100000000E-03 0.  1.
    9900012    2    1    2    0    0 -0.43711350268E+02  0.10298760284E+02 -0.35166706277E+01  0.46142316767E+02  0.99999909339E+01 0.  0.
         12    1    1    2    0    0  0.43711350268E+02 -0.10298760284E+02  0.35166706277E+01  0.45045683233E+02  0.00000000000E+00 0. -1.
         11    1    3    3    0    0 -0.11845933289E+02  0.42879375137E+01 -0.20121965512E+01  0.12757800705E+02  0.51100000000E-03 0. -1.
        -11    1    3    3    0    0 -0.20275659604E+01  0.35979435316E+00 -0.21932280034E+01  0.30084422940E+01  0.51100000000E-03 0.  1.
        -12    1    3    3    0    0 -0.29837851018E+02  0.56510284173E+01  0.68875392694E+00  0.30376073767E+02  0.00000000000E+00 0.  1.
</event>
<event>
 7    1  0.2472338E-008  0.4614232E+02  0.7816164E-02  0.1320468E+00
        -11   -1    0    0    0    0  0.00000000000E+00  0.00000000000E+00  0.45593999997E+02  0.45594000000E+02  0.51100000000E-03 0.  1.
         11   -1    0    0    0    0 -0.00000000000E+00 -0.00000000000E+00 -0.45593999997E+02  0.45594000000E+02  0.51100000000E-03 0. -1.
    9900012    2    1    2    0    0 -0.19987655006E+02  0.28306205729E+02  0.28781345651E+02  0.46142317710E+02  0.99999995381E+01 0.  0.
         12    1    1    2    0    0  0.19987655006E+02 -0.28306205729E+02 -0.28781345651E+02  0.45045682290E+02  0.00000000000E+00 0. -1.
         11    1    3    3    0    0 -0.29336808233E+01  0.51327031250E+01  0.65406047901E+01  0.88164979342E+01  0.51100000000E-03 0. -1.
        -11    1    3    3    0    0 -0.15937452983E+02  0.15578568558E+02  0.16060098406E+02  0.27470365250E+02  0.51100000000E-03 0.  1.
         12    1    3    3    0    0 -0.11165212000E+01  0.75949340469E+01  0.61806424551E+01  0.98554545265E+01  0.00000000000E+00 0. -1.
</event>
<event>
 7    1  0.2472338E-008  0.4614232E+02  0.7816164E-02  0.1320468E+00
        -11   -1    0    0    0    0  0.00000000000E+00  0.00000000000E+00  0.45593999997E+02  0.45594000000E+02  0.51100000000E-03 0.  1.
         11   -1    0    0    0    0 -0.00000000000E+00 -0.00000000000E+00 -0.45593999997E+02  0.45594000000E+02  0.51100000000E-03 0. -1.
    9900012    2    1    2    0    0  0.43974242606E+02 -0.87103836174E+01 -0.44168695910E+01  0.46142317271E+02  0.99999955338E+01 0.  0.
         12    1    1    2    0    0 -0.43974242606E+02  0.87103836174E+01  0.44168695910E+01  0.45045682729E+02  0.00000000000E+00 0. -1.
         11    1    3    3    0    0  0.33266489438E+01  0.10136156247E+01 -0.24821214695E+01  0.42725796751E+01  0.51100000000E-03 0. -1.
        -11    1    3    3    0    0  0.11141193882E+02 -0.19643867282E+01 -0.71881584720E+00  0.11335859598E+02  0.51100000000E-03 0.  1.
         12    1    3    3    0    0  0.29506399780E+02 -0.77596125138E+01 -0.12159322743E+01  0.30533877999E+02  0.00000000000E+00 0. -1.
</event>
<event>
 7    1  0.2472338E-008  0.4614232E+02  0.7816164E-02  0.1320468E+00
        -11   -1    0    0    0    0  0.00000000000E+00  0.00000000000E+00  0.45593999997E+02  0.45594000000E+02  0.51100000000E-03 0. -1.
         11   -1    0    0    0    0 -0.00000000000E+00 -0.00000000000E+00 -0.45593999997E+02  0.45594000000E+02  0.51100000000E-03 0.  1.
    9900012    2    1    2    0    0  0.25050248324E+02 -0.25383808419E+02 -0.27518368777E+02  0.46142319951E+02  0.10000019966E+02 0.  0.
         12    1    1    2    0    0 -0.25050248324E+02  0.25383808419E+02  0.27518368777E+02  0.45045680049E+02  0.00000000000E+00 0. -1.
         11    1    3    3    0    0  0.68796648767E+00  0.13983260779E+00 -0.11250214516E+01  0.13260937275E+01  0.51100000000E-03 0. -1.
        -11    1    3    3    0    0 -0.30750517852E+00 -0.22440485756E+00 -0.16123160357E+01  0.16566472875E+01  0.51100000000E-03 0.  1.
        -12    1    3    3    0    0  0.24669787015E+02 -0.25299236170E+02 -0.24781031289E+02  0.43159578936E+02  0.00000000000E+00 0.  1.
</event>
<event>
 7    1  0.2472338E-008  0.4614232E+02  0.7816164E-02  0.1320468E+00
        -11   -1    0    0    0    0  0.00000000000E+00  0.00000000000E+00  0.45593999997E+02  0.45594000000E+02  0.51100000000E-03 0.  1.
         11   -1    0    0    0    0 -0.00000000000E+00 -0.00000000000E+00 -0.45593999997E+02  0.45594000000E+02  0.51100000000E-03 0. -1.
    9900012    2    1    2    0    0  0.35959793218E+02  0.17179097973E+02  0.20997269457E+02  0.46142318075E+02  0.10000002866E+02 0.  0.
         12    1    1    2    0    0 -0.35959793218E+02 -0.17179097973E+02 -0.20997269457E+02  0.45045681925E+02  0.00000000000E+00 0. -1.
         11    1    3    3    0    0  0.37934780984E+01  0.32896393937E+01  0.24883707421E+01  0.56039443818E+01  0.51100000000E-03 0. -1.
        -11    1    3    3    0    0  0.17489389914E+02  0.30622804848E+01  0.10414816484E+02  0.20584574904E+02  0.51100000000E-03 0.  1.
        -12    1    3    3    0    0  0.14676925205E+02  0.10827178094E+02  0.80940822309E+01  0.19953798789E+02  0.00000000000E+00 0.  1.
</event>
<event>
 7    1  0.2472338E-008  0.4614232E+02  0.7816164E-02  0.1320468E+00
        -11   -1    0    0    0    0  0.00000000000E+00  0.00000000000E+00  0.45593999997E+02  0.45594000000E+02  0.51100000000E-03 0. -1.
         11   -1    0    0    0    0 -0.00000000000E+00 -0.00000000000E+00 -0.45593999997E+02  0.45594000000E+02  0.51100000000E-03 0.  1.
    9900012    2    1    2    0    0 -0.43915797071E+02 -0.21265679766E+01  0.97976525725E+01  0.46142317414E+02  0.99999968332E+01 0.  0.
         12    1    1    2    0    0  0.43915797071E+02  0.21265679766E+01 -0.97976525725E+01  0.45045682586E+02  0.00000000000E+00 0. -1.
         11    1    3    3    0    0 -0.14339103823E+02 -0.93613951953E+00 -0.63131109135E+00  0.14383490870E+02  0.51100000000E-03 0. -1.
        -11    1    3    3    0    0 -0.25032055101E+02  0.62115264339E+00  0.79319845566E+01  0.26266061609E+02  0.51100000000E-03 0.  1.
         12    1    3    3    0    0 -0.45446381473E+01 -0.18115811004E+01  0.24969791072E+01  0.54927649353E+01  0.00000000000E+00 0. -1.
</event>
<event>
 7    1  0.2472338E-008  0.4614233E+02  0.7816164E-02  0.1320468E+00
        -11   -1    0    0    0    0  0.00000000000E+00  0.00000000000E+00  0.45593999997E+02  0.45594000000E+02  0.51100000000E-03 0.  1.
         11   -1    0    0    0    0 -0.00000000000E+00 -0.00000000000E+00 -0.45593999997E+02  0.45594000000E+02  0.51100000000E-03 0. -1.
    9900012    2    1    2    0    0 -0.11512072499E+02  0.42026062787E+02 -0.11419056926E+02  0.46142327314E+02  0.10000087112E+02 0.  0.
         12    1    1    2    0    0  0.11512072499E+02 -0.42026062787E+02  0.11419056926E+02  0.45045672686E+02  0.00000000000E+00 0. -1.
         11    1    3    3    0    0 -0.56465956543E+01  0.15299234184E+02 -0.15333522977E+00  0.16308713041E+02  0.51100000000E-03 0. -1.
        -11    1    3    3    0    0  0.48752078174E+00  0.16287434201E+01 -0.10690956011E+01  0.20083444193E+01  0.51100000000E-03 0.  1.
        -12    1    3    3    0    0 -0.63529976268E+01  0.25098085183E+02 -0.10196626095E+02  0.27825269854E+02  0.00000000000E+00 0.  1.
</event>
<event>
 7    1  0.2472338E-008  0.4614232E+02  0.7816164E-02  0.1320468E+00
        -11   -1    0    0    0    0  0.00000000000E+00  0.00000000000E+00  0.45593999997E+02  0.45594000000E+02  0.51100000000E-03 0. -1.
         11   -1    0    0    0    0 -0.00000000000E+00 -0.00000000000E+00 -0.45593999997E+02  0.45594000000E+02  0.51100000000E-03 0.  1.
    9900012    2    1    2    0    0  0.39152694974E+02 -0.21919609331E+02 -0.39636731464E+01  0.46142317612E+02  0.99999986412E+01 0.  0.
         12    1    1    2    0    0 -0.39152694974E+02  0.21919609331E+02  0.39636731464E+01  0.45045682388E+02  0.00000000000E+00 0. -1.
         11    1    3    3    0    0  0.17741849060E+02 -0.86316136461E+01 -0.13889908903E+01  0.19778959987E+02  0.51100000000E-03 0. -1.
        -11    1    3    3    0    0  0.84757033222E+01 -0.50336577577E+01  0.25562384039E+01  0.10183791645E+02  0.51100000000E-03 0.  1.
         12    1    3    3    0    0  0.12935142592E+02 -0.82543379271E+01 -0.51309206600E+01  0.16179565980E+02  0.00000000000E+00 0. -1.
</event>
<event>
 7    1  0.2472338E-008  0.4614231E+02  0.7816164E-02  0.1320468E+00
        -11   -1    0    0    0    0  0.00000000000E+00  0.00000000000E+00  0.45593999997E+02  0.45594000000E+02  0.51100000000E-03 0.  1.
         11   -1    0    0    0    0 -0.00000000000E+00 -0.00000000000E+00 -0.45593999997E+02  0.45594000000E+02  0.51100000000E-03 0. -1.
    9900012    2    1    2    0    0 -0.16167928032E+02 -0.95667561696E+01  0.40941290604E+02  0.46142312118E+02  0.99999485404E+01 0.  0.
         12    1    1    2    0    0  0.16167928032E+02  0.95667561696E+01 -0.40941290604E+02  0.45045687882E+02  0.00000000000E+00 0. -1.
         11    1    3    3    0    0 -0.26048141909E+01  0.90749589423E+00  0.50565597785E+01  0.57599828838E+01  0.51100000000E-03 0. -1.
        -11    1    3    3    0    0 -0.96807338794E+01 -0.40627114932E+01  0.16051390758E+02  0.19179921237E+02  0.51100000000E-03 0.  1.
        -12    1    3    3    0    0 -0.38823799619E+01 -0.64115405707E+01  0.19833340067E+02  0.21202407997E+02  0.00000000000E+00 0.  1.
</event>
<event>
 7    1  0.2472338E-008  0.4614232E+02  0.7816164E-02  0.1320468E+00
        -11   -1    0    0    0    0  0.00000000000E+00  0.00000000000E+00  0.45593999997E+02  0.45594000000E+02  0.51100000000E-03 0.  1.
         11   -1    0    0    0    0 -0.00000000000E+00 -0.00000000000E+00 -0.45593999997E+02  0.45594000000E+02  0.51100000000E-03 0. -1.
    9900012    2    1    2    0    0  0.14836638804E+02  0.41628631261E+02  0.87203634879E+01  0.46142317287E+02  0.99999956804E+01 0.  0.
         12    1    1    2    0    0 -0.14836638804E+02 -0.41628631261E+02 -0.87203634879E+01  0.45045682713E+02  0.00000000000E+00 0. -1.
         11    1    3    3    0    0  0.96065386443E+01  0.29899863071E+02  0.96479261815E+01  0.32853765024E+02  0.51100000000E-03 0.  1.
        -11    1    3    3    0    0  0.44683625034E+01  0.10108679669E+02  0.40053103982E+00  0.11059479802E+02  0.51100000000E-03 0. -1.
        -12    1    3    3    0    0  0.76173765599E+00  0.16200885208E+01 -0.13280937334E+01  0.22290724610E+01  0.00000000000E+00 0.  1.
</event>
<event>
 7    1  0.2472338E-008  0.4614232E+02  0.7816164E-02  0.1320468E+00
        -11   -1    0    0    0    0  0.00000000000E+00  0.00000000000E+00  0.45593999997E+02  0.45594000000E+02  0.51100000000E-03 0.  1.
         11   -1    0    0    0    0 -0.00000000000E+00 -0.00000000000E+00 -0.45593999997E+02  0.45594000000E+02  0.51100000000E-03 0. -1.
    9900012    2    1    2    0    0 -0.39482171618E+02  0.20749434057E+02 -0.63033554350E+01  0.46142321194E+02  0.10000031305E+02 0.  0.
         12    1    1    2    0    0  0.39482171618E+02 -0.20749434057E+02  0.63033554350E+01  0.45045678806E+02  0.00000000000E+00 0. -1.
         11    1    3    3    0    0 -0.58658223031E+01  0.24127879423E+01 -0.17587225123E+01  0.65819846613E+01  0.51100000000E-03 0. -1.
        -11    1    3    3    0    0 -0.28292437204E+02  0.16548475600E+02 -0.75547908200E+00  0.32785435738E+02  0.51100000000E-03 0.  1.
        -12    1    3    3    0    0 -0.53239121105E+01  0.17881705153E+01 -0.37891538407E+01  0.67749007949E+01  0.00000000000E+00 0.  1.
</event>
<event>
 7    1  0.2472338E-008  0.4614232E+02  0.7816164E-02  0.1320468E+00
        -11   -1    0    0    0    0  0.00000000000E+00  0.00000000000E+00  0.45593999997E+02  0.45594000000E+02  0.51100000000E-03 0. -1.
         11   -1    0    0    0    0 -0.00000000000E+00 -0.00000000000E+00 -0.45593999997E+02  0.45594000000E+02  0.51100000000E-03 0.  1.
    9900012    2    1    2    0    0 -0.29822432024E+02  0.25894271708E+02  0.21661547560E+02  0.46142318722E+02  0.10000008763E+02 0.  0.
         12    1    1    2    0    0  0.29822432024E+02 -0.25894271708E+02 -0.21661547560E+02  0.45045681278E+02  0.00000000000E+00 0. -1.
         11    1    3    3    0    0 -0.48177592389E+01  0.65655629192E+01  0.24954436912E+01  0.85173153052E+01  0.51100000000E-03 0. -1.
        -11    1    3    3    0    0 -0.70455124710E+01  0.78827307206E+01  0.33251970392E+01  0.11083033213E+02  0.51100000000E-03 0.  1.
        -12    1    3    3    0    0 -0.17959160314E+02  0.11445978068E+02  0.15840906830E+02  0.26541970204E+02  0.00000000000E+00 0.  1.
</event>
<event>
 7    1  0.2472338E-008  0.4614232E+02  0.7816164E-02  0.1320468E+00
        -11   -1    0    0    0    0  0.00000000000E+00  0.00000000000E+00  0.45593999997E+02  0.45594000000E+02  0.51100000000E-03 0. -1.
         11   -1    0    0    0    0 -0.00000000000E+00 -0.00000000000E+00 -0.45593999997E+02  0.45594000000E+02  0.51100000000E-03 0.  1.
    9900012    2    1    2    0    0  0.37850831506E+02  0.35713885086E+00  0.24419262969E+02  0.46142318766E+02  0.10000009166E+02 0.  0.
         12    1    1    2    0    0 -0.37850831506E+02 -0.35713885086E+00 -0.24419262969E+02  0.45045681234E+02  0.00000000000E+00 0. -1.
         11    1    3    3    0    0  0.12499907241E+02 -0.51283853726E+00  0.12219618791E+02  0.17487989252E+02  0.51100000000E-03 0. -1.
        -11    1    3    3    0    0  0.24600314178E+01 -0.78130100634E-01 -0.42195062513E+00  0.24971787041E+01  0.51100000000E-03 0.  1.
        -12    1    3    3    0    0  0.22890892847E+02  0.94810748875E+00  0.12621594803E+02  0.26157150811E+02  0.00000000000E+00 0.  1.
</event>
<event>
 7    1  0.2472338E-008  0.4614232E+02  0.7816164E-02  0.1320468E+00
        -11   -1    0    0    0    0  0.00000000000E+00  0.00000000000E+00  0.45593999997E+02  0.45594000000E+02  0.51100000000E-03 0.  1.
         11   -1    0    0    0    0 -0.00000000000E+00 -0.00000000000E+00 -0.45593999997E+02  0.45594000000E+02  0.51100000000E-03 0. -1.
    9900012    2    1    2    0    0  0.65964671218E+01 -0.33949394703E+02  0.28862409721E+02  0.46142317919E+02  0.10000001441E+02 0.  0.
         12    1    1    2    0    0 -0.65964671218E+01  0.33949394703E+02 -0.28862409721E+02  0.45045682081E+02  0.00000000000E+00 0. -1.
         11    1    3    3    0    0 -0.98166585124E+00 -0.68687307171E+00  0.14025555281E+01  0.18446204842E+01  0.51100000000E-03 0. -1.
        -11    1    3    3    0    0  0.35535557311E+00 -0.15925169167E+02  0.11433731527E+02  0.19607843009E+02  0.51100000000E-03 0.  1.
        -12    1    3    3    0    0  0.72227774000E+01 -0.17337352465E+02  0.16026122666E+02  0.24689854426E+02  0.00000000000E+00 0.  1.
</event>
<event>
 7    1  0.2472338E-008  0.4614232E+02  0.7816164E-02  0.1320468E+00
        -11   -1    0    0    0    0  0.00000000000E+00  0.00000000000E+00  0.45593999997E+02  0.45594000000E+02  0.51100000000E-03 0.  1.
         11   -1    0    0    0    0 -0.00000000000E+00 -0.00000000000E+00 -0.45593999997E+02  0.45594000000E+02  0.51100000000E-03 0. -1.
    9900012    2    1    2    0    0 -0.25150846564E+02 -0.48728975998E+01  0.37051358796E+02  0.46142318714E+02  0.10000008690E+02 0.  0.
         12    1    1    2    0    0  0.25150846564E+02  0.48728975998E+01 -0.37051358796E+02  0.45045681286E+02  0.00000000000E+00 0. -1.
         11    1    3    3    0    0 -0.37052268049E+01  0.47956127923E+00  0.12450099437E+02  0.12998602269E+02  0.51100000000E-03 0. -1.
        -11    1    3    3    0    0 -0.11714916914E+02 -0.39013468441E+01  0.14457662024E+02  0.19012726710E+02  0.51100000000E-03 0.  1.
         12    1    3    3    0    0 -0.97307028447E+01 -0.14511120350E+01  0.10143597335E+02  0.14130989735E+02  0.00000000000E+00 0. -1.
</event>
<event>
 7    1  0.2472338E-008  0.4614232E+02  0.7816164E-02  0.1320468E+00
        -11   -1    0    0    0    0  0.00000000000E+00  0.00000000000E+00  0.45593999997E+02  0.45594000000E+02  0.51100000000E-03 0.  1.
         11   -1    0    0    0    0 -0.00000000000E+00 -0.00000000000E+00 -0.45593999997E+02  0.45594000000E+02  0.51100000000E-03 0. -1.
    9900012    2    1    2    0    0 -0.14149898069E+02  0.31572319601E+02  0.28845829711E+02  0.46142324602E+02  0.10000062381E+02 0.  0.
         12    1    1    2    0    0  0.14149898069E+02 -0.31572319601E+02 -0.28845829711E+02  0.45045675398E+02  0.00000000000E+00 0. -1.
         11    1    3    3    0    0 -0.13113183751E+01  0.28472442573E+01 -0.17977449312E+00  0.31398526830E+01  0.51100000000E-03 0. -1.
        -11    1    3    3    0    0 -0.93110483266E+01  0.24433910499E+02  0.23260632903E+02  0.34996694794E+02  0.51100000000E-03 0.  1.
        -12    1    3    3    0    0 -0.35275313668E+01  0.42911648450E+01  0.57649713013E+01  0.80057771250E+01  0.00000000000E+00 0.  1.
</event>
<event>
 7    1  0.2472338E-008  0.4614232E+02  0.7816164E-02  0.1320468E+00
        -11   -1    0    0    0    0  0.00000000000E+00  0.00000000000E+00  0.45593999997E+02  0.45594000000E+02  0.51100000000E-03 0. -1.
         11   -1    0    0    0    0 -0.00000000000E+00 -0.00000000000E+00 -0.45593999997E+02  0.45594000000E+02  0.51100000000E-03 0.  1.
    9900012    2    1    2    0    0 -0.33247569733E+02 -0.29706620261E+02  0.64209977227E+01  0.46142318828E+02  0.10000009726E+02 0.  0.
         12    1    1    2    0    0  0.33247569733E+02  0.29706620261E+02 -0.64209977227E+01  0.45045681172E+02  0.00000000000E+00 0. -1.
         11    1    3    3    0    0 -0.28770148889E+02 -0.28711357171E+02  0.59116099231E+01  0.41073234957E+02  0.51100000000E-03 0. -1.
        -11    1    3    3    0    0  0.58152628340E-01 -0.39879799545E+00  0.27608580269E+00  0.48851325563E+00  0.51100000000E-03 0.  1.
        -12    1    3    3    0    0 -0.45355734727E+01 -0.59646509445E+00  0.23330199684E+00  0.45805706147E+01  0.00000000000E+00 0.  1.
</event>
<event>
 7    1  0.2472338E-008  0.4614232E+02  0.7816164E-02  0.1320468E+00
        -11   -1    0    0    0    0  0.00000000000E+00  0.00000000000E+00  0.45593999997E+02  0.45594000000E+02  0.51100000000E-03 0.  1.
         11   -1    0    0    0    0 -0.00000000000E+00 -0.00000000000E+00 -0.45593999997E+02  0.45594000000E+02  0.51100000000E-03 0. -1.
    9900012    2    1    2    0    0 -0.11000575937E+02 -0.25647701258E+02  0.35359527068E+02  0.46142318684E+02  0.10000008416E+02 0.  0.
         12    1    1    2    0    0  0.11000575937E+02  0.25647701258E+02 -0.35359527068E+02  0.45045681316E+02  0.00000000000E+00 0. -1.
         11    1    3    3    0    0 -0.46602076421E+01 -0.67201228727E+01  0.15693779989E+02  0.17696675318E+02  0.51100000000E-03 0. -1.
        -11    1    3    3    0    0 -0.30984700161E+01 -0.32957397232E+01  0.53131337239E+01  0.69779514897E+01  0.51100000000E-03 0.  1.
        -12    1    3    3    0    0 -0.32418982793E+01 -0.15631838662E+02  0.14352613355E+02  0.21467691877E+02  0.00000000000E+00 0.  1.
</event>
<event>
 7    1  0.2472338E-008  0.4614233E+02  0.7816164E-02  0.1320468E+00
        -11   -1    0    0    0    0  0.00000000000E+00  0.00000000000E+00  0.45593999997E+02  0.45594000000E+02  0.51100000000E-03 0.  1.
         11   -1    0    0    0    0 -0.00000000000E+00 -0.00000000000E+00 -0.45593999997E+02  0.45594000000E+02  0.51100000000E-03 0. -1.
    9900012    2    1    2    0    0  0.29946091516E+02  0.33467337302E+02 -0.35045190864E+01  0.46142326321E+02  0.10000078054E+02 0.  0.
         12    1    1    2    0    0 -0.29946091516E+02 -0.33467337302E+02  0.35045190864E+01  0.45045673679E+02  0.00000000000E+00 0. -1.
         11    1    3    3    0    0  0.18914291478E+02  0.16124170342E+02 -0.83586485970E+00  0.24868412930E+02  0.51100000000E-03 0. -1.
        -11    1    3    3    0    0  0.22820098269E+01  0.16481101583E+01 -0.16785783041E+01  0.32774168682E+01  0.51100000000E-03 0.  1.
         12    1    3    3    0    0  0.87497902111E+01  0.15695056802E+02 -0.99007592258E+00  0.17996496522E+02  0.00000000000E+00 0. -1.
</event>
<event>
 7    1  0.2472338E-008  0.4614231E+02  0.7816164E-02  0.1320468E+00
        -11   -1    0    0    0    0  0.00000000000E+00  0.00000000000E+00  0.45593999997E+02  0.45594000000E+02  0.51100000000E-03 0.  1.
         11   -1    0    0    0    0 -0.00000000000E+00 -0.00000000000E+00 -0.45593999997E+02  0.45594000000E+02  0.51100000000E-03 0. -1.
    9900012    2    1    2    0    0  0.58797542247E+01  0.94210291494E+01  0.43655314025E+02  0.46142314939E+02  0.99999742662E+01 0.  0.
         12    1    1    2    0    0 -0.58797542247E+01 -0.94210291494E+01 -0.43655314025E+02  0.45045685061E+02  0.00000000000E+00 0. -1.
         11    1    3    3    0    0  0.36513419809E+01  0.42704386139E+01  0.15965105315E+02  0.16924938174E+02  0.51100000000E-03 0. -1.
        -11    1    3    3    0    0  0.13603596080E+01 -0.17928822353E+01  0.52667970694E+01  0.57274913011E+01  0.51100000000E-03 0.  1.
         12    1    3    3    0    0  0.86805263587E+00  0.69434727707E+01  0.22423411641E+02  0.23489885464E+02  0.00000000000E+00 0. -1.
</event>
<event>
 7    1  0.2472338E-008  0.4614232E+02  0.7816164E-02  0.1320468E+00
        -11   -1    0    0    0    0  0.00000000000E+00  0.00000000000E+00  0.45593999997E+02  0.45594000000E+02  0.51100000000E-03 0. -1.
         11   -1    0    0    0    0 -0.00000000000E+00 -0.00000000000E+00 -0.45593999997E+02  0.45594000000E+02  0.51100000000E-03 0.  1.
    9900012    2    1    2    0    0  0.42482825661E+02  0.14767542643E+02  0.24985423973E+01  0.46142317566E+02  0.99999982219E+01 0.  0.
         12    1    1    2    0    0 -0.42482825661E+02 -0.14767542643E+02 -0.24985423973E+01  0.45045682434E+02  0.00000000000E+00 0. -1.
         11    1    3    3    0    0  0.28101879826E+02  0.13692485128E+02  0.20918265895E+01  0.31330105928E+02  0.51100000000E-03 0. -1.
        -11    1    3    3    0    0  0.75968675936E+01  0.21421195097E+01 -0.36478441054E+00  0.79015277735E+01  0.51100000000E-03 0.  1.
         12    1    3    3    0    0  0.67840782416E+01 -0.10670619953E+01  0.77150021828E+00  0.69106838647E+01  0.00000000000E+00 0. -1.
</event>
<event>
 7    1  0.2472338E-008  0.4614232E+02  0.7816164E-02  0.1320468E+00
        -11   -1    0    0    0    0  0.00000000000E+00  0.00000000000E+00  0.45593999997E+02  0.45594000000E+02  0.51100000000E-03 0. -1.
         11   -1    0    0    0    0 -0.00000000000E+00 -0.00000000000E+00 -0.45593999997E+02  0.45594000000E+02  0.51100000000E-03 0.  1.
    9900012    2    1    2    0    0 -0.14061245932E+02  0.42602326992E+02 -0.40542072437E+01  0.46142317647E+02  0.99999989550E+01 0.  0.
         12    1    1    2    0    0  0.14061245932E+02 -0.42602326992E+02  0.40542072437E+01  0.45045682353E+02  0.00000000000E+00 0. -1.
         11    1    3    3    0    0 -0.70761774304E+01  0.33701683869E+02 -0.15284173135E+01  0.34470448828E+02  0.51100000000E-03 0.  1.
        -11    1    3    3    0    0 -0.27388495354E+01  0.24830146910E+01 -0.68953355189E+00  0.37606004193E+01  0.51100000000E-03 0. -1.
        -12    1    3    3    0    0 -0.42462189660E+01  0.64176284318E+01 -0.18362563783E+01  0.79112683991E+01  0.00000000000E+00 0.  1.
</event>
<event>
 7    1  0.2472338E-008  0.4614232E+02  0.7816164E-02  0.1320468E+00
        -11   -1    0    0    0    0  0.00000000000E+00  0.00000000000E+00  0.45593999997E+02  0.45594000000E+02  0.51100000000E-03 0.  1.
         11   -1    0    0    0    0 -0.00000000000E+00 -0.00000000000E+00 -0.45593999997E+02  0.45594000000E+02  0.51100000000E-03 0. -1.
    9900012    2    1    2    0    0  0.23270853127E+02  0.32559781649E+01  0.38431490461E+02  0.46142318097E+02  0.10000003064E+02 0.  0.
         12    1    1    2    0    0 -0.23270853127E+02 -0.32559781649E+01 -0.38431490461E+02  0.45045681903E+02  0.00000000000E+00 0. -1.
         11    1    3    3    0    0  0.45276208320E+01  0.36024703250E+01  0.44894166754E+01  0.73233875486E+01  0.51100000000E-03 0. -1.
        -11    1    3    3    0    0  0.46589740541E+01  0.47577381814E+00  0.73282030752E+01  0.86968362371E+01  0.51100000000E-03 0.  1.
         12    1    3    3    0    0  0.14084258241E+02 -0.82226597818E+00  0.26613870710E+02  0.30122094311E+02  0.00000000000E+00 0. -1.
</event>
<event>
 7    1  0.2472338E-008  0.4614232E+02  0.7816164E-02  0.1320468E+00
        -11   -1    0    0    0    0  0.00000000000E+00  0.00000000000E+00  0.45593999997E+02  0.45594000000E+02  0.51100000000E-03 0.  1.
         11   -1    0    0    0    0 -0.00000000000E+00 -0.00000000000E+00 -0.45593999997E+02  0.45594000000E+02  0.51100000000E-03 0. -1.
    9900012    2    1    2    0    0 -0.77164198767E+01  0.35776631603E+02  0.26260295505E+02  0.46142316249E+02  0.99999862130E+01 0.  0.
         12    1    1    2    0    0  0.77164198767E+01 -0.35776631603E+02 -0.26260295505E+02  0.45045683751E+02  0.00000000000E+00 0. -1.
         11    1    3    3    0    0 -0.16054319520E+01  0.59956740922E+01  0.84191126917E+01  0.10459779077E+02  0.51100000000E-03 0. -1.
        -11    1    3    3    0    0 -0.15131274792E+01  0.13484261855E+02  0.10807293122E+02  0.17346828455E+02  0.51100000000E-03 0.  1.
         12    1    3    3    0    0 -0.45978604454E+01  0.16296695656E+02  0.70338896910E+01  0.18335708717E+02  0.00000000000E+00 0. -1.
</event>
<event>
 7    1  0.2472338E-008  0.4614232E+02  0.7816164E-02  0.1320468E+00
        -11   -1    0    0    0    0  0.00000000000E+00  0.00000000000E+00  0.45593999997E+02  0.45594000000E+02  0.51100000000E-03 0.  1.
         11   -1    0    0    0    0 -0.00000000000E+00 -0.00000000000E+00 -0.45593999997E+02  0.45594000000E+02  0.51100000000E-03 0. -1.
    9900012    2    1    2    0    0 -0.65410875913E+01  0.43141886303E+02  0.11185051698E+02  0.46142316942E+02  0.99999925301E+01 0.  0.
         12    1    1    2    0    0  0.65410875913E+01 -0.43141886303E+02 -0.11185051698E+02  0.45045683058E+02  0.00000000000E+00 0. -1.
         11    1    3    3    0    0 -0.29210250446E+01  0.71833710561E+01  0.44009047702E+01  0.89163428657E+01  0.51100000000E-03 0. -1.
        -11    1    3    3    0    0  0.39995650536E+00 -0.17007312100E-01  0.12291112724E+00  0.41876229674E+00  0.51100000000E-03 0.  1.
        -12    1    3    3    0    0 -0.40200190520E+01  0.35975522559E+02  0.66612358004E+01  0.36807211780E+02  0.00000000000E+00 0.  1.
</event>
<event>
 7    1  0.2472338E-008  0.4614232E+02  0.7816164E-02  0.1320468E+00
        -11   -1    0    0    0    0  0.00000000000E+00  0.00000000000E+00  0.45593999997E+02  0.45594000000E+02  0.51100000000E-03 0.  1.
         11   -1    0    0    0    0 -0.00000000000E+00 -0.00000000000E+00 -0.45593999997E+02  0.45594000000E+02  0.51100000000E-03 0. -1.
    9900012    2    1    2    0    0 -0.24278238222E+02 -0.26938789491E+02  0.26720448787E+02  0.46142316369E+02  0.99999873051E+01 0.  0.
         12    1    1    2    0    0  0.24278238222E+02  0.26938789491E+02 -0.26720448787E+02  0.45045683631E+02  0.00000000000E+00 0. -1.
         11    1    3    3    0    0 -0.25513178742E+01 -0.55780340402E+01  0.47776010514E+01  0.77749057046E+01  0.51100000000E-03 0. -1.
        -11    1    3    3    0    0 -0.56728863392E+01 -0.10617373392E+02  0.68267777565E+01  0.13838899955E+02  0.51100000000E-03 0.  1.
        -12    1    3    3    0    0 -0.16054034009E+02 -0.10743382059E+02  0.15116069979E+02  0.24528510710E+02  0.00000000000E+00 0.  1.
</event>
<event>
 7    1  0.2472338E-008  0.4614232E+02  0.7816164E-02  0.1320468E+00
        -11   -1    0    0    0    0  0.00000000000E+00  0.00000000000E+00  0.45593999997E+02  0.45594000000E+02  0.51100000000E-03 0.  1.
         11   -1    0    0    0    0 -0.00000000000E+00 -0.00000000000E+00 -0.45593999997E+02  0.45594000000E+02  0.51100000000E-03 0. -1.
    9900012    2    1    2    0    0 -0.82302606532E+01  0.12071976521E+02  0.42610370930E+02  0.46142317428E+02  0.99999969629E+01 0.  0.
         12    1    1    2    0    0  0.82302606532E+01 -0.12071976521E+02 -0.42610370930E+02  0.45045682572E+02  0.00000000000E+00 0. -1.
         11    1    3    3    0    0 -0.32851774560E+00  0.88242838656E+00  0.17500325052E+01  0.19872638972E+01  0.51100000000E-03 0. -1.
        -11    1    3    3    0    0 -0.31858837850E+01  0.73055159480E+01  0.10478744701E+02  0.13165276659E+02  0.51100000000E-03 0.  1.
         12    1    3    3    0    0 -0.47158591226E+01  0.38840321862E+01  0.30381593725E+02  0.30989776871E+02  0.00000000000E+00 0. -1.
</event>
<event>
 7    1  0.2472338E-008  0.4614232E+02  0.7816164E-02  0.1320468E+00
        -11   -1    0    0    0    0  0.00000000000E+00  0.00000000000E+00  0.45593999997E+02  0.45594000000E+02  0.51100000000E-03 0.  1.
         11   -1    0    0    0    0 -0.00000000000E+00 -0.00000000000E+00 -0.45593999997E+02  0.45594000000E+02  0.51100000000E-03 0. -1.
    9900012    2    1    2    0    0  0.30686912386E+01  0.39328047291E+02  0.21748592793E+02  0.46142318097E+02  0.10000003061E+02 0.  0.
         12    1    1    2    0    0 -0.30686912386E+01 -0.39328047291E+02 -0.21748592793E+02  0.45045681903E+02  0.00000000000E+00 0. -1.
         11    1    3    3    0    0 -0.21151240035E+01  0.52290836858E+01  0.37128203701E+01  0.67529327781E+01  0.51100000000E-03 0.  1.
        -11    1    3    3    0    0  0.20240592880E+01  0.56421175118E+01  0.10121895592E+01  0.60790487729E+01  0.51100000000E-03 0. -1.
        -12    1    3    3    0    0  0.31597559541E+01  0.28456846094E+02  0.17023582863E+02  0.33310336546E+02  0.00000000000E+00 0.  1.
</event>
<event>
 7    1  0.2472338E-008  0.4614232E+02  0.7816164E-02  0.1320468E+00
        -11   -1    0    0    0    0  0.00000000000E+00  0.00000000000E+00  0.45593999997E+02  0.45594000000E+02  0.51100000000E-03 0.  1.
         11   -1    0    0    0    0 -0.00000000000E+00 -0.00000000000E+00 -0.45593999997E+02  0.45594000000E+02  0.51100000000E-03 0. -1.
    9900012    2    1    2    0    0  0.59513263005E+01 -0.44352569168E+02  0.51521806572E+01  0.46142316055E+02  0.99999844393E+01 0.  0.
         12    1    1    2    0    0 -0.59513263005E+01  0.44352569168E+02 -0.51521806572E+01  0.45045683945E+02  0.00000000000E+00 0. -1.
         11    1    3    3    0    0  0.22096549864E+01 -0.25131654902E+01  0.63530332210E+00  0.34061982491E+01  0.51100000000E-03 0. -1.
        -11    1    3    3    0    0 -0.16864539810E+01 -0.96143416098E+01  0.19703949948E+01  0.99580192969E+01  0.51100000000E-03 0.  1.
         12    1    3    3    0    0  0.54281252951E+01 -0.32225062068E+02  0.25464823403E+01  0.32778098509E+02  0.00000000000E+00 0. -1.
</event>
<event>
 7    1  0.2472338E-008  0.4614232E+02  0.7816164E-02  0.1320468E+00
        -11   -1    0    0    0    0  0.00000000000E+00  0.00000000000E+00  0.45593999997E+02  0.45594000000E+02  0.51100000000E-03 0.  1.
         11   -1    0    0    0    0 -0.00000000000E+00 -0.00000000000E+00 -0.45593999997E+02  0.45594000000E+02  0.51100000000E-03 0. -1.
    9900012    2    1    2    0    0 -0.41960954415E+02  0.14391507948E+02 -0.78279178943E+01  0.46142317688E+02  0.99999993295E+01 0.  0.
         12    1    1    2    0    0  0.41960954415E+02 -0.14391507948E+02  0.78279178943E+01  0.45045682312E+02  0.00000000000E+00 0. -1.
         11    1    3    3    0    0 -0.23862500222E+01  0.28343348091E+01 -0.23701926850E+01  0.43983470309E+01  0.51100000000E-03 0. -1.
        -11    1    3    3    0    0 -0.21973340072E+02  0.73883508027E+01 -0.46076679103E+01  0.23635693460E+02  0.51100000000E-03 0.  1.
         12    1    3    3    0    0 -0.17601364321E+02  0.41688223365E+01 -0.85005729897E+00  0.18108277197E+02  0.00000000000E+00 0. -1.
</event>
<event>
 7    1  0.2472338E-008  0.4614232E+02  0.7816164E-02  0.1320468E+00
        -11   -1    0    0    0    0  0.00000000000E+00  0.00000000000E+00  0.45593999997E+02  0.45594000000E+02  0.51100000000E-03 0.  1.
         11   -1    0    0    0    0 -0.00000000000E+00 -0.00000000000E+00 -0.45593999997E+02  0.45594000000E+02  0.51100000000E-03 0. -1.
    9900012    2    1    2    0    0 -0.30927000359E+02  0.26500528013E+02 -0.19244640108E+02  0.46142317531E+02  0.99999979010E+01 0.  0.
         12    1    1    2    0    0  0.30927000359E+02 -0.26500528013E+02  0.19244640108E+02  0.45045682469E+02  0.00000000000E+00 0. -1.
         11    1    3    3    0    0 -0.16277513401E+02  0.13733954922E+02 -0.13069193258E+02  0.24987652410E+02  0.51100000000E-03 0. -1.
        -11    1    3    3    0    0 -0.48882184544E+01  0.77106053085E+01 -0.39054146116E+01  0.99297722749E+01  0.51100000000E-03 0.  1.
         12    1    3    3    0    0 -0.97612685045E+01  0.50559677828E+01 -0.22700322391E+01  0.11224892846E+02  0.00000000000E+00 0. -1.
</event>
<event>
 7    1  0.2472338E-008  0.4614232E+02  0.7816164E-02  0.1320468E+00
        -11   -1    0    0    0    0  0.00000000000E+00  0.00000000000E+00  0.45593999997E+02  0.45594000000E+02  0.51100000000E-03 0.  1.
         11   -1    0    0    0    0 -0.00000000000E+00 -0.00000000000E+00 -0.45593999997E+02  0.45594000000E+02  0.51100000000E-03 0. -1.
    9900012    2    1    2    0    0  0.90216662462E-01  0.24756848158E+02  0.37632482826E+02  0.46142318371E+02  0.10000005561E+02 0.  0.
         12    1    1    2    0    0 -0.90216662462E-01 -0.24756848158E+02 -0.37632482826E+02  0.45045681629E+02  0.00000000000E+00 0. -1.
         11    1    3    3    0    0  0.17469237857E+01  0.88278551033E+01  0.94602879137E+01  0.13056791953E+02  0.51100000000E-03 0. -1.
        -11    1    3    3    0    0  0.12004881840E+01  0.12919387241E+02  0.18878518648E+02  0.22907426856E+02  0.51100000000E-03 0.  1.
         12    1    3    3    0    0 -0.28571953071E+01  0.30096058135E+01  0.92936762649E+01  0.10178099562E+02  0.00000000000E+00 0. -1.
</event>
<event>
 7    1  0.2472338E-008  0.4614232E+02  0.7816164E-02  0.1320468E+00
        -11   -1    0    0    0    0  0.00000000000E+00  0.00000000000E+00  0.45593999997E+02  0.45594000000E+02  0.51100000000E-03 0.  1.
         11   -1    0    0    0    0 -0.00000000000E+00 -0.00000000000E+00 -0.45593999997E+02  0.45594000000E+02  0.51100000000E-03 0. -1.
    9900012    2    1    2    0    0 -0.20101056830E+02 -0.24744214765E+02  0.31824281132E+02  0.46142317415E+02  0.99999968412E+01 0.  0.
         12    1    1    2    0    0  0.20101056830E+02  0.24744214765E+02 -0.31824281132E+02  0.45045682585E+02  0.00000000000E+00 0. -1.
         11    1    3    3    0    0 -0.21046898050E+01  0.55736931468E+00  0.21847863063E+01  0.30844239646E+01  0.51100000000E-03 0. -1.
        -11    1    3    3    0    0 -0.97249055074E+00 -0.13005425824E+01  0.27665770942E+01  0.32079741207E+01  0.51100000000E-03 0.  1.
        -12    1    3    3    0    0 -0.17023876474E+02 -0.24001041497E+02  0.26872917732E+02  0.39849919329E+02  0.00000000000E+00 0.  1.
</event>
<event>
 7    1  0.2472338E-008  0.4614232E+02  0.7816164E-02  0.1320468E+00
        -11   -1    0    0    0    0  0.00000000000E+00  0.00000000000E+00  0.45593999997E+02  0.45594000000E+02  0.51100000000E-03 0.  1.
         11   -1    0    0    0    0 -0.00000000000E+00 -0.00000000000E+00 -0.45593999997E+02  0.45594000000E+02  0.51100000000E-03 0. -1.
    9900012    2    1    2    0    0  0.44176010619E+02  0.27688610829E+01  0.83622281322E+01  0.46142319128E+02  0.10000012466E+02 0.  0.
         12    1    1    2    0    0 -0.44176010619E+02 -0.27688610829E+01 -0.83622281322E+01  0.45045680872E+02  0.00000000000E+00 0. -1.
         11    1    3    3    0    0  0.92605827356E+01  0.28938044911E+01  0.31303304047E+01  0.10194678305E+02  0.51100000000E-03 0. -1.
        -11    1    3    3    0    0  0.24485283729E+02  0.21844021097E+01  0.57726459124E+01  0.25251221217E+02  0.51100000000E-03 0.  1.
         12    1    3    3    0    0  0.10430144154E+02 -0.23093455179E+01 -0.54074818490E+00  0.10696419607E+02  0.00000000000E+00 0. -1.
</event>
<event>
 7    1  0.2472338E-008  0.4614232E+02  0.7816164E-02  0.1320468E+00
        -11   -1    0    0    0    0  0.00000000000E+00  0.00000000000E+00  0.45593999997E+02  0.45594000000E+02  0.51100000000E-03 0.  1.
         11   -1    0    0    0    0 -0.00000000000E+00 -0.00000000000E+00 -0.45593999997E+02  0.45594000000E+02  0.51100000000E-03 0. -1.
    9900012    2    1    2    0    0  0.26015365190E+01  0.23903173894E+02  0.38091779881E+02  0.46142318642E+02  0.10000008034E+02 0.  0.
         12    1    1    2    0    0 -0.26015365190E+01 -0.23903173894E+02 -0.38091779881E+02  0.45045681358E+02  0.00000000000E+00 0. -1.
         11    1    3    3    0    0  0.71563959820E+00  0.23068254032E+01  0.83849754861E+00  0.25566896323E+01  0.51100000000E-03 0. -1.
        -11    1    3    3    0    0  0.38461505104E+01  0.18816744621E+02  0.31003687466E+02  0.36470417994E+02  0.51100000000E-03 0.  1.
        -12    1    3    3    0    0 -0.19602535895E+01  0.27796038700E+01  0.62495948664E+01  0.71152110161E+01  0.00000000000E+00 0.  1.
</event>
<event>
 7    1  0.2472338E-008  0.4614232E+02  0.7816164E-02  0.1320468E+00
        -11   -1    0    0    0    0  0.00000000000E+00  0.00000000000E+00  0.45593999997E+02  0.45594000000E+02  0.51100000000E-03 0.  1.
         11   -1    0    0    0    0 -0.00000000000E+00 -0.00000000000E+00 -0.45593999997E+02  0.45594000000E+02  0.51100000000E-03 0. -1.
    9900012    2    1    2    0    0 -0.53858717958E+01  0.41407590784E+02  0.16897252771E+02  0.46142319400E+02  0.10000014941E+02 0.  0.
         12    1    1    2    0    0  0.53858717958E+01 -0.41407590784E+02 -0.16897252771E+02  0.45045680600E+02  0.00000000000E+00 0. -1.
         11    1    3    3    0    0 -0.18374061051E+01  0.54744481156E+01  0.46242286293E+01  0.73979141683E+01  0.51100000000E-03 0. -1.
        -11    1    3    3    0    0 -0.96184966401E+00  0.17299023346E+02  0.23783671888E+01  0.17488224445E+02  0.51100000000E-03 0.  1.
        -12    1    3    3    0    0 -0.25866160267E+01  0.18634119323E+02  0.98946569525E+01  0.21256180786E+02  0.00000000000E+00 0.  1.
</event>
<event>
 7    1  0.2472338E-008  0.4614232E+02  0.7816164E-02  0.1320468E+00
        -11   -1    0    0    0    0  0.00000000000E+00  0.00000000000E+00  0.45593999997E+02  0.45594000000E+02  0.51100000000E-03 0.  1.
         11   -1    0    0    0    0 -0.00000000000E+00 -0.00000000000E+00 -0.45593999997E+02  0.45594000000E+02  0.51100000000E-03 0. -1.
    9900012    2    1    2    0    0  0.40062320409E+02  0.55959079933E+01  0.19819429636E+02  0.46142317700E+02  0.99999994407E+01 0.  0.
         12    1    1    2    0    0 -0.40062320409E+02 -0.55959079933E+01 -0.19819429636E+02  0.45045682300E+02  0.00000000000E+00 0. -1.
         11    1    3    3    0    0  0.89819177674E+01  0.37939640378E-01  0.85687827326E+01  0.12413715156E+02  0.51100000000E-03 0. -1.
        -11    1    3    3    0    0  0.15020517576E+02  0.18533322762E+01  0.71826959478E+01  0.16752370283E+02  0.51100000000E-03 0.  1.
         12    1    3    3    0    0  0.16059885066E+02  0.37046360767E+01  0.40679509553E+01  0.16976232260E+02  0.00000000000E+00 0. -1.
</event>
<event>
 7    1  0.2472338E-008  0.4614232E+02  0.7816164E-02  0.1320468E+00
        -11   -1    0    0    0    0  0.00000000000E+00  0.00000000000E+00  0.45593999997E+02  0.45594000000E+02  0.51100000000E-03 0.  1.
         11   -1    0    0    0    0 -0.00000000000E+00 -0.00000000000E+00 -0.45593999997E+02  0.45594000000E+02  0.51100000000E-03 0. -1.
    9900012    2    1    2    0    0  0.75341283074E+01 -0.13578287672E+02  0.42284517111E+02  0.46142319045E+02  0.10000011706E+02 0.  0.
         12    1    1    2    0    0 -0.75341283074E+01  0.13578287672E+02 -0.42284517111E+02  0.45045680955E+02  0.00000000000E+00 0. -1.
         11    1    3    3    0    0  0.24616676812E+01 -0.11918986422E+02  0.25518365103E+02  0.28272053390E+02  0.51100000000E-03 0.  1.
        -11    1    3    3    0    0  0.16622677018E+01 -0.10361231564E+01  0.10748267587E+02  0.10925289081E+02  0.51100000000E-03 0. -1.
         12    1    3    3    0    0  0.34101929243E+01 -0.62317809295E+00  0.60178844199E+01  0.69449765736E+01  0.00000000000E+00 0. -1.
</event>
<event>
 7    1  0.2472338E-008  0.4614232E+02  0.7816164E-02  0.1320468E+00
        -11   -1    0    0    0    0  0.00000000000E+00  0.00000000000E+00  0.45593999997E+02  0.45594000000E+02  0.51100000000E-03 0.  1.
         11   -1    0    0    0    0 -0.00000000000E+00 -0.00000000000E+00 -0.45593999997E+02  0.45594000000E+02  0.51100000000E-03 0. -1.
    9900012    2    1    2    0    0  0.36268418985E+02 -0.16052076211E+02 -0.21355238709E+02  0.46142316670E+02  0.99999900507E+01 0.  0.
         12    1    1    2    0    0 -0.36268418985E+02  0.16052076211E+02  0.21355238709E+02  0.45045683330E+02  0.00000000000E+00 0. -1.
         11    1    3    3    0    0  0.80246535410E+01 -0.67233600579E+00 -0.20255021824E+01  0.83035991901E+01  0.51100000000E-03 0. -1.
        -11    1    3    3    0    0  0.15828676285E+02 -0.99159466825E+01 -0.86963083077E+01  0.20603367929E+02  0.51100000000E-03 0.  1.
        -12    1    3    3    0    0  0.12415089159E+02 -0.54637935224E+01 -0.10633428219E+02  0.17235349551E+02  0.00000000000E+00 0.  1.
</event>
<event>
 7    1  0.2472338E-008  0.4614232E+02  0.7816164E-02  0.1320468E+00
        -11   -1    0    0    0    0  0.00000000000E+00  0.00000000000E+00  0.45593999997E+02  0.45594000000E+02  0.51100000000E-03 0.  1.
         11   -1    0    0    0    0 -0.00000000000E+00 -0.00000000000E+00 -0.45593999997E+02  0.45594000000E+02  0.51100000000E-03 0. -1.
    9900012    2    1    2    0    0  0.13869564140E+02  0.80483571581E+01  0.42094804882E+02  0.46142318071E+02  0.10000002828E+02 0.  0.
         12    1    1    2    0    0 -0.13869564140E+02 -0.80483571581E+01 -0.42094804882E+02  0.45045681929E+02  0.00000000000E+00 0. -1.
         11    1    3    3    0    0  0.11708857542E+01  0.38835241500E+01  0.59873208238E+01  0.72319253440E+01  0.51100000000E-03 0. -1.
        -11    1    3    3    0    0  0.70567402476E+01  0.48886180046E+01  0.18237496093E+02  0.20156945029E+02  0.51100000000E-03 0.  1.
         12    1    3    3    0    0  0.56419381385E+01 -0.72378499657E+00  0.17869987965E+02  0.18753447698E+02  0.00000000000E+00 0. -1.
</event>
<event>
 7    1  0.2472338E-008  0.4614232E+02  0.7816164E-02  0.1320468E+00
        -11   -1    0    0    0    0  0.00000000000E+00  0.00000000000E+00  0.45593999997E+02  0.45594000000E+02  0.51100000000E-03 0. -1.
         11   -1    0    0    0    0 -0.00000000000E+00 -0.00000000000E+00 -0.45593999997E+02  0.45594000000E+02  0.51100000000E-03 0.  1.
    9900012    2    1    2    0    0  0.39577438173E+02 -0.32385422435E+01 -0.21266206230E+02  0.46142319900E+02  0.10000019506E+02 0.  0.
         12    1    1    2    0    0 -0.39577438173E+02  0.32385422435E+01  0.21266206230E+02  0.45045680100E+02  0.00000000000E+00 0. -1.
         11    1    3    3    0    0  0.13078093404E+02 -0.51846262042E+01 -0.50443684996E+01  0.14945317988E+02  0.51100000000E-03 0.  1.
        -11    1    3    3    0    0  0.10296127382E+02  0.15833019848E+01 -0.69875172012E+01  0.12543623127E+02  0.51100000000E-03 0. -1.
        -12    1    3    3    0    0  0.16203217387E+02  0.36278197585E+00 -0.92343205294E+01  0.18653378785E+02  0.00000000000E+00 0.  1.
</event>
<event>
 7    1  0.2472338E-008  0.4614232E+02  0.7816164E-02  0.1320468E+00
        -11   -1    0    0    0    0  0.00000000000E+00  0.00000000000E+00  0.45593999997E+02  0.45594000000E+02  0.51100000000E-03 0.  1.
         11   -1    0    0    0    0 -0.00000000000E+00 -0.00000000000E+00 -0.45593999997E+02  0.45594000000E+02  0.51100000000E-03 0. -1.
    9900012    2    1    2    0    0 -0.73298317764E+01  0.35678726790E+02  0.26503122195E+02  0.46142318017E+02  0.10000002333E+02 0.  0.
         12    1    1    2    0    0  0.73298317764E+01 -0.35678726790E+02 -0.26503122195E+02  0.45045681983E+02  0.00000000000E+00 0. -1.
         11    1    3    3    0    0 -0.69272222289E+01  0.11361984495E+02  0.94005898049E+01  0.16292703533E+02  0.51100000000E-03 0. -1.
        -11    1    3    3    0    0 -0.15850991931E+00  0.94736714504E-01  0.35636113182E+00  0.40136511680E+00  0.51100000000E-03 0.  1.
        -12    1    3    3    0    0 -0.24409962826E+00  0.24222005581E+02  0.16746171258E+02  0.29448249367E+02  0.00000000000E+00 0.  1.
</event>
<event>
 7    1  0.2472338E-008  0.4614232E+02  0.7816164E-02  0.1320468E+00
        -11   -1    0    0    0    0  0.00000000000E+00  0.00000000000E+00  0.45593999997E+02  0.45594000000E+02  0.51100000000E-03 0.  1.
         11   -1    0    0    0    0 -0.00000000000E+00 -0.00000000000E+00 -0.45593999997E+02  0.45594000000E+02  0.51100000000E-03 0. -1.
    9900012    2    1    2    0    0 -0.73003621065E+00  0.43571602183E+02 -0.11405963000E+02  0.46142318058E+02  0.10000002704E+02 0.  0.
         12    1    1    2    0    0  0.73003621065E+00 -0.43571602183E+02  0.11405963000E+02  0.45045681942E+02  0.00000000000E+00 0. -1.
         11    1    3    3    0    0  0.17510388259E+01  0.31137719098E+02 -0.11825100167E+02  0.33353510787E+02  0.51100000000E-03 0. -1.
        -11    1    3    3    0    0 -0.85115196116E+00  0.76895304293E+01 -0.16597343620E+00  0.77382740535E+01  0.51100000000E-03 0.  1.
         12    1    3    3    0    0 -0.16299230754E+01  0.47443526559E+01  0.58511060393E+00  0.50505332168E+01  0.00000000000E+00 0. -1.
</event>
<event>
 7    1  0.2472338E-008  0.4614232E+02  0.7816164E-02  0.1320468E+00
        -11   -1    0    0    0    0  0.00000000000E+00  0.00000000000E+00  0.45593999997E+02  0.45594000000E+02  0.51100000000E-03 0.  1.
         11   -1    0    0    0    0 -0.00000000000E+00 -0.00000000000E+00 -0.45593999997E+02  0.45594000000E+02  0.51100000000E-03 0. -1.
    9900012    2    1    2    0    0  0.34017711627E+02 -0.14769343654E+02  0.25569029340E+02  0.46142317879E+02  0.10000001073E+02 0.  0.
         12    1    1    2    0    0 -0.34017711627E+02  0.14769343654E+02 -0.25569029340E+02  0.45045682121E+02  0.00000000000E+00 0. -1.
         11    1    3    3    0    0  0.84572386420E+01 -0.71893069325E+01  0.10524205326E+02  0.15296075236E+02  0.51100000000E-03 0. -1.
        -11    1    3    3    0    0  0.21047369330E+02 -0.76973491784E+01  0.12696947501E+02  0.25757589488E+02  0.51100000000E-03 0.  1.
         12    1    3    3    0    0  0.45131036550E+01  0.11731245659E+00  0.23478765137E+01  0.50886531555E+01  0.00000000000E+00 0. -1.
</event>
<event>
 7    1  0.2472338E-008  0.4614232E+02  0.7816164E-02  0.1320468E+00
        -11   -1    0    0    0    0  0.00000000000E+00  0.00000000000E+00  0.45593999997E+02  0.45594000000E+02  0.51100000000E-03 0.  1.
         11   -1    0    0    0    0 -0.00000000000E+00 -0.00000000000E+00 -0.45593999997E+02  0.45594000000E+02  0.51100000000E-03 0. -1.
    9900012    2    1    2    0    0 -0.42117676649E+01  0.36618018097E+02  0.25893923422E+02  0.46142317561E+02  0.99999981736E+01 0.  0.
         12    1    1    2    0    0  0.42117676649E+01 -0.36618018097E+02 -0.25893923422E+02  0.45045682439E+02  0.00000000000E+00 0. -1.
         11    1    3    3    0    0  0.10904381028E+01  0.22581516565E+02  0.14157928082E+02  0.26675098378E+02  0.51100000000E-03 0. -1.
        -11    1    3    3    0    0 -0.16534081724E+01  0.77595071144E+01  0.81336018094E+01  0.11362182356E+02  0.51100000000E-03 0.  1.
         12    1    3    3    0    0 -0.36487975953E+01  0.62769944182E+01  0.36023935302E+01  0.81050368268E+01  0.00000000000E+00 0. -1.
</event>
<event>
 7    1  0.2472338E-008  0.4614232E+02  0.7816164E-02  0.1320468E+00
        -11   -1    0    0    0    0  0.00000000000E+00  0.00000000000E+00  0.45593999997E+02  0.45594000000E+02  0.51100000000E-03 0. -1.
         11   -1    0    0    0    0 -0.00000000000E+00 -0.00000000000E+00 -0.45593999997E+02  0.45594000000E+02  0.51100000000E-03 0.  1.
    9900012    2    1    2    0    0 -0.47109138864E+01 -0.10046665421E+02 -0.43657591883E+02  0.46142317357E+02  0.99999963181E+01 0.  0.
         12    1    1    2    0    0  0.47109138864E+01  0.10046665421E+02  0.43657591883E+02  0.45045682643E+02  0.00000000000E+00 0. -1.
         11    1    3    3    0    0  0.79347163858E+00 -0.59277632001E+00 -0.47683318874E+00  0.10992502708E+01  0.51100000000E-03 0. -1.
        -11    1    3    3    0    0 -0.15877430395E+01  0.94023455288E-01 -0.18329404276E+01  0.24268166890E+01  0.51100000000E-03 0.  1.
        -12    1    3    3    0    0 -0.39166424855E+01 -0.95479125566E+01 -0.41347818267E+02  0.42616250398E+02  0.00000000000E+00 0.  1.
</event>
<event>
 7    1  0.2472338E-008  0.4614232E+02  0.7816164E-02  0.1320468E+00
        -11   -1    0    0    0    0  0.00000000000E+00  0.00000000000E+00  0.45593999997E+02  0.45594000000E+02  0.51100000000E-03 0.  1.
         11   -1    0    0    0    0 -0.00000000000E+00 -0.00000000000E+00 -0.45593999997E+02  0.45594000000E+02  0.51100000000E-03 0. -1.
    9900012    2    1    2    0    0 -0.32198074486E+02 -0.25365276335E+02 -0.18681552268E+02  0.46142316086E+02  0.99999847217E+01 0.  0.
         12    1    1    2    0    0  0.32198074486E+02  0.25365276335E+02  0.18681552268E+02  0.45045683914E+02  0.00000000000E+00 0. -1.
         11    1    3    3    0    0 -0.51396136391E+01 -0.18061776745E+01 -0.10935696453E+01  0.55564197989E+01  0.51100000000E-03 0. -1.
        -11    1    3    3    0    0 -0.25523676378E+02 -0.23378613230E+02 -0.15343377936E+02  0.37860756188E+02  0.51100000000E-03 0.  1.
        -12    1    3    3    0    0 -0.15347844695E+01 -0.18048543054E+00 -0.22446046866E+01  0.27251400987E+01  0.00000000000E+00 0.  1.
</event>
<event>
 7    1  0.2472338E-008  0.4614232E+02  0.7816164E-02  0.1320468E+00
        -11   -1    0    0    0    0  0.00000000000E+00  0.00000000000E+00  0.45593999997E+02  0.45594000000E+02  0.51100000000E-03 0.  1.
         11   -1    0    0    0    0 -0.00000000000E+00 -0.00000000000E+00 -0.45593999997E+02  0.45594000000E+02  0.51100000000E-03 0. -1.
    9900012    2    1    2    0    0  0.41972767653E+02  0.15444164323E+02  0.53738196450E+01  0.46142319034E+02  0.10000011606E+02 0.  0.
         12    1    1    2    0    0 -0.41972767653E+02 -0.15444164323E+02 -0.53738196450E+01  0.45045680966E+02  0.00000000000E+00 0. -1.
         11    1    3    3    0    0 -0.36089433651E+00 -0.25301914613E+00  0.77572322006E-01  0.44752780550E+00  0.51100000000E-03 0. -1.
        -11    1    3    3    0    0  0.15741158719E+02  0.54027771185E+01  0.41700442768E+01  0.17157020369E+02  0.51100000000E-03 0.  1.
         12    1    3    3    0    0  0.26592503271E+02  0.10294406351E+02  0.11262030463E+01  0.28537770859E+02  0.00000000000E+00 0. -1.
</event>
<event>
 7    1  0.2472338E-008  0.4614232E+02  0.7816164E-02  0.1320468E+00
        -11   -1    0    0    0    0  0.00000000000E+00  0.00000000000E+00  0.45593999997E+02  0.45594000000E+02  0.51100000000E-03 0.  1.
         11   -1    0    0    0    0 -0.00000000000E+00 -0.00000000000E+00 -0.45593999997E+02  0.45594000000E+02  0.51100000000E-03 0. -1.
    9900012    2    1    2    0    0  0.62307693696E+00 -0.44105181081E+02  0.91355514014E+01  0.46142317382E+02  0.99999965469E+01 0.  0.
         12    1    1    2    0    0 -0.62307693696E+00  0.44105181081E+02 -0.91355514014E+01  0.45045682618E+02  0.00000000000E+00 0. -1.
         11    1    3    3    0    0  0.23382366880E+01 -0.10194677883E+02  0.42254692795E+01  0.11280664823E+02  0.51100000000E-03 0. -1.
        -11    1    3    3    0    0  0.12450487601E+01 -0.26570581452E+02  0.38043786410E+01  0.26870415744E+02  0.51100000000E-03 0.  1.
         12    1    3    3    0    0 -0.29602085111E+01 -0.73399217458E+01  0.11057034809E+01  0.79912368162E+01  0.00000000000E+00 0. -1.
</event>
<event>
 7    1  0.2472338E-008  0.4614232E+02  0.7816164E-02  0.1320468E+00
        -11   -1    0    0    0    0  0.00000000000E+00  0.00000000000E+00  0.45593999997E+02  0.45594000000E+02  0.51100000000E-03 0.  1.
         11   -1    0    0    0    0 -0.00000000000E+00 -0.00000000000E+00 -0.45593999997E+02  0.45594000000E+02  0.51100000000E-03 0. -1.
    9900012    2    1    2    0    0  0.17437335692E+02 -0.75038484512E+01  0.40850276952E+02  0.46142317136E+02  0.99999943028E+01 0.  0.
         12    1    1    2    0    0 -0.17437335692E+02  0.75038484512E+01 -0.40850276952E+02  0.45045682864E+02  0.00000000000E+00 0. -1.
         11    1    3    3    0    0 -0.11194531404E+00  0.53645843359E+00 -0.19017174071E+00  0.58007323365E+00  0.51100000000E-03 0. -1.
        -11    1    3    3    0    0  0.29908476744E+01 -0.23537287781E+01  0.11914971021E+02  0.12508067144E+02  0.51100000000E-03 0.  1.
        -12    1    3    3    0    0  0.14558433332E+02 -0.56865781067E+01  0.29125477671E+02  0.33054176759E+02  0.00000000000E+00 0.  1.
</event>
<event>
 7    1  0.2472338E-008  0.4614232E+02  0.7816164E-02  0.1320468E+00
        -11   -1    0    0    0    0  0.00000000000E+00  0.00000000000E+00  0.45593999997E+02  0.45594000000E+02  0.51100000000E-03 0.  1.
         11   -1    0    0    0    0 -0.00000000000E+00 -0.00000000000E+00 -0.45593999997E+02  0.45594000000E+02  0.51100000000E-03 0. -1.
    9900012    2    1    2    0    0  0.26592844123E+02  0.27805981427E+02  0.23425660211E+02  0.46142317432E+02  0.99999970001E+01 0.  0.
         12    1    1    2    0    0 -0.26592844123E+02 -0.27805981427E+02 -0.23425660211E+02  0.45045682568E+02  0.00000000000E+00 0. -1.
         11    1    3    3    0    0  0.21246288223E+01  0.18375488427E+01 -0.27389766459E+00  0.28223489461E+01  0.51100000000E-03 0. -1.
        -11    1    3    3    0    0 -0.15028413756E+00  0.11288802077E+01  0.15499704724E+01  0.19233732274E+01  0.51100000000E-03 0.  1.
        -12    1    3    3    0    0  0.24618499439E+02  0.24839552376E+02  0.22149587403E+02  0.41396595259E+02  0.00000000000E+00 0.  1.
</event>
<event>
 7    1  0.2472338E-008  0.4614232E+02  0.7816164E-02  0.1320468E+00
        -11   -1    0    0    0    0  0.00000000000E+00  0.00000000000E+00  0.45593999997E+02  0.45594000000E+02  0.51100000000E-03 0. -1.
         11   -1    0    0    0    0 -0.00000000000E+00 -0.00000000000E+00 -0.45593999997E+02  0.45594000000E+02  0.51100000000E-03 0.  1.
    9900012    2    1    2    0    0  0.23663440188E+01  0.32367510650E+02 -0.31238729196E+02  0.46142317283E+02  0.99999956372E+01 0.  0.
         12    1    1    2    0    0 -0.23663440188E+01 -0.32367510650E+02  0.31238729196E+02  0.45045682717E+02  0.00000000000E+00 0. -1.
         11    1    3    3    0    0 -0.10981835661E+00  0.28240229544E+01 -0.42659131983E+01  0.51171458250E+01  0.51100000000E-03 0. -1.
        -11    1    3    3    0    0 -0.26040726938E+01  0.69239545500E+01 -0.40983242274E+01  0.84568672060E+01  0.51100000000E-03 0.  1.
        -12    1    3    3    0    0  0.50802350691E+01  0.22619533146E+02 -0.22874491770E+02  0.32568304252E+02  0.00000000000E+00 0.  1.
</event>
<event>
 7    1  0.2472338E-008  0.4614232E+02  0.7816164E-02  0.1320468E+00
        -11   -1    0    0    0    0  0.00000000000E+00  0.00000000000E+00  0.45593999997E+02  0.45594000000E+02  0.51100000000E-03 0.  1.
         11   -1    0    0    0    0 -0.00000000000E+00 -0.00000000000E+00 -0.45593999997E+02  0.45594000000E+02  0.51100000000E-03 0. -1.
    9900012    2    1    2    0    0 -0.83530989200E+01  0.40877372704E+02  0.16981737007E+02  0.46142320378E+02  0.10000023867E+02 0.  0.
         12    1    1    2    0    0  0.83530989200E+01 -0.40877372704E+02 -0.16981737007E+02  0.45045679622E+02  0.00000000000E+00 0. -1.
         11    1    3    3    0    0 -0.15452809636E+01  0.37102391040E+01  0.11491856999E+01  0.41802386893E+01  0.51100000000E-03 0. -1.
        -11    1    3    3    0    0 -0.67399715715E+01  0.29595061302E+02  0.16152189525E+02  0.34382962306E+02  0.51100000000E-03 0.  1.
        -12    1    3    3    0    0 -0.67846384889E-01  0.75720722986E+01 -0.31963821807E+00  0.75791193828E+01  0.00000000000E+00 0.  1.
</event>
<event>
 7    1  0.2472338E-008  0.4614232E+02  0.7816164E-02  0.1320468E+00
        -11   -1    0    0    0    0  0.00000000000E+00  0.00000000000E+00  0.45593999997E+02  0.45594000000E+02  0.51100000000E-03 0.  1.
         11   -1    0    0    0    0 -0.00000000000E+00 -0.00000000000E+00 -0.45593999997E+02  0.45594000000E+02  0.51100000000E-03 0. -1.
    9900012    2    1    2    0    0 -0.18350971438E+02  0.31936049577E+01  0.41014098991E+02  0.46142316729E+02  0.99999905872E+01 0.  0.
         12    1    1    2    0    0  0.18350971438E+02 -0.31936049577E+01 -0.41014098991E+02  0.45045683271E+02  0.00000000000E+00 0. -1.
         11    1    3    3    0    0 -0.16727057692E+01 -0.85829222484E+00  0.13969326720E+01  0.23422278465E+01  0.51100000000E-03 0. -1.
        -11    1    3    3    0    0 -0.17551101616E+01  0.15183973315E+01  0.12775684910E+02  0.12984762890E+02  0.51100000000E-03 0.  1.
        -12    1    3    3    0    0 -0.14923155507E+02  0.25334998510E+01  0.26841481408E+02  0.30815325992E+02  0.00000000000E+00 0.  1.
</event>
<event>
 7    1  0.2472338E-008  0.4614231E+02  0.7816164E-02  0.1320468E+00
        -11   -1    0    0    0    0  0.00000000000E+00  0.00000000000E+00  0.45593999997E+02  0.45594000000E+02  0.51100000000E-03 0.  1.
         11   -1    0    0    0    0 -0.00000000000E+00 -0.00000000000E+00 -0.45593999997E+02  0.45594000000E+02  0.51100000000E-03 0. -1.
    9900012    2    1    2    0    0  0.74420551532E+01 -0.31916359293E+02  0.30904298665E+02  0.46142313731E+02  0.99999632499E+01 0.  0.
         12    1    1    2    0    0 -0.74420551532E+01  0.31916359293E+02 -0.30904298665E+02  0.45045686269E+02  0.00000000000E+00 0. -1.
         11    1    3    3    0    0  0.34920944774E+01 -0.43583029394E+01  0.89270197465E+01  0.10530014728E+02  0.51100000000E-03 0. -1.
        -11    1    3    3    0    0  0.11269557271E+01 -0.51805121634E+01  0.27403458744E+01  0.59680173641E+01  0.51100000000E-03 0.  1.
         12    1    3    3    0    0  0.28230049487E+01 -0.22377544191E+02  0.19236933044E+02  0.29644281639E+02  0.00000000000E+00 0. -1.
</event>
<event>
 7    1  0.2472338E-008  0.4614232E+02  0.7816164E-02  0.1320468E+00
        -11   -1    0    0    0    0  0.00000000000E+00  0.00000000000E+00  0.45593999997E+02  0.45594000000E+02  0.51100000000E-03 0.  1.
         11   -1    0    0    0    0 -0.00000000000E+00 -0.00000000000E+00 -0.45593999997E+02  0.45594000000E+02  0.51100000000E-03 0. -1.
    9900012    2    1    2    0    0  0.32837682699E+02 -0.44873454231E+01  0.30506786104E+02  0.46142315718E+02  0.99999813719E+01 0.  0.
         12    1    1    2    0    0 -0.32837682699E+02  0.44873454231E+01 -0.30506786104E+02  0.45045684282E+02  0.00000000000E+00 0. -1.
         11    1    3    3    0    0  0.61049939104E+01  0.13455639566E+00  0.98004579487E+01  0.11547208855E+02  0.51100000000E-03 0.  1.
        -11    1    3    3    0    0  0.14762296254E+02  0.28402643844E+00  0.11550620893E+02  0.18746277097E+02  0.51100000000E-03 0. -1.
         12    1    3    3    0    0  0.11970392535E+02 -0.49059282572E+01  0.91557072618E+01  0.15848829767E+02  0.00000000000E+00 0. -1.
</event>
<event>
 7    1  0.2472338E-008  0.4614232E+02  0.7816164E-02  0.1320468E+00
        -11   -1    0    0    0    0  0.00000000000E+00  0.00000000000E+00  0.45593999997E+02  0.45594000000E+02  0.51100000000E-03 0.  1.
         11   -1    0    0    0    0 -0.00000000000E+00 -0.00000000000E+00 -0.45593999997E+02  0.45594000000E+02  0.51100000000E-03 0. -1.
    9900012    2    1    2    0    0 -0.18620715730E+01  0.36964370000E+02  0.25676477163E+02  0.46142318303E+02  0.10000004942E+02 0.  0.
         12    1    1    2    0    0  0.18620715730E+01 -0.36964370000E+02 -0.25676477163E+02  0.45045681697E+02  0.00000000000E+00 0. -1.
         11    1    3    3    0    0 -0.24139837242E+01  0.18902100132E+02  0.92449214746E+01  0.21179831920E+02  0.51100000000E-03 0. -1.
        -11    1    3    3    0    0 -0.22314556696E+01  0.97296074458E+01  0.93715474163E+01  0.13691988778E+02  0.51100000000E-03 0.  1.
        -12    1    3    3    0    0  0.27833678208E+01  0.83326624219E+01  0.70600082725E+01  0.11270497605E+02  0.00000000000E+00 0.  1.
</event>
<event>
 7    1  0.2472338E-008  0.4614231E+02  0.7816164E-02  0.1320468E+00
        -11   -1    0    0    0    0  0.00000000000E+00  0.00000000000E+00  0.45593999997E+02  0.45594000000E+02  0.51100000000E-03 0. -1.
         11   -1    0    0    0    0 -0.00000000000E+00 -0.00000000000E+00 -0.45593999997E+02  0.45594000000E+02  0.51100000000E-03 0.  1.
    9900012    2    1    2    0    0 -0.80992775548E+01  0.43135532500E+02 -0.10141082761E+02  0.46142311854E+02  0.99999461377E+01 0.  0.
         12    1    1    2    0    0  0.80992775548E+01 -0.43135532500E+02  0.10141082761E+02  0.45045688146E+02  0.00000000000E+00 0. -1.
         11    1    3    3    0    0 -0.13513535284E+01  0.55261555419E+00 -0.15619277436E+01  0.21380268583E+01  0.51100000000E-03 0. -1.
        -11    1    3    3    0    0 -0.27807823141E+01  0.13559448487E+02 -0.20572585135E+01  0.13993702384E+02  0.51100000000E-03 0.  1.
         12    1    3    3    0    0 -0.39671417123E+01  0.29023468459E+02 -0.65218965036E+01  0.30010582613E+02  0.00000000000E+00 0. -1.
</event>
<event>
 7    1  0.2472338E-008  0.4614232E+02  0.7816164E-02  0.1320468E+00
        -11   -1    0    0    0    0  0.00000000000E+00  0.00000000000E+00  0.45593999997E+02  0.45594000000E+02  0.51100000000E-03 0. -1.
         11   -1    0    0    0    0 -0.00000000000E+00 -0.00000000000E+00 -0.45593999997E+02  0.45594000000E+02  0.51100000000E-03 0.  1.
    9900012    2    1    2    0    0  0.11881193709E+02  0.10661868906E+02 -0.42122148320E+02  0.46142316615E+02  0.99999895509E+01 0.  0.
         12    1    1    2    0    0 -0.11881193709E+02 -0.10661868906E+02  0.42122148320E+02  0.45045683385E+02  0.00000000000E+00 0. -1.
         11    1    3    3    0    0  0.33704259215E+01  0.27583120311E+01 -0.63210660274E+01  0.76761925547E+01  0.51100000000E-03 0. -1.
        -11    1    3    3    0    0  0.44474815389E+01 -0.70959304986E+00 -0.12909306295E+02  0.13672373737E+02  0.51100000000E-03 0.  1.
         12    1    3    3    0    0  0.40632862483E+01  0.86131499249E+01 -0.22891775998E+02  0.24793750323E+02  0.00000000000E+00 0. -1.
</event>
<event>
 7    1  0.2472338E-008  0.4614232E+02  0.7816164E-02  0.1320468E+00
        -11   -1    0    0    0    0  0.00000000000E+00  0.00000000000E+00  0.45593999997E+02  0.45594000000E+02  0.51100000000E-03 0. -1.
         11   -1    0    0    0    0 -0.00000000000E+00 -0.00000000000E+00 -0.45593999997E+02  0.45594000000E+02  0.51100000000E-03 0.  1.
    9900012    2    1    2    0    0  0.85380462886E+01  0.42045829295E+02 -0.13724560573E+02  0.46142316983E+02  0.99999929017E+01 0.  0.
         12    1    1    2    0    0 -0.85380462886E+01 -0.42045829295E+02  0.13724560573E+02  0.45045683017E+02  0.00000000000E+00 0. -1.
         11    1    3    3    0    0 -0.84868271806E+00  0.35894978187E+01 -0.85853746774E+00  0.37870626864E+01  0.51100000000E-03 0. -1.
        -11    1    3    3    0    0  0.50243452794E+01  0.31984711119E+02 -0.87828550386E+01  0.33547046573E+02  0.51100000000E-03 0.  1.
         12    1    3    3    0    0  0.43623837274E+01  0.64716203574E+01 -0.40831680670E+01  0.88082077234E+01  0.00000000000E+00 0. -1.
</event>
<event>
 7    1  0.2472338E-008  0.4614232E+02  0.7816164E-02  0.1320468E+00
        -11   -1    0    0    0    0  0.00000000000E+00  0.00000000000E+00  0.45593999997E+02  0.45594000000E+02  0.51100000000E-03 0.  1.
         11   -1    0    0    0    0 -0.00000000000E+00 -0.00000000000E+00 -0.45593999997E+02  0.45594000000E+02  0.51100000000E-03 0. -1.
    9900012    2    1    2    0    0  0.40298085170E+02  0.17687882252E+02  0.96081423728E+01  0.46142320443E+02  0.10000024455E+02 0.  0.
         12    1    1    2    0    0 -0.40298085170E+02 -0.17687882252E+02 -0.96081423728E+01  0.45045679557E+02  0.00000000000E+00 0. -1.
         11    1    3    3    0    0  0.14094103630E+02  0.14851833581E+01  0.33342533538E+01  0.14559078695E+02  0.51100000000E-03 0. -1.
        -11    1    3    3    0    0  0.11737102418E+02  0.85821170955E+01  0.39553632544E+01  0.15068417493E+02  0.51100000000E-03 0.  1.
         12    1    3    3    0    0  0.14466879121E+02  0.76205817985E+01  0.23185257646E+01  0.16514824255E+02  0.00000000000E+00 0. -1.
</event>
<event>
 7    1  0.2472338E-008  0.4614232E+02  0.7816164E-02  0.1320468E+00
        -11   -1    0    0    0    0  0.00000000000E+00  0.00000000000E+00  0.45593999997E+02  0.45594000000E+02  0.51100000000E-03 0.  1.
         11   -1    0    0    0    0 -0.00000000000E+00 -0.00000000000E+00 -0.45593999997E+02  0.45594000000E+02  0.51100000000E-03 0. -1.
    9900012    2    1    2    0    0 -0.33760258439E+01  0.43717578697E+02  0.10319362349E+02  0.46142317888E+02  0.10000001160E+02 0.  0.
         12    1    1    2    0    0  0.33760258439E+01 -0.43717578697E+02 -0.10319362349E+02  0.45045682112E+02  0.00000000000E+00 0. -1.
         11    1    3    3    0    0 -0.11460899043E+01  0.19325856595E+02  0.83609117603E+01  0.21088079593E+02  0.51100000000E-03 0.  1.
        -11    1    3    3    0    0 -0.94884469420E+00  0.17229924121E+01  0.12652181080E+01  0.23387574111E+01  0.51100000000E-03 0. -1.
        -12    1    3    3    0    0 -0.12810912454E+01  0.22668729690E+02  0.69323248093E+00  0.22715480885E+02  0.00000000000E+00 0.  1.
</event>
<event>
 7    1  0.2472338E-008  0.4614232E+02  0.7816164E-02  0.1320468E+00
        -11   -1    0    0    0    0  0.00000000000E+00  0.00000000000E+00  0.45593999997E+02  0.45594000000E+02  0.51100000000E-03 0.  1.
         11   -1    0    0    0    0 -0.00000000000E+00 -0.00000000000E+00 -0.45593999997E+02  0.45594000000E+02  0.51100000000E-03 0. -1.
    9900012    2    1    2    0    0 -0.34723066535E+01 -0.31714963212E+02  0.31799649119E+02  0.46142317752E+02  0.99999999198E+01 0.  0.
         12    1    1    2    0    0  0.34723066535E+01  0.31714963212E+02 -0.31799649119E+02  0.45045682248E+02  0.00000000000E+00 0. -1.
         11    1    3    3    0    0 -0.50025557135E+01 -0.11997224474E+02  0.14110598900E+02  0.19185097350E+02  0.51100000000E-03 0. -1.
        -11    1    3    3    0    0 -0.17158609954E+00 -0.49307773929E+01  0.72790754547E+01  0.87935742007E+01  0.51100000000E-03 0.  1.
        -12    1    3    3    0    0  0.17018351595E+01 -0.14786961346E+02  0.10409974765E+02  0.18163646202E+02  0.00000000000E+00 0.  1.
</event>
<event>
 7    1  0.2472338E-008  0.4614232E+02  0.7816164E-02  0.1320468E+00
        -11   -1    0    0    0    0  0.00000000000E+00  0.00000000000E+00  0.45593999997E+02  0.45594000000E+02  0.51100000000E-03 0.  1.
         11   -1    0    0    0    0 -0.00000000000E+00 -0.00000000000E+00 -0.45593999997E+02  0.45594000000E+02  0.51100000000E-03 0. -1.
    9900012    2    1    2    0    0  0.88343627297E+01  0.41319209232E+02  0.15613798423E+02  0.46142315216E+02  0.99999767955E+01 0.  0.
         12    1    1    2    0    0 -0.88343627297E+01 -0.41319209232E+02 -0.15613798423E+02  0.45045684784E+02  0.00000000000E+00 0. -1.
         11    1    3    3    0    0  0.14867626278E+01  0.49176909956E+01 -0.55304088180E+00  0.51672044974E+01  0.51100000000E-03 0. -1.
        -11    1    3    3    0    0  0.65636000974E+01  0.19531258307E+02  0.10742741776E+02  0.23236983419E+02  0.51100000000E-03 0.  1.
        -12    1    3    3    0    0  0.78400000440E+00  0.16870259930E+02  0.54240975284E+01  0.17738127300E+02  0.00000000000E+00 0.  1.
</event>
<event>
 7    1  0.2472338E-008  0.4614232E+02  0.7816164E-02  0.1320468E+00
        -11   -1    0    0    0    0  0.00000000000E+00  0.00000000000E+00  0.45593999997E+02  0.45594000000E+02  0.51100000000E-03 0. -1.
         11   -1    0    0    0    0 -0.00000000000E+00 -0.00000000000E+00 -0.45593999997E+02  0.45594000000E+02  0.51100000000E-03 0.  1.
    9900012    2    1    2    0    0 -0.37012634617E+02 -0.18488848592E+02 -0.17814061869E+02  0.46142318256E+02  0.10000004509E+02 0.  0.
         12    1    1    2    0    0  0.37012634617E+02  0.18488848592E+02  0.17814061869E+02  0.45045681744E+02  0.00000000000E+00 0. -1.
         11    1    3    3    0    0 -0.43299824461E+01 -0.36246224770E+01  0.62412399185E+00  0.56812117636E+01  0.51100000000E-03 0. -1.
        -11    1    3    3    0    0 -0.12620828654E+02 -0.72149359286E+01 -0.78513365489E+01  0.16522230547E+02  0.51100000000E-03 0.  1.
        -12    1    3    3    0    0 -0.20061823517E+02 -0.76492901860E+01 -0.10586849312E+02  0.23938875945E+02  0.00000000000E+00 0.  1.
</event>
<event>
 7    1  0.2472338E-008  0.4614232E+02  0.7816164E-02  0.1320468E+00
        -11   -1    0    0    0    0  0.00000000000E+00  0.00000000000E+00  0.45593999997E+02  0.45594000000E+02  0.51100000000E-03 0. -1.
         11   -1    0    0    0    0 -0.00000000000E+00 -0.00000000000E+00 -0.45593999997E+02  0.45594000000E+02  0.51100000000E-03 0.  1.
    9900012    2    1    2    0    0  0.22473341557E+02  0.31280338127E+01 -0.38913722451E+02  0.46142317951E+02  0.10000001728E+02 0.  0.
         12    1    1    2    0    0 -0.22473341557E+02 -0.31280338127E+01  0.38913722451E+02  0.45045682049E+02  0.00000000000E+00 0. -1.
         11    1    3    3    0    0  0.55187404266E+01 -0.27182402501E+01 -0.70672620321E+01  0.93697128476E+01  0.51100000000E-03 0. -1.
        -11    1    3    3    0    0  0.79747883213E+01  0.67849171809E+00 -0.14761202707E+02  0.16791387835E+02  0.51100000000E-03 0.  1.
        -12    1    3    3    0    0  0.89798128089E+01  0.51677823447E+01 -0.17085257712E+02  0.19981217268E+02  0.00000000000E+00 0.  1.
</event>
<event>
 7    1  0.2472338E-008  0.4614232E+02  0.7816164E-02  0.1320468E+00
        -11   -1    0    0    0    0  0.00000000000E+00  0.00000000000E+00  0.45593999997E+02  0.45594000000E+02  0.51100000000E-03 0.  1.
         11   -1    0    0    0    0 -0.00000000000E+00 -0.00000000000E+00 -0.45593999997E+02  0.45594000000E+02  0.51100000000E-03 0. -1.
    9900012    2    1    2    0    0  0.72996084874E+01 -0.33376732801E+02  0.29356820567E+02  0.46142317739E+02  0.99999998001E+01 0.  0.
         12    1    1    2    0    0 -0.72996084874E+01  0.33376732801E+02 -0.29356820567E+02  0.45045682261E+02  0.00000000000E+00 0. -1.
         11    1    3    3    0    0  0.37647364817E+01 -0.20533068720E+02  0.19294788893E+02  0.28426555024E+02  0.51100000000E-03 0. -1.
        -11    1    3    3    0    0  0.21314675501E+01 -0.12993560736E+02  0.91802454079E+01  0.16051563180E+02  0.51100000000E-03 0.  1.
         12    1    3    3    0    0  0.14034044556E+01  0.14989665522E+00  0.88178626606E+00  0.16641995350E+01  0.00000000000E+00 0. -1.
</event>
<event>
 7    1  0.2472338E-008  0.4614232E+02  0.7816164E-02  0.1320468E+00
        -11   -1    0    0    0    0  0.00000000000E+00  0.00000000000E+00  0.45593999997E+02  0.45594000000E+02  0.51100000000E-03 0.  1.
         11   -1    0    0    0    0 -0.00000000000E+00 -0.00000000000E+00 -0.45593999997E+02  0.45594000000E+02  0.51100000000E-03 0. -1.
    9900012    2    1    2    0    0 -0.22299541121E+02 -0.21832445047E+02  0.32483660885E+02  0.46142318571E+02  0.10000007383E+02 0.  0.
         12    1    1    2    0    0  0.22299541121E+02  0.21832445047E+02 -0.32483660885E+02  0.45045681429E+02  0.00000000000E+00 0. -1.
         11    1    3    3    0    0 -0.69516843291E+01 -0.42648630122E+01  0.92600592580E+01  0.12339516573E+02  0.51100000000E-03 0.  1.
        -11    1    3    3    0    0 -0.71862141394E+01 -0.11319066812E+02  0.17474103543E+02  0.22025150216E+02  0.51100000000E-03 0. -1.
         12    1    3    3    0    0 -0.81616426530E+01 -0.62485152227E+01  0.57494980835E+01  0.11777651782E+02  0.00000000000E+00 0. -1.
</event>
<event>
 7    1  0.2472338E-008  0.4614232E+02  0.7816164E-02  0.1320468E+00
        -11   -1    0    0    0    0  0.00000000000E+00  0.00000000000E+00  0.45593999997E+02  0.45594000000E+02  0.51100000000E-03 0.  1.
         11   -1    0    0    0    0 -0.00000000000E+00 -0.00000000000E+00 -0.45593999997E+02  0.45594000000E+02  0.51100000000E-03 0. -1.
    9900012    2    1    2    0    0  0.38838058869E+02 -0.99435019691E+01  0.20538872670E+02  0.46142319423E+02  0.10000015152E+02 0.  0.
         12    1    1    2    0    0 -0.38838058869E+02  0.99435019691E+01 -0.20538872670E+02  0.45045680577E+02  0.00000000000E+00 0. -1.
         11    1    3    3    0    0  0.11073678098E+01 -0.15639480939E+01  0.44534560867E+00  0.19673662798E+01  0.51100000000E-03 0. -1.
        -11    1    3    3    0    0  0.18806498648E+02 -0.22534926008E+01  0.13345865881E+02  0.23170557971E+02  0.51100000000E-03 0.  1.
        -12    1    3    3    0    0  0.18924192411E+02 -0.61260612744E+01  0.67476611805E+01  0.21004395172E+02  0.00000000000E+00 0.  1.
</event>
<event>
 7    1  0.2472338E-008  0.4614232E+02  0.7816164E-02  0.1320468E+00
        -11   -1    0    0    0    0  0.00000000000E+00  0.00000000000E+00  0.45593999997E+02  0.45594000000E+02  0.51100000000E-03 0.  1.
         11   -1    0    0    0    0 -0.00000000000E+00 -0.00000000000E+00 -0.45593999997E+02  0.45594000000E+02  0.51100000000E-03 0. -1.
    9900012    2    1    2    0    0  0.23175860686E+02  0.38578629127E+02 -0.19189444553E+01  0.46142317724E+02  0.99999996624E+01 0.  0.
         12    1    1    2    0    0 -0.23175860686E+02 -0.38578629127E+02  0.19189444553E+01  0.45045682276E+02  0.00000000000E+00 0. -1.
         11    1    3    3    0    0  0.16215630061E+02  0.19249826518E+02  0.71673546652E+00  0.25179678100E+02  0.51100000000E-03 0.  1.
        -11    1    3    3    0    0  0.16060076738E+01  0.38926269575E+01 -0.18667908565E+01  0.46061604012E+01  0.51100000000E-03 0. -1.
        -12    1    3    3    0    0  0.53542229516E+01  0.15436175652E+02 -0.76888906524E+00  0.16356479223E+02  0.00000000000E+00 0.  1.
</event>
<event>
 7    1  0.2472338E-008  0.4614232E+02  0.7816164E-02  0.1320468E+00
        -11   -1    0    0    0    0  0.00000000000E+00  0.00000000000E+00  0.45593999997E+02  0.45594000000E+02  0.51100000000E-03 0.  1.
         11   -1    0    0    0    0 -0.00000000000E+00 -0.00000000000E+00 -0.45593999997E+02  0.45594000000E+02  0.51100000000E-03 0. -1.
    9900012    2    1    2    0    0  0.19512293901E+01 -0.20719015407E+02  0.39950320153E+02  0.46142323450E+02  0.10000051872E+02 0.  0.
         12    1    1    2    0    0 -0.19512293901E+01  0.20719015407E+02 -0.39950320153E+02  0.45045676550E+02  0.00000000000E+00 0. -1.
         11    1    3    3    0    0  0.17479497554E+01 -0.44357904245E+00  0.58815338785E+01  0.61517909375E+01  0.51100000000E-03 0. -1.
        -11    1    3    3    0    0  0.23389060907E+01 -0.13426386821E+02  0.20061855091E+02  0.24253172467E+02  0.51100000000E-03 0.  1.
         12    1    3    3    0    0 -0.21356264560E+01 -0.68490495440E+01  0.14006931183E+02  0.15737360045E+02  0.00000000000E+00 0. -1.
</event>
<event>
 7    1  0.2472338E-008  0.4614232E+02  0.7816164E-02  0.1320468E+00
        -11   -1    0    0    0    0  0.00000000000E+00  0.00000000000E+00  0.45593999997E+02  0.45594000000E+02  0.51100000000E-03 0. -1.
         11   -1    0    0    0    0 -0.00000000000E+00 -0.00000000000E+00 -0.45593999997E+02  0.45594000000E+02  0.51100000000E-03 0.  1.
    9900012    2    1    2    0    0 -0.24405301272E+02 -0.12241833156E+02 -0.35827814676E+02  0.46142317480E+02  0.99999974411E+01 0.  0.
         12    1    1    2    0    0  0.24405301272E+02  0.12241833156E+02  0.35827814676E+02  0.45045682520E+02  0.00000000000E+00 0. -1.
         11    1    3    3    0    0 -0.20733039707E+01 -0.18637806036E+00 -0.75283177121E+01  0.78108190333E+01  0.51100000000E-03 0. -1.
        -11    1    3    3    0    0 -0.68657973854E+01 -0.15603964669E+01 -0.61406261367E+01  0.93424461723E+01  0.51100000000E-03 0.  1.
        -12    1    3    3    0    0 -0.15466199916E+02 -0.10495058628E+02 -0.22158870827E+02  0.28989052275E+02  0.00000000000E+00 0.  1.
</event>
<event>
 7    1  0.2472338E-008  0.4614232E+02  0.7816164E-02  0.1320468E+00
        -11   -1    0    0    0    0  0.00000000000E+00  0.00000000000E+00  0.45593999997E+02  0.45594000000E+02  0.51100000000E-03 0.  1.
         11   -1    0    0    0    0 -0.00000000000E+00 -0.00000000000E+00 -0.45593999997E+02  0.45594000000E+02  0.51100000000E-03 0. -1.
    9900012    2    1    2    0    0 -0.39450676959E+02 -0.21726314508E+02 -0.85115490509E+00  0.46142321858E+02  0.10000037360E+02 0.  0.
         12    1    1    2    0    0  0.39450676959E+02  0.21726314508E+02  0.85115490509E+00  0.45045678142E+02  0.00000000000E+00 0. -1.
         11    1    3    3    0    0 -0.57332206682E+01  0.65395896311E-01 -0.61751466463E+00  0.57667512931E+01  0.51100000000E-03 0. -1.
        -11    1    3    3    0    0 -0.48925303363E+01 -0.50814312135E+01 -0.21695622018E+00  0.70572563034E+01  0.51100000000E-03 0.  1.
         12    1    3    3    0    0 -0.28824925954E+02 -0.16710279191E+02 -0.16684020283E-01  0.33318314262E+02  0.00000000000E+00 0. -1.
</event>
<event>
 7    1  0.2472338E-008  0.4614232E+02  0.7816164E-02  0.1320468E+00
        -11   -1    0    0    0    0  0.00000000000E+00  0.00000000000E+00  0.45593999997E+02  0.45594000000E+02  0.51100000000E-03 0. -1.
         11   -1    0    0    0    0 -0.00000000000E+00 -0.00000000000E+00 -0.45593999997E+02  0.45594000000E+02  0.51100000000E-03 0.  1.
    9900012    2    1    2    0    0  0.25160038612E+01 -0.24853156185E+02 -0.37484713145E+02  0.46142319104E+02  0.10000012246E+02 0.  0.
         12    1    1    2    0    0 -0.25160038612E+01  0.24853156185E+02  0.37484713145E+02  0.45045680896E+02  0.00000000000E+00 0. -1.
         11    1    3    3    0    0  0.15933931583E+01 -0.73473981308E+01 -0.18226706441E+02  0.19716388843E+02  0.51100000000E-03 0. -1.
        -11    1    3    3    0    0 -0.10808572297E+01 -0.46138028956E+01 -0.74488828445E+01  0.88284361811E+01  0.51100000000E-03 0.  1.
        -12    1    3    3    0    0  0.20034679327E+01 -0.12891955159E+02 -0.11809123860E+02  0.17597494080E+02  0.00000000000E+00 0.  1.
</event>
<event>
 7    1  0.2472338E-008  0.4614232E+02  0.7816164E-02  0.1320468E+00
        -11   -1    0    0    0    0  0.00000000000E+00  0.00000000000E+00  0.45593999997E+02  0.45594000000E+02  0.51100000000E-03 0.  1.
         11   -1    0    0    0    0 -0.00000000000E+00 -0.00000000000E+00 -0.45593999997E+02  0.45594000000E+02  0.51100000000E-03 0. -1.
    9900012    2    1    2    0    0  0.15765721396E+02 -0.39462043837E+02  0.14943311191E+02  0.46142318473E+02  0.10000006489E+02 0.  0.
         12    1    1    2    0    0 -0.15765721396E+02  0.39462043837E+02 -0.14943311191E+02  0.45045681527E+02  0.00000000000E+00 0. -1.
         11    1    3    3    0    0  0.16753306057E+01 -0.53546984999E+01  0.23726767731E+00  0.56156767067E+01  0.51100000000E-03 0. -1.
        -11    1    3    3    0    0  0.59532527159E+01 -0.24282057357E+02  0.94016304666E+01  0.26710488260E+02  0.51100000000E-03 0.  1.
        -12    1    3    3    0    0  0.81371380745E+01 -0.98252879794E+01  0.53044130471E+01  0.13816153506E+02  0.00000000000E+00 0.  1.
</event>
<event>
 7    1  0.2472338E-008  0.4614232E+02  0.7816164E-02  0.1320468E+00
        -11   -1    0    0    0    0  0.00000000000E+00  0.00000000000E+00  0.45593999997E+02  0.45594000000E+02  0.51100000000E-03 0. -1.
         11   -1    0    0    0    0 -0.00000000000E+00 -0.00000000000E+00 -0.45593999997E+02  0.45594000000E+02  0.51100000000E-03 0.  1.
    9900012    2    1    2    0    0  0.17537776462E+01  0.39249855009E+02 -0.22033758764E+02  0.46142318970E+02  0.10000011021E+02 0.  0.
         12    1    1    2    0    0 -0.17537776462E+01 -0.39249855009E+02  0.22033758764E+02  0.45045681030E+02  0.00000000000E+00 0. -1.
         11    1    3    3    0    0 -0.43979523006E+00  0.10897121685E+02 -0.88798777311E+01  0.14063886719E+02  0.51100000000E-03 0.  1.
        -11    1    3    3    0    0  0.24591577797E+01  0.29248391826E+01 -0.14851555739E+01  0.40997351829E+01  0.51100000000E-03 0. -1.
         12    1    3    3    0    0 -0.26558490349E+00  0.25427894141E+02 -0.11668725459E+02  0.27978697068E+02  0.00000000000E+00 0. -1.
</event>
<event>
 7    1  0.2472338E-008  0.4614232E+02  0.7816164E-02  0.1320468E+00
        -11   -1    0    0    0    0  0.00000000000E+00  0.00000000000E+00  0.45593999997E+02  0.45594000000E+02  0.51100000000E-03 0.  1.
         11   -1    0    0    0    0 -0.00000000000E+00 -0.00000000000E+00 -0.45593999997E+02  0.45594000000E+02  0.51100000000E-03 0. -1.
    9900012    2    1    2    0    0 -0.35218058428E+02  0.40120496109E+01  0.27797579695E+02  0.46142316317E+02  0.99999868354E+01 0.  0.
         12    1    1    2    0    0  0.35218058428E+02 -0.40120496109E+01 -0.27797579695E+02  0.45045683683E+02  0.00000000000E+00 0. -1.
         11    1    3    3    0    0 -0.74869502717E+01  0.45433493868E+01  0.57300381455E+01  0.10465647874E+02  0.51100000000E-03 0. -1.
        -11    1    3    3    0    0 -0.68707735422E+01  0.42162446916E+00  0.77053138654E+01  0.10332335568E+02  0.51100000000E-03 0.  1.
         12    1    3    3    0    0 -0.20860334614E+02 -0.95292424510E+00  0.14362227684E+02  0.25344332875E+02  0.00000000000E+00 0. -1.
</event>
<event>
 7    1  0.2472338E-008  0.4614232E+02  0.7816164E-02  0.1320468E+00
        -11   -1    0    0    0    0  0.00000000000E+00  0.00000000000E+00  0.45593999997E+02  0.45594000000E+02  0.51100000000E-03 0.  1.
         11   -1    0    0    0    0 -0.00000000000E+00 -0.00000000000E+00 -0.45593999997E+02  0.45594000000E+02  0.51100000000E-03 0. -1.
    9900012    2    1    2    0    0  0.10836230054E+02 -0.17476812384E+02  0.40078055596E+02  0.46142318817E+02  0.10000009626E+02 0.  0.
         12    1    1    2    0    0 -0.10836230054E+02  0.17476812384E+02 -0.40078055596E+02  0.45045681183E+02  0.00000000000E+00 0. -1.
         11    1    3    3    0    0  0.37428465703E+01 -0.99394102164E+01  0.15976322159E+02  0.19184463659E+02  0.51100000000E-03 0.  1.
        -11    1    3    3    0    0  0.49898627475E+01 -0.80233588138E+01  0.16077812577E+02  0.18648567624E+02  0.51100000000E-03 0. -1.
         12    1    3    3    0    0  0.21035207360E+01  0.48595664606E+00  0.80239208601E+01  0.83092875337E+01  0.00000000000E+00 0. -1.
</event>
<event>
 7    1  0.2472338E-008  0.4614232E+02  0.7816164E-02  0.1320468E+00
        -11   -1    0    0    0    0  0.00000000000E+00  0.00000000000E+00  0.45593999997E+02  0.45594000000E+02  0.51100000000E-03 0.  1.
         11   -1    0    0    0    0 -0.00000000000E+00 -0.00000000000E+00 -0.45593999997E+02  0.45594000000E+02  0.51100000000E-03 0. -1.
    9900012    2    1    2    0    0  0.37864965717E+01 -0.11542269869E+02  0.43376861613E+02  0.46142315708E+02  0.99999812743E+01 0.  0.
         12    1    1    2    0    0 -0.37864965717E+01  0.11542269869E+02 -0.43376861613E+02  0.45045684292E+02  0.00000000000E+00 0. -1.
         11    1    3    3    0    0 -0.14673628090E+01  0.10855635869E+01  0.45215187340E+01  0.48760366936E+01  0.51100000000E-03 0. -1.
        -11    1    3    3    0    0  0.30853662662E+01 -0.73496728100E+01  0.18925374907E+02  0.20535505619E+02  0.51100000000E-03 0.  1.
        -12    1    3    3    0    0  0.21684931145E+01 -0.52781606461E+01  0.19929967972E+02  0.20730773395E+02  0.00000000000E+00 0.  1.
</event>
<event>
 7    1  0.2472338E-008  0.4614232E+02  0.7816164E-02  0.1320468E+00
        -11   -1    0    0    0    0  0.00000000000E+00  0.00000000000E+00  0.45593999997E+02  0.45594000000E+02  0.51100000000E-03 0. -1.
         11   -1    0    0    0    0 -0.00000000000E+00 -0.00000000000E+00 -0.45593999997E+02  0.45594000000E+02  0.51100000000E-03 0.  1.
    9900012    2    1    2    0    0 -0.57156682785E+01 -0.26408188905E+02 -0.36042367363E+02  0.46142317074E+02  0.99999937370E+01 0.  0.
         12    1    1    2    0    0  0.57156682785E+01  0.26408188905E+02  0.36042367363E+02  0.45045682926E+02  0.00000000000E+00 0. -1.
         11    1    3    3    0    0 -0.56100817069E+01 -0.93049351367E+01 -0.15197609147E+02  0.18682134747E+02  0.51100000000E-03 0. -1.
        -11    1    3    3    0    0 -0.89419274174E+00 -0.81867922047E+01 -0.13794425754E+02  0.16065781319E+02  0.51100000000E-03 0.  1.
         12    1    3    3    0    0  0.78860617020E+00 -0.89164615633E+01 -0.70503324627E+01  0.11394401008E+02  0.00000000000E+00 0. -1.
</event>
<event>
 7    1  0.2472338E-008  0.4614232E+02  0.7816164E-02  0.1320468E+00
        -11   -1    0    0    0    0  0.00000000000E+00  0.00000000000E+00  0.45593999997E+02  0.45594000000E+02  0.51100000000E-03 0.  1.
         11   -1    0    0    0    0 -0.00000000000E+00 -0.00000000000E+00 -0.45593999997E+02  0.45594000000E+02  0.51100000000E-03 0. -1.
    9900012    2    1    2    0    0  0.14583257727E+02 -0.20655508621E+02  0.37279915120E+02  0.46142317480E+02  0.99999974323E+01 0.  0.
         12    1    1    2    0    0 -0.14583257727E+02  0.20655508621E+02 -0.37279915120E+02  0.45045682520E+02  0.00000000000E+00 0. -1.
         11    1    3    3    0    0  0.20777387608E+01 -0.82117634765E+01  0.88887524513E+01  0.12278435493E+02  0.51100000000E-03 0.  1.
        -11    1    3    3    0    0  0.14228059912E+00 -0.26912089198E+01  0.46715892577E+01  0.53931990203E+01  0.51100000000E-03 0. -1.
        -12    1    3    3    0    0  0.12363238367E+02 -0.97525362252E+01  0.23719573411E+02  0.28470682966E+02  0.00000000000E+00 0.  1.
</event>
<event>
 7    1  0.2472338E-008  0.4614232E+02  0.7816164E-02  0.1320468E+00
        -11   -1    0    0    0    0  0.00000000000E+00  0.00000000000E+00  0.45593999997E+02  0.45594000000E+02  0.51100000000E-03 0. -1.
         11   -1    0    0    0    0 -0.00000000000E+00 -0.00000000000E+00 -0.45593999997E+02  0.45594000000E+02  0.51100000000E-03 0.  1.
    9900012    2    1    2    0    0 -0.39215359338E+02 -0.11719830471E+02 -0.18812620471E+02  0.46142317374E+02  0.99999964658E+01 0.  0.
         12    1    1    2    0    0  0.39215359338E+02  0.11719830471E+02  0.18812620471E+02  0.45045682626E+02  0.00000000000E+00 0. -1.
         11    1    3    3    0    0 -0.25856474622E+02 -0.92056637532E+01 -0.84875026690E+01  0.28728717807E+02  0.51100000000E-03 0. -1.
        -11    1    3    3    0    0 -0.89338448171E+01 -0.96442983787E+00 -0.48704169224E+01  0.10220795927E+02  0.51100000000E-03 0.  1.
         12    1    3    3    0    0 -0.44250398991E+01 -0.15497368800E+01 -0.54547008798E+01  0.71928036393E+01  0.00000000000E+00 0. -1.
</event>
<event>
 7    1  0.2472338E-008  0.4614232E+02  0.7816164E-02  0.1320468E+00
        -11   -1    0    0    0    0  0.00000000000E+00  0.00000000000E+00  0.45593999997E+02  0.45594000000E+02  0.51100000000E-03 0.  1.
         11   -1    0    0    0    0 -0.00000000000E+00 -0.00000000000E+00 -0.45593999997E+02  0.45594000000E+02  0.51100000000E-03 0. -1.
    9900012    2    1    2    0    0 -0.49651216904E+01 -0.25548886104E+02  0.36765683851E+02  0.46142317370E+02  0.99999964367E+01 0.  0.
         12    1    1    2    0    0  0.49651216904E+01  0.25548886104E+02 -0.36765683851E+02  0.45045682630E+02  0.00000000000E+00 0. -1.
         11    1    3    3    0    0 -0.51891029376E+00  0.37512293474E-01 -0.20273075990E+00  0.55836823626E+00  0.51100000000E-03 0. -1.
        -11    1    3    3    0    0 -0.32330784293E+01 -0.14222649510E+02  0.25604215155E+02  0.29467140838E+02  0.51100000000E-03 0.  1.
         12    1    3    3    0    0 -0.12131329673E+01 -0.11363748888E+02  0.11364199455E+02  0.16116808296E+02  0.00000000000E+00 0. -1.
</event>
<event>
 7    1  0.2472338E-008  0.4614232E+02  0.7816164E-02  0.1320468E+00
        -11   -1    0    0    0    0  0.00000000000E+00  0.00000000000E+00  0.45593999997E+02  0.45594000000E+02  0.51100000000E-03 0. -1.
         11   -1    0    0    0    0 -0.00000000000E+00 -0.00000000000E+00 -0.45593999997E+02  0.45594000000E+02  0.51100000000E-03 0.  1.
    9900012    2    1    2    0    0 -0.28398711380E+02  0.18520755226E+02 -0.29658191494E+02  0.46142317578E+02  0.99999983296E+01 0.  0.
         12    1    1    2    0    0  0.28398711380E+02 -0.18520755226E+02  0.29658191494E+02  0.45045682422E+02  0.00000000000E+00 0. -1.
         11    1    3    3    0    0 -0.86384355432E+01  0.50463232549E+01 -0.88177178228E+01  0.13335670020E+02  0.51100000000E-03 0.  1.
        -11    1    3    3    0    0 -0.75852685040E+01  0.15405841782E+01 -0.98313565257E+01  0.12512604417E+02  0.51100000000E-03 0. -1.
         12    1    3    3    0    0 -0.12175007333E+02  0.11933847793E+02 -0.11009117146E+02  0.20294043141E+02  0.00000000000E+00 0. -1.
</event>
<event>
 7    1  0.2472338E-008  0.4614232E+02  0.7816164E-02  0.1320468E+00
        -11   -1    0    0    0    0  0.00000000000E+00  0.00000000000E+00  0.45593999997E+02  0.45594000000E+02  0.51100000000E-03 0. -1.
         11   -1    0    0    0    0 -0.00000000000E+00 -0.00000000000E+00 -0.45593999997E+02  0.45594000000E+02  0.51100000000E-03 0.  1.
    9900012    2    1    2    0    0  0.34050992741E+02 -0.28205985178E+02 -0.86061481934E+01  0.46142317708E+02  0.99999995112E+01 0.  0.
         12    1    1    2    0    0 -0.34050992741E+02  0.28205985178E+02  0.86061481934E+01  0.45045682292E+02  0.00000000000E+00 0. -1.
         11    1    3    3    0    0  0.22894624234E+01 -0.34841853464E+01  0.11350919109E+01  0.43208355238E+01  0.51100000000E-03 0. -1.
        -11    1    3    3    0    0  0.23652813131E+02 -0.16053572159E+02 -0.88206018262E+01  0.29916145555E+02  0.51100000000E-03 0.  1.
         12    1    3    3    0    0  0.81087171865E+01 -0.86682276726E+01 -0.92063827810E+00  0.11905336628E+02  0.00000000000E+00 0. -1.
</event>
<event>
 7    1  0.2472338E-008  0.4614232E+02  0.7816164E-02  0.1320468E+00
        -11   -1    0    0    0    0  0.00000000000E+00  0.00000000000E+00  0.45593999997E+02  0.45594000000E+02  0.51100000000E-03 0.  1.
         11   -1    0    0    0    0 -0.00000000000E+00 -0.00000000000E+00 -0.45593999997E+02  0.45594000000E+02  0.51100000000E-03 0. -1.
    9900012    2    1    2    0    0 -0.21141208988E+02  0.39642282614E+02  0.32637650451E+01  0.46142318181E+02  0.10000003827E+02 0.  0.
         12    1    1    2    0    0  0.21141208988E+02 -0.39642282614E+02 -0.32637650451E+01  0.45045681819E+02  0.00000000000E+00 0. -1.
         11    1    3    3    0    0 -0.55972145406E+00  0.33005356797E+01 -0.11401391290E+01  0.35364871516E+01  0.51100000000E-03 0. -1.
        -11    1    3    3    0    0 -0.19116422995E+02  0.29068602660E+02  0.21750333291E+01  0.34859031240E+02  0.51100000000E-03 0.  1.
         12    1    3    3    0    0 -0.14650645386E+01  0.72731442740E+01  0.22288708449E+01  0.77467997893E+01  0.00000000000E+00 0. -1.
</event>
<event>
 7    1  0.2472338E-008  0.4614232E+02  0.7816164E-02  0.1320468E+00
        -11   -1    0    0    0    0  0.00000000000E+00  0.00000000000E+00  0.45593999997E+02  0.45594000000E+02  0.51100000000E-03 0.  1.
         11   -1    0    0    0    0 -0.00000000000E+00 -0.00000000000E+00 -0.45593999997E+02  0.45594000000E+02  0.51100000000E-03 0. -1.
    9900012    2    1    2    0    0  0.28374840345E+02  0.25329131754E+02  0.24133316464E+02  0.46142318258E+02  0.10000004535E+02 0.  0.
         12    1    1    2    0    0 -0.28374840345E+02 -0.25329131754E+02 -0.24133316464E+02  0.45045681742E+02  0.00000000000E+00 0. -1.
         11    1    3    3    0    0  0.75025984484E+01  0.36345780475E+01  0.36871315543E+01  0.91155954507E+01  0.51100000000E-03 0. -1.
        -11    1    3    3    0    0  0.65524157831E+01  0.49163924424E+01  0.90205190540E+01  0.12185024887E+02  0.51100000000E-03 0.  1.
        -12    1    3    3    0    0  0.14319826113E+02  0.16778161264E+02  0.11425665856E+02  0.24841697920E+02  0.00000000000E+00 0.  1.
</event>
<event>
 7    1  0.2472338E-008  0.4614232E+02  0.7816164E-02  0.1320468E+00
        -11   -1    0    0    0    0  0.00000000000E+00  0.00000000000E+00  0.45593999997E+02  0.45594000000E+02  0.51100000000E-03 0. -1.
         11   -1    0    0    0    0 -0.00000000000E+00 -0.00000000000E+00 -0.45593999997E+02  0.45594000000E+02  0.51100000000E-03 0.  1.
    9900012    2    1    2    0    0  0.16577149982E+02 -0.41653139392E+02 -0.43963106066E+01  0.46142317969E+02  0.10000001892E+02 0.  0.
         12    1    1    2    0    0 -0.16577149982E+02  0.41653139392E+02  0.43963106066E+01  0.45045682031E+02  0.00000000000E+00 0. -1.
         11    1    3    3    0    0  0.60285204768E+01 -0.26492659469E+02 -0.70988424581E+00  0.27179183226E+02  0.51100000000E-03 0. -1.
        -11    1    3    3    0    0  0.48512102700E+01 -0.78676213205E+01 -0.84183645024E+00  0.92812927546E+01  0.51100000000E-03 0.  1.
         12    1    3    3    0    0  0.56974192356E+01 -0.72928586018E+01 -0.28445899105E+01  0.96818419885E+01  0.00000000000E+00 0. -1.
</event>
<event>
 7    1  0.2472338E-008  0.4614232E+02  0.7816164E-02  0.1320468E+00
        -11   -1    0    0    0    0  0.00000000000E+00  0.00000000000E+00  0.45593999997E+02  0.45594000000E+02  0.51100000000E-03 0. -1.
         11   -1    0    0    0    0 -0.00000000000E+00 -0.00000000000E+00 -0.45593999997E+02  0.45594000000E+02  0.51100000000E-03 0.  1.
    9900012    2    1    2    0    0  0.13393689300E+02 -0.32584150168E+02 -0.28071261376E+02  0.46142317960E+02  0.10000001812E+02 0.  0.
         12    1    1    2    0    0 -0.13393689300E+02  0.32584150168E+02  0.28071261376E+02  0.45045682040E+02  0.00000000000E+00 0. -1.
         11    1    3    3    0    0  0.80069635839E+00 -0.10724489506E+02 -0.82424749593E+01  0.13549693116E+02  0.51100000000E-03 0. -1.
        -11    1    3    3    0    0  0.11077762762E+02 -0.21671712330E+02 -0.18732629263E+02  0.30713048408E+02  0.51100000000E-03 0.  1.
         12    1    3    3    0    0  0.15152301798E+01 -0.18794833154E+00 -0.10961571531E+01  0.18795764356E+01  0.00000000000E+00 0. -1.
</event>
<event>
 7    1  0.2472338E-008  0.4614232E+02  0.7816164E-02  0.1320468E+00
        -11   -1    0    0    0    0  0.00000000000E+00  0.00000000000E+00  0.45593999997E+02  0.45594000000E+02  0.51100000000E-03 0.  1.
         11   -1    0    0    0    0 -0.00000000000E+00 -0.00000000000E+00 -0.45593999997E+02  0.45594000000E+02  0.51100000000E-03 0. -1.
    9900012    2    1    2    0    0 -0.17776867936E+02 -0.22416129151E+02  0.34793872707E+02  0.46142318102E+02  0.10000003105E+02 0.  0.
         12    1    1    2    0    0  0.17776867936E+02  0.22416129151E+02 -0.34793872707E+02  0.45045681898E+02  0.00000000000E+00 0. -1.
         11    1    3    3    0    0 -0.86888404781E+00 -0.78851511603E-01  0.33928955263E+01  0.35032723792E+01  0.51100000000E-03 0. -1.
        -11    1    3    3    0    0 -0.13116899194E+02 -0.18419428785E+02  0.28749181422E+02  0.36576547595E+02  0.51100000000E-03 0.  1.
         12    1    3    3    0    0 -0.37910846942E+01 -0.39178488541E+01  0.26517957587E+01  0.60624981277E+01  0.00000000000E+00 0. -1.
</event>
<event>
 7    1  0.2472338E-008  0.4614232E+02  0.7816164E-02  0.1320468E+00
        -11   -1    0    0    0    0  0.00000000000E+00  0.00000000000E+00  0.45593999997E+02  0.45594000000E+02  0.51100000000E-03 0.  1.
         11   -1    0    0    0    0 -0.00000000000E+00 -0.00000000000E+00 -0.45593999997E+02  0.45594000000E+02  0.51100000000E-03 0. -1.
    9900012    2    1    2    0    0 -0.22888907322E+02 -0.28336664280E+02  0.26499903834E+02  0.46142317364E+02  0.99999963790E+01 0.  0.
         12    1    1    2    0    0  0.22888907322E+02  0.28336664280E+02 -0.26499903834E+02  0.45045682636E+02  0.00000000000E+00 0. -1.
         11    1    3    3    0    0 -0.16808831905E+02 -0.20507476585E+02  0.18337405427E+02  0.32239011523E+02  0.51100000000E-03 0. -1.
        -11    1    3    3    0    0 -0.62777619059E+01 -0.69643607217E+01  0.87616990439E+01  0.12832769974E+02  0.51100000000E-03 0.  1.
        -12    1    3    3    0    0  0.19768648910E+00 -0.86482697302E+00 -0.59920063607E+00  0.10705358675E+01  0.00000000000E+00 0.  1.
</event>
<event>
 7    1  0.2472338E-008  0.4614232E+02  0.7816164E-02  0.1320468E+00
        -11   -1    0    0    0    0  0.00000000000E+00  0.00000000000E+00  0.45593999997E+02  0.45594000000E+02  0.51100000000E-03 0.  1.
         11   -1    0    0    0    0 -0.00000000000E+00 -0.00000000000E+00 -0.45593999997E+02  0.45594000000E+02  0.51100000000E-03 0. -1.
    9900012    2    1    2    0    0  0.32561368692E+02 -0.13487974507E+02  0.28052546996E+02  0.46142316740E+02  0.99999906871E+01 0.  0.
         12    1    1    2    0    0 -0.32561368692E+02  0.13487974507E+02 -0.28052546996E+02  0.45045683260E+02  0.00000000000E+00 0. -1.
         11    1    3    3    0    0  0.17054380998E+00  0.41350195695E+00 -0.40443593884E+00  0.60302383806E+00  0.51100000000E-03 0. -1.
        -11    1    3    3    0    0  0.12371002572E+02 -0.75749572574E+01  0.12840436838E+02  0.19372622448E+02  0.51100000000E-03 0.  1.
         12    1    3    3    0    0  0.20019822311E+02 -0.63265192071E+01  0.15616546097E+02  0.26166670453E+02  0.00000000000E+00 0. -1.
</event>
<event>
 7    1  0.2472338E-008  0.4614232E+02  0.7816164E-02  0.1320468E+00
        -11   -1    0    0    0    0  0.00000000000E+00  0.00000000000E+00  0.45593999997E+02  0.45594000000E+02  0.51100000000E-03 0. -1.
         11   -1    0    0    0    0 -0.00000000000E+00 -0.00000000000E+00 -0.45593999997E+02  0.45594000000E+02  0.51100000000E-03 0.  1.
    9900012    2    1    2    0    0  0.57407899426E+01 -0.42553892693E+02 -0.13613340702E+02  0.46142317659E+02  0.99999990699E+01 0.  0.
         12    1    1    2    0    0 -0.57407899426E+01  0.42553892693E+02  0.13613340702E+02  0.45045682341E+02  0.00000000000E+00 0. -1.
         11    1    3    3    0    0  0.17418283761E+01 -0.46135550661E+01 -0.31780933415E+01  0.58667822516E+01  0.51100000000E-03 0. -1.
        -11    1    3    3    0    0  0.30049951238E+01 -0.10667586859E+02 -0.60750065784E+01  0.12638556495E+02  0.51100000000E-03 0.  1.
        -12    1    3    3    0    0  0.99396644264E+00 -0.27272750767E+02 -0.43602407821E+01  0.27636978912E+02  0.00000000000E+00 0.  1.
</event>
<event>
 7    1  0.2472338E-008  0.4614232E+02  0.7816164E-02  0.1320468E+00
        -11   -1    0    0    0    0  0.00000000000E+00  0.00000000000E+00  0.45593999997E+02  0.45594000000E+02  0.51100000000E-03 0. -1.
         11   -1    0    0    0    0 -0.00000000000E+00 -0.00000000000E+00 -0.45593999997E+02  0.45594000000E+02  0.51100000000E-03 0.  1.
    9900012    2    1    2    0    0  0.29792226970E+02 -0.12550830435E+02 -0.31368987132E+02  0.46142317786E+02  0.10000000229E+02 0.  0.
         12    1    1    2    0    0 -0.29792226970E+02  0.12550830435E+02  0.31368987132E+02  0.45045682214E+02  0.00000000000E+00 0. -1.
         11    1    3    3    0    0  0.26510019666E+01 -0.21966583976E+01 -0.22299932107E+01  0.41019494785E+01  0.51100000000E-03 0. -1.
        -11    1    3    3    0    0  0.21812347162E+02 -0.63190641493E+01 -0.17702954773E+02  0.28794160318E+02  0.51100000000E-03 0.  1.
         12    1    3    3    0    0  0.53288778407E+01 -0.40351078884E+01 -0.11436039148E+02  0.13246207990E+02  0.00000000000E+00 0. -1.
</event>
<event>
 7    1  0.2472338E-008  0.4614232E+02  0.7816164E-02  0.1320468E+00
        -11   -1    0    0    0    0  0.00000000000E+00  0.00000000000E+00  0.45593999997E+02  0.45594000000E+02  0.51100000000E-03 0.  1.
         11   -1    0    0    0    0 -0.00000000000E+00 -0.00000000000E+00 -0.45593999997E+02  0.45594000000E+02  0.51100000000E-03 0. -1.
    9900012    2    1    2    0    0 -0.33819249887E+02 -0.11751854175E+02  0.27336160723E+02  0.46142318491E+02  0.10000006658E+02 0.  0.
         12    1    1    2    0    0  0.33819249887E+02  0.11751854175E+02 -0.27336160723E+02  0.45045681509E+02  0.00000000000E+00 0. -1.
         11    1    3    3    0    0 -0.74600950303E+01 -0.61914147652E+01  0.73059489421E+01  0.12139337909E+02  0.51100000000E-03 0. -1.
        -11    1    3    3    0    0 -0.15954210486E+02 -0.27502090549E+01  0.15147161281E+02  0.22170633216E+02  0.51100000000E-03 0.  1.
        -12    1    3    3    0    0 -0.10404944371E+02 -0.28102303548E+01  0.48830505005E+01  0.11832347366E+02  0.00000000000E+00 0.  1.
</event>
<event>
 7    1  0.2472338E-008  0.4614232E+02  0.7816164E-02  0.1320468E+00
        -11   -1    0    0    0    0  0.00000000000E+00  0.00000000000E+00  0.45593999997E+02  0.45594000000E+02  0.51100000000E-03 0.  1.
         11   -1    0    0    0    0 -0.00000000000E+00 -0.00000000000E+00 -0.45593999997E+02  0.45594000000E+02  0.51100000000E-03 0. -1.
    9900012    2    1    2    0    0  0.24086970473E+02  0.24624666249E+02  0.29026834978E+02  0.46142317817E+02  0.10000000514E+02 0.  0.
         12    1    1    2    0    0 -0.24086970473E+02 -0.24624666249E+02 -0.29026834978E+02  0.45045682183E+02  0.00000000000E+00 0. -1.
         11    1    3    3    0    0  0.88816154294E+01  0.61348328492E+01  0.69375386930E+01  0.12831551352E+02  0.51100000000E-03 0. -1.
        -11    1    3    3    0    0  0.10298294992E+01 -0.26316095717E+00  0.14496431072E-01  0.10630206463E+01  0.51100000000E-03 0.  1.
        -12    1    3    3    0    0  0.14175525544E+02  0.18752994357E+02  0.22074799854E+02  0.32247745819E+02  0.00000000000E+00 0.  1.
</event>
<event>
 7    1  0.2472338E-008  0.4614232E+02  0.7816164E-02  0.1320468E+00
        -11   -1    0    0    0    0  0.00000000000E+00  0.00000000000E+00  0.45593999997E+02  0.45594000000E+02  0.51100000000E-03 0.  1.
         11   -1    0    0    0    0 -0.00000000000E+00 -0.00000000000E+00 -0.45593999997E+02  0.45594000000E+02  0.51100000000E-03 0. -1.
    9900012    2    1    2    0    0 -0.29046804425E+02 -0.11298347369E+02  0.32522976927E+02  0.46142317313E+02  0.99999959114E+01 0.  0.
         12    1    1    2    0    0  0.29046804425E+02  0.11298347369E+02 -0.32522976927E+02  0.45045682687E+02  0.00000000000E+00 0. -1.
         11    1    3    3    0    0 -0.16513438420E+02 -0.21917180407E+01  0.15634504350E+02  0.22845896851E+02  0.51100000000E-03 0. -1.
        -11    1    3    3    0    0 -0.12269203461E+02 -0.85511833610E+01  0.17030862031E+02  0.22665091048E+02  0.51100000000E-03 0.  1.
         12    1    3    3    0    0 -0.26416254441E+00 -0.55544596683E+00 -0.14238945354E+00  0.63132941356E+00  0.00000000000E+00 0. -1.
</event>
<event>
 7    1  0.2472338E-008  0.4614232E+02  0.7816164E-02  0.1320468E+00
        -11   -1    0    0    0    0  0.00000000000E+00  0.00000000000E+00  0.45593999997E+02  0.45594000000E+02  0.51100000000E-03 0.  1.
         11   -1    0    0    0    0 -0.00000000000E+00 -0.00000000000E+00 -0.45593999997E+02  0.45594000000E+02  0.51100000000E-03 0. -1.
    9900012    2    1    2    0    0  0.26091794543E+02  0.60655659347E+01  0.36215198125E+02  0.46142318655E+02  0.10000008150E+02 0.  0.
         12    1    1    2    0    0 -0.26091794543E+02 -0.60655659347E+01 -0.36215198125E+02  0.45045681345E+02  0.00000000000E+00 0. -1.
         11    1    3    3    0    0  0.39092228400E+01 -0.45668027222E+00  0.17688035778E+01  0.43150024846E+01  0.51100000000E-03 0.  1.
        -11    1    3    3    0    0  0.10982350326E+02  0.11929843768E+01  0.19428682947E+02  0.22349696904E+02  0.51100000000E-03 0. -1.
        -12    1    3    3    0    0  0.11200221378E+02  0.53292618301E+01  0.15017711601E+02  0.19477619266E+02  0.00000000000E+00 0.  1.
</event>
<event>
 7    1  0.2472338E-008  0.4614232E+02  0.7816164E-02  0.1320468E+00
        -11   -1    0    0    0    0  0.00000000000E+00  0.00000000000E+00  0.45593999997E+02  0.45594000000E+02  0.51100000000E-03 0.  1.
         11   -1    0    0    0    0 -0.00000000000E+00 -0.00000000000E+00 -0.45593999997E+02  0.45594000000E+02  0.51100000000E-03 0. -1.
    9900012    2    1    2    0    0  0.26396848779E+02  0.89797204360E+01  0.35379147599E+02  0.46142322190E+02  0.10000040382E+02 0.  0.
         12    1    1    2    0    0 -0.26396848779E+02 -0.89797204360E+01 -0.35379147599E+02  0.45045677810E+02  0.00000000000E+00 0. -1.
         11    1    3    3    0    0  0.14328407553E+01 -0.91224309782E+00 -0.20874781404E-01  0.16987219069E+01  0.51100000000E-03 0. -1.
        -11    1    3    3    0    0  0.19066692754E+02  0.75258491640E+01  0.27718473606E+02  0.34474497205E+02  0.51100000000E-03 0.  1.
         12    1    3    3    0    0  0.58973152702E+01  0.23661143699E+01  0.76815487741E+01  0.99691030778E+01  0.00000000000E+00 0. -1.
</event>
<event>
 7    1  0.2472338E-008  0.4614232E+02  0.7816164E-02  0.1320468E+00
        -11   -1    0    0    0    0  0.00000000000E+00  0.00000000000E+00  0.45593999997E+02  0.45594000000E+02  0.51100000000E-03 0.  1.
         11   -1    0    0    0    0 -0.00000000000E+00 -0.00000000000E+00 -0.45593999997E+02  0.45594000000E+02  0.51100000000E-03 0. -1.
    9900012    2    1    2    0    0 -0.30673806933E+02  0.62515817331E+01  0.32390566279E+02  0.46142317745E+02  0.99999998520E+01 0.  0.
         12    1    1    2    0    0  0.30673806933E+02 -0.62515817331E+01 -0.32390566279E+02  0.45045682255E+02  0.00000000000E+00 0. -1.
         11    1    3    3    0    0 -0.12394188112E+02  0.16062616328E+01  0.82027331199E+01  0.14949274440E+02  0.51100000000E-03 0. -1.
        -11    1    3    3    0    0 -0.11107296258E+02  0.46647404602E+01  0.11708541710E+02  0.16799457817E+02  0.51100000000E-03 0.  1.
        -12    1    3    3    0    0 -0.71723225629E+01 -0.19420359919E-01  0.12479291449E+02  0.14393585487E+02  0.00000000000E+00 0.  1.
</event>
<event>
 7    1  0.2472338E-008  0.4614232E+02  0.7816164E-02  0.1320468E+00
        -11   -1    0    0    0    0  0.00000000000E+00  0.00000000000E+00  0.45593999997E+02  0.45594000000E+02  0.51100000000E-03 0.  1.
         11   -1    0    0    0    0 -0.00000000000E+00 -0.00000000000E+00 -0.45593999997E+02  0.45594000000E+02  0.51100000000E-03 0. -1.
    9900012    2    1    2    0    0  0.20320341325E+02 -0.25741065800E+02  0.30880325059E+02  0.46142320786E+02  0.10000027583E+02 0.  0.
         12    1    1    2    0    0 -0.20320341325E+02  0.25741065800E+02 -0.30880325059E+02  0.45045679214E+02  0.00000000000E+00 0. -1.
         11    1    3    3    0    0  0.23881085927E+01 -0.90196657934E+00  0.28899982304E+01  0.38559948643E+01  0.51100000000E-03 0. -1.
        -11    1    3    3    0    0  0.17381792077E+02 -0.22500000265E+02  0.22381330135E+02  0.36184259653E+02  0.51100000000E-03 0.  1.
        -12    1    3    3    0    0  0.55044065530E+00 -0.23390989556E+01  0.56089966937E+01  0.61020662689E+01  0.00000000000E+00 0.  1.
</event>
<event>
 7    1  0.2472338E-008  0.4614231E+02  0.7816164E-02  0.1320468E+00
        -11   -1    0    0    0    0  0.00000000000E+00  0.00000000000E+00  0.45593999997E+02  0.45594000000E+02  0.51100000000E-03 0.  1.
         11   -1    0    0    0    0 -0.00000000000E+00 -0.00000000000E+00 -0.45593999997E+02  0.45594000000E+02  0.51100000000E-03 0. -1.
    9900012    2    1    2    0    0 -0.15803538847E+02  0.18355358047E+02  0.37979506406E+02  0.46142313015E+02  0.99999567218E+01 0.  0.
         12    1    1    2    0    0  0.15803538847E+02 -0.18355358047E+02 -0.37979506406E+02  0.45045686985E+02  0.00000000000E+00 0. -1.
         11    1    3    3    0    0 -0.95566333928E+01  0.36962513278E+01  0.15454358797E+02  0.18542619065E+02  0.51100000000E-03 0. -1.
        -11    1    3    3    0    0 -0.31993961802E+01  0.76911496018E+01  0.12338735143E+02  0.14887387390E+02  0.51100000000E-03 0.  1.
         12    1    3    3    0    0 -0.30475092738E+01  0.69679571171E+01  0.10186412466E+02  0.12712306560E+02  0.00000000000E+00 0. -1.
</event>
<event>
 7    1  0.2472338E-008  0.4614232E+02  0.7816164E-02  0.1320468E+00
        -11   -1    0    0    0    0  0.00000000000E+00  0.00000000000E+00  0.45593999997E+02  0.45594000000E+02  0.51100000000E-03 0.  1.
         11   -1    0    0    0    0 -0.00000000000E+00 -0.00000000000E+00 -0.45593999997E+02  0.45594000000E+02  0.51100000000E-03 0. -1.
    9900012    2    1    2    0    0 -0.58698315947E+01 -0.36401298667E+02  0.25876706360E+02  0.46142318746E+02  0.10000008984E+02 0.  0.
         12    1    1    2    0    0  0.58698315947E+01  0.36401298667E+02 -0.25876706360E+02  0.45045681254E+02  0.00000000000E+00 0. -1.
         11    1    3    3    0    0 -0.53974563160E+01 -0.23855205792E+02  0.18234347716E+02  0.30507291177E+02  0.51100000000E-03 0.  1.
        -11    1    3    3    0    0 -0.13473653437E+01 -0.47875464944E+01  0.40682301639E+00  0.49901402820E+01  0.51100000000E-03 0. -1.
         12    1    3    3    0    0  0.87499006498E+00 -0.77585463803E+01  0.72355356276E+01  0.10644887288E+02  0.00000000000E+00 0. -1.
</event>
<event>
 7    1  0.2472338E-008  0.4614232E+02  0.7816164E-02  0.1320468E+00
        -11   -1    0    0    0    0  0.00000000000E+00  0.00000000000E+00  0.45593999997E+02  0.45594000000E+02  0.51100000000E-03 0.  1.
         11   -1    0    0    0    0 -0.00000000000E+00 -0.00000000000E+00 -0.45593999997E+02  0.45594000000E+02  0.51100000000E-03 0. -1.
    9900012    2    1    2    0    0 -0.34029741945E+01 -0.90776819241E+01  0.43990098933E+02  0.46142319335E+02  0.10000014350E+02 0.  0.
         12    1    1    2    0    0  0.34029741945E+01  0.90776819241E+01 -0.43990098933E+02  0.45045680665E+02  0.00000000000E+00 0. -1.
         11    1    3    3    0    0 -0.25704552819E+01 -0.14104680300E+01  0.28252292906E+02  0.28404026389E+02  0.51100000000E-03 0. -1.
        -11    1    3    3    0    0  0.53976583304E-01 -0.60399925184E+00  0.18536728455E+00  0.63410555831E+00  0.51100000000E-03 0.  1.
        -12    1    3    3    0    0 -0.88649549590E+00 -0.70632146423E+01  0.15552438742E+02  0.17104187387E+02  0.00000000000E+00 0.  1.
</event>
<event>
 7    1  0.2472338E-008  0.4614232E+02  0.7816164E-02  0.1320468E+00
        -11   -1    0    0    0    0  0.00000000000E+00  0.00000000000E+00  0.45593999997E+02  0.45594000000E+02  0.51100000000E-03 0. -1.
         11   -1    0    0    0    0 -0.00000000000E+00 -0.00000000000E+00 -0.45593999997E+02  0.45594000000E+02  0.51100000000E-03 0.  1.
    9900012    2    1    2    0    0 -0.30719102963E+02 -0.19645131565E+02 -0.26448421908E+02  0.46142317604E+02  0.99999985694E+01 0.  0.
         12    1    1    2    0    0  0.30719102963E+02  0.19645131565E+02  0.26448421908E+02  0.45045682396E+02  0.00000000000E+00 0. -1.
         11    1    3    3    0    0 -0.50650637308E+01 -0.74853185524E+01 -0.61300765602E+01  0.10920746464E+02  0.51100000000E-03 0. -1.
        -11    1    3    3    0    0 -0.70414832750E+01 -0.48533716933E+01 -0.41425040167E+01  0.95025282580E+01  0.51100000000E-03 0.  1.
         12    1    3    3    0    0 -0.18612555958E+02 -0.73064413193E+01 -0.16175841331E+02  0.25719042883E+02  0.00000000000E+00 0. -1.
</event>
<event>
 7    1  0.2472338E-008  0.4614232E+02  0.7816164E-02  0.1320468E+00
        -11   -1    0    0    0    0  0.00000000000E+00  0.00000000000E+00  0.45593999997E+02  0.45594000000E+02  0.51100000000E-03 0.  1.
         11   -1    0    0    0    0 -0.00000000000E+00 -0.00000000000E+00 -0.45593999997E+02  0.45594000000E+02  0.51100000000E-03 0. -1.
    9900012    2    1    2    0    0 -0.20155253301E+02  0.14306371279E+02  0.37659085735E+02  0.46142320593E+02  0.10000025823E+02 0.  0.
         12    1    1    2    0    0  0.20155253301E+02 -0.14306371279E+02 -0.37659085735E+02  0.45045679407E+02  0.00000000000E+00 0. -1.
         11    1    3    3    0    0 -0.10037033219E+02  0.39431068473E+01  0.10020137775E+02  0.14720505723E+02  0.51100000000E-03 0. -1.
        -11    1    3    3    0    0 -0.90703057327E+00  0.28817542396E+01  0.45461784524E+01  0.54584751296E+01  0.51100000000E-03 0.  1.
        -12    1    3    3    0    0 -0.92111895091E+01  0.74815101923E+01  0.23092769508E+02  0.25963339740E+02  0.00000000000E+00 0.  1.
</event>
<event>
 7    1  0.2472338E-008  0.4614233E+02  0.7816164E-02  0.1320468E+00
        -11   -1    0    0    0    0  0.00000000000E+00  0.00000000000E+00  0.45593999997E+02  0.45594000000E+02  0.51100000000E-03 0.  1.
         11   -1    0    0    0    0 -0.00000000000E+00 -0.00000000000E+00 -0.45593999997E+02  0.45594000000E+02  0.51100000000E-03 0. -1.
    9900012    2    1    2    0    0  0.27529326164E+02  0.56451521914E+01  0.35204842133E+02  0.46142329265E+02  0.10000104905E+02 0.  0.
         12    1    1    2    0    0 -0.27529326164E+02 -0.56451521914E+01 -0.35204842133E+02  0.45045670735E+02  0.00000000000E+00 0. -1.
         11    1    3    3    0    0  0.76557423577E+01  0.38238214512E+01  0.15181190670E+02  0.17427006397E+02  0.51100000000E-03 0. -1.
        -11    1    3    3    0    0  0.14943773777E+02  0.32593970601E+01  0.13404088044E+02  0.20337394632E+02  0.51100000000E-03 0.  1.
         12    1    3    3    0    0  0.49298100296E+01 -0.14380663199E+01  0.66195634197E+01  0.83779282365E+01  0.00000000000E+00 0. -1.
</event>
<event>
 7    1  0.2472338E-008  0.4614232E+02  0.7816164E-02  0.1320468E+00
        -11   -1    0    0    0    0  0.00000000000E+00  0.00000000000E+00  0.45593999997E+02  0.45594000000E+02  0.51100000000E-03 0.  1.
         11   -1    0    0    0    0 -0.00000000000E+00 -0.00000000000E+00 -0.45593999997E+02  0.45594000000E+02  0.51100000000E-03 0. -1.
    9900012    2    1    2    0    0 -0.14310179829E+02  0.23919177675E+02  0.35386511310E+02  0.46142317742E+02  0.99999998248E+01 0.  0.
         12    1    1    2    0    0  0.14310179829E+02 -0.23919177675E+02 -0.35386511310E+02  0.45045682258E+02  0.00000000000E+00 0. -1.
         11    1    3    3    0    0  0.55432521178E+00  0.36221391943E+01  0.51594897983E+01  0.63283097288E+01  0.51100000000E-03 0. -1.
        -11    1    3    3    0    0 -0.53891851175E+01  0.58770613835E+01  0.55996544163E+01  0.97436798274E+01  0.51100000000E-03 0.  1.
         12    1    3    3    0    0 -0.94753199237E+01  0.14419977098E+02  0.24627367095E+02  0.30070328186E+02  0.00000000000E+00 0. -1.
</event>
<event>
 7    1  0.2472338E-008  0.4614232E+02  0.7816164E-02  0.1320468E+00
        -11   -1    0    0    0    0  0.00000000000E+00  0.00000000000E+00  0.45593999997E+02  0.45594000000E+02  0.51100000000E-03 0. -1.
         11   -1    0    0    0    0 -0.00000000000E+00 -0.00000000000E+00 -0.45593999997E+02  0.45594000000E+02  0.51100000000E-03 0.  1.
    9900012    2    1    2    0    0 -0.24862596535E+02 -0.10020175379E+02 -0.36201669514E+02  0.46142317669E+02  0.99999991611E+01 0.  0.
         12    1    1    2    0    0  0.24862596535E+02  0.10020175379E+02  0.36201669514E+02  0.45045682331E+02  0.00000000000E+00 0. -1.
         11    1    3    3    0    0  0.26617566431E+00  0.16754832722E+00  0.20694147210E+00  0.37649297500E+00  0.51100000000E-03 0. -1.
        -11    1    3    3    0    0 -0.14830823618E+02 -0.33399538764E+01 -0.17610609505E+02  0.23264612364E+02  0.51100000000E-03 0.  1.
         12    1    3    3    0    0 -0.10297948582E+02 -0.68477698297E+01 -0.18798001481E+02  0.22501212330E+02  0.00000000000E+00 0. -1.
</event>
<event>
 7    1  0.2472338E-008  0.4614232E+02  0.7816164E-02  0.1320468E+00
        -11   -1    0    0    0    0  0.00000000000E+00  0.00000000000E+00  0.45593999997E+02  0.45594000000E+02  0.51100000000E-03 0.  1.
         11   -1    0    0    0    0 -0.00000000000E+00 -0.00000000000E+00 -0.45593999997E+02  0.45594000000E+02  0.51100000000E-03 0. -1.
    9900012    2    1    2    0    0 -0.10829360614E+02 -0.84999134435E+01  0.42890439958E+02  0.46142318524E+02  0.10000006956E+02 0.  0.
         12    1    1    2    0    0  0.10829360614E+02  0.84999134435E+01 -0.42890439958E+02  0.45045681476E+02  0.00000000000E+00 0. -1.
         11    1    3    3    0    0 -0.37595792628E+01  0.70080735415E+00  0.15878611729E+02  0.16332662914E+02  0.51100000000E-03 0. -1.
        -11    1    3    3    0    0 -0.20799103421E+01 -0.13446093050E+01  0.22108257188E+01  0.33199023833E+01  0.51100000000E-03 0.  1.
        -12    1    3    3    0    0 -0.49898710088E+01 -0.78561114927E+01  0.24801002511E+02  0.26489753226E+02  0.00000000000E+00 0.  1.
</event>
<event>
 7    1  0.2472338E-008  0.4614232E+02  0.7816164E-02  0.1320468E+00
        -11   -1    0    0    0    0  0.00000000000E+00  0.00000000000E+00  0.45593999997E+02  0.45594000000E+02  0.51100000000E-03 0.  1.
         11   -1    0    0    0    0 -0.00000000000E+00 -0.00000000000E+00 -0.45593999997E+02  0.45594000000E+02  0.51100000000E-03 0. -1.
    9900012    2    1    2    0    0  0.17278021898E+02  0.24308314129E+02  0.33759278010E+02  0.46142322869E+02  0.10000046573E+02 0.  0.
         12    1    1    2    0    0 -0.17278021898E+02 -0.24308314129E+02 -0.33759278010E+02  0.45045677131E+02  0.00000000000E+00 0. -1.
         11    1    3    3    0    0  0.87625393639E+01  0.11497651766E+02  0.15767646131E+02  0.21391511331E+02  0.51100000000E-03 0. -1.
        -11    1    3    3    0    0  0.93575429976E+01  0.10486224965E+02  0.12839448179E+02  0.19036174899E+02  0.51100000000E-03 0.  1.
         12    1    3    3    0    0 -0.84206046386E+00  0.23244373977E+01  0.51521836996E+01  0.57146366389E+01  0.00000000000E+00 0. -1.
</event>
<event>
 7    1  0.2472338E-008  0.4614232E+02  0.7816164E-02  0.1320468E+00
        -11   -1    0    0    0    0  0.00000000000E+00  0.00000000000E+00  0.45593999997E+02  0.45594000000E+02  0.51100000000E-03 0.  1.
         11   -1    0    0    0    0 -0.00000000000E+00 -0.00000000000E+00 -0.45593999997E+02  0.45594000000E+02  0.51100000000E-03 0. -1.
    9900012    2    1    2    0    0 -0.19184275662E+02  0.25199567510E+02  0.32032153362E+02  0.46142317805E+02  0.10000000404E+02 0.  0.
         12    1    1    2    0    0  0.19184275662E+02 -0.25199567510E+02 -0.32032153362E+02  0.45045682195E+02  0.00000000000E+00 0. -1.
         11    1    3    3    0    0 -0.89508007096E+01  0.83920399971E+01  0.11753203714E+02  0.16990614070E+02  0.51100000000E-03 0. -1.
        -11    1    3    3    0    0 -0.87433865022E+01  0.17286488274E+02  0.18584331620E+02  0.26844866668E+02  0.51100000000E-03 0.  1.
         12    1    3    3    0    0 -0.14900884505E+01 -0.47896076084E+00  0.16946180272E+01  0.23068370681E+01  0.00000000000E+00 0. -1.
</event>
<event>
 7    1  0.2472338E-008  0.4614232E+02  0.7816164E-02  0.1320468E+00
        -11   -1    0    0    0    0  0.00000000000E+00  0.00000000000E+00  0.45593999997E+02  0.45594000000E+02  0.51100000000E-03 0. -1.
         11   -1    0    0    0    0 -0.00000000000E+00 -0.00000000000E+00 -0.45593999997E+02  0.45594000000E+02  0.51100000000E-03 0.  1.
    9900012    2    1    2    0    0 -0.31963086349E+02 -0.31658876152E+02  0.22781837139E+01  0.46142318196E+02  0.10000003968E+02 0.  0.
         12    1    1    2    0    0  0.31963086349E+02  0.31658876152E+02 -0.22781837139E+01  0.45045681804E+02  0.00000000000E+00 0. -1.
         11    1    3    3    0    0 -0.44024166533E+01 -0.77442821725E+00  0.28867207043E+00  0.44793239756E+01  0.51100000000E-03 0. -1.
        -11    1    3    3    0    0 -0.18576583867E+02 -0.21971991446E+02  0.32021571149E+01  0.28950158665E+02  0.51100000000E-03 0.  1.
        -12    1    3    3    0    0 -0.89840858284E+01 -0.89124564887E+01 -0.12126454715E+01  0.12712835556E+02  0.00000000000E+00 0.  1.
</event>
<event>
 7    1  0.2472338E-008  0.4614232E+02  0.7816164E-02  0.1320468E+00
        -11   -1    0    0    0    0  0.00000000000E+00  0.00000000000E+00  0.45593999997E+02  0.45594000000E+02  0.51100000000E-03 0. -1.
         11   -1    0    0    0    0 -0.00000000000E+00 -0.00000000000E+00 -0.45593999997E+02  0.45594000000E+02  0.51100000000E-03 0.  1.
    9900012    2    1    2    0    0 -0.29628148446E+02 -0.88105840701E+01 -0.32766749015E+02  0.46142318597E+02  0.10000007627E+02 0.  0.
         12    1    1    2    0    0  0.29628148446E+02  0.88105840701E+01  0.32766749015E+02  0.45045681403E+02  0.00000000000E+00 0. -1.
         11    1    3    3    0    0 -0.10846643584E+02 -0.43175134440E+01 -0.12430334550E+02  0.17052970904E+02  0.51100000000E-03 0. -1.
        -11    1    3    3    0    0 -0.13354675591E+02 -0.14759879928E+01 -0.90246296931E+01  0.16185482447E+02  0.51100000000E-03 0.  1.
         12    1    3    3    0    0 -0.54268292714E+01 -0.30170826333E+01 -0.11311784772E+02  0.12903865246E+02  0.00000000000E+00 0. -1.
</event>
<event>
 7    1  0.2472338E-008  0.4614232E+02  0.7816164E-02  0.1320468E+00
        -11   -1    0    0    0    0  0.00000000000E+00  0.00000000000E+00  0.45593999997E+02  0.45594000000E+02  0.51100000000E-03 0.  1.
         11   -1    0    0    0    0 -0.00000000000E+00 -0.00000000000E+00 -0.45593999997E+02  0.45594000000E+02  0.51100000000E-03 0. -1.
    9900012    2    1    2    0    0 -0.11259980996E+01  0.41339940238E+02 -0.17856509645E+02  0.46142317995E+02  0.10000002136E+02 0.  0.
         12    1    1    2    0    0  0.11259980996E+01 -0.41339940238E+02  0.17856509645E+02  0.45045682005E+02  0.00000000000E+00 0. -1.
         11    1    3    3    0    0 -0.49825718304E+01  0.20005449532E+02 -0.99785801462E+01  0.22904499449E+02  0.51100000000E-03 0. -1.
        -11    1    3    3    0    0  0.28258750711E+01  0.12666652857E+02 -0.60528932463E+01  0.14320166948E+02  0.51100000000E-03 0.  1.
         12    1    3    3    0    0  0.10306986597E+01  0.86678378489E+01 -0.18250362521E+01  0.89176515980E+01  0.00000000000E+00 0. -1.
</event>
<event>
 7    1  0.2472338E-008  0.4614232E+02  0.7816164E-02  0.1320468E+00
        -11   -1    0    0    0    0  0.00000000000E+00  0.00000000000E+00  0.45593999997E+02  0.45594000000E+02  0.51100000000E-03 0.  1.
         11   -1    0    0    0    0 -0.00000000000E+00 -0.00000000000E+00 -0.45593999997E+02  0.45594000000E+02  0.51100000000E-03 0. -1.
    9900012    2    1    2    0    0 -0.29931918925E+02  0.30399397083E+02  0.14459266242E+02  0.46142317701E+02  0.99999994502E+01 0.  0.
         12    1    1    2    0    0  0.29931918925E+02 -0.30399397083E+02 -0.14459266242E+02  0.45045682299E+02  0.00000000000E+00 0. -1.
         11    1    3    3    0    0 -0.12940275938E+02  0.12749208749E+02  0.35837312113E+01  0.18515836323E+02  0.51100000000E-03 0. -1.
        -11    1    3    3    0    0 -0.10310131254E+02  0.14971578352E+02  0.82703593647E+01  0.19971124383E+02  0.51100000000E-03 0.  1.
        -12    1    3    3    0    0 -0.66815117328E+01  0.26786099814E+01  0.26051756656E+01  0.76553569947E+01  0.00000000000E+00 0.  1.
</event>
<event>
 7    1  0.2472338E-008  0.4614232E+02  0.7816164E-02  0.1320468E+00
        -11   -1    0    0    0    0  0.00000000000E+00  0.00000000000E+00  0.45593999997E+02  0.45594000000E+02  0.51100000000E-03 0.  1.
         11   -1    0    0    0    0 -0.00000000000E+00 -0.00000000000E+00 -0.45593999997E+02  0.45594000000E+02  0.51100000000E-03 0. -1.
    9900012    2    1    2    0    0 -0.17799922602E+02 -0.41139656829E+02  0.44502763246E+01  0.46142316878E+02  0.99999919426E+01 0.  0.
         12    1    1    2    0    0  0.17799922602E+02  0.41139656829E+02 -0.44502763246E+01  0.45045683122E+02  0.00000000000E+00 0. -1.
         11    1    3    3    0    0 -0.94495335982E+01 -0.13704571272E+02  0.22108595544E+01  0.16792762107E+02  0.51100000000E-03 0. -1.
        -11    1    3    3    0    0  0.67316789351E+00 -0.47651055150E+01 -0.27639162293E+00  0.48203504201E+01  0.51100000000E-03 0.  1.
        -12    1    3    3    0    0 -0.90235568972E+01 -0.22669980042E+02  0.25158083931E+01  0.24529204350E+02  0.00000000000E+00 0.  1.
</event>
<event>
 7    1  0.2472338E-008  0.4614232E+02  0.7816164E-02  0.1320468E+00
        -11   -1    0    0    0    0  0.00000000000E+00  0.00000000000E+00  0.45593999997E+02  0.45594000000E+02  0.51100000000E-03 0. -1.
         11   -1    0    0    0    0 -0.00000000000E+00 -0.00000000000E+00 -0.45593999997E+02  0.45594000000E+02  0.51100000000E-03 0.  1.
    9900012    2    1    2    0    0 -0.40182600258E+02  0.18357584232E+02 -0.88017731714E+01  0.46142317928E+02  0.10000001522E+02 0.  0.
         12    1    1    2    0    0  0.40182600258E+02 -0.18357584232E+02  0.88017731714E+01  0.45045682072E+02  0.00000000000E+00 0. -1.
         11    1    3    3    0    0 -0.14036291635E+02  0.30082303210E+01  0.39855581737E+00  0.14360563343E+02  0.51100000000E-03 0. -1.
        -11    1    3    3    0    0 -0.21475189451E+02  0.11454772059E+02 -0.73868987098E+01  0.25435444516E+02  0.51100000000E-03 0.  1.
        -12    1    3    3    0    0 -0.46711191724E+01  0.38945818522E+01 -0.18134302790E+01  0.63463100699E+01  0.00000000000E+00 0.  1.
</event>
<event>
 7    1  0.2472338E-008  0.4614232E+02  0.7816164E-02  0.1320468E+00
        -11   -1    0    0    0    0  0.00000000000E+00  0.00000000000E+00  0.45593999997E+02  0.45594000000E+02  0.51100000000E-03 0.  1.
         11   -1    0    0    0    0 -0.00000000000E+00 -0.00000000000E+00 -0.45593999997E+02  0.45594000000E+02  0.51100000000E-03 0. -1.
    9900012    2    1    2    0    0 -0.28431887041E+02  0.34911432689E+02  0.13904276051E+01  0.46142316277E+02  0.99999864690E+01 0.  0.
         12    1    1    2    0    0  0.28431887041E+02 -0.34911432689E+02 -0.13904276051E+01  0.45045683723E+02  0.00000000000E+00 0. -1.
         11    1    3    3    0    0 -0.31309469785E+01  0.75217295723E+01  0.26724931160E+01  0.85744658410E+01  0.51100000000E-03 0. -1.
        -11    1    3    3    0    0 -0.19811797246E+01  0.14057449666E+01  0.88841308597E+00  0.25865943023E+01  0.51100000000E-03 0.  1.
        -12    1    3    3    0    0 -0.23319760338E+02  0.25983958150E+02 -0.21704785968E+01  0.34981256134E+02  0.00000000000E+00 0.  1.
</event>
<event>
 7    1  0.2472338E-008  0.4614232E+02  0.7816164E-02  0.1320468E+00
        -11   -1    0    0    0    0  0.00000000000E+00  0.00000000000E+00  0.45593999997E+02  0.45594000000E+02  0.51100000000E-03 0. -1.
         11   -1    0    0    0    0 -0.00000000000E+00 -0.00000000000E+00 -0.45593999997E+02  0.45594000000E+02  0.51100000000E-03 0.  1.
    9900012    2    1    2    0    0  0.30997902942E+02 -0.80490790442E+01 -0.31677370826E+02  0.46142317823E+02  0.10000000568E+02 0.  0.
         12    1    1    2    0    0 -0.30997902942E+02  0.80490790442E+01  0.31677370826E+02  0.45045682177E+02  0.00000000000E+00 0. -1.
         11    1    3    3    0    0  0.11010765078E+01  0.57450233229E+00 -0.42031704295E+01  0.43828146580E+01  0.51100000000E-03 0. -1.
        -11    1    3    3    0    0  0.25564830758E+02 -0.78751055122E+01 -0.25439125586E+02  0.36915131984E+02  0.51100000000E-03 0.  1.
        -12    1    3    3    0    0  0.43319956766E+01 -0.74847586434E+00 -0.20350748106E+01  0.48443711817E+01  0.00000000000E+00 0.  1.
</event>
<event>
 7    1  0.2472338E-008  0.4614232E+02  0.7816164E-02  0.1320468E+00
        -11   -1    0    0    0    0  0.00000000000E+00  0.00000000000E+00  0.45593999997E+02  0.45594000000E+02  0.51100000000E-03 0.  1.
         11   -1    0    0    0    0 -0.00000000000E+00 -0.00000000000E+00 -0.45593999997E+02  0.45594000000E+02  0.51100000000E-03 0. -1.
    9900012    2    1    2    0    0  0.36033827762E+02  0.14861901925E+02  0.22578764894E+02  0.46142317675E+02  0.99999992157E+01 0.  0.
         12    1    1    2    0    0 -0.36033827762E+02 -0.14861901925E+02 -0.22578764894E+02  0.45045682325E+02  0.00000000000E+00 0. -1.
         11    1    3    3    0    0  0.46171615305E+00  0.16138515597E-01 -0.58588067998E+00  0.74612243631E+00  0.51100000000E-03 0. -1.
        -11    1    3    3    0    0  0.18298543701E+02  0.42800077846E+01  0.11173296557E+02  0.21863159068E+02  0.51100000000E-03 0.  1.
         12    1    3    3    0    0  0.17273567908E+02  0.10565755625E+02  0.11991349016E+02  0.23533036171E+02  0.00000000000E+00 0. -1.
</event>
<event>
 7    1  0.2472338E-008  0.4614232E+02  0.7816164E-02  0.1320468E+00
        -11   -1    0    0    0    0  0.00000000000E+00  0.00000000000E+00  0.45593999997E+02  0.45594000000E+02  0.51100000000E-03 0.  1.
         11   -1    0    0    0    0 -0.00000000000E+00 -0.00000000000E+00 -0.45593999997E+02  0.45594000000E+02  0.51100000000E-03 0. -1.
    9900012    2    1    2    0    0 -0.11926527468E+02  0.43053635660E+02  0.57667950873E+01  0.46142317337E+02  0.99999961294E+01 0.  0.
         12    1    1    2    0    0  0.11926527468E+02 -0.43053635660E+02 -0.57667950873E+01  0.45045682663E+02  0.00000000000E+00 0. -1.
         11    1    3    3    0    0 -0.39154484701E+01  0.21356246538E+02  0.56236385854E+01  0.22428671697E+02  0.51100000000E-03 0. -1.
        -11    1    3    3    0    0 -0.27561787248E+01  0.53256621331E+01 -0.21428079910E+01  0.63679529416E+01  0.51100000000E-03 0.  1.
        -12    1    3    3    0    0 -0.52549002735E+01  0.16371726990E+02  0.22859644928E+01  0.17345692698E+02  0.00000000000E+00 0.  1.
</event>
<event>
 7    1  0.2472338E-008  0.4614231E+02  0.7816164E-02  0.1320468E+00
        -11   -1    0    0    0    0  0.00000000000E+00  0.00000000000E+00  0.45593999997E+02  0.45594000000E+02  0.51100000000E-03 0.  1.
         11   -1    0    0    0    0 -0.00000000000E+00 -0.00000000000E+00 -0.45593999997E+02  0.45594000000E+02  0.51100000000E-03 0. -1.
    9900012    2    1    2    0    0  0.20461644687E+02 -0.11467115920E+01  0.40113844740E+02  0.46142307746E+02  0.99999086764E+01 0.  0.
         12    1    1    2    0    0 -0.20461644687E+02  0.11467115920E+01 -0.40113844740E+02  0.45045692254E+02  0.00000000000E+00 0. -1.
         11    1    3    3    0    0  0.22695232804E+01 -0.10511074821E+01  0.99518787203E+01  0.10261357278E+02  0.51100000000E-03 0. -1.
        -11    1    3    3    0    0  0.31010810588E+01 -0.60430071581E+00  0.11224040035E+02  0.11660229760E+02  0.51100000000E-03 0.  1.
         12    1    3    3    0    0  0.15091040348E+02  0.50869660588E+00  0.18937925984E+02  0.24220720708E+02  0.00000000000E+00 0. -1.
</event>
<event>
 7    1  0.2472338E-008  0.4614232E+02  0.7816164E-02  0.1320468E+00
        -11   -1    0    0    0    0  0.00000000000E+00  0.00000000000E+00  0.45593999997E+02  0.45594000000E+02  0.51100000000E-03 0.  1.
         11   -1    0    0    0    0 -0.00000000000E+00 -0.00000000000E+00 -0.45593999997E+02  0.45594000000E+02  0.51100000000E-03 0. -1.
    9900012    2    1    2    0    0 -0.22128771689E+02  0.43338590745E+01  0.38995495157E+02  0.46142317483E+02  0.99999974604E+01 0.  0.
         12    1    1    2    0    0  0.22128771689E+02 -0.43338590745E+01 -0.38995495157E+02  0.45045682517E+02  0.00000000000E+00 0. -1.
         11    1    3    3    0    0 -0.50320922174E+01 -0.78382556912E+00  0.75934932764E+01  0.91431654807E+01  0.51100000000E-03 0. -1.
        -11    1    3    3    0    0 -0.14081831410E+02  0.99214344152E+00  0.25851738586E+02  0.29454960747E+02  0.51100000000E-03 0.  1.
         12    1    3    3    0    0 -0.30148480613E+01  0.41255412021E+01  0.55502632947E+01  0.75441912545E+01  0.00000000000E+00 0. -1.
</event>
<event>
 7    1  0.2472338E-008  0.4614232E+02  0.7816164E-02  0.1320468E+00
        -11   -1    0    0    0    0  0.00000000000E+00  0.00000000000E+00  0.45593999997E+02  0.45594000000E+02  0.51100000000E-03 0.  1.
         11   -1    0    0    0    0 -0.00000000000E+00 -0.00000000000E+00 -0.45593999997E+02  0.45594000000E+02  0.51100000000E-03 0. -1.
    9900012    2    1    2    0    0 -0.56011960262E+01  0.13123402000E+02  0.42726062321E+02  0.46142317871E+02  0.10000001006E+02 0.  0.
         12    1    1    2    0    0  0.56011960262E+01 -0.13123402000E+02 -0.42726062321E+02  0.45045682129E+02  0.00000000000E+00 0. -1.
         11    1    3    3    0    0 -0.11550218490E+01 -0.37689513632E-01  0.36662678478E+01  0.38440884699E+01  0.51100000000E-03 0. -1.
        -11    1    3    3    0    0 -0.48431679570E+01  0.10155793348E+02  0.36896906336E+02  0.38574319331E+02  0.51100000000E-03 0.  1.
        -12    1    3    3    0    0  0.39699377982E+00  0.30052981650E+01  0.21628881369E+01  0.37239100707E+01  0.00000000000E+00 0.  1.
</event>
<event>
 7    1  0.2472338E-008  0.4614232E+02  0.7816164E-02  0.1320468E+00
        -11   -1    0    0    0    0  0.00000000000E+00  0.00000000000E+00  0.45593999997E+02  0.45594000000E+02  0.51100000000E-03 0. -1.
         11   -1    0    0    0    0 -0.00000000000E+00 -0.00000000000E+00 -0.45593999997E+02  0.45594000000E+02  0.51100000000E-03 0.  1.
    9900012    2    1    2    0    0 -0.85497048822E+00 -0.25555693935E+02 -0.37084886737E+02  0.46142319948E+02  0.10000019944E+02 0.  0.
         12    1    1    2    0    0  0.85497048822E+00  0.25555693935E+02  0.37084886737E+02  0.45045680052E+02  0.00000000000E+00 0. -1.
         11    1    3    3    0    0 -0.98488812915E+00 -0.50080646309E+01 -0.87032905982E+01  0.10089498673E+02  0.51100000000E-03 0.  1.
        -11    1    3    3    0    0  0.69306292160E-01 -0.62258653992E+01 -0.15825461636E+02  0.17006217675E+02  0.51100000000E-03 0. -1.
         12    1    3    3    0    0  0.60611348771E-01 -0.14321763905E+02 -0.12556134503E+02  0.19046603601E+02  0.00000000000E+00 0. -1.
</event>
<event>
 7    1  0.2472338E-008  0.4614232E+02  0.7816164E-02  0.1320468E+00
        -11   -1    0    0    0    0  0.00000000000E+00  0.00000000000E+00  0.45593999997E+02  0.45594000000E+02  0.51100000000E-03 0.  1.
         11   -1    0    0    0    0 -0.00000000000E+00 -0.00000000000E+00 -0.45593999997E+02  0.45594000000E+02  0.51100000000E-03 0. -1.
    9900012    2    1    2    0    0 -0.56880754083E+01  0.26973375340E+02  0.35625780146E+02  0.46142318852E+02  0.10000009950E+02 0.  0.
         12    1    1    2    0    0  0.56880754083E+01 -0.26973375340E+02 -0.35625780146E+02  0.45045681148E+02  0.00000000000E+00 0. -1.
         11    1    3    3    0    0 -0.27618308955E+01  0.98042566864E+01  0.10394064225E+02  0.14552928587E+02  0.51100000000E-03 0. -1.
        -11    1    3    3    0    0 -0.18784681829E+01  0.16712041236E+02  0.19524074723E+02  0.25768400397E+02  0.51100000000E-03 0.  1.
         12    1    3    3    0    0 -0.10477763299E+01  0.45707741680E+00  0.57076411980E+01  0.58209898684E+01  0.00000000000E+00 0. -1.
</event>
<event>
 7    1  0.2472338E-008  0.4614232E+02  0.7816164E-02  0.1320468E+00
        -11   -1    0    0    0    0  0.00000000000E+00  0.00000000000E+00  0.45593999997E+02  0.45594000000E+02  0.51100000000E-03 0.  1.
         11   -1    0    0    0    0 -0.00000000000E+00 -0.00000000000E+00 -0.45593999997E+02  0.45594000000E+02  0.51100000000E-03 0. -1.
    9900012    2    1    2    0    0  0.20648141986E+02 -0.24119932942E+01  0.39961857322E+02  0.46142317412E+02  0.99999968203E+01 0.  0.
         12    1    1    2    0    0 -0.20648141986E+02  0.24119932942E+01 -0.39961857322E+02  0.45045682588E+02  0.00000000000E+00 0. -1.
         11    1    3    3    0    0  0.43754298512E+01 -0.50242126658E+00  0.65319716798E+01  0.78780370524E+01  0.51100000000E-03 0. -1.
        -11    1    3    3    0    0  0.10751811357E+02  0.12828580737E+01  0.27503752353E+02  0.29558477059E+02  0.51100000000E-03 0.  1.
         12    1    3    3    0    0  0.55209007780E+01 -0.31924301013E+01  0.59261332899E+01  0.87058033014E+01  0.00000000000E+00 0. -1.
</event>
<event>
 7    1  0.2472338E-008  0.4614232E+02  0.7816164E-02  0.1320468E+00
        -11   -1    0    0    0    0  0.00000000000E+00  0.00000000000E+00  0.45593999997E+02  0.45594000000E+02  0.51100000000E-03 0.  1.
         11   -1    0    0    0    0 -0.00000000000E+00 -0.00000000000E+00 -0.45593999997E+02  0.45594000000E+02  0.51100000000E-03 0. -1.
    9900012    2    1    2    0    0  0.28790137442E+02  0.24930779724E+02  0.24056141115E+02  0.46142315224E+02  0.99999768669E+01 0.  0.
         12    1    1    2    0    0 -0.28790137442E+02 -0.24930779724E+02 -0.24056141115E+02  0.45045684776E+02  0.00000000000E+00 0. -1.
         11    1    3    3    0    0  0.55960251867E+01  0.41509813741E+01  0.42907500045E+01  0.81827061612E+01  0.51100000000E-03 0. -1.
        -11    1    3    3    0    0  0.21839952281E+02  0.17144698373E+02  0.14228161336E+02  0.31198794419E+02  0.51100000000E-03 0.  1.
         12    1    3    3    0    0  0.13541599747E+01  0.36350999766E+01  0.55372297744E+01  0.67608146441E+01  0.00000000000E+00 0. -1.
</event>
<event>
 7    1  0.2472338E-008  0.4614232E+02  0.7816164E-02  0.1320468E+00
        -11   -1    0    0    0    0  0.00000000000E+00  0.00000000000E+00  0.45593999997E+02  0.45594000000E+02  0.51100000000E-03 0.  1.
         11   -1    0    0    0    0 -0.00000000000E+00 -0.00000000000E+00 -0.45593999997E+02  0.45594000000E+02  0.51100000000E-03 0. -1.
    9900012    2    1    2    0    0  0.18864101842E+02  0.24885662507E+02  0.32464795550E+02  0.46142317778E+02  0.10000000156E+02 0.  0.
         12    1    1    2    0    0 -0.18864101842E+02 -0.24885662507E+02 -0.32464795550E+02  0.45045682222E+02  0.00000000000E+00 0. -1.
         11    1    3    3    0    0  0.80803846790E+01  0.12507435857E+02  0.19154921431E+02  0.24261895713E+02  0.51100000000E-03 0.  1.
        -11    1    3    3    0    0  0.13403922508E+01  0.46880848588E+01  0.20331224738E+01  0.52828380899E+01  0.51100000000E-03 0. -1.
         12    1    3    3    0    0  0.94433249117E+01  0.76901417918E+01  0.11276751645E+02  0.16597583976E+02  0.00000000000E+00 0. -1.
</event>
<event>
 7    1  0.2472338E-008  0.4614232E+02  0.7816164E-02  0.1320468E+00
        -11   -1    0    0    0    0  0.00000000000E+00  0.00000000000E+00  0.45593999997E+02  0.45594000000E+02  0.51100000000E-03 0. -1.
         11   -1    0    0    0    0 -0.00000000000E+00 -0.00000000000E+00 -0.45593999997E+02  0.45594000000E+02  0.51100000000E-03 0.  1.
    9900012    2    1    2    0    0 -0.34005877966E+01  0.38431203988E+02 -0.23250635891E+02  0.46142317558E+02  0.99999981451E+01 0.  0.
         12    1    1    2    0    0  0.34005877966E+01 -0.38431203988E+02  0.23250635891E+02  0.45045682442E+02  0.00000000000E+00 0. -1.
         11    1    3    3    0    0 -0.15746037224E+01  0.11004473178E+01 -0.28091908973E+01  0.34032212594E+01  0.51100000000E-03 0. -1.
        -11    1    3    3    0    0  0.11203182541E+00  0.21011774443E+02 -0.12915732666E+02  0.24664212270E+02  0.51100000000E-03 0.  1.
         12    1    3    3    0    0 -0.19380158996E+01  0.16318982228E+02 -0.75257123278E+01  0.18074884028E+02  0.00000000000E+00 0. -1.
</event>
<event>
 7    1  0.2472338E-008  0.4614232E+02  0.7816164E-02  0.1320468E+00
        -11   -1    0    0    0    0  0.00000000000E+00  0.00000000000E+00  0.45593999997E+02  0.45594000000E+02  0.51100000000E-03 0.  1.
         11   -1    0    0    0    0 -0.00000000000E+00 -0.00000000000E+00 -0.45593999997E+02  0.45594000000E+02  0.51100000000E-03 0. -1.
    9900012    2    1    2    0    0  0.15399874195E+02  0.30097305364E+02  0.29767592157E+02  0.46142318096E+02  0.10000003050E+02 0.  0.
         12    1    1    2    0    0 -0.15399874195E+02 -0.30097305364E+02 -0.29767592157E+02  0.45045681904E+02  0.00000000000E+00 0. -1.
         11    1    3    3    0    0  0.25410617351E+01  0.71526943603E+01  0.29325701354E+01  0.81374442679E+01  0.51100000000E-03 0. -1.
        -11    1    3    3    0    0  0.74872022540E+01  0.77544512143E+01  0.10027904954E+02  0.14722383953E+02  0.51100000000E-03 0.  1.
         12    1    3    3    0    0  0.53716102054E+01  0.15190159790E+02  0.16807117068E+02  0.23282489875E+02  0.00000000000E+00 0. -1.
</event>
<event>
 7    1  0.2472338E-008  0.4614232E+02  0.7816164E-02  0.1320468E+00
        -11   -1    0    0    0    0  0.00000000000E+00  0.00000000000E+00  0.45593999997E+02  0.45594000000E+02  0.51100000000E-03 0.  1.
         11   -1    0    0    0    0 -0.00000000000E+00 -0.00000000000E+00 -0.45593999997E+02  0.45594000000E+02  0.51100000000E-03 0. -1.
    9900012    2    1    2    0    0  0.18805118377E+02  0.15059936829E+02  0.38061519239E+02  0.46142318506E+02  0.10000006795E+02 0.  0.
         12    1    1    2    0    0 -0.18805118377E+02 -0.15059936829E+02 -0.38061519239E+02  0.45045681494E+02  0.00000000000E+00 0. -1.
         11    1    3    3    0    0  0.51650650462E+01  0.47278621802E+01  0.64674270845E+01  0.95319563093E+01  0.51100000000E-03 0. -1.
        -11    1    3    3    0    0  0.12948826052E+02  0.97678061357E+01  0.24017545344E+02  0.28981452990E+02  0.51100000000E-03 0.  1.
         12    1    3    3    0    0  0.69122727855E+00  0.56426851259E+00  0.75765468108E+01  0.76289092065E+01  0.00000000000E+00 0. -1.
</event>
<event>
 7    1  0.2472338E-008  0.4614232E+02  0.7816164E-02  0.1320468E+00
        -11   -1    0    0    0    0  0.00000000000E+00  0.00000000000E+00  0.45593999997E+02  0.45594000000E+02  0.51100000000E-03 0. -1.
         11   -1    0    0    0    0 -0.00000000000E+00 -0.00000000000E+00 -0.45593999997E+02  0.45594000000E+02  0.51100000000E-03 0.  1.
    9900012    2    1    2    0    0  0.18374625674E+02  0.29579918587E+02 -0.28574729869E+02  0.46142316085E+02  0.99999847174E+01 0.  0.
         12    1    1    2    0    0 -0.18374625674E+02 -0.29579918587E+02  0.28574729869E+02  0.45045683915E+02  0.00000000000E+00 0. -1.
         11    1    3    3    0    0 -0.34871718460E+00  0.15923979096E+00 -0.72411838062E+00  0.81933428839E+00  0.51100000000E-03 0. -1.
        -11    1    3    3    0    0  0.18448807928E+02  0.25529710789E+02 -0.26598611952E+02  0.41226336303E+02  0.51100000000E-03 0.  1.
         12    1    3    3    0    0  0.27453493084E+00  0.38909680076E+01 -0.12519995355E+01  0.40966454937E+01  0.00000000000E+00 0. -1.
</event>
<event>
 7    1  0.2472338E-008  0.4614232E+02  0.7816164E-02  0.1320468E+00
        -11   -1    0    0    0    0  0.00000000000E+00  0.00000000000E+00  0.45593999997E+02  0.45594000000E+02  0.51100000000E-03 0. -1.
         11   -1    0    0    0    0 -0.00000000000E+00 -0.00000000000E+00 -0.45593999997E+02  0.45594000000E+02  0.51100000000E-03 0.  1.
    9900012    2    1    2    0    0 -0.41686344381E+01 -0.43212871457E+01 -0.44643728835E+02  0.46142316966E+02  0.99999927512E+01 0.  0.
         12    1    1    2    0    0  0.41686344381E+01  0.43212871457E+01  0.44643728835E+02  0.45045683034E+02  0.00000000000E+00 0. -1.
         11    1    3    3    0    0 -0.42385874662E+01  0.21090916333E+01 -0.15343807329E+02  0.16057593682E+02  0.51100000000E-03 0. -1.
        -11    1    3    3    0    0 -0.83813098100E+00 -0.41939241861E+01 -0.15692392941E+02  0.16264767446E+02  0.51100000000E-03 0.  1.
        -12    1    3    3    0    0  0.90808400904E+00 -0.22364545930E+01 -0.13607528565E+02  0.13819955838E+02  0.00000000000E+00 0.  1.
</event>
<event>
 7    1  0.2472338E-008  0.4614232E+02  0.7816164E-02  0.1320468E+00
        -11   -1    0    0    0    0  0.00000000000E+00  0.00000000000E+00  0.45593999997E+02  0.45594000000E+02  0.51100000000E-03 0. -1.
         11   -1    0    0    0    0 -0.00000000000E+00 -0.00000000000E+00 -0.45593999997E+02  0.45594000000E+02  0.51100000000E-03 0.  1.
    9900012    2    1    2    0    0  0.35973371588E+02  0.12836500489E+02 -0.23879999362E+02  0.46142316769E+02  0.99999909521E+01 0.  0.
         12    1    1    2    0    0 -0.35973371588E+02 -0.12836500489E+02  0.23879999362E+02  0.45045683231E+02  0.00000000000E+00 0. -1.
         11    1    3    3    0    0 -0.74810972900E-01  0.29153284598E+00 -0.15633928660E+00  0.33916119414E+00  0.51100000000E-03 0. -1.
        -11    1    3    3    0    0  0.62641746244E+01  0.33272101113E+01 -0.86096579207E+01  0.11155107378E+02  0.51100000000E-03 0.  1.
        -12    1    3    3    0    0  0.29784007937E+02  0.92177575318E+01 -0.15114002155E+02  0.34648048196E+02  0.00000000000E+00 0.  1.
</event>
<event>
 7    1  0.2472338E-008  0.4614232E+02  0.7816164E-02  0.1320468E+00
        -11   -1    0    0    0    0  0.00000000000E+00  0.00000000000E+00  0.45593999997E+02  0.45594000000E+02  0.51100000000E-03 0.  1.
         11   -1    0    0    0    0 -0.00000000000E+00 -0.00000000000E+00 -0.45593999997E+02  0.45594000000E+02  0.51100000000E-03 0. -1.
    9900012    2    1    2    0    0  0.15720501711E+02  0.34513207980E+02 -0.24306747048E+02  0.46142315955E+02  0.99999835274E+01 0.  0.
         12    1    1    2    0    0 -0.15720501711E+02 -0.34513207980E+02  0.24306747048E+02  0.45045684045E+02  0.00000000000E+00 0. -1.
         11    1    3    3    0    0  0.65376630794E+01  0.60771047213E+01 -0.30639960002E+01  0.94371771247E+01  0.51100000000E-03 0. -1.
        -11    1    3    3    0    0  0.32025501729E+01  0.10893057549E+02 -0.90544443395E+01  0.14522327393E+02  0.51100000000E-03 0.  1.
         12    1    3    3    0    0  0.59802884583E+01  0.17543045710E+02 -0.12188306708E+02  0.22182811436E+02  0.00000000000E+00 0. -1.
</event>
<event>
 7    1  0.2472338E-008  0.4614232E+02  0.7816164E-02  0.1320468E+00
        -11   -1    0    0    0    0  0.00000000000E+00  0.00000000000E+00  0.45593999997E+02  0.45594000000E+02  0.51100000000E-03 0. -1.
         11   -1    0    0    0    0 -0.00000000000E+00 -0.00000000000E+00 -0.45593999997E+02  0.45594000000E+02  0.51100000000E-03 0.  1.
    9900012    2    1    2    0    0  0.30891248189E+02  0.12422404743E+02 -0.30340207179E+02  0.46142317344E+02  0.99999961960E+01 0.  0.
         12    1    1    2    0    0 -0.30891248189E+02 -0.12422404743E+02  0.30340207179E+02  0.45045682656E+02  0.00000000000E+00 0. -1.
         11    1    3    3    0    0  0.16168080305E+02  0.93295529102E+01 -0.14049919941E+02  0.23363382222E+02  0.51100000000E-03 0. -1.
        -11    1    3    3    0    0  0.10786707412E+02  0.26152976987E+01 -0.83019412217E+01  0.13860557967E+02  0.51100000000E-03 0.  1.
        -12    1    3    3    0    0  0.39364604727E+01  0.47755413403E+00 -0.79883460164E+01  0.89183771552E+01  0.00000000000E+00 0.  1.
</event>
<event>
 7    1  0.2472338E-008  0.4614232E+02  0.7816164E-02  0.1320468E+00
        -11   -1    0    0    0    0  0.00000000000E+00  0.00000000000E+00  0.45593999997E+02  0.45594000000E+02  0.51100000000E-03 0.  1.
         11   -1    0    0    0    0 -0.00000000000E+00 -0.00000000000E+00 -0.45593999997E+02  0.45594000000E+02  0.51100000000E-03 0. -1.
    9900012    2    1    2    0    0  0.10400831419E+02 -0.17717168244E+01  0.43792662464E+02  0.46142316961E+02  0.99999927072E+01 0.  0.
         12    1    1    2    0    0 -0.10400831419E+02  0.17717168244E+01 -0.43792662464E+02  0.45045683039E+02  0.00000000000E+00 0. -1.
         11    1    3    3    0    0  0.38731127060E+01 -0.84684479949E-01  0.13943824615E+02  0.14471987377E+02  0.51100000000E-03 0. -1.
        -11    1    3    3    0    0  0.22100779081E+01 -0.33913406927E+01  0.23265869937E+02  0.23615383551E+02  0.51100000000E-03 0.  1.
         12    1    3    3    0    0  0.43176408051E+01  0.17043083483E+01  0.65829679118E+01  0.80549460330E+01  0.00000000000E+00 0. -1.
</event>
<event>
 7    1  0.2472338E-008  0.4614232E+02  0.7816164E-02  0.1320468E+00
        -11   -1    0    0    0    0  0.00000000000E+00  0.00000000000E+00  0.45593999997E+02  0.45594000000E+02  0.51100000000E-03 0.  1.
         11   -1    0    0    0    0 -0.00000000000E+00 -0.00000000000E+00 -0.45593999997E+02  0.45594000000E+02  0.51100000000E-03 0. -1.
    9900012    2    1    2    0    0 -0.73715029928E+01 -0.44271903290E+02  0.38435997008E+01  0.46142315013E+02  0.99999749389E+01 0.  0.
         12    1    1    2    0    0  0.73715029928E+01  0.44271903290E+02 -0.38435997008E+01  0.45045684987E+02  0.00000000000E+00 0. -1.
         11    1    3    3    0    0  0.93699631070E+00 -0.40494911831E+01  0.27044157225E+00  0.41652706795E+01  0.51100000000E-03 0. -1.
        -11    1    3    3    0    0 -0.42982141822E+01 -0.32790348460E+02  0.77290129124E+00  0.33079887756E+02  0.51100000000E-03 0.  1.
        -12    1    3    3    0    0 -0.40102851212E+01 -0.74320636474E+01  0.28002568373E+01  0.88971565777E+01  0.00000000000E+00 0.  1.
</event>
<event>
 7    1  0.2472338E-008  0.4614232E+02  0.7816164E-02  0.1320468E+00
        -11   -1    0    0    0    0  0.00000000000E+00  0.00000000000E+00  0.45593999997E+02  0.45594000000E+02  0.51100000000E-03 0. -1.
         11   -1    0    0    0    0 -0.00000000000E+00 -0.00000000000E+00 -0.45593999997E+02  0.45594000000E+02  0.51100000000E-03 0.  1.
    9900012    2    1    2    0    0  0.33595814737E+01  0.45844200552E+01 -0.44685677743E+02  0.46142317740E+02  0.99999998106E+01 0.  0.
         12    1    1    2    0    0 -0.33595814737E+01 -0.45844200552E+01  0.44685677743E+02  0.45045682260E+02  0.00000000000E+00 0. -1.
         11    1    3    3    0    0 -0.25730148448E+00  0.55472681086E+01 -0.18060944710E+02  0.18895399218E+02  0.51100000000E-03 0. -1.
        -11    1    3    3    0    0  0.24047478130E+01 -0.60129647454E-01 -0.47913901339E+01  0.53613288740E+01  0.51100000000E-03 0.  1.
        -12    1    3    3    0    0  0.12121351452E+01 -0.90271840596E+00 -0.21833342899E+02  0.21885589648E+02  0.00000000000E+00 0.  1.
</event>
<event>
 7    1  0.2472338E-008  0.4614232E+02  0.7816164E-02  0.1320468E+00
        -11   -1    0    0    0    0  0.00000000000E+00  0.00000000000E+00  0.45593999997E+02  0.45594000000E+02  0.51100000000E-03 0.  1.
         11   -1    0    0    0    0 -0.00000000000E+00 -0.00000000000E+00 -0.45593999997E+02  0.45594000000E+02  0.51100000000E-03 0. -1.
    9900012    2    1    2    0    0  0.32477138234E+02 -0.20088365948E+01  0.31149858912E+02  0.46142316050E+02  0.99999843922E+01 0.  0.
         12    1    1    2    0    0 -0.32477138234E+02  0.20088365948E+01 -0.31149858912E+02  0.45045683950E+02  0.00000000000E+00 0. -1.
         11    1    3    3    0    0  0.11787933477E+02 -0.90903875262E-01  0.11138650197E+02  0.16218297310E+02  0.51100000000E-03 0. -1.
        -11    1    3    3    0    0  0.21240353081E+02 -0.17014126849E+01  0.20137708370E+02  0.29318504443E+02  0.51100000000E-03 0.  1.
         12    1    3    3    0    0 -0.55114832401E+00 -0.21652003468E+00 -0.12649965458E+00  0.60551429635E+00  0.00000000000E+00 0. -1.
</event>
<event>
 7    1  0.2472338E-008  0.4614232E+02  0.7816164E-02  0.1320468E+00
        -11   -1    0    0    0    0  0.00000000000E+00  0.00000000000E+00  0.45593999997E+02  0.45594000000E+02  0.51100000000E-03 0. -1.
         11   -1    0    0    0    0 -0.00000000000E+00 -0.00000000000E+00 -0.45593999997E+02  0.45594000000E+02  0.51100000000E-03 0.  1.
    9900012    2    1    2    0    0  0.24159637803E+02 -0.43554753262E+01 -0.37768441356E+02  0.46142318447E+02  0.10000006257E+02 0.  0.
         12    1    1    2    0    0 -0.24159637803E+02  0.43554753262E+01  0.37768441356E+02  0.45045681553E+02  0.00000000000E+00 0. -1.
         11    1    3    3    0    0  0.20603845470E+02 -0.17870675125E+01 -0.27871106037E+02  0.34706060140E+02  0.51100000000E-03 0. -1.
        -11    1    3    3    0    0  0.21949259193E+01  0.59656161648E+00 -0.36068925330E+01  0.42641833402E+01  0.51100000000E-03 0.  1.
         12    1    3    3    0    0  0.13608664137E+01 -0.31649694302E+01 -0.62904427857E+01  0.71720749669E+01  0.00000000000E+00 0. -1.
</event>
<event>
 7    1  0.2472338E-008  0.4614232E+02  0.7816164E-02  0.1320468E+00
        -11   -1    0    0    0    0  0.00000000000E+00  0.00000000000E+00  0.45593999997E+02  0.45594000000E+02  0.51100000000E-03 0. -1.
         11   -1    0    0    0    0 -0.00000000000E+00 -0.00000000000E+00 -0.45593999997E+02  0.45594000000E+02  0.51100000000E-03 0.  1.
    9900012    2    1    2    0    0 -0.12210050758E+02  0.42957294067E+02  0.58906066855E+01  0.46142315409E+02  0.99999785560E+01 0.  0.
         12    1    1    2    0    0  0.12210050758E+02 -0.42957294067E+02 -0.58906066855E+01  0.45045684591E+02  0.00000000000E+00 0. -1.
         11    1    3    3    0    0 -0.37459041971E+01  0.88167111064E+01  0.10594559210E+01  0.96378752896E+01  0.51100000000E-03 0. -1.
        -11    1    3    3    0    0 -0.39096461837E+01  0.27910966357E+02  0.56497842159E+01  0.28744172248E+02  0.51100000000E-03 0.  1.
         12    1    3    3    0    0 -0.45545003772E+01  0.62296166038E+01 -0.81863345145E+00  0.77602678719E+01  0.00000000000E+00 0. -1.
</event>
<event>
 7    1  0.2472338E-008  0.4614232E+02  0.7816164E-02  0.1320468E+00
        -11   -1    0    0    0    0  0.00000000000E+00  0.00000000000E+00  0.45593999997E+02  0.45594000000E+02  0.51100000000E-03 0.  1.
         11   -1    0    0    0    0 -0.00000000000E+00 -0.00000000000E+00 -0.45593999997E+02  0.45594000000E+02  0.51100000000E-03 0. -1.
    9900012    2    1    2    0    0 -0.31691238909E+02  0.24497624549E+02  0.20606923018E+02  0.46142317539E+02  0.99999979746E+01 0.  0.
         12    1    1    2    0    0  0.31691238909E+02 -0.24497624549E+02 -0.20606923018E+02  0.45045682461E+02  0.00000000000E+00 0. -1.
         11    1    3    3    0    0 -0.65530409789E+01  0.22256209850E+01  0.54248448505E+01  0.87934451015E+01  0.51100000000E-03 0. -1.
        -11    1    3    3    0    0 -0.11651589392E+02  0.76400139690E+01  0.38767150329E+01  0.14462305090E+02  0.51100000000E-03 0.  1.
        -12    1    3    3    0    0 -0.13486608538E+02  0.14631989595E+02  0.11305363134E+02  0.22886567348E+02  0.00000000000E+00 0.  1.
</event>
<event>
 7    1  0.2472338E-008  0.4614232E+02  0.7816164E-02  0.1320468E+00
        -11   -1    0    0    0    0  0.00000000000E+00  0.00000000000E+00  0.45593999997E+02  0.45594000000E+02  0.51100000000E-03 0.  1.
         11   -1    0    0    0    0 -0.00000000000E+00 -0.00000000000E+00 -0.45593999997E+02  0.45594000000E+02  0.51100000000E-03 0. -1.
    9900012    2    1    2    0    0  0.13805337211E+02 -0.24693773397E+02  0.35053442314E+02  0.46142316542E+02  0.99999888861E+01 0.  0.
         12    1    1    2    0    0 -0.13805337211E+02  0.24693773397E+02 -0.35053442314E+02  0.45045683458E+02  0.00000000000E+00 0. -1.
         11    1    3    3    0    0  0.54383777104E+01 -0.43953294597E+01  0.11334012035E+02  0.13317458551E+02  0.51100000000E-03 0. -1.
        -11    1    3    3    0    0  0.47422772450E+00 -0.68308372155E+01  0.94919666842E+01  0.11703959193E+02  0.51100000000E-03 0.  1.
        -12    1    3    3    0    0  0.78927317762E+01 -0.13467606722E+02  0.14227463595E+02  0.21120898798E+02  0.00000000000E+00 0.  1.
</event>
<event>
 7    1  0.2472338E-008  0.4614232E+02  0.7816164E-02  0.1320468E+00
        -11   -1    0    0    0    0  0.00000000000E+00  0.00000000000E+00  0.45593999997E+02  0.45594000000E+02  0.51100000000E-03 0.  1.
         11   -1    0    0    0    0 -0.00000000000E+00 -0.00000000000E+00 -0.45593999997E+02  0.45594000000E+02  0.51100000000E-03 0. -1.
    9900012    2    1    2    0    0  0.26305065835E+02  0.18241672132E+01  0.36521626135E+02  0.46142320405E+02  0.10000024113E+02 0.  0.
         12    1    1    2    0    0 -0.26305065835E+02 -0.18241672132E+01 -0.36521626135E+02  0.45045679595E+02  0.00000000000E+00 0. -1.
         11    1    3    3    0    0  0.13416328727E+01  0.49270402485E+00  0.69248069660E+01  0.70707628866E+01  0.51100000000E-03 0. -1.
        -11    1    3    3    0    0  0.21092898796E+02 -0.73609194122E+00  0.24016481626E+02  0.31972544486E+02  0.51100000000E-03 0.  1.
        -12    1    3    3    0    0  0.38705341661E+01  0.20675551295E+01  0.55803375427E+01  0.70990130325E+01  0.00000000000E+00 0.  1.
</event>
<event>
 7    1  0.2472338E-008  0.4614232E+02  0.7816164E-02  0.1320468E+00
        -11   -1    0    0    0    0  0.00000000000E+00  0.00000000000E+00  0.45593999997E+02  0.45594000000E+02  0.51100000000E-03 0.  1.
         11   -1    0    0    0    0 -0.00000000000E+00 -0.00000000000E+00 -0.45593999997E+02  0.45594000000E+02  0.51100000000E-03 0. -1.
    9900012    2    1    2    0    0  0.10084834403E+02  0.23341033392E+02  0.37183407149E+02  0.46142317721E+02  0.99999996357E+01 0.  0.
         12    1    1    2    0    0 -0.10084834403E+02 -0.23341033392E+02 -0.37183407149E+02  0.45045682279E+02  0.00000000000E+00 0. -1.
         11    1    3    3    0    0  0.79003791354E+01  0.86237768620E+01  0.14762446527E+02  0.18833888223E+02  0.51100000000E-03 0. -1.
        -11    1    3    3    0    0  0.27857652222E+01  0.12753016306E+02  0.21263184514E+02  0.24950409390E+02  0.51100000000E-03 0.  1.
         12    1    3    3    0    0 -0.60130995457E+00  0.19642402235E+01  0.11577761080E+01  0.23580201087E+01  0.00000000000E+00 0. -1.
</event>
<event>
 7    1  0.2472338E-008  0.4614232E+02  0.7816164E-02  0.1320468E+00
        -11   -1    0    0    0    0  0.00000000000E+00  0.00000000000E+00  0.45593999997E+02  0.45594000000E+02  0.51100000000E-03 0.  1.
         11   -1    0    0    0    0 -0.00000000000E+00 -0.00000000000E+00 -0.45593999997E+02  0.45594000000E+02  0.51100000000E-03 0. -1.
    9900012    2    1    2    0    0 -0.37389746128E+02  0.20523481285E+02  0.14488172458E+02  0.46142317179E+02  0.99999946953E+01 0.  0.
         12    1    1    2    0    0  0.37389746128E+02 -0.20523481285E+02 -0.14488172458E+02  0.45045682821E+02  0.00000000000E+00 0. -1.
         11    1    3    3    0    0 -0.38597803939E+01  0.21527059273E+01  0.74104065142E+00  0.44812039684E+01  0.51100000000E-03 0.  1.
        -11    1    3    3    0    0 -0.18460691975E+02  0.49703028650E+01  0.76739576218E+01  0.20600744759E+02  0.51100000000E-03 0. -1.
         12    1    3    3    0    0 -0.15069273759E+02  0.13400472493E+02  0.60731741850E+01  0.21060368452E+02  0.00000000000E+00 0. -1.
</event>
<event>
 7    1  0.2472338E-008  0.4614232E+02  0.7816164E-02  0.1320468E+00
        -11   -1    0    0    0    0  0.00000000000E+00  0.00000000000E+00  0.45593999997E+02  0.45594000000E+02  0.51100000000E-03 0. -1.
         11   -1    0    0    0    0 -0.00000000000E+00 -0.00000000000E+00 -0.45593999997E+02  0.45594000000E+02  0.51100000000E-03 0.  1.
    9900012    2    1    2    0    0 -0.18677140954E+02  0.40721270384E+02  0.46964101112E+01  0.46142315147E+02  0.99999761617E+01 0.  0.
         12    1    1    2    0    0  0.18677140954E+02 -0.40721270384E+02 -0.46964101112E+01  0.45045684853E+02  0.00000000000E+00 0. -1.
         11    1    3    3    0    0 -0.63981241024E+01  0.16852810968E+02  0.65794478764E+01  0.19189642107E+02  0.51100000000E-03 0. -1.
        -11    1    3    3    0    0 -0.30128621078E+01  0.72342970077E+01 -0.22748956707E+00  0.78399070811E+01  0.51100000000E-03 0.  1.
         12    1    3    3    0    0 -0.92661547442E+01  0.16634162409E+02 -0.16555481981E+01  0.19112765959E+02  0.00000000000E+00 0. -1.
</event>
<event>
 7    1  0.2472338E-008  0.4614232E+02  0.7816164E-02  0.1320468E+00
        -11   -1    0    0    0    0  0.00000000000E+00  0.00000000000E+00  0.45593999997E+02  0.45594000000E+02  0.51100000000E-03 0.  1.
         11   -1    0    0    0    0 -0.00000000000E+00 -0.00000000000E+00 -0.45593999997E+02  0.45594000000E+02  0.51100000000E-03 0. -1.
    9900012    2    1    2    0    0  0.28575930963E+02 -0.10454978160E+02  0.33214801471E+02  0.46142318348E+02  0.10000005350E+02 0.  0.
         12    1    1    2    0    0 -0.28575930963E+02  0.10454978160E+02 -0.33214801471E+02  0.45045681652E+02  0.00000000000E+00 0. -1.
         11    1    3    3    0    0  0.56173498819E+01 -0.91952444397E-01  0.57862915363E+01  0.80650012369E+01  0.51100000000E-03 0. -1.
        -11    1    3    3    0    0  0.85338417678E+01 -0.53045517725E+01  0.58303659988E+01  0.11617137890E+02  0.51100000000E-03 0.  1.
        -12    1    3    3    0    0  0.14424739314E+02 -0.50584739432E+01  0.21598143936E+02  0.26460179220E+02  0.00000000000E+00 0.  1.
</event>
<event>
 7    1  0.2472338E-008  0.4614232E+02  0.7816164E-02  0.1320468E+00
        -11   -1    0    0    0    0  0.00000000000E+00  0.00000000000E+00  0.45593999997E+02  0.45594000000E+02  0.51100000000E-03 0. -1.
         11   -1    0    0    0    0 -0.00000000000E+00 -0.00000000000E+00 -0.45593999997E+02  0.45594000000E+02  0.51100000000E-03 0.  1.
    9900012    2    1    2    0    0 -0.34085126085E+02 -0.25814080364E+02  0.14175717629E+02  0.46142317237E+02  0.99999952227E+01 0.  0.
         12    1    1    2    0    0  0.34085126085E+02  0.25814080364E+02 -0.14175717629E+02  0.45045682763E+02  0.00000000000E+00 0. -1.
         11    1    3    3    0    0 -0.15916768086E+02 -0.14470761141E+02  0.61265165251E+01  0.22366954180E+02  0.51100000000E-03 0. -1.
        -11    1    3    3    0    0 -0.13513644504E+02 -0.11347917138E+02  0.71210725527E+01  0.19029016940E+02  0.51100000000E-03 0.  1.
        -12    1    3    3    0    0 -0.46547134943E+01  0.45979138918E-02  0.92812855154E+00  0.47463461170E+01  0.00000000000E+00 0.  1.
</event>
<event>
 7    1  0.2472338E-008  0.4614232E+02  0.7816164E-02  0.1320468E+00
        -11   -1    0    0    0    0  0.00000000000E+00  0.00000000000E+00  0.45593999997E+02  0.45594000000E+02  0.51100000000E-03 0.  1.
         11   -1    0    0    0    0 -0.00000000000E+00 -0.00000000000E+00 -0.45593999997E+02  0.45594000000E+02  0.51100000000E-03 0. -1.
    9900012    2    1    2    0    0  0.48712356356E+01  0.22208618594E+02  0.38886523901E+02  0.46142318547E+02  0.10000007164E+02 0.  0.
         12    1    1    2    0    0 -0.48712356356E+01 -0.22208618594E+02 -0.38886523901E+02  0.45045681453E+02  0.00000000000E+00 0. -1.
         11    1    3    3    0    0 -0.11328367934E+01  0.36524807132E+01  0.20153640559E+01  0.43226874858E+01  0.51100000000E-03 0. -1.
        -11    1    3    3    0    0  0.24083081214E+01  0.72325823770E+01  0.17608459546E+02  0.19187705535E+02  0.51100000000E-03 0.  1.
         12    1    3    3    0    0  0.35957643076E+01  0.11323555504E+02  0.19262700299E+02  0.22631925526E+02  0.00000000000E+00 0. -1.
</event>
<event>
 7    1  0.2472338E-008  0.4614232E+02  0.7816164E-02  0.1320468E+00
        -11   -1    0    0    0    0  0.00000000000E+00  0.00000000000E+00  0.45593999997E+02  0.45594000000E+02  0.51100000000E-03 0.  1.
         11   -1    0    0    0    0 -0.00000000000E+00 -0.00000000000E+00 -0.45593999997E+02  0.45594000000E+02  0.51100000000E-03 0. -1.
    9900012    2    1    2    0    0  0.21838369654E+02  0.36134888913E+02  0.15699328976E+02  0.46142317452E+02  0.99999971851E+01 0.  0.
         12    1    1    2    0    0 -0.21838369654E+02 -0.36134888913E+02 -0.15699328976E+02  0.45045682548E+02  0.00000000000E+00 0. -1.
         11    1    3    3    0    0  0.85846823188E+00  0.22713003215E+00  0.19166084999E+01  0.21123314512E+01  0.51100000000E-03 0. -1.
        -11    1    3    3    0    0  0.11991618491E+02  0.17473550304E+02  0.53662071967E+01  0.21861382714E+02  0.51100000000E-03 0.  1.
         12    1    3    3    0    0  0.89882829315E+01  0.18434208577E+02  0.84165132796E+01  0.22168603287E+02  0.00000000000E+00 0. -1.
</event>
<event>
 7    1  0.2472338E-008  0.4614232E+02  0.7816164E-02  0.1320468E+00
        -11   -1    0    0    0    0  0.00000000000E+00  0.00000000000E+00  0.45593999997E+02  0.45594000000E+02  0.51100000000E-03 0. -1.
         11   -1    0    0    0    0 -0.00000000000E+00 -0.00000000000E+00 -0.45593999997E+02  0.45594000000E+02  0.51100000000E-03 0.  1.
    9900012    2    1    2    0    0  0.21244252235E+02 -0.37741291560E+02 -0.12385074513E+02  0.46142318605E+02  0.10000007696E+02 0.  0.
         12    1    1    2    0    0 -0.21244252235E+02  0.37741291560E+02  0.12385074513E+02  0.45045681395E+02  0.00000000000E+00 0. -1.
         11    1    3    3    0    0 -0.29282441320E+00 -0.18730561633E+01 -0.13579221331E+01  0.23319601859E+01  0.51100000000E-03 0. -1.
        -11    1    3    3    0    0  0.15810691602E+02 -0.19777547690E+02 -0.65475180724E+01  0.26153381325E+02  0.51100000000E-03 0.  1.
        -12    1    3    3    0    0  0.57263850460E+01 -0.16090687706E+02 -0.44796343077E+01  0.17656977094E+02  0.00000000000E+00 0.  1.
</event>
<event>
 7    1  0.2472338E-008  0.4614232E+02  0.7816164E-02  0.1320468E+00
        -11   -1    0    0    0    0  0.00000000000E+00  0.00000000000E+00  0.45593999997E+02  0.45594000000E+02  0.51100000000E-03 0.  1.
         11   -1    0    0    0    0 -0.00000000000E+00 -0.00000000000E+00 -0.45593999997E+02  0.45594000000E+02  0.51100000000E-03 0. -1.
    9900012    2    1    2    0    0  0.15394653212E+02 -0.20116578372E+02  0.37248373638E+02  0.46142318613E+02  0.10000007768E+02 0.  0.
         12    1    1    2    0    0 -0.15394653212E+02  0.20116578372E+02 -0.37248373638E+02  0.45045681387E+02  0.00000000000E+00 0. -1.
         11    1    3    3    0    0  0.17287700061E+01 -0.41915435277E+01  0.77500446811E+01  0.89789128350E+01  0.51100000000E-03 0. -1.
        -11    1    3    3    0    0  0.53945870179E+01 -0.11732308322E+02  0.20591556310E+02  0.24305571772E+02  0.51100000000E-03 0.  1.
         12    1    3    3    0    0  0.82712961884E+01 -0.41927265224E+01  0.89067726472E+01  0.12857834006E+02  0.00000000000E+00 0. -1.
</event>
<event>
 7    1  0.2472338E-008  0.4614232E+02  0.7816164E-02  0.1320468E+00
        -11   -1    0    0    0    0  0.00000000000E+00  0.00000000000E+00  0.45593999997E+02  0.45594000000E+02  0.51100000000E-03 0. -1.
         11   -1    0    0    0    0 -0.00000000000E+00 -0.00000000000E+00 -0.45593999997E+02  0.45594000000E+02  0.51100000000E-03 0.  1.
    9900012    2    1    2    0    0  0.40655797116E+02  0.63894407294E+00 -0.19385853095E+02  0.46142318865E+02  0.10000010068E+02 0.  0.
         12    1    1    2    0    0 -0.40655797116E+02 -0.63894407294E+00  0.19385853095E+02  0.45045681135E+02  0.00000000000E+00 0. -1.
         11    1    3    3    0    0  0.84076708574E+01 -0.13940419855E+01 -0.12448335154E+01  0.86128910969E+01  0.51100000000E-03 0. -1.
        -11    1    3    3    0    0  0.32141334933E+02  0.25753956565E+01 -0.17515246722E+02  0.36694440207E+02  0.51100000000E-03 0.  1.
        -12    1    3    3    0    0  0.10679132545E+00 -0.54240959803E+00 -0.62577285741E+00  0.83498756176E+00  0.00000000000E+00 0.  1.
</event>
<event>
 7    1  0.2472338E-008  0.4614232E+02  0.7816164E-02  0.1320468E+00
        -11   -1    0    0    0    0  0.00000000000E+00  0.00000000000E+00  0.45593999997E+02  0.45594000000E+02  0.51100000000E-03 0. -1.
         11   -1    0    0    0    0 -0.00000000000E+00 -0.00000000000E+00 -0.45593999997E+02  0.45594000000E+02  0.51100000000E-03 0.  1.
    9900012    2    1    2    0    0 -0.21058600148E+02 -0.39448487309E+02  0.54282342281E+01  0.46142317433E+02  0.99999970066E+01 0.  0.
         12    1    1    2    0    0  0.21058600148E+02  0.39448487309E+02 -0.54282342281E+01  0.45045682567E+02  0.00000000000E+00 0. -1.
         11    1    3    3    0    0 -0.47026966590E+01 -0.12325004251E+02  0.58411926265E+01  0.14427079303E+02  0.51100000000E-03 0. -1.
        -11    1    3    3    0    0 -0.61023427269E+01 -0.11039106786E+02 -0.77316120693E+00  0.12637177055E+02  0.51100000000E-03 0.  1.
         12    1    3    3    0    0 -0.10253560762E+02 -0.16084376271E+02  0.36020280846E+00  0.19078061075E+02  0.00000000000E+00 0. -1.
</event>
<event>
 7    1  0.2472338E-008  0.4614231E+02  0.7816164E-02  0.1320468E+00
        -11   -1    0    0    0    0  0.00000000000E+00  0.00000000000E+00  0.45593999997E+02  0.45594000000E+02  0.51100000000E-03 0.  1.
         11   -1    0    0    0    0 -0.00000000000E+00 -0.00000000000E+00 -0.45593999997E+02  0.45594000000E+02  0.51100000000E-03 0. -1.
    9900012    2    1    2    0    0  0.13949783455E+02  0.19264094080E+02  0.38254568074E+02  0.46142314772E+02  0.99999727449E+01 0.  0.
         12    1    1    2    0    0 -0.13949783455E+02 -0.19264094080E+02 -0.38254568074E+02  0.45045685228E+02  0.00000000000E+00 0. -1.
         11    1    3    3    0    0  0.77953577554E+01  0.12066656144E+02  0.14723647549E+02  0.20570794599E+02  0.51100000000E-03 0. -1.
        -11    1    3    3    0    0  0.20191688386E+01  0.15944450652E+01  0.10340034831E+02  0.10655309401E+02  0.51100000000E-03 0.  1.
        -12    1    3    3    0    0  0.41352568606E+01  0.56029928702E+01  0.13190885694E+02  0.14916210772E+02  0.00000000000E+00 0.  1.
</event>
<event>
 7    1  0.2472338E-008  0.4614232E+02  0.7816164E-02  0.1320468E+00
        -11   -1    0    0    0    0  0.00000000000E+00  0.00000000000E+00  0.45593999997E+02  0.45594000000E+02  0.51100000000E-03 0.  1.
         11   -1    0    0    0    0 -0.00000000000E+00 -0.00000000000E+00 -0.45593999997E+02  0.45594000000E+02  0.51100000000E-03 0. -1.
    9900012    2    1    2    0    0  0.15787635682E+02  0.22057155095E+02  0.35963117389E+02  0.46142319368E+02  0.10000014649E+02 0.  0.
         12    1    1    2    0    0 -0.15787635682E+02 -0.22057155095E+02 -0.35963117389E+02  0.45045680632E+02  0.00000000000E+00 0. -1.
         11    1    3    3    0    0  0.91306602672E+01  0.78149375205E+01  0.12323807833E+02  0.17213902670E+02  0.51100000000E-03 0. -1.
        -11    1    3    3    0    0  0.30807952259E+00  0.58531858746E+01  0.59850332819E+01  0.83770711780E+01  0.51100000000E-03 0.  1.
        -12    1    3    3    0    0  0.63488958921E+01  0.83890316999E+01  0.17654276274E+02  0.20551345520E+02  0.00000000000E+00 0.  1.
</event>
<event>
 7    1  0.2472338E-008  0.4614232E+02  0.7816164E-02  0.1320468E+00
        -11   -1    0    0    0    0  0.00000000000E+00  0.00000000000E+00  0.45593999997E+02  0.45594000000E+02  0.51100000000E-03 0. -1.
         11   -1    0    0    0    0 -0.00000000000E+00 -0.00000000000E+00 -0.45593999997E+02  0.45594000000E+02  0.51100000000E-03 0.  1.
    9900012    2    1    2    0    0 -0.22212962741E+02  0.35538347380E+02 -0.16514346465E+02  0.46142317772E+02  0.10000000098E+02 0.  0.
         12    1    1    2    0    0  0.22212962741E+02 -0.35538347380E+02  0.16514346465E+02  0.45045682228E+02  0.00000000000E+00 0. -1.
         11    1    3    3    0    0 -0.13778864492E+02  0.21409365124E+02 -0.13703851913E+02  0.28913899413E+02  0.51100000000E-03 0. -1.
        -11    1    3    3    0    0  0.25304300930E+00  0.58872291124E+00 -0.78600613993E+00  0.10141160407E+01  0.51100000000E-03 0.  1.
         12    1    3    3    0    0 -0.86871412580E+01  0.13540259344E+02 -0.20244884119E+01  0.16214302319E+02  0.00000000000E+00 0. -1.
</event>
<event>
 7    1  0.2472338E-008  0.4614232E+02  0.7816164E-02  0.1320468E+00
        -11   -1    0    0    0    0  0.00000000000E+00  0.00000000000E+00  0.45593999997E+02  0.45594000000E+02  0.51100000000E-03 0. -1.
         11   -1    0    0    0    0 -0.00000000000E+00 -0.00000000000E+00 -0.45593999997E+02  0.45594000000E+02  0.51100000000E-03 0.  1.
    9900012    2    1    2    0    0  0.34075707275E+02 -0.14876356453E+02 -0.25429383292E+02  0.46142319383E+02  0.10000014794E+02 0.  0.
         12    1    1    2    0    0 -0.34075707275E+02  0.14876356453E+02  0.25429383292E+02  0.45045680617E+02  0.00000000000E+00 0. -1.
         11    1    3    3    0    0  0.20614678650E+00 -0.98542563820E+00  0.25115364136E+00  0.10376119692E+01  0.51100000000E-03 0. -1.
        -11    1    3    3    0    0  0.87131234769E+01 -0.12756855261E+01 -0.45465858887E+01  0.99104660732E+01  0.51100000000E-03 0.  1.
        -12    1    3    3    0    0  0.25156437012E+02 -0.12615245289E+02 -0.21133951044E+02  0.35194241341E+02  0.00000000000E+00 0.  1.
</event>
<event>
 7    1  0.2472338E-008  0.4614232E+02  0.7816164E-02  0.1320468E+00
        -11   -1    0    0    0    0  0.00000000000E+00  0.00000000000E+00  0.45593999997E+02  0.45594000000E+02  0.51100000000E-03 0.  1.
         11   -1    0    0    0    0 -0.00000000000E+00 -0.00000000000E+00 -0.45593999997E+02  0.45594000000E+02  0.51100000000E-03 0. -1.
    9900012    2    1    2    0    0 -0.36393802194E+02 -0.26419873225E+02  0.25680723165E+01  0.46142317246E+02  0.99999953014E+01 0.  0.
         12    1    1    2    0    0  0.36393802194E+02  0.26419873225E+02 -0.25680723165E+01  0.45045682754E+02  0.00000000000E+00 0. -1.
         11    1    3    3    0    0 -0.20675524692E+02 -0.16877372027E+02 -0.19464477195E+01  0.26760262832E+02  0.51100000000E-03 0. -1.
        -11    1    3    3    0    0 -0.11335089643E+02 -0.70305568137E+01  0.13170757437E+01  0.13403271060E+02  0.51100000000E-03 0.  1.
        -12    1    3    3    0    0 -0.43831878598E+01 -0.25119443837E+01  0.31974442923E+01  0.59787833548E+01  0.00000000000E+00 0.  1.
</event>
<event>
 7    1  0.2472338E-008  0.4614233E+02  0.7816164E-02  0.1320468E+00
        -11   -1    0    0    0    0  0.00000000000E+00  0.00000000000E+00  0.45593999997E+02  0.45594000000E+02  0.51100000000E-03 0.  1.
         11   -1    0    0    0    0 -0.00000000000E+00 -0.00000000000E+00 -0.45593999997E+02  0.45594000000E+02  0.51100000000E-03 0. -1.
    9900012    2    1    2    0    0  0.27117791201E+02  0.18763607610E+02  0.30686564755E+02  0.46142325106E+02  0.10000066975E+02 0.  0.
         12    1    1    2    0    0 -0.27117791201E+02 -0.18763607610E+02 -0.30686564755E+02  0.45045674894E+02  0.00000000000E+00 0. -1.
         11    1    3    3    0    0  0.10918040440E+02  0.44043678616E+01  0.87446548632E+01  0.14665300960E+02  0.51100000000E-03 0. -1.
        -11    1    3    3    0    0  0.46799091872E+01  0.14970587165E+01  0.75029628408E+01  0.89686780772E+01  0.51100000000E-03 0.  1.
        -12    1    3    3    0    0  0.11519841574E+02  0.12862181032E+02  0.14438947051E+02  0.22508346068E+02  0.00000000000E+00 0.  1.
</event>
<event>
 7    1  0.2472338E-008  0.4614231E+02  0.7816164E-02  0.1320468E+00
        -11   -1    0    0    0    0  0.00000000000E+00  0.00000000000E+00  0.45593999997E+02  0.45594000000E+02  0.51100000000E-03 0.  1.
         11   -1    0    0    0    0 -0.00000000000E+00 -0.00000000000E+00 -0.45593999997E+02  0.45594000000E+02  0.51100000000E-03 0. -1.
    9900012    2    1    2    0    0  0.23918794284E+01  0.39262049744E+02  0.21951864779E+02  0.46142312031E+02  0.99999477460E+01 0.  0.
         12    1    1    2    0    0 -0.23918794284E+01 -0.39262049744E+02 -0.21951864779E+02  0.45045687969E+02  0.00000000000E+00 0. -1.
         11    1    3    3    0    0  0.92224427725E+00  0.14201923945E+01  0.27691945359E+01  0.32459081292E+01  0.51100000000E-03 0. -1.
        -11    1    3    3    0    0  0.37232025747E+01  0.21287279780E+02  0.97231265333E+01  0.23697040062E+02  0.51100000000E-03 0.  1.
         12    1    3    3    0    0 -0.22535674236E+01  0.16554577570E+02  0.94595437100E+01  0.19199363839E+02  0.00000000000E+00 0. -1.
</event>
<event>
 7    1  0.2472338E-008  0.4614232E+02  0.7816164E-02  0.1320468E+00
        -11   -1    0    0    0    0  0.00000000000E+00  0.00000000000E+00  0.45593999997E+02  0.45594000000E+02  0.51100000000E-03 0. -1.
         11   -1    0    0    0    0 -0.00000000000E+00 -0.00000000000E+00 -0.45593999997E+02  0.45594000000E+02  0.51100000000E-03 0.  1.
    9900012    2    1    2    0    0 -0.24127539218E+02 -0.16164619182E+02 -0.34433711228E+02  0.46142317289E+02  0.99999956927E+01 0.  0.
         12    1    1    2    0    0  0.24127539218E+02  0.16164619182E+02  0.34433711228E+02  0.45045682711E+02  0.00000000000E+00 0. -1.
         11    1    3    3    0    0 -0.18769411249E+01 -0.17307897108E+01 -0.68284138535E+01  0.72901150214E+01  0.51100000000E-03 0. -1.
        -11    1    3    3    0    0 -0.16943781888E+02 -0.90662165789E+01 -0.23152291497E+02  0.30088480014E+02  0.51100000000E-03 0.  1.
        -12    1    3    3    0    0 -0.53068162046E+01 -0.53676128922E+01 -0.44530058774E+01  0.87637222534E+01  0.00000000000E+00 0.  1.
</event>
<event>
 7    1  0.2472338E-008  0.4614232E+02  0.7816164E-02  0.1320468E+00
        -11   -1    0    0    0    0  0.00000000000E+00  0.00000000000E+00  0.45593999997E+02  0.45594000000E+02  0.51100000000E-03 0. -1.
         11   -1    0    0    0    0 -0.00000000000E+00 -0.00000000000E+00 -0.45593999997E+02  0.45594000000E+02  0.51100000000E-03 0.  1.
    9900012    2    1    2    0    0 -0.26215847411E+02  0.36625986339E+02 -0.61652931978E+00  0.46142316087E+02  0.99999847383E+01 0.  0.
         12    1    1    2    0    0  0.26215847411E+02 -0.36625986339E+02  0.61652931978E+00  0.45045683913E+02  0.00000000000E+00 0. -1.
         11    1    3    3    0    0 -0.71435189212E+01  0.17318474705E+02 -0.14621775811E+00  0.18734481807E+02  0.51100000000E-03 0. -1.
        -11    1    3    3    0    0 -0.91405640542E+01  0.11931563100E+02 -0.43498113532E+00  0.15036665790E+02  0.51100000000E-03 0.  1.
         12    1    3    3    0    0 -0.99317644356E+01  0.73759485337E+01 -0.35330426355E-01  0.12371168490E+02  0.00000000000E+00 0. -1.
</event>
<event>
 7    1  0.2472338E-008  0.4614232E+02  0.7816164E-02  0.1320468E+00
        -11   -1    0    0    0    0  0.00000000000E+00  0.00000000000E+00  0.45593999997E+02  0.45594000000E+02  0.51100000000E-03 0.  1.
         11   -1    0    0    0    0 -0.00000000000E+00 -0.00000000000E+00 -0.45593999997E+02  0.45594000000E+02  0.51100000000E-03 0. -1.
    9900012    2    1    2    0    0 -0.28133992192E+02 -0.25885186945E+02  0.23823293506E+02  0.46142315042E+02  0.99999752071E+01 0.  0.
         12    1    1    2    0    0  0.28133992192E+02  0.25885186945E+02 -0.23823293506E+02  0.45045684958E+02  0.00000000000E+00 0. -1.
         11    1    3    3    0    0 -0.63983056309E+01 -0.52969555035E+01  0.28858903612E+01  0.87934302744E+01  0.51100000000E-03 0. -1.
        -11    1    3    3    0    0 -0.29022713010E+01 -0.14227334467E+01  0.54455861819E+01  0.63325949097E+01  0.51100000000E-03 0.  1.
         12    1    3    3    0    0 -0.18833415260E+02 -0.19165497995E+02  0.15491816963E+02  0.31016289858E+02  0.00000000000E+00 0. -1.
</event>
<event>
 7    1  0.2472338E-008  0.4614232E+02  0.7816164E-02  0.1320468E+00
        -11   -1    0    0    0    0  0.00000000000E+00  0.00000000000E+00  0.45593999997E+02  0.45594000000E+02  0.51100000000E-03 0. -1.
         11   -1    0    0    0    0 -0.00000000000E+00 -0.00000000000E+00 -0.45593999997E+02  0.45594000000E+02  0.51100000000E-03 0.  1.
    9900012    2    1    2    0    0 -0.41593862777E+02  0.15789053221E+02 -0.70547793310E+01  0.46142317257E+02  0.99999954075E+01 0.  0.
         12    1    1    2    0    0  0.41593862777E+02 -0.15789053221E+02  0.70547793310E+01  0.45045682743E+02  0.00000000000E+00 0. -1.
         11    1    3    3    0    0 -0.11394276690E+02  0.90980584775E+01 -0.14877672253E+01  0.14656659269E+02  0.51100000000E-03 0. -1.
        -11    1    3    3    0    0 -0.60616559987E+01  0.20548963043E+01 -0.82755786876E+00  0.64537682446E+01  0.51100000000E-03 0.  1.
         12    1    3    3    0    0 -0.24137930088E+02  0.46360984392E+01 -0.47394542370E+01  0.25031889744E+02  0.00000000000E+00 0. -1.
</event>
<event>
 7    1  0.2472338E-008  0.4614232E+02  0.7816164E-02  0.1320468E+00
        -11   -1    0    0    0    0  0.00000000000E+00  0.00000000000E+00  0.45593999997E+02  0.45594000000E+02  0.51100000000E-03 0. -1.
         11   -1    0    0    0    0 -0.00000000000E+00 -0.00000000000E+00 -0.45593999997E+02  0.45594000000E+02  0.51100000000E-03 0.  1.
    9900012    2    1    2    0    0  0.21030436381E+01  0.43996095003E+02 -0.94357981072E+01  0.46142318143E+02  0.10000003484E+02 0.  0.
         12    1    1    2    0    0 -0.21030436381E+01 -0.43996095003E+02  0.94357981072E+01  0.45045681857E+02  0.00000000000E+00 0. -1.
         11    1    3    3    0    0 -0.39837124343E+00 -0.34419496765E+00 -0.14445303037E-01  0.52666759084E+00  0.51100000000E-03 0. -1.
        -11    1    3    3    0    0 -0.25591941263E+00  0.10811554754E+02 -0.57397239808E+00  0.10829804039E+02  0.51100000000E-03 0.  1.
         12    1    3    3    0    0  0.27573342941E+01  0.33528735216E+02 -0.88473804061E+01  0.34785846514E+02  0.00000000000E+00 0. -1.
</event>
<event>
 7    1  0.2472338E-008  0.4614232E+02  0.7816164E-02  0.1320468E+00
        -11   -1    0    0    0    0  0.00000000000E+00  0.00000000000E+00  0.45593999997E+02  0.45594000000E+02  0.51100000000E-03 0. -1.
         11   -1    0    0    0    0 -0.00000000000E+00 -0.00000000000E+00 -0.45593999997E+02  0.45594000000E+02  0.51100000000E-03 0.  1.
    9900012    2    1    2    0    0 -0.16792520978E+02  0.25284563123E+02 -0.33283866554E+02  0.46142315791E+02  0.99999820352E+01 0.  0.
         12    1    1    2    0    0  0.16792520978E+02 -0.25284563123E+02  0.33283866554E+02  0.45045684209E+02  0.00000000000E+00 0. -1.
         11    1    3    3    0    0  0.39584497112E+00  0.16177517345E+01 -0.20178145138E+01  0.26163695436E+01  0.51100000000E-03 0. -1.
        -11    1    3    3    0    0 -0.49992665772E+01  0.46630465565E+01 -0.12158399731E+02  0.13948596839E+02  0.51100000000E-03 0.  1.
         12    1    3    3    0    0 -0.12189099372E+02  0.19003764832E+02 -0.19107652309E+02  0.29577349408E+02  0.00000000000E+00 0. -1.
</event>
<event>
 7    1  0.2472338E-008  0.4614232E+02  0.7816164E-02  0.1320468E+00
        -11   -1    0    0    0    0  0.00000000000E+00  0.00000000000E+00  0.45593999997E+02  0.45594000000E+02  0.51100000000E-03 0.  1.
         11   -1    0    0    0    0 -0.00000000000E+00 -0.00000000000E+00 -0.45593999997E+02  0.45594000000E+02  0.51100000000E-03 0. -1.
    9900012    2    1    2    0    0  0.25953944821E+02 -0.10744466183E+02  0.35214523725E+02  0.46142317782E+02  0.10000000190E+02 0.  0.
         12    1    1    2    0    0 -0.25953944821E+02  0.10744466183E+02 -0.35214523725E+02  0.45045682218E+02  0.00000000000E+00 0. -1.
         11    1    3    3    0    0  0.12874683751E+02 -0.66224748491E+01  0.13867946940E+02  0.20048306847E+02  0.51100000000E-03 0.  1.
        -11    1    3    3    0    0  0.69849208375E+01 -0.20512808981E+01  0.59358940769E+01  0.93931736480E+01  0.51100000000E-03 0. -1.
         12    1    3    3    0    0  0.60943402322E+01 -0.20707104360E+01  0.15410682708E+02  0.16700837287E+02  0.00000000000E+00 0. -1.
</event>
<event>
 7    1  0.2472338E-008  0.4614232E+02  0.7816164E-02  0.1320468E+00
        -11   -1    0    0    0    0  0.00000000000E+00  0.00000000000E+00  0.45593999997E+02  0.45594000000E+02  0.51100000000E-03 0. -1.
         11   -1    0    0    0    0 -0.00000000000E+00 -0.00000000000E+00 -0.45593999997E+02  0.45594000000E+02  0.51100000000E-03 0.  1.
    9900012    2    1    2    0    0  0.26639509976E+02 -0.35915001413E+02 -0.54371490033E+01  0.46142318658E+02  0.10000008182E+02 0.  0.
         12    1    1    2    0    0 -0.26639509976E+02  0.35915001413E+02  0.54371490033E+01  0.45045681342E+02  0.00000000000E+00 0. -1.
         11    1    3    3    0    0  0.13607305234E+02 -0.15354844217E+02 -0.12821576153E+01  0.20556602956E+02  0.51100000000E-03 0. -1.
        -11    1    3    3    0    0  0.75568172356E+01 -0.11680672445E+02 -0.57106071614E+01  0.15038438414E+02  0.51100000000E-03 0.  1.
        -12    1    3    3    0    0  0.54753875059E+01 -0.88794847506E+01  0.15556157734E+01  0.10547277289E+02  0.00000000000E+00 0.  1.
</event>
<event>
 7    1  0.2472338E-008  0.4614232E+02  0.7816164E-02  0.1320468E+00
        -11   -1    0    0    0    0  0.00000000000E+00  0.00000000000E+00  0.45593999997E+02  0.45594000000E+02  0.51100000000E-03 0.  1.
         11   -1    0    0    0    0 -0.00000000000E+00 -0.00000000000E+00 -0.45593999997E+02  0.45594000000E+02  0.51100000000E-03 0. -1.
    9900012    2    1    2    0    0  0.40687483081E+01  0.23501590794E+02  0.38213009612E+02  0.46142316674E+02  0.99999900885E+01 0.  0.
         12    1    1    2    0    0 -0.40687483081E+01 -0.23501590794E+02 -0.38213009612E+02  0.45045683326E+02  0.00000000000E+00 0. -1.
         11    1    3    3    0    0  0.91839764838E+00  0.14671139768E+01  0.44122674619E+00  0.17862135830E+01  0.51100000000E-03 0. -1.
        -11    1    3    3    0    0 -0.19841454125E+01  0.62240262788E+01  0.88905468303E+01  0.11032549993E+02  0.51100000000E-03 0.  1.
        -12    1    3    3    0    0  0.51344960722E+01  0.15810450538E+02  0.28881236036E+02  0.33323553099E+02  0.00000000000E+00 0.  1.
</event>
<event>
 7    1  0.2472338E-008  0.4614232E+02  0.7816164E-02  0.1320468E+00
        -11   -1    0    0    0    0  0.00000000000E+00  0.00000000000E+00  0.45593999997E+02  0.45594000000E+02  0.51100000000E-03 0. -1.
         11   -1    0    0    0    0 -0.00000000000E+00 -0.00000000000E+00 -0.45593999997E+02  0.45594000000E+02  0.51100000000E-03 0.  1.
    9900012    2    1    2    0    0  0.41658643697E+02  0.14865954917E+02  0.85249212392E+01  0.46142317717E+02  0.99999995950E+01 0.  0.
         12    1    1    2    0    0 -0.41658643697E+02 -0.14865954917E+02 -0.85249212392E+01  0.45045682283E+02  0.00000000000E+00 0. -1.
         11    1    3    3    0    0  0.30698824471E+02  0.10860383035E+02  0.50868736768E+01  0.32958186049E+02  0.51100000000E-03 0. -1.
        -11    1    3    3    0    0  0.82319667742E+01  0.20966269050E+01  0.13737417911E+00  0.84958809594E+01  0.51100000000E-03 0.  1.
         12    1    3    3    0    0  0.27278524515E+01  0.19089449771E+01  0.33006733833E+01  0.46882507085E+01  0.00000000000E+00 0. -1.
</event>
<event>
 7    1  0.2472338E-008  0.4614232E+02  0.7816164E-02  0.1320468E+00
        -11   -1    0    0    0    0  0.00000000000E+00  0.00000000000E+00  0.45593999997E+02  0.45594000000E+02  0.51100000000E-03 0.  1.
         11   -1    0    0    0    0 -0.00000000000E+00 -0.00000000000E+00 -0.45593999997E+02  0.45594000000E+02  0.51100000000E-03 0. -1.
    9900012    2    1    2    0    0  0.10189992535E+02 -0.21968407915E+01  0.43822955440E+02  0.46142317845E+02  0.10000000765E+02 0.  0.
         12    1    1    2    0    0 -0.10189992535E+02  0.21968407915E+01 -0.43822955440E+02  0.45045682155E+02  0.00000000000E+00 0. -1.
         11    1    3    3    0    0  0.28387774122E+01 -0.27484879587E+01  0.12103634229E+02  0.12732274152E+02  0.51100000000E-03 0. -1.
        -11    1    3    3    0    0  0.28964543842E+01 -0.29883103718E+01  0.79993761180E+01  0.90171761331E+01  0.51100000000E-03 0.  1.
        -12    1    3    3    0    0  0.44547607386E+01  0.35399575390E+01  0.23719945093E+02  0.24392867560E+02  0.00000000000E+00 0.  1.
</event>
<event>
 7    1  0.2472338E-008  0.4614232E+02  0.7816164E-02  0.1320468E+00
        -11   -1    0    0    0    0  0.00000000000E+00  0.00000000000E+00  0.45593999997E+02  0.45594000000E+02  0.51100000000E-03 0.  1.
         11   -1    0    0    0    0 -0.00000000000E+00 -0.00000000000E+00 -0.45593999997E+02  0.45594000000E+02  0.51100000000E-03 0. -1.
    9900012    2    1    2    0    0 -0.18877256133E+02 -0.22182789326E+02  0.34361119099E+02  0.46142318219E+02  0.10000004171E+02 0.  0.
         12    1    1    2    0    0  0.18877256133E+02  0.22182789326E+02 -0.34361119099E+02  0.45045681781E+02  0.00000000000E+00 0. -1.
         11    1    3    3    0    0 -0.65150251266E+01 -0.23234785875E+01  0.94243742846E+01  0.11690292386E+02  0.51100000000E-03 0.  1.
        -11    1    3    3    0    0 -0.29523834365E+01 -0.86145183077E+01  0.98158490956E+01  0.13389450600E+02  0.51100000000E-03 0. -1.
         12    1    3    3    0    0 -0.94098475697E+01 -0.11244792431E+02  0.15120895719E+02  0.21062575233E+02  0.00000000000E+00 0. -1.
</event>
<event>
 7    1  0.2472338E-008  0.4614230E+02  0.7816164E-02  0.1320468E+00
        -11   -1    0    0    0    0  0.00000000000E+00  0.00000000000E+00  0.45593999997E+02  0.45594000000E+02  0.51100000000E-03 0.  1.
         11   -1    0    0    0    0 -0.00000000000E+00 -0.00000000000E+00 -0.45593999997E+02  0.45594000000E+02  0.51100000000E-03 0. -1.
    9900012    2    1    2    0    0 -0.11132043361E+02 -0.18594946534E+02  0.39489495570E+02  0.46142304464E+02  0.99998787434E+01 0.  0.
         12    1    1    2    0    0  0.11132043361E+02  0.18594946534E+02 -0.39489495570E+02  0.45045695536E+02  0.00000000000E+00 0. -1.
         11    1    3    3    0    0 -0.49283366352E+01 -0.13187458804E+02  0.23290448741E+02  0.27214749209E+02  0.51100000000E-03 0. -1.
        -11    1    3    3    0    0 -0.61247328423E+01 -0.63518566259E+01  0.14949131131E+02  0.17359002184E+02  0.51100000000E-03 0.  1.
         12    1    3    3    0    0 -0.78973883856E-01  0.94436889554E+00  0.12499156969E+01  0.15685530704E+01  0.00000000000E+00 0. -1.
</event>
<event>
 7    1  0.2472338E-008  0.4614232E+02  0.7816164E-02  0.1320468E+00
        -11   -1    0    0    0    0  0.00000000000E+00  0.00000000000E+00  0.45593999997E+02  0.45594000000E+02  0.51100000000E-03 0. -1.
         11   -1    0    0    0    0 -0.00000000000E+00 -0.00000000000E+00 -0.45593999997E+02  0.45594000000E+02  0.51100000000E-03 0.  1.
    9900012    2    1    2    0    0  0.19823561895E+02  0.22000021337E+02 -0.33943172140E+02  0.46142317855E+02  0.10000000852E+02 0.  0.
         12    1    1    2    0    0 -0.19823561895E+02 -0.22000021337E+02  0.33943172140E+02  0.45045682145E+02  0.00000000000E+00 0. -1.
         11    1    3    3    0    0  0.92725379313E+01  0.10875747578E+02 -0.15543057779E+02  0.21115124685E+02  0.51100000000E-03 0.  1.
        -11    1    3    3    0    0  0.11154735795E+02  0.87102528089E+01 -0.17171252106E+02  0.22251933260E+02  0.51100000000E-03 0. -1.
         12    1    3    3    0    0 -0.60371183182E+00  0.24140209508E+01 -0.12288622546E+01  0.27752599099E+01  0.00000000000E+00 0. -1.
</event>
<event>
 7    1  0.2472338E-008  0.4614232E+02  0.7816164E-02  0.1320468E+00
        -11   -1    0    0    0    0  0.00000000000E+00  0.00000000000E+00  0.45593999997E+02  0.45594000000E+02  0.51100000000E-03 0. -1.
         11   -1    0    0    0    0 -0.00000000000E+00 -0.00000000000E+00 -0.45593999997E+02  0.45594000000E+02  0.51100000000E-03 0.  1.
    9900012    2    1    2    0    0 -0.39686968451E+02 -0.13139846482E+02 -0.16775054022E+02  0.46142317989E+02  0.10000002080E+02 0.  0.
         12    1    1    2    0    0  0.39686968451E+02  0.13139846482E+02  0.16775054022E+02  0.45045682011E+02  0.00000000000E+00 0. -1.
         11    1    3    3    0    0 -0.18732949573E+01 -0.26428537698E+01 -0.11794232414E+01  0.34474555094E+01  0.51100000000E-03 0. -1.
        -11    1    3    3    0    0 -0.27998646213E+02 -0.10475241806E+02 -0.10956204520E+02  0.31838550507E+02  0.51100000000E-03 0.  1.
         12    1    3    3    0    0 -0.98150272806E+01 -0.21750905952E-01 -0.46394262604E+01  0.10856311973E+02  0.00000000000E+00 0. -1.
</event>
<event>
 7    1  0.2472338E-008  0.4614232E+02  0.7816164E-02  0.1320468E+00
        -11   -1    0    0    0    0  0.00000000000E+00  0.00000000000E+00  0.45593999997E+02  0.45594000000E+02  0.51100000000E-03 0.  1.
         11   -1    0    0    0    0 -0.00000000000E+00 -0.00000000000E+00 -0.45593999997E+02  0.45594000000E+02  0.51100000000E-03 0. -1.
    9900012    2    1    2    0    0  0.19242458544E+02 -0.22926144807E+02  0.33663528583E+02  0.46142317819E+02  0.10000000527E+02 0.  0.
         12    1    1    2    0    0 -0.19242458544E+02  0.22926144807E+02 -0.33663528583E+02  0.45045682181E+02  0.00000000000E+00 0. -1.
         11    1    3    3    0    0 -0.12868108581E+00  0.55670938439E-02  0.32080732961E+01  0.32106579308E+01  0.51100000000E-03 0. -1.
        -11    1    3    3    0    0  0.78118743289E-01 -0.45851172842E+00  0.12583578762E+01  0.13415663789E+01  0.51100000000E-03 0.  1.
        -12    1    3    3    0    0  0.19293020887E+02 -0.22473200172E+02  0.29197097410E+02  0.41590093509E+02  0.00000000000E+00 0.  1.
</event>
<event>
 7    1  0.2472338E-008  0.4614232E+02  0.7816164E-02  0.1320468E+00
        -11   -1    0    0    0    0  0.00000000000E+00  0.00000000000E+00  0.45593999997E+02  0.45594000000E+02  0.51100000000E-03 0.  1.
         11   -1    0    0    0    0 -0.00000000000E+00 -0.00000000000E+00 -0.45593999997E+02  0.45594000000E+02  0.51100000000E-03 0. -1.
    9900012    2    1    2    0    0 -0.35910037278E+01 -0.27506046861E+01  0.44817993451E+02  0.46142315735E+02  0.99999815263E+01 0.  0.
         12    1    1    2    0    0  0.35910037278E+01  0.27506046861E+01 -0.44817993451E+02  0.45045684265E+02  0.00000000000E+00 0. -1.
         11    1    3    3    0    0 -0.17770408895E+01 -0.12278514489E+01  0.21677515019E+02  0.21784860596E+02  0.51100000000E-03 0. -1.
        -11    1    3    3    0    0 -0.10807956402E+01 -0.35807167263E+01  0.20885468552E+02  0.21217739002E+02  0.51100000000E-03 0.  1.
         12    1    3    3    0    0 -0.73316719804E+00  0.20579634891E+01  0.22550098802E+01  0.31397161373E+01  0.00000000000E+00 0. -1.
</event>
<event>
 7    1  0.2472338E-008  0.4614230E+02  0.7816164E-02  0.1320468E+00
        -11   -1    0    0    0    0  0.00000000000E+00  0.00000000000E+00  0.45593999997E+02  0.45594000000E+02  0.51100000000E-03 0.  1.
         11   -1    0    0    0    0 -0.00000000000E+00 -0.00000000000E+00 -0.45593999997E+02  0.45594000000E+02  0.51100000000E-03 0. -1.
    9900012    2    1    2    0    0 -0.29103437185E+01 -0.16817741794E+02  0.41687025698E+02  0.46142304855E+02  0.99998823073E+01 0.  0.
         12    1    1    2    0    0  0.29103437185E+01  0.16817741794E+02 -0.41687025698E+02  0.45045695145E+02  0.00000000000E+00 0. -1.
         11    1    3    3    0    0 -0.17248869146E+01 -0.89827779616E+01  0.18091046650E+02  0.20271938830E+02  0.51100000000E-03 0.  1.
        -11    1    3    3    0    0  0.17428153418E+01 -0.13954386358E+01  0.12594150854E+02  0.12790515639E+02  0.51100000000E-03 0. -1.
        -12    1    3    3    0    0 -0.29282721457E+01 -0.64395251969E+01  0.11001828194E+02  0.13079850386E+02  0.00000000000E+00 0.  1.
</event>
<event>
 7    1  0.2472338E-008  0.4614232E+02  0.7816164E-02  0.1320468E+00
        -11   -1    0    0    0    0  0.00000000000E+00  0.00000000000E+00  0.45593999997E+02  0.45594000000E+02  0.51100000000E-03 0. -1.
         11   -1    0    0    0    0 -0.00000000000E+00 -0.00000000000E+00 -0.45593999997E+02  0.45594000000E+02  0.51100000000E-03 0.  1.
    9900012    2    1    2    0    0  0.35451204294E+02  0.18999381162E+02 -0.20281743897E+02  0.46142317566E+02  0.99999982220E+01 0.  0.
         12    1    1    2    0    0 -0.35451204294E+02 -0.18999381162E+02  0.20281743897E+02  0.45045682434E+02  0.00000000000E+00 0. -1.
         11    1    3    3    0    0  0.13162754916E+02  0.71810117346E+01 -0.53330318976E+01  0.15914341833E+02  0.51100000000E-03 0. -1.
        -11    1    3    3    0    0  0.13931232238E+02  0.62500916248E+01 -0.49363362794E+01  0.16047127254E+02  0.51100000000E-03 0.  1.
         12    1    3    3    0    0  0.83572171404E+01  0.55682778022E+01 -0.10012375720E+02  0.14180848479E+02  0.00000000000E+00 0. -1.
</event>
<event>
 7    1  0.2472338E-008  0.4614232E+02  0.7816164E-02  0.1320468E+00
        -11   -1    0    0    0    0  0.00000000000E+00  0.00000000000E+00  0.45593999997E+02  0.45594000000E+02  0.51100000000E-03 0.  1.
         11   -1    0    0    0    0 -0.00000000000E+00 -0.00000000000E+00 -0.45593999997E+02  0.45594000000E+02  0.51100000000E-03 0. -1.
    9900012    2    1    2    0    0  0.34591739584E+02  0.11127054806E+02  0.26621677046E+02  0.46142317800E+02  0.10000000355E+02 0.  0.
         12    1    1    2    0    0 -0.34591739584E+02 -0.11127054806E+02 -0.26621677046E+02  0.45045682200E+02  0.00000000000E+00 0. -1.
         11    1    3    3    0    0  0.92682268831E+01  0.26526134684E+00  0.54123794691E+01  0.10736118708E+02  0.51100000000E-03 0. -1.
        -11    1    3    3    0    0  0.22422469227E+01  0.10940638445E+01 -0.11715741832E+00  0.24976735335E+01  0.51100000000E-03 0.  1.
        -12    1    3    3    0    0  0.23081265778E+02  0.97677296149E+01  0.21326454996E+02  0.32908525558E+02  0.00000000000E+00 0.  1.
</event>
<event>
 7    1  0.2472338E-008  0.4614232E+02  0.7816164E-02  0.1320468E+00
        -11   -1    0    0    0    0  0.00000000000E+00  0.00000000000E+00  0.45593999997E+02  0.45594000000E+02  0.51100000000E-03 0.  1.
         11   -1    0    0    0    0 -0.00000000000E+00 -0.00000000000E+00 -0.45593999997E+02  0.45594000000E+02  0.51100000000E-03 0. -1.
    9900012    2    1    2    0    0 -0.57450516089E+01 -0.25438477766E+02  0.36728622230E+02  0.46142318076E+02  0.10000002873E+02 0.  0.
         12    1    1    2    0    0  0.57450516089E+01  0.25438477766E+02 -0.36728622230E+02  0.45045681924E+02  0.00000000000E+00 0. -1.
         11    1    3    3    0    0 -0.27814889341E+01 -0.12946023825E+02  0.13657085993E+02  0.19022413403E+02  0.51100000000E-03 0. -1.
        -11    1    3    3    0    0 -0.12160372363E+01 -0.75096858049E+01  0.75222895565E+01  0.10698549803E+02  0.51100000000E-03 0.  1.
        -12    1    3    3    0    0 -0.17475254386E+01 -0.49827681356E+01  0.15549246681E+02  0.16421354871E+02  0.00000000000E+00 0.  1.
</event>
<event>
 7    1  0.2472338E-008  0.4614232E+02  0.7816164E-02  0.1320468E+00
        -11   -1    0    0    0    0  0.00000000000E+00  0.00000000000E+00  0.45593999997E+02  0.45594000000E+02  0.51100000000E-03 0. -1.
         11   -1    0    0    0    0 -0.00000000000E+00 -0.00000000000E+00 -0.45593999997E+02  0.45594000000E+02  0.51100000000E-03 0.  1.
    9900012    2    1    2    0    0 -0.20484245106E+02  0.40114375193E+02  0.58838715202E+00  0.46142316587E+02  0.99999892914E+01 0.  0.
         12    1    1    2    0    0  0.20484245106E+02 -0.40114375193E+02 -0.58838715202E+00  0.45045683413E+02  0.00000000000E+00 0. -1.
         11    1    3    3    0    0 -0.20884143630E+02  0.38693025391E+02  0.17631529818E+01  0.44004617687E+02  0.51100000000E-03 0.  1.
        -11    1    3    3    0    0  0.34523336854E+00  0.14162261563E+01 -0.62639367331E+00  0.15865849802E+01  0.51100000000E-03 0. -1.
        -12    1    3    3    0    0  0.54665154650E-01  0.51236461353E-02 -0.54837215642E+00  0.55111392000E+00  0.00000000000E+00 0.  1.
</event>
<event>
 7    1  0.2472338E-008  0.4614232E+02  0.7816164E-02  0.1320468E+00
        -11   -1    0    0    0    0  0.00000000000E+00  0.00000000000E+00  0.45593999997E+02  0.45594000000E+02  0.51100000000E-03 0. -1.
         11   -1    0    0    0    0 -0.00000000000E+00 -0.00000000000E+00 -0.45593999997E+02  0.45594000000E+02  0.51100000000E-03 0.  1.
    9900012    2    1    2    0    0 -0.22755050576E+02  0.31969613243E+02  0.22119334766E+02  0.46142317986E+02  0.10000002048E+02 0.  0.
         12    1    1    2    0    0  0.22755050576E+02 -0.31969613243E+02 -0.22119334766E+02  0.45045682014E+02  0.00000000000E+00 0. -1.
         11    1    3    3    0    0 -0.92891509453E+01  0.10930749484E+02  0.11113377170E+02  0.18145984733E+02  0.51100000000E-03 0. -1.
        -11    1    3    3    0    0 -0.12149403596E+02  0.21102136318E+02  0.99368202420E+01  0.26299212188E+02  0.51100000000E-03 0.  1.
         12    1    3    3    0    0 -0.13164960343E+01 -0.63272558328E-01  0.10691373547E+01  0.16971210647E+01  0.00000000000E+00 0. -1.
</event>
<event>
 7    1  0.2472338E-008  0.4614232E+02  0.7816164E-02  0.1320468E+00
        -11   -1    0    0    0    0  0.00000000000E+00  0.00000000000E+00  0.45593999997E+02  0.45594000000E+02  0.51100000000E-03 0.  1.
         11   -1    0    0    0    0 -0.00000000000E+00 -0.00000000000E+00 -0.45593999997E+02  0.45594000000E+02  0.51100000000E-03 0. -1.
    9900012    2    1    2    0    0 -0.18952548100E+02 -0.37086456835E+02 -0.17161270078E+02  0.46142317068E+02  0.99999936839E+01 0.  0.
         12    1    1    2    0    0  0.18952548100E+02  0.37086456835E+02  0.17161270078E+02  0.45045682932E+02  0.00000000000E+00 0. -1.
         11    1    3    3    0    0 -0.24373222397E+01 -0.90033233277E+01 -0.29655599404E+01  0.97874877607E+01  0.51100000000E-03 0. -1.
        -11    1    3    3    0    0 -0.82373956843E+01 -0.20563591912E+02 -0.78834501850E+01  0.23513076938E+02  0.51100000000E-03 0.  1.
        -12    1    3    3    0    0 -0.82778301760E+01 -0.75195415951E+01 -0.63122599529E+01  0.12841752370E+02  0.00000000000E+00 0.  1.
</event>
<event>
 7    1  0.2472338E-008  0.4614232E+02  0.7816164E-02  0.1320468E+00
        -11   -1    0    0    0    0  0.00000000000E+00  0.00000000000E+00  0.45593999997E+02  0.45594000000E+02  0.51100000000E-03 0.  1.
         11   -1    0    0    0    0 -0.00000000000E+00 -0.00000000000E+00 -0.45593999997E+02  0.45594000000E+02  0.51100000000E-03 0. -1.
    9900012    2    1    2    0    0  0.20597030592E+02 -0.81187971627E+01  0.39229591480E+02  0.46142318916E+02  0.10000010533E+02 0.  0.
         12    1    1    2    0    0 -0.20597030592E+02  0.81187971627E+01 -0.39229591480E+02  0.45045681084E+02  0.00000000000E+00 0. -1.
         11    1    3    3    0    0  0.35750189945E+01 -0.24084973927E+01  0.32041762802E+01  0.53710675287E+01  0.51100000000E-03 0. -1.
        -11    1    3    3    0    0  0.75416515057E+01 -0.95692995823E-03  0.19246666657E+02  0.20671494528E+02  0.51100000000E-03 0.  1.
        -12    1    3    3    0    0  0.94803600922E+01 -0.57093428400E+01  0.16778748543E+02  0.20099756859E+02  0.00000000000E+00 0.  1.
</event>
<event>
 7    1  0.2472338E-008  0.4614232E+02  0.7816164E-02  0.1320468E+00
        -11   -1    0    0    0    0  0.00000000000E+00  0.00000000000E+00  0.45593999997E+02  0.45594000000E+02  0.51100000000E-03 0.  1.
         11   -1    0    0    0    0 -0.00000000000E+00 -0.00000000000E+00 -0.45593999997E+02  0.45594000000E+02  0.51100000000E-03 0. -1.
    9900012    2    1    2    0    0  0.91522040370E+01 -0.20371105446E+02  0.39119927274E+02  0.46142317790E+02  0.10000000264E+02 0.  0.
         12    1    1    2    0    0 -0.91522040370E+01  0.20371105446E+02 -0.39119927274E+02  0.45045682210E+02  0.00000000000E+00 0. -1.
         11    1    3    3    0    0  0.18108434563E+01 -0.51667944775E+01  0.39271056575E+01  0.67377353986E+01  0.51100000000E-03 0. -1.
        -11    1    3    3    0    0  0.67563104278E+01 -0.13486752640E+02  0.26213829788E+02  0.30244091982E+02  0.51100000000E-03 0.  1.
         12    1    3    3    0    0  0.58505015286E+00 -0.17175583287E+01  0.89789918284E+01  0.91604904098E+01  0.00000000000E+00 0. -1.
</event>
<event>
 7    1  0.2472338E-008  0.4614232E+02  0.7816164E-02  0.1320468E+00
        -11   -1    0    0    0    0  0.00000000000E+00  0.00000000000E+00  0.45593999997E+02  0.45594000000E+02  0.51100000000E-03 0. -1.
         11   -1    0    0    0    0 -0.00000000000E+00 -0.00000000000E+00 -0.45593999997E+02  0.45594000000E+02  0.51100000000E-03 0.  1.
    9900012    2    1    2    0    0  0.19099149331E+02  0.34041890131E+02 -0.22483009243E+02  0.46142317704E+02  0.99999994767E+01 0.  0.
         12    1    1    2    0    0 -0.19099149331E+02 -0.34041890131E+02  0.22483009243E+02  0.45045682296E+02  0.00000000000E+00 0. -1.
         11    1    3    3    0    0  0.17195885379E+02  0.23611683333E+02 -0.17766739119E+02  0.34188698176E+02  0.51100000000E-03 0.  1.
        -11    1    3    3    0    0 -0.30725027290E+00  0.61964141009E+00 -0.10343310482E+01  0.12442665251E+01  0.51100000000E-03 0. -1.
        -12    1    3    3    0    0  0.22105142255E+01  0.98105653880E+01 -0.36819390768E+01  0.10709353003E+02  0.00000000000E+00 0.  1.
</event>
<event>
 7    1  0.2472338E-008  0.4614232E+02  0.7816164E-02  0.1320468E+00
        -11   -1    0    0    0    0  0.00000000000E+00  0.00000000000E+00  0.45593999997E+02  0.45594000000E+02  0.51100000000E-03 0.  1.
         11   -1    0    0    0    0 -0.00000000000E+00 -0.00000000000E+00 -0.45593999997E+02  0.45594000000E+02  0.51100000000E-03 0. -1.
    9900012    2    1    2    0    0  0.86155863253E+01 -0.42553439870E+01  0.44008831376E+02  0.46142317419E+02  0.99999968769E+01 0.  0.
         12    1    1    2    0    0 -0.86155863253E+01  0.42553439870E+01 -0.44008831376E+02  0.45045682581E+02  0.00000000000E+00 0. -1.
         11    1    3    3    0    0  0.50714206683E+01 -0.65399711151E+00  0.98888410392E+01  0.11132663526E+02  0.51100000000E-03 0. -1.
        -11    1    3    3    0    0  0.43814967906E+01 -0.96438448738E+00  0.14024782164E+02  0.14724879170E+02  0.51100000000E-03 0.  1.
         12    1    3    3    0    0 -0.83733113361E+00 -0.26369623881E+01  0.20095208172E+02  0.20284774723E+02  0.00000000000E+00 0. -1.
</event>
<event>
 7    1  0.2472338E-008  0.4614232E+02  0.7816164E-02  0.1320468E+00
        -11   -1    0    0    0    0  0.00000000000E+00  0.00000000000E+00  0.45593999997E+02  0.45594000000E+02  0.51100000000E-03 0. -1.
         11   -1    0    0    0    0 -0.00000000000E+00 -0.00000000000E+00 -0.45593999997E+02  0.45594000000E+02  0.51100000000E-03 0.  1.
    9900012    2    1    2    0    0  0.13829429138E+02 -0.42679390768E+02 -0.40409942324E+01  0.46142321617E+02  0.10000035163E+02 0.  0.
         12    1    1    2    0    0 -0.13829429138E+02  0.42679390768E+02  0.40409942324E+01  0.45045678383E+02  0.00000000000E+00 0. -1.
         11    1    3    3    0    0  0.16834555793E+00 -0.31710190602E+01 -0.15978177903E+01  0.35548170219E+01  0.51100000000E-03 0. -1.
        -11    1    3    3    0    0  0.43891818043E+01 -0.44941416259E+01  0.32052168798E-01  0.62819784676E+01  0.51100000000E-03 0.  1.
        -12    1    3    3    0    0  0.92719017760E+01 -0.35014230081E+02 -0.24752286110E+01  0.36305526128E+02  0.00000000000E+00 0.  1.
</event>
<event>
 7    1  0.2472338E-008  0.4614231E+02  0.7816164E-02  0.1320468E+00
        -11   -1    0    0    0    0  0.00000000000E+00  0.00000000000E+00  0.45593999997E+02  0.45594000000E+02  0.51100000000E-03 0.  1.
         11   -1    0    0    0    0 -0.00000000000E+00 -0.00000000000E+00 -0.45593999997E+02  0.45594000000E+02  0.51100000000E-03 0. -1.
    9900012    2    1    2    0    0  0.25947169825E+02 -0.29787992873E+02 -0.21645641188E+02  0.46142312928E+02  0.99999559306E+01 0.  0.
         12    1    1    2    0    0 -0.25947169825E+02  0.29787992873E+02  0.21645641188E+02  0.45045687072E+02  0.00000000000E+00 0. -1.
         11    1    3    3    0    0  0.10297977471E+02 -0.86125738559E+01 -0.11867544136E+02  0.17918241334E+02  0.51100000000E-03 0. -1.
        -11    1    3    3    0    0  0.57615686989E+01 -0.98150523884E+01 -0.34988442745E+01  0.11906840000E+02  0.51100000000E-03 0.  1.
         12    1    3    3    0    0  0.98876236551E+01 -0.11360366628E+02 -0.62792527780E+01  0.16317231595E+02  0.00000000000E+00 0. -1.
</event>
<event>
 7    1  0.2472338E-008  0.4614232E+02  0.7816164E-02  0.1320468E+00
        -11   -1    0    0    0    0  0.00000000000E+00  0.00000000000E+00  0.45593999997E+02  0.45594000000E+02  0.51100000000E-03 0.  1.
         11   -1    0    0    0    0 -0.00000000000E+00 -0.00000000000E+00 -0.45593999997E+02  0.45594000000E+02  0.51100000000E-03 0. -1.
    9900012    2    1    2    0    0 -0.21360929610E+02  0.25818231958E+02  0.30103871346E+02  0.46142317796E+02  0.10000000315E+02 0.  0.
         12    1    1    2    0    0  0.21360929610E+02 -0.25818231958E+02 -0.30103871346E+02  0.45045682204E+02  0.00000000000E+00 0. -1.
         11    1    3    3    0    0 -0.11005233839E+02  0.10580665755E+02  0.13125635489E+02  0.20133255249E+02  0.51100000000E-03 0. -1.
        -11    1    3    3    0    0 -0.45951011494E+01  0.25055526523E+01  0.74129240937E+01  0.90743700909E+01  0.51100000000E-03 0.  1.
         12    1    3    3    0    0 -0.57605946219E+01  0.12732013550E+02  0.95653117630E+01  0.16934692455E+02  0.00000000000E+00 0. -1.
</event>
<event>
 7    1  0.2472338E-008  0.4614232E+02  0.7816164E-02  0.1320468E+00
        -11   -1    0    0    0    0  0.00000000000E+00  0.00000000000E+00  0.45593999997E+02  0.45594000000E+02  0.51100000000E-03 0. -1.
         11   -1    0    0    0    0 -0.00000000000E+00 -0.00000000000E+00 -0.45593999997E+02  0.45594000000E+02  0.51100000000E-03 0.  1.
    9900012    2    1    2    0    0 -0.38611546692E+02 -0.21148557700E+02 -0.95394254465E+01  0.46142315761E+02  0.99999817588E+01 0.  0.
         12    1    1    2    0    0  0.38611546692E+02  0.21148557700E+02  0.95394254465E+01  0.45045684239E+02  0.00000000000E+00 0. -1.
         11    1    3    3    0    0 -0.54874615700E+01 -0.35973448723E+00  0.62188223828E+00  0.55342913876E+01  0.51100000000E-03 0. -1.
        -11    1    3    3    0    0 -0.12431255678E+02 -0.92689132216E+01 -0.56184505908E+01  0.16492903242E+02  0.51100000000E-03 0.  1.
         12    1    3    3    0    0 -0.20692829444E+02 -0.11519909991E+02 -0.45428570940E+01  0.24115121131E+02  0.00000000000E+00 0. -1.
</event>
<event>
 7    1  0.2472338E-008  0.4614232E+02  0.7816164E-02  0.1320468E+00
        -11   -1    0    0    0    0  0.00000000000E+00  0.00000000000E+00  0.45593999997E+02  0.45594000000E+02  0.51100000000E-03 0. -1.
         11   -1    0    0    0    0 -0.00000000000E+00 -0.00000000000E+00 -0.45593999997E+02  0.45594000000E+02  0.51100000000E-03 0.  1.
    9900012    2    1    2    0    0  0.12693086692E+02 -0.84710591513E+01 -0.42382073834E+02  0.46142317905E+02  0.10000001310E+02 0.  0.
         12    1    1    2    0    0 -0.12693086692E+02  0.84710591513E+01  0.42382073834E+02  0.45045682095E+02  0.00000000000E+00 0. -1.
         11    1    3    3    0    0  0.69759636972E+01 -0.72558857908E+01 -0.18228039850E+02  0.20822425054E+02  0.51100000000E-03 0. -1.
        -11    1    3    3    0    0 -0.73779223511E+00  0.38167164689E+00 -0.43711869232E+01  0.44494141195E+01  0.51100000000E-03 0.  1.
        -12    1    3    3    0    0  0.64549152300E+01 -0.15968450074E+01 -0.19782847061E+02  0.20870478731E+02  0.00000000000E+00 0.  1.
</event>
<event>
 7    1  0.2472338E-008  0.4614232E+02  0.7816164E-02  0.1320468E+00
        -11   -1    0    0    0    0  0.00000000000E+00  0.00000000000E+00  0.45593999997E+02  0.45594000000E+02  0.51100000000E-03 0.  1.
         11   -1    0    0    0    0 -0.00000000000E+00 -0.00000000000E+00 -0.45593999997E+02  0.45594000000E+02  0.51100000000E-03 0. -1.
    9900012    2    1    2    0    0 -0.24396786780E+02  0.35265974184E+02  0.13792076281E+02  0.46142317538E+02  0.99999979654E+01 0.  0.
         12    1    1    2    0    0  0.24396786780E+02 -0.35265974184E+02 -0.13792076281E+02  0.45045682462E+02  0.00000000000E+00 0. -1.
         11    1    3    3    0    0 -0.12022222607E+02  0.13286181038E+02  0.53872023120E+01  0.18710381931E+02  0.51100000000E-03 0. -1.
        -11    1    3    3    0    0 -0.68201610833E+01  0.58645610710E+01  0.19409897201E+01  0.92019082322E+01  0.51100000000E-03 0.  1.
         12    1    3    3    0    0 -0.55544030894E+01  0.16115232075E+02  0.64638842491E+01  0.18230027375E+02  0.00000000000E+00 0. -1.
</event>
<event>
 7    1  0.2472338E-008  0.4614232E+02  0.7816164E-02  0.1320468E+00
        -11   -1    0    0    0    0  0.00000000000E+00  0.00000000000E+00  0.45593999997E+02  0.45594000000E+02  0.51100000000E-03 0.  1.
         11   -1    0    0    0    0 -0.00000000000E+00 -0.00000000000E+00 -0.45593999997E+02  0.45594000000E+02  0.51100000000E-03 0. -1.
    9900012    2    1    2    0    0  0.15983154410E+02 -0.28760569967E+02  0.30764946885E+02  0.46142316893E+02  0.99999920871E+01 0.  0.
         12    1    1    2    0    0 -0.15983154410E+02  0.28760569967E+02 -0.30764946885E+02  0.45045683107E+02  0.00000000000E+00 0. -1.
         11    1    3    3    0    0  0.32226120890E+00 -0.48832091991E+01  0.33196591477E+01  0.59135202280E+01  0.51100000000E-03 0. -1.
        -11    1    3    3    0    0  0.11124303099E+02 -0.11332901604E+02  0.12609008200E+02  0.20277373258E+02  0.51100000000E-03 0.  1.
        -12    1    3    3    0    0  0.45365901019E+01 -0.12544459164E+02  0.14836279537E+02  0.19951423407E+02  0.00000000000E+00 0.  1.
</event>
<event>
 7    1  0.2472338E-008  0.4614232E+02  0.7816164E-02  0.1320468E+00
        -11   -1    0    0    0    0  0.00000000000E+00  0.00000000000E+00  0.45593999997E+02  0.45594000000E+02  0.51100000000E-03 0.  1.
         11   -1    0    0    0    0 -0.00000000000E+00 -0.00000000000E+00 -0.45593999997E+02  0.45594000000E+02  0.51100000000E-03 0. -1.
    9900012    2    1    2    0    0 -0.26523694131E+02  0.36176664333E+02 -0.41056184237E+01  0.46142317685E+02  0.99999993022E+01 0.  0.
         12    1    1    2    0    0  0.26523694131E+02 -0.36176664333E+02  0.41056184237E+01  0.45045682315E+02  0.00000000000E+00 0. -1.
         11    1    3    3    0    0 -0.47618949451E+01  0.75896358287E+01 -0.38295503696E+01  0.97439043394E+01  0.51100000000E-03 0. -1.
        -11    1    3    3    0    0 -0.16656861471E+01  0.53555374235E+01  0.78197212909E+00  0.56628413457E+01  0.51100000000E-03 0.  1.
         12    1    3    3    0    0 -0.20096113038E+02  0.23231491081E+02 -0.10580401831E+01  0.30735571999E+02  0.00000000000E+00 0. -1.
</event>
<event>
 7    1  0.2472338E-008  0.4614232E+02  0.7816164E-02  0.1320468E+00
        -11   -1    0    0    0    0  0.00000000000E+00  0.00000000000E+00  0.45593999997E+02  0.45594000000E+02  0.51100000000E-03 0. -1.
         11   -1    0    0    0    0 -0.00000000000E+00 -0.00000000000E+00 -0.45593999997E+02  0.45594000000E+02  0.51100000000E-03 0.  1.
    9900012    2    1    2    0    0  0.36869855950E+02 -0.25268000847E+02  0.55906624997E+01  0.46142315947E+02  0.99999834586E+01 0.  0.
         12    1    1    2    0    0 -0.36869855950E+02  0.25268000847E+02 -0.55906624997E+01  0.45045684053E+02  0.00000000000E+00 0. -1.
         11    1    3    3    0    0  0.20110645666E+01 -0.38076883796E+01 -0.71299078929E+00  0.43647711983E+01  0.51100000000E-03 0. -1.
        -11    1    3    3    0    0  0.18352037358E+02 -0.11574239474E+02  0.58491734931E+00  0.21704893991E+02  0.51100000000E-03 0.  1.
         12    1    3    3    0    0  0.16506754026E+02 -0.98860729931E+01  0.57187359397E+01  0.20072650758E+02  0.00000000000E+00 0. -1.
</event>
<event>
 7    1  0.2472338E-008  0.4614232E+02  0.7816164E-02  0.1320468E+00
        -11   -1    0    0    0    0  0.00000000000E+00  0.00000000000E+00  0.45593999997E+02  0.45594000000E+02  0.51100000000E-03 0. -1.
         11   -1    0    0    0    0 -0.00000000000E+00 -0.00000000000E+00 -0.45593999997E+02  0.45594000000E+02  0.51100000000E-03 0.  1.
    9900012    2    1    2    0    0 -0.10152257168E+02 -0.38196531665E+02 -0.21611805143E+02  0.46142317872E+02  0.10000001009E+02 0.  0.
         12    1    1    2    0    0  0.10152257168E+02  0.38196531665E+02  0.21611805143E+02  0.45045682128E+02  0.00000000000E+00 0. -1.
         11    1    3    3    0    0 -0.94659840358E+00 -0.30272518215E+01 -0.31012324610E+00  0.31869230956E+01  0.51100000000E-03 0. -1.
        -11    1    3    3    0    0  0.67147074841E+00 -0.91670569984E+01 -0.77108098370E+01  0.11997599576E+02  0.51100000000E-03 0.  1.
        -12    1    3    3    0    0 -0.98771295131E+01 -0.26002222845E+02 -0.13590872060E+02  0.30957795200E+02  0.00000000000E+00 0.  1.
</event>
<event>
 7    1  0.2472338E-008  0.4614232E+02  0.7816164E-02  0.1320468E+00
        -11   -1    0    0    0    0  0.00000000000E+00  0.00000000000E+00  0.45593999997E+02  0.45594000000E+02  0.51100000000E-03 0.  1.
         11   -1    0    0    0    0 -0.00000000000E+00 -0.00000000000E+00 -0.45593999997E+02  0.45594000000E+02  0.51100000000E-03 0. -1.
    9900012    2    1    2    0    0  0.27402077395E+02 -0.27150059020E+02  0.23261850587E+02  0.46142320483E+02  0.10000024822E+02 0.  0.
         12    1    1    2    0    0 -0.27402077395E+02  0.27150059020E+02 -0.23261850587E+02  0.45045679517E+02  0.00000000000E+00 0. -1.
         11    1    3    3    0    0  0.73531508616E+00 -0.20826735151E+01  0.16839250069E+00  0.22150786762E+01  0.51100000000E-03 0. -1.
        -11    1    3    3    0    0  0.15128220866E+02 -0.13287800431E+02  0.83151518282E+01  0.21784638098E+02  0.51100000000E-03 0.  1.
        -12    1    3    3    0    0  0.11538541443E+02 -0.11779585074E+02  0.14778306258E+02  0.22142603709E+02  0.00000000000E+00 0.  1.
</event>
<event>
 7    1  0.2472338E-008  0.4614232E+02  0.7816164E-02  0.1320468E+00
        -11   -1    0    0    0    0  0.00000000000E+00  0.00000000000E+00  0.45593999997E+02  0.45594000000E+02  0.51100000000E-03 0. -1.
         11   -1    0    0    0    0 -0.00000000000E+00 -0.00000000000E+00 -0.45593999997E+02  0.45594000000E+02  0.51100000000E-03 0.  1.
    9900012    2    1    2    0    0  0.42536413959E+02  0.88538664357E+01 -0.11890164896E+02  0.46142317803E+02  0.10000000378E+02 0.  0.
         12    1    1    2    0    0 -0.42536413959E+02 -0.88538664357E+01  0.11890164896E+02  0.45045682197E+02  0.00000000000E+00 0. -1.
         11    1    3    3    0    0  0.39814342649E+01  0.21097733238E+00  0.14682002481E+01  0.42487577561E+01  0.51100000000E-03 0. -1.
        -11    1    3    3    0    0  0.77352053907E+01  0.11524515068E+01 -0.42193045357E+01  0.88861734136E+01  0.51100000000E-03 0.  1.
        -12    1    3    3    0    0  0.30819774304E+02  0.74904375965E+01 -0.91390606084E+01  0.33007386633E+02  0.00000000000E+00 0.  1.
</event>
<event>
 7    1  0.2472338E-008  0.4614232E+02  0.7816164E-02  0.1320468E+00
        -11   -1    0    0    0    0  0.00000000000E+00  0.00000000000E+00  0.45593999997E+02  0.45594000000E+02  0.51100000000E-03 0.  1.
         11   -1    0    0    0    0 -0.00000000000E+00 -0.00000000000E+00 -0.45593999997E+02  0.45594000000E+02  0.51100000000E-03 0. -1.
    9900012    2    1    2    0    0 -0.26621559635E+01 -0.38367101576E+02  0.23451910253E+02  0.46142315942E+02  0.99999834122E+01 0.  0.
         12    1    1    2    0    0  0.26621559635E+01  0.38367101576E+02 -0.23451910253E+02  0.45045684058E+02  0.00000000000E+00 0. -1.
         11    1    3    3    0    0 -0.25629199929E+01 -0.32268243566E+01  0.22541008911E+01  0.46970123915E+01  0.51100000000E-03 0. -1.
        -11    1    3    3    0    0  0.12697268454E+01 -0.99051594009E+01  0.34564825670E+01  0.10567481300E+02  0.51100000000E-03 0.  1.
        -12    1    3    3    0    0 -0.13689628161E+01 -0.25235117819E+02  0.17741326795E+02  0.30877822251E+02  0.00000000000E+00 0.  1.
</event>
<event>
 7    1  0.2472338E-008  0.4614232E+02  0.7816164E-02  0.1320468E+00
        -11   -1    0    0    0    0  0.00000000000E+00  0.00000000000E+00  0.45593999997E+02  0.45594000000E+02  0.51100000000E-03 0.  1.
         11   -1    0    0    0    0 -0.00000000000E+00 -0.00000000000E+00 -0.45593999997E+02  0.45594000000E+02  0.51100000000E-03 0. -1.
    9900012    2    1    2    0    0  0.32637126596E+02 -0.69694429684E+00  0.31039420920E+02  0.46142318577E+02  0.10000007440E+02 0.  0.
         12    1    1    2    0    0 -0.32637126596E+02  0.69694429684E+00 -0.31039420920E+02  0.45045681423E+02  0.00000000000E+00 0. -1.
         11    1    3    3    0    0  0.19093626778E+02  0.87639911968E+00  0.19387900347E+02  0.27225453882E+02  0.51100000000E-03 0.  1.
        -11    1    3    3    0    0  0.75538091380E+01  0.80230019834E+00  0.94123358927E+01  0.12095279464E+02  0.51100000000E-03 0. -1.
        -12    1    3    3    0    0  0.59896906797E+01 -0.23756436149E+01  0.22391846805E+01  0.68215852305E+01  0.00000000000E+00 0.  1.
</event>
<event>
 7    1  0.2472338E-008  0.4614232E+02  0.7816164E-02  0.1320468E+00
        -11   -1    0    0    0    0  0.00000000000E+00  0.00000000000E+00  0.45593999997E+02  0.45594000000E+02  0.51100000000E-03 0.  1.
         11   -1    0    0    0    0 -0.00000000000E+00 -0.00000000000E+00 -0.45593999997E+02  0.45594000000E+02  0.51100000000E-03 0. -1.
    9900012    2    1    2    0    0  0.66192227915E+01  0.24504143933E+02  0.37213522912E+02  0.46142317990E+02  0.10000002085E+02 0.  0.
         12    1    1    2    0    0 -0.66192227915E+01 -0.24504143933E+02 -0.37213522912E+02  0.45045682010E+02  0.00000000000E+00 0. -1.
         11    1    3    3    0    0  0.90905800484E+01  0.17480321237E+02  0.26787587327E+02  0.33253197008E+02  0.51100000000E-03 0. -1.
        -11    1    3    3    0    0  0.71528845115E-01  0.13080848715E+01  0.15381988760E+01  0.20204599600E+01  0.51100000000E-03 0.  1.
         12    1    3    3    0    0 -0.25428861021E+01  0.57157378247E+01  0.88877367089E+01  0.10868661022E+02  0.00000000000E+00 0. -1.
</event>
<event>
 7    1  0.2472338E-008  0.4614232E+02  0.7816164E-02  0.1320468E+00
        -11   -1    0    0    0    0  0.00000000000E+00  0.00000000000E+00  0.45593999997E+02  0.45594000000E+02  0.51100000000E-03 0.  1.
         11   -1    0    0    0    0 -0.00000000000E+00 -0.00000000000E+00 -0.45593999997E+02  0.45594000000E+02  0.51100000000E-03 0. -1.
    9900012    2    1    2    0    0  0.22842687242E+02  0.36935688205E+02  0.11961608596E+02  0.46142317589E+02  0.99999984327E+01 0.  0.
         12    1    1    2    0    0 -0.22842687242E+02 -0.36935688205E+02 -0.11961608596E+02  0.45045682411E+02  0.00000000000E+00 0. -1.
         11    1    3    3    0    0  0.53272214165E+01  0.11386420945E+02  0.72265141277E+01  0.14500081953E+02  0.51100000000E-03 0.  1.
        -11    1    3    3    0    0  0.12384158470E+02  0.16196215360E+02  0.49155426305E+01  0.20972537582E+02  0.51100000000E-03 0. -1.
        -12    1    3    3    0    0  0.51313073563E+01  0.93530519002E+01 -0.18044816235E+00  0.10669698054E+02  0.00000000000E+00 0.  1.
</event>
<event>
 7    1  0.2472338E-008  0.4614232E+02  0.7816164E-02  0.1320468E+00
        -11   -1    0    0    0    0  0.00000000000E+00  0.00000000000E+00  0.45593999997E+02  0.45594000000E+02  0.51100000000E-03 0.  1.
         11   -1    0    0    0    0 -0.00000000000E+00 -0.00000000000E+00 -0.45593999997E+02  0.45594000000E+02  0.51100000000E-03 0. -1.
    9900012    2    1    2    0    0  0.22188388406E+02 -0.25700672351E+02  0.29601762685E+02  0.46142317705E+02  0.99999994875E+01 0.  0.
         12    1    1    2    0    0 -0.22188388406E+02  0.25700672351E+02 -0.29601762685E+02  0.45045682295E+02  0.00000000000E+00 0. -1.
         11    1    3    3    0    0  0.69791816198E+01 -0.10040315045E+02  0.70018222642E+01  0.14090508067E+02  0.51100000000E-03 0. -1.
        -11    1    3    3    0    0  0.13374884936E+02 -0.15259124706E+02  0.22300654011E+02  0.30150416306E+02  0.51100000000E-03 0.  1.
         12    1    3    3    0    0  0.18343218502E+01 -0.40123259937E+00  0.29928641032E+00  0.19013933324E+01  0.00000000000E+00 0. -1.
</event>
<event>
 7    1  0.2472338E-008  0.4614232E+02  0.7816164E-02  0.1320468E+00
        -11   -1    0    0    0    0  0.00000000000E+00  0.00000000000E+00  0.45593999997E+02  0.45594000000E+02  0.51100000000E-03 0.  1.
         11   -1    0    0    0    0 -0.00000000000E+00 -0.00000000000E+00 -0.45593999997E+02  0.45594000000E+02  0.51100000000E-03 0. -1.
    9900012    2    1    2    0    0  0.25093917042E+02 -0.33444753004E+01  0.37258870419E+02  0.46142316384E+02  0.99999874453E+01 0.  0.
         12    1    1    2    0    0 -0.25093917042E+02  0.33444753004E+01 -0.37258870419E+02  0.45045683616E+02  0.00000000000E+00 0. -1.
         11    1    3    3    0    0  0.20549668476E+01 -0.10186618885E+01  0.26281954282E+01  0.34882620684E+01  0.51100000000E-03 0. -1.
        -11    1    3    3    0    0  0.20946609789E+02  0.10015471974E+01  0.29074658982E+02  0.35848282436E+02  0.51100000000E-03 0.  1.
         12    1    3    3    0    0  0.20923404057E+01 -0.33273606094E+01  0.55560160085E+01  0.68057718802E+01  0.00000000000E+00 0. -1.
</event>
<event>
 7    1  0.2472338E-008  0.4614232E+02  0.7816164E-02  0.1320468E+00
        -11   -1    0    0    0    0  0.00000000000E+00  0.00000000000E+00  0.45593999997E+02  0.45594000000E+02  0.51100000000E-03 0. -1.
         11   -1    0    0    0    0 -0.00000000000E+00 -0.00000000000E+00 -0.45593999997E+02  0.45594000000E+02  0.51100000000E-03 0.  1.
    9900012    2    1    2    0    0  0.61352444912E+01 -0.44128959339E+01 -0.44407190879E+02  0.46142317884E+02  0.10000001125E+02 0.  0.
         12    1    1    2    0    0 -0.61352444912E+01  0.44128959339E+01  0.44407190879E+02  0.45045682116E+02  0.00000000000E+00 0. -1.
         11    1    3    3    0    0  0.40898535619E+01 -0.62036740895E+01 -0.25146509827E+02  0.26221354486E+02  0.51100000000E-03 0. -1.
        -11    1    3    3    0    0 -0.83133112433E+00 -0.45758130227E+00 -0.14025150765E+01  0.16933814949E+01  0.51100000000E-03 0.  1.
        -12    1    3    3    0    0  0.28767220536E+01  0.22483594578E+01 -0.17858165976E+02  0.18227581903E+02  0.00000000000E+00 0.  1.
</event>
<event>
 7    1  0.2472338E-008  0.4614232E+02  0.7816164E-02  0.1320468E+00
        -11   -1    0    0    0    0  0.00000000000E+00  0.00000000000E+00  0.45593999997E+02  0.45594000000E+02  0.51100000000E-03 0. -1.
         11   -1    0    0    0    0 -0.00000000000E+00 -0.00000000000E+00 -0.45593999997E+02  0.45594000000E+02  0.51100000000E-03 0.  1.
    9900012    2    1    2    0    0  0.21910426330E+02  0.16030978975E+02 -0.35945153836E+02  0.46142321482E+02  0.10000033930E+02 0.  0.
         12    1    1    2    0    0 -0.21910426330E+02 -0.16030978975E+02  0.35945153836E+02  0.45045678518E+02  0.00000000000E+00 0. -1.
         11    1    3    3    0    0 -0.14130150096E+00  0.13244681441E+01 -0.21254713293E+01  0.25083481839E+01  0.51100000000E-03 0. -1.
        -11    1    3    3    0    0  0.12718700749E+02  0.12151037244E+02 -0.18614108124E+02  0.25610507148E+02  0.51100000000E-03 0.  1.
        -12    1    3    3    0    0  0.93330270814E+01  0.25554735865E+01 -0.15205574383E+02  0.18023466150E+02  0.00000000000E+00 0.  1.
</event>
<event>
 7    1  0.2472338E-008  0.4614232E+02  0.7816164E-02  0.1320468E+00
        -11   -1    0    0    0    0  0.00000000000E+00  0.00000000000E+00  0.45593999997E+02  0.45594000000E+02  0.51100000000E-03 0. -1.
         11   -1    0    0    0    0 -0.00000000000E+00 -0.00000000000E+00 -0.45593999997E+02  0.45594000000E+02  0.51100000000E-03 0.  1.
    9900012    2    1    2    0    0 -0.24472566232E+02  0.76906346388E+01 -0.37027844008E+02  0.46142316621E+02  0.99999896068E+01 0.  0.
         12    1    1    2    0    0  0.24472566232E+02 -0.76906346388E+01  0.37027844008E+02  0.45045683379E+02  0.00000000000E+00 0. -1.
         11    1    3    3    0    0 -0.53258544176E+01  0.17324412840E+01 -0.41904996659E+01  0.69947384361E+01  0.51100000000E-03 0. -1.
        -11    1    3    3    0    0 -0.94222910180E+01  0.58080729423E+01 -0.21712016235E+02  0.24370575056E+02  0.51100000000E-03 0.  1.
        -12    1    3    3    0    0 -0.97244207967E+01  0.15012041256E+00 -0.11125328108E+02  0.14777003129E+02  0.00000000000E+00 0.  1.
</event>
<event>
 7    1  0.2472338E-008  0.4614232E+02  0.7816164E-02  0.1320468E+00
        -11   -1    0    0    0    0  0.00000000000E+00  0.00000000000E+00  0.45593999997E+02  0.45594000000E+02  0.51100000000E-03 0.  1.
         11   -1    0    0    0    0 -0.00000000000E+00 -0.00000000000E+00 -0.45593999997E+02  0.45594000000E+02  0.51100000000E-03 0. -1.
    9900012    2    1    2    0    0 -0.78309790196E+00 -0.42200739940E+02 -0.15735239620E+02  0.46142318079E+02  0.10000002900E+02 0.  0.
         12    1    1    2    0    0  0.78309790196E+00  0.42200739940E+02  0.15735239620E+02  0.45045681921E+02  0.00000000000E+00 0. -1.
         11    1    3    3    0    0  0.21758827703E+01 -0.61768652298E+01 -0.15698568593E+00  0.65507842786E+01  0.51100000000E-03 0. -1.
        -11    1    3    3    0    0 -0.27534875185E+01 -0.20916213514E+02 -0.70598655730E+01  0.22246603863E+02  0.51100000000E-03 0.  1.
         12    1    3    3    0    0 -0.20549315383E+00 -0.15107661196E+02 -0.85183883612E+01  0.17344929937E+02  0.00000000000E+00 0. -1.
</event>
<event>
 7    1  0.2472338E-008  0.4614232E+02  0.7816164E-02  0.1320468E+00
        -11   -1    0    0    0    0  0.00000000000E+00  0.00000000000E+00  0.45593999997E+02  0.45594000000E+02  0.51100000000E-03 0.  1.
         11   -1    0    0    0    0 -0.00000000000E+00 -0.00000000000E+00 -0.45593999997E+02  0.45594000000E+02  0.51100000000E-03 0. -1.
    9900012    2    1    2    0    0 -0.23727444992E+01  0.25084696076E+01  0.44913152260E+02  0.46142316720E+02  0.99999905058E+01 0.  0.
         12    1    1    2    0    0  0.23727444992E+01 -0.25084696076E+01 -0.44913152260E+02  0.45045683280E+02  0.00000000000E+00 0. -1.
         11    1    3    3    0    0  0.23408048650E+00 -0.30702633370E+01  0.97611305320E+01  0.10235281147E+02  0.51100000000E-03 0. -1.
        -11    1    3    3    0    0 -0.21238669585E+01  0.12737783763E+01  0.19841771820E+02  0.19995730330E+02  0.51100000000E-03 0.  1.
        -12    1    3    3    0    0 -0.48295802718E+00  0.43049545683E+01  0.15310249908E+02  0.15911305243E+02  0.00000000000E+00 0.  1.
</event>
<event>
 7    1  0.2472338E-008  0.4614232E+02  0.7816164E-02  0.1320468E+00
        -11   -1    0    0    0    0  0.00000000000E+00  0.00000000000E+00  0.45593999997E+02  0.45594000000E+02  0.51100000000E-03 0.  1.
         11   -1    0    0    0    0 -0.00000000000E+00 -0.00000000000E+00 -0.45593999997E+02  0.45594000000E+02  0.51100000000E-03 0. -1.
    9900012    2    1    2    0    0  0.14113349763E+02 -0.97877810427E+01  0.41642841708E+02  0.46142316913E+02  0.99999922628E+01 0.  0.
         12    1    1    2    0    0 -0.14113349763E+02  0.97877810427E+01 -0.41642841708E+02  0.45045683087E+02  0.00000000000E+00 0. -1.
         11    1    3    3    0    0  0.10731421711E+02 -0.96433433139E+01  0.35622242110E+02  0.38433079702E+02  0.51100000000E-03 0. -1.
        -11    1    3    3    0    0  0.38768980739E+01 -0.59562655247E+00  0.58044321716E+01  0.70054652066E+01  0.51100000000E-03 0.  1.
         12    1    3    3    0    0 -0.49497002164E+00  0.45118882362E+00  0.21616742670E+00  0.70377200374E+00  0.00000000000E+00 0. -1.
</event>
<event>
 7    1  0.2472338E-008  0.4614232E+02  0.7816164E-02  0.1320468E+00
        -11   -1    0    0    0    0  0.00000000000E+00  0.00000000000E+00  0.45593999997E+02  0.45594000000E+02  0.51100000000E-03 0.  1.
         11   -1    0    0    0    0 -0.00000000000E+00 -0.00000000000E+00 -0.45593999997E+02  0.45594000000E+02  0.51100000000E-03 0. -1.
    9900012    2    1    2    0    0  0.86913765734E+01  0.77433315003E+01  0.43515678349E+02  0.46142317947E+02  0.10000001694E+02 0.  0.
         12    1    1    2    0    0 -0.86913765734E+01 -0.77433315003E+01 -0.43515678349E+02  0.45045682053E+02  0.00000000000E+00 0. -1.
         11    1    3    3    0    0 -0.80772484851E+00  0.16964974931E+00  0.62643776641E+00  0.10361587739E+01  0.51100000000E-03 0. -1.
        -11    1    3    3    0    0  0.20471139157E+01  0.20575792913E+00  0.19069617691E+01  0.28052656130E+01  0.51100000000E-03 0.  1.
        -12    1    3    3    0    0  0.74519875062E+01  0.73679238218E+01  0.40982278813E+02  0.42300893560E+02  0.00000000000E+00 0.  1.
</event>
<event>
 7    1  0.2472338E-008  0.4614232E+02  0.7816164E-02  0.1320468E+00
        -11   -1    0    0    0    0  0.00000000000E+00  0.00000000000E+00  0.45593999997E+02  0.45594000000E+02  0.51100000000E-03 0. -1.
         11   -1    0    0    0    0 -0.00000000000E+00 -0.00000000000E+00 -0.45593999997E+02  0.45594000000E+02  0.51100000000E-03 0.  1.
    9900012    2    1    2    0    0 -0.42226315588E+02  0.47245340266E+01 -0.14957621836E+02  0.46142318732E+02  0.10000008852E+02 0.  0.
         12    1    1    2    0    0  0.42226315588E+02 -0.47245340266E+01  0.14957621836E+02  0.45045681268E+02  0.00000000000E+00 0. -1.
         11    1    3    3    0    0 -0.16737635565E+02  0.48626123275E+01 -0.38444318169E+01  0.17848616171E+02  0.51100000000E-03 0. -1.
        -11    1    3    3    0    0 -0.65169792285E+01  0.10207661772E+01 -0.73334859851E+00  0.66370763354E+01  0.51100000000E-03 0.  1.
        -12    1    3    3    0    0 -0.18971700794E+02 -0.11588444781E+01 -0.10379841421E+02  0.21656626225E+02  0.00000000000E+00 0.  1.
</event>
<event>
 7    1  0.2472338E-008  0.4614232E+02  0.7816164E-02  0.1320468E+00
        -11   -1    0    0    0    0  0.00000000000E+00  0.00000000000E+00  0.45593999997E+02  0.45594000000E+02  0.51100000000E-03 0.  1.
         11   -1    0    0    0    0 -0.00000000000E+00 -0.00000000000E+00 -0.45593999997E+02  0.45594000000E+02  0.51100000000E-03 0. -1.
    9900012    2    1    2    0    0  0.40359695700E+01 -0.10935435724E+02  0.43511385512E+02  0.46142317920E+02  0.10000001452E+02 0.  0.
         12    1    1    2    0    0 -0.40359695700E+01  0.10935435724E+02 -0.43511385512E+02  0.45045682080E+02  0.00000000000E+00 0. -1.
         11    1    3    3    0    0  0.39091059723E+01 -0.19105367929E+00  0.17236083518E+02  0.17674846147E+02  0.51100000000E-03 0. -1.
        -11    1    3    3    0    0  0.14439516683E+00 -0.29787130727E+01  0.50329100965E+01  0.58501081899E+01  0.51100000000E-03 0.  1.
        -12    1    3    3    0    0 -0.17531569111E-01 -0.77656689725E+01  0.21242391897E+02  0.22617363583E+02  0.00000000000E+00 0.  1.
</event>
<event>
 7    1  0.2472338E-008  0.4614232E+02  0.7816164E-02  0.1320468E+00
        -11   -1    0    0    0    0  0.00000000000E+00  0.00000000000E+00  0.45593999997E+02  0.45594000000E+02  0.51100000000E-03 0. -1.
         11   -1    0    0    0    0 -0.00000000000E+00 -0.00000000000E+00 -0.45593999997E+02  0.45594000000E+02  0.51100000000E-03 0.  1.
    9900012    2    1    2    0    0 -0.83947473963E+01 -0.16654374642E+02 -0.41003334842E+02  0.46142318223E+02  0.10000004215E+02 0.  0.
         12    1    1    2    0    0  0.83947473963E+01  0.16654374642E+02  0.41003334842E+02  0.45045681777E+02  0.00000000000E+00 0. -1.
         11    1    3    3    0    0 -0.98362824209E+00 -0.48668331120E+01 -0.59556117707E+01  0.77538958520E+01  0.51100000000E-03 0. -1.
        -11    1    3    3    0    0 -0.21117906610E+01  0.36457359916E+00 -0.77636644738E+01  0.80540089414E+01  0.51100000000E-03 0.  1.
        -12    1    3    3    0    0 -0.52993284932E+01 -0.12152115129E+02 -0.27284058597E+02  0.30334413430E+02  0.00000000000E+00 0.  1.
</event>
