<event>
 7    1  0.5559916E-010  0.4778727E+02  0.7816164E-02  0.1312668E+00
        -11   -1    0    0    0    0  0.00000000000E+00  0.00000000000E+00  0.45593999997E+02  0.45594000000E+02  0.51100000000E-03 0.  1.
         11   -1    0    0    0    0 -0.00000000000E+00 -0.00000000000E+00 -0.45593999997E+02  0.45594000000E+02  0.51100000000E-03 0. -1.
    9900012    2    1    2    0    0 -0.36774772540E+02  0.11620637564E+02  0.19904773016E+02  0.47787273029E+02  0.20000009047E+02 0.  0.
         12    1    1    2    0    0  0.36774772540E+02 -0.11620637564E+02 -0.19904773016E+02  0.43400726971E+02  0.00000000000E+00 0. -1.
         11    1    3    3    0    0 -0.11899576634E+02  0.80374703973E+01 -0.10138329578E+01  0.14395440666E+02  0.51100000000E-03 0. -1.
        -11    1    3    3    0    0 -0.12771890722E+02  0.72648074403E+00  0.14703001972E+02  0.19489156835E+02  0.51100000000E-03 0.  1.
        -12    1    3    3    0    0 -0.12103305184E+02  0.28566864229E+01  0.62156040022E+01  0.13902675527E+02  0.00000000000E+00 0.  1.
</event>
<event>
 7    1  0.5559916E-010  0.4778727E+02  0.7816164E-02  0.1312668E+00
        -11   -1    0    0    0    0  0.00000000000E+00  0.00000000000E+00  0.45593999997E+02  0.45594000000E+02  0.51100000000E-03 0.  1.
         11   -1    0    0    0    0 -0.00000000000E+00 -0.00000000000E+00 -0.45593999997E+02  0.45594000000E+02  0.51100000000E-03 0. -1.
    9900012    2    1    2    0    0 -0.28024352093E+02  0.32437734605E+02  0.67862129765E+01  0.47787267021E+02  0.19999981657E+02 0.  0.
         12    1    1    2    0    0  0.28024352093E+02 -0.32437734605E+02 -0.67862129765E+01  0.43400732979E+02  0.00000000000E+00 0. -1.
         11    1    3    3    0    0  0.99276764677E+00  0.59289920941E+00  0.28134554452E+01  0.30418167065E+01  0.51100000000E-03 0. -1.
        -11    1    3    3    0    0 -0.28695612314E+02  0.26353641643E+02  0.24495124046E+01  0.39037836840E+02  0.51100000000E-03 0.  1.
        -12    1    3    3    0    0 -0.32150742599E+00  0.54911937529E+01  0.15232451268E+01  0.57076134744E+01  0.00000000000E+00 0.  1.
</event>
<event>
 7    1  0.5559916E-010  0.4778727E+02  0.7816164E-02  0.1312668E+00
        -11   -1    0    0    0    0  0.00000000000E+00  0.00000000000E+00  0.45593999997E+02  0.45594000000E+02  0.51100000000E-03 0. -1.
         11   -1    0    0    0    0 -0.00000000000E+00 -0.00000000000E+00 -0.45593999997E+02  0.45594000000E+02  0.51100000000E-03 0.  1.
    9900012    2    1    2    0    0  0.28684161341E+01  0.37830962187E+02  0.21076382914E+02  0.47787269270E+02  0.19999991911E+02 0.  0.
         12    1    1    2    0    0 -0.28684161341E+01 -0.37830962187E+02 -0.21076382914E+02  0.43400730730E+02  0.00000000000E+00 0. -1.
         11    1    3    3    0    0 -0.12077851734E+01  0.17675375609E+01  0.50151178784E+01  0.54529204697E+01  0.51100000000E-03 0. -1.
        -11    1    3    3    0    0  0.74502740029E+01  0.33403445748E+02  0.16539710894E+02  0.38011298416E+02  0.51100000000E-03 0.  1.
        -12    1    3    3    0    0 -0.33740726954E+01  0.26599788788E+01 -0.47844585863E+00  0.43230503847E+01  0.00000000000E+00 0.  1.
</event>
<event>
 7    1  0.5559916E-010  0.4778727E+02  0.7816164E-02  0.1312668E+00
        -11   -1    0    0    0    0  0.00000000000E+00  0.00000000000E+00  0.45593999997E+02  0.45594000000E+02  0.51100000000E-03 0.  1.
         11   -1    0    0    0    0 -0.00000000000E+00 -0.00000000000E+00 -0.45593999997E+02  0.45594000000E+02  0.51100000000E-03 0. -1.
    9900012    2    1    2    0    0  0.11327997178E+02  0.27423994625E+02  0.31673718540E+02  0.47787269045E+02  0.19999990884E+02 0.  0.
         12    1    1    2    0    0 -0.11327997178E+02 -0.27423994625E+02 -0.31673718540E+02  0.43400730955E+02  0.00000000000E+00 0. -1.
         11    1    3    3    0    0 -0.30271886089E+01  0.11063927751E+02  0.13700948486E+02  0.17868697710E+02  0.51100000000E-03 0. -1.
        -11    1    3    3    0    0  0.60419900133E+01  0.52082602217E+01  0.11012323507E+01  0.80525977677E+01  0.51100000000E-03 0.  1.
         12    1    3    3    0    0  0.83131957738E+01  0.11151806653E+02  0.16871537703E+02  0.21865973568E+02  0.00000000000E+00 0. -1.
</event>
<event>
 7    1  0.5559916E-010  0.4778727E+02  0.7816164E-02  0.1312668E+00
        -11   -1    0    0    0    0  0.00000000000E+00  0.00000000000E+00  0.45593999997E+02  0.45594000000E+02  0.51100000000E-03 0. -1.
         11   -1    0    0    0    0 -0.00000000000E+00 -0.00000000000E+00 -0.45593999997E+02  0.45594000000E+02  0.51100000000E-03 0.  1.
    9900012    2    1    2    0    0  0.20022995198E+02 -0.23419431339E+02 -0.30565227252E+02  0.47787271690E+02  0.20000002943E+02 0.  0.
         12    1    1    2    0    0 -0.20022995198E+02  0.23419431339E+02  0.30565227252E+02  0.43400728310E+02  0.00000000000E+00 0. -1.
         11    1    3    3    0    0  0.13329411710E+02 -0.21162896023E+02 -0.25094030347E+02  0.35429532087E+02  0.51100000000E-03 0.  1.
        -11    1    3    3    0    0  0.44475962257E+01  0.27653618348E+01 -0.11492932651E+01  0.53618293086E+01  0.51100000000E-03 0. -1.
         12    1    3    3    0    0  0.22459872626E+01 -0.50218971503E+01 -0.43219036398E+01  0.69959102941E+01  0.00000000000E+00 0. -1.
</event>
<event>
 7    1  0.5559916E-010  0.4778727E+02  0.7816164E-02  0.1312668E+00
        -11   -1    0    0    0    0  0.00000000000E+00  0.00000000000E+00  0.45593999997E+02  0.45594000000E+02  0.51100000000E-03 0. -1.
         11   -1    0    0    0    0 -0.00000000000E+00 -0.00000000000E+00 -0.45593999997E+02  0.45594000000E+02  0.51100000000E-03 0.  1.
    9900012    2    1    2    0    0  0.16866385368E+02  0.33949348810E+02 -0.21132679026E+02  0.47787270020E+02  0.19999995327E+02 0.  0.
         12    1    1    2    0    0 -0.16866385368E+02 -0.33949348810E+02  0.21132679026E+02  0.43400729980E+02  0.00000000000E+00 0. -1.
         11    1    3    3    0    0  0.24409776421E+01  0.15399953951E+01 -0.48471288386E+01  0.56413310402E+01  0.51100000000E-03 0. -1.
        -11    1    3    3    0    0  0.11859861074E+02  0.11567015904E+02 -0.12626714406E+02  0.20829932275E+02  0.51100000000E-03 0.  1.
        -12    1    3    3    0    0  0.25655466521E+01  0.20842337511E+02 -0.36588357806E+01  0.21316006704E+02  0.00000000000E+00 0.  1.
</event>
<event>
 7    1  0.5559916E-010  0.4778730E+02  0.7816164E-02  0.1312668E+00
        -11   -1    0    0    0    0  0.00000000000E+00  0.00000000000E+00  0.45593999997E+02  0.45594000000E+02  0.51100000000E-03 0. -1.
         11   -1    0    0    0    0 -0.00000000000E+00 -0.00000000000E+00 -0.45593999997E+02  0.45594000000E+02  0.51100000000E-03 0.  1.
    9900012    2    1    2    0    0  0.12079881310E+02  0.27708286511E+02 -0.31143982882E+02  0.47787304803E+02  0.20000153916E+02 0.  0.
         12    1    1    2    0    0 -0.12079881310E+02 -0.27708286511E+02  0.31143982882E+02  0.43400695197E+02  0.00000000000E+00 0. -1.
         11    1    3    3    0    0  0.16550578368E+02  0.24343078829E+02 -0.24944176600E+02  0.38583922529E+02  0.51100000000E-03 0. -1.
        -11    1    3    3    0    0 -0.25395754058E+01  0.40112140220E+01 -0.40259018359E+01  0.62247222448E+01  0.51100000000E-03 0.  1.
         12    1    3    3    0    0 -0.19311216519E+01 -0.64600634022E+00 -0.21739044467E+01  0.29786600292E+01  0.00000000000E+00 0. -1.
</event>
<event>
 7    1  0.5559916E-010  0.4778726E+02  0.7816164E-02  0.1312668E+00
        -11   -1    0    0    0    0  0.00000000000E+00  0.00000000000E+00  0.45593999997E+02  0.45594000000E+02  0.51100000000E-03 0.  1.
         11   -1    0    0    0    0 -0.00000000000E+00 -0.00000000000E+00 -0.45593999997E+02  0.45594000000E+02  0.51100000000E-03 0. -1.
    9900012    2    1    2    0    0 -0.27200419260E+02 -0.66958034901E+01  0.33150072895E+02  0.47787263540E+02  0.19999965786E+02 0.  0.
         12    1    1    2    0    0  0.27200419260E+02  0.66958034901E+01 -0.33150072895E+02  0.43400736460E+02  0.00000000000E+00 0. -1.
         11    1    3    3    0    0 -0.40409798701E+01 -0.78109255061E+01  0.88399666413E+01  0.12469365904E+02  0.51100000000E-03 0. -1.
        -11    1    3    3    0    0 -0.16356313550E+02  0.19731457000E+01  0.23071525175E+02  0.28349913069E+02  0.51100000000E-03 0.  1.
        -12    1    3    3    0    0 -0.68031258398E+01 -0.85802368402E+00  0.12385810790E+01  0.69679845668E+01  0.00000000000E+00 0.  1.
</event>
<event>
 7    1  0.5559916E-010  0.4778728E+02  0.7816164E-02  0.1312668E+00
        -11   -1    0    0    0    0  0.00000000000E+00  0.00000000000E+00  0.45593999997E+02  0.45594000000E+02  0.51100000000E-03 0.  1.
         11   -1    0    0    0    0 -0.00000000000E+00 -0.00000000000E+00 -0.45593999997E+02  0.45594000000E+02  0.51100000000E-03 0. -1.
    9900012    2    1    2    0    0  0.30143233476E+02  0.12928719954E+02  0.28422817214E+02  0.47787275785E+02  0.20000021614E+02 0.  0.
         12    1    1    2    0    0 -0.30143233476E+02 -0.12928719954E+02 -0.28422817214E+02  0.43400724215E+02  0.00000000000E+00 0. -1.
         11    1    3    3    0    0  0.10835217792E+02  0.85517193159E+01  0.41320118639E+01  0.14408586681E+02  0.51100000000E-03 0. -1.
        -11    1    3    3    0    0  0.14353773902E+01  0.38981626337E+01  0.15106910780E+01  0.44201999915E+01  0.51100000000E-03 0.  1.
         12    1    3    3    0    0  0.17872638294E+02  0.47883800437E+00  0.22780114272E+02  0.28958489112E+02  0.00000000000E+00 0. -1.
</event>
<event>
 7    1  0.5559916E-010  0.4778728E+02  0.7816164E-02  0.1312668E+00
        -11   -1    0    0    0    0  0.00000000000E+00  0.00000000000E+00  0.45593999997E+02  0.45594000000E+02  0.51100000000E-03 0.  1.
         11   -1    0    0    0    0 -0.00000000000E+00 -0.00000000000E+00 -0.45593999997E+02  0.45594000000E+02  0.51100000000E-03 0. -1.
    9900012    2    1    2    0    0  0.19286894423E+02 -0.20666786616E+02  0.32932085533E+02  0.47787278542E+02  0.20000034186E+02 0.  0.
         12    1    1    2    0    0 -0.19286894423E+02  0.20666786616E+02 -0.32932085533E+02  0.43400721458E+02  0.00000000000E+00 0. -1.
         11    1    3    3    0    0  0.95833948244E+01 -0.18656723232E+02  0.11682604883E+02  0.24008290968E+02  0.51100000000E-03 0. -1.
        -11    1    3    3    0    0  0.87320195302E+01 -0.23728229435E+01  0.15593654911E+02  0.18028880374E+02  0.51100000000E-03 0.  1.
         12    1    3    3    0    0  0.97148006852E+00  0.36275955991E+00  0.56558257388E+01  0.57501071998E+01  0.00000000000E+00 0. -1.
</event>
<event>
 7    1  0.5559916E-010  0.4778727E+02  0.7816164E-02  0.1312668E+00
        -11   -1    0    0    0    0  0.00000000000E+00  0.00000000000E+00  0.45593999997E+02  0.45594000000E+02  0.51100000000E-03 0.  1.
         11   -1    0    0    0    0 -0.00000000000E+00 -0.00000000000E+00 -0.45593999997E+02  0.45594000000E+02  0.51100000000E-03 0. -1.
    9900012    2    1    2    0    0  0.22502813553E+02 -0.32265389151E+02  0.18335515690E+02  0.47787273157E+02  0.20000009632E+02 0.  0.
         12    1    1    2    0    0 -0.22502813553E+02  0.32265389151E+02 -0.18335515690E+02  0.43400726843E+02  0.00000000000E+00 0. -1.
         11    1    3    3    0    0  0.79838338419E+00 -0.12590297394E+02  0.18221981783E+01  0.12746505833E+02  0.51100000000E-03 0. -1.
        -11    1    3    3    0    0  0.21262003415E+01 -0.72860568504E+01  0.26405594985E+01  0.80361624576E+01  0.51100000000E-03 0.  1.
         12    1    3    3    0    0  0.19578229827E+02 -0.12389034907E+02  0.13872758013E+02  0.27004604867E+02  0.00000000000E+00 0. -1.
</event>
<event>
 7    1  0.5559916E-010  0.4778727E+02  0.7816164E-02  0.1312668E+00
        -11   -1    0    0    0    0  0.00000000000E+00  0.00000000000E+00  0.45593999997E+02  0.45594000000E+02  0.51100000000E-03 0.  1.
         11   -1    0    0    0    0 -0.00000000000E+00 -0.00000000000E+00 -0.45593999997E+02  0.45594000000E+02  0.51100000000E-03 0. -1.
    9900012    2    1    2    0    0 -0.28232420569E+01 -0.36668639241E+02  0.23044811311E+02  0.47787272726E+02  0.20000007669E+02 0.  0.
         12    1    1    2    0    0  0.28232420569E+01  0.36668639241E+02 -0.23044811311E+02  0.43400727274E+02  0.00000000000E+00 0. -1.
         11    1    3    3    0    0  0.40223426928E+01 -0.11179485692E+02  0.84765913218E+00  0.11911283195E+02  0.51100000000E-03 0. -1.
        -11    1    3    3    0    0 -0.34000840750E+01 -0.24297606497E+02  0.19106219534E+02  0.31096332233E+02  0.51100000000E-03 0.  1.
        -12    1    3    3    0    0 -0.34455006746E+01 -0.11915470515E+01  0.30909326447E+01  0.47796572983E+01  0.00000000000E+00 0.  1.
</event>
<event>
 7    1  0.5559916E-010  0.4778727E+02  0.7816164E-02  0.1312668E+00
        -11   -1    0    0    0    0  0.00000000000E+00  0.00000000000E+00  0.45593999997E+02  0.45594000000E+02  0.51100000000E-03 0. -1.
         11   -1    0    0    0    0 -0.00000000000E+00 -0.00000000000E+00 -0.45593999997E+02  0.45594000000E+02  0.51100000000E-03 0.  1.
    9900012    2    1    2    0    0  0.26518061335E+02 -0.14798156417E+02 -0.31006937088E+02  0.47787272381E+02  0.20000006094E+02 0.  0.
         12    1    1    2    0    0 -0.26518061335E+02  0.14798156417E+02  0.31006937088E+02  0.43400727619E+02  0.00000000000E+00 0. -1.
         11    1    3    3    0    0  0.15058961372E+02 -0.42552040430E+01 -0.74272771974E+01  0.17321764514E+02  0.51100000000E-03 0. -1.
        -11    1    3    3    0    0  0.48275856919E-01  0.21025542684E+01 -0.39601757148E+01  0.44839778058E+01  0.51100000000E-03 0.  1.
         12    1    3    3    0    0  0.11410824106E+02 -0.12645506642E+02 -0.19619484175E+02  0.25981530062E+02  0.00000000000E+00 0. -1.
</event>
<event>
 7    1  0.5559916E-010  0.4778727E+02  0.7816164E-02  0.1312668E+00
        -11   -1    0    0    0    0  0.00000000000E+00  0.00000000000E+00  0.45593999997E+02  0.45594000000E+02  0.51100000000E-03 0.  1.
         11   -1    0    0    0    0 -0.00000000000E+00 -0.00000000000E+00 -0.45593999997E+02  0.45594000000E+02  0.51100000000E-03 0. -1.
    9900012    2    1    2    0    0 -0.10153772742E+02  0.33987776598E+02  0.25007096609E+02  0.47787274893E+02  0.20000017549E+02 0.  0.
         12    1    1    2    0    0  0.10153772742E+02 -0.33987776598E+02 -0.25007096609E+02  0.43400725107E+02  0.00000000000E+00 0. -1.
         11    1    3    3    0    0  0.69894296553E+00  0.19336940557E+02  0.10720759960E+02  0.22121041697E+02  0.51100000000E-03 0. -1.
        -11    1    3    3    0    0 -0.45375087011E+01 -0.73744383336E+00  0.41105923325E+01  0.61668288614E+01  0.51100000000E-03 0.  1.
        -12    1    3    3    0    0 -0.63152070065E+01  0.15388279874E+02  0.10175744317E+02  0.19499404335E+02  0.00000000000E+00 0.  1.
</event>
<event>
 7    1  0.5559916E-010  0.4778727E+02  0.7816164E-02  0.1312668E+00
        -11   -1    0    0    0    0  0.00000000000E+00  0.00000000000E+00  0.45593999997E+02  0.45594000000E+02  0.51100000000E-03 0. -1.
         11   -1    0    0    0    0 -0.00000000000E+00 -0.00000000000E+00 -0.45593999997E+02  0.45594000000E+02  0.51100000000E-03 0.  1.
    9900012    2    1    2    0    0  0.11431682617E+02  0.41577794576E+02 -0.49220863241E+01  0.47787270708E+02  0.19999998466E+02 0.  0.
         12    1    1    2    0    0 -0.11431682617E+02 -0.41577794576E+02  0.49220863241E+01  0.43400729292E+02  0.00000000000E+00 0. -1.
         11    1    3    3    0    0  0.24764973958E+01  0.19163762723E+02  0.26691410001E+01  0.19506592603E+02  0.51100000000E-03 0. -1.
        -11    1    3    3    0    0  0.33515742812E+00  0.13478065849E+02 -0.83209896583E+01  0.15843278028E+02  0.51100000000E-03 0.  1.
        -12    1    3    3    0    0  0.86200277933E+01  0.89359660049E+01  0.72976233414E+00  0.12437400076E+02  0.00000000000E+00 0.  1.
</event>
<event>
 7    1  0.5559916E-010  0.4778727E+02  0.7816164E-02  0.1312668E+00
        -11   -1    0    0    0    0  0.00000000000E+00  0.00000000000E+00  0.45593999997E+02  0.45594000000E+02  0.51100000000E-03 0.  1.
         11   -1    0    0    0    0 -0.00000000000E+00 -0.00000000000E+00 -0.45593999997E+02  0.45594000000E+02  0.51100000000E-03 0. -1.
    9900012    2    1    2    0    0 -0.82659775646E+01  0.41972424056E+02  0.73220524977E+01  0.47787271677E+02  0.20000002883E+02 0.  0.
         12    1    1    2    0    0  0.82659775646E+01 -0.41972424056E+02 -0.73220524977E+01  0.43400728323E+02  0.00000000000E+00 0. -1.
         11    1    3    3    0    0  0.27076471212E+01  0.14347946403E+02 -0.49781574067E+01  0.15426502207E+02  0.51100000000E-03 0. -1.
        -11    1    3    3    0    0 -0.65925471366E+01  0.18880728551E+02  0.67008425745E+01  0.21091346088E+02  0.51100000000E-03 0.  1.
         12    1    3    3    0    0 -0.43810775491E+01  0.87437491019E+01  0.55993673299E+01  0.11269423381E+02  0.00000000000E+00 0. -1.
</event>
<event>
 7    1  0.5559916E-010  0.4778727E+02  0.7816164E-02  0.1312668E+00
        -11   -1    0    0    0    0  0.00000000000E+00  0.00000000000E+00  0.45593999997E+02  0.45594000000E+02  0.51100000000E-03 0. -1.
         11   -1    0    0    0    0 -0.00000000000E+00 -0.00000000000E+00 -0.45593999997E+02  0.45594000000E+02  0.51100000000E-03 0.  1.
    9900012    2    1    2    0    0  0.22421338423E+02  0.15032984077E+02 -0.33984059749E+02  0.47787270236E+02  0.19999996316E+02 0.  0.
         12    1    1    2    0    0 -0.22421338423E+02 -0.15032984077E+02  0.33984059749E+02  0.43400729764E+02  0.00000000000E+00 0. -1.
         11    1    3    3    0    0  0.45427158419E+00 -0.32986932603E+01 -0.84628148605E-01  0.33309010917E+01  0.51100000000E-03 0. -1.
        -11    1    3    3    0    0  0.13178656660E+02  0.11719302294E+02 -0.18812749353E+02  0.25786402930E+02  0.51100000000E-03 0.  1.
         12    1    3    3    0    0  0.87884101790E+01  0.66123750439E+01 -0.15086682248E+02  0.18669966215E+02  0.00000000000E+00 0. -1.
</event>
<event>
 7    1  0.5559916E-010  0.4778727E+02  0.7816164E-02  0.1312668E+00
        -11   -1    0    0    0    0  0.00000000000E+00  0.00000000000E+00  0.45593999997E+02  0.45594000000E+02  0.51100000000E-03 0.  1.
         11   -1    0    0    0    0 -0.00000000000E+00 -0.00000000000E+00 -0.45593999997E+02  0.45594000000E+02  0.51100000000E-03 0. -1.
    9900012    2    1    2    0    0 -0.29672874354E+02 -0.14293484140E+02  0.28263761816E+02  0.47787269669E+02  0.19999993728E+02 0.  0.
         12    1    1    2    0    0  0.29672874354E+02  0.14293484140E+02 -0.28263761816E+02  0.43400730331E+02  0.00000000000E+00 0. -1.
         11    1    3    3    0    0 -0.11556833583E+02 -0.14192512283E+02  0.84886993594E+01  0.20175376687E+02  0.51100000000E-03 0. -1.
        -11    1    3    3    0    0 -0.14067294568E+02  0.26242892134E+01  0.15803479690E+02  0.21319606960E+02  0.51100000000E-03 0.  1.
         12    1    3    3    0    0 -0.40487462030E+01 -0.27252610701E+01  0.39715827666E+01  0.62922860225E+01  0.00000000000E+00 0. -1.
</event>
<event>
 7    1  0.5969359E-010  0.4778730E+02  0.7816164E-02  0.1312668E+00
        -11   -1    0    0    0    0  0.00000000000E+00  0.00000000000E+00  0.45593999997E+02  0.45594000000E+02  0.51100000000E-03 0. -1.
         11   -1    0    0    0    0 -0.00000000000E+00 -0.00000000000E+00 -0.45593999997E+02  0.45594000000E+02  0.51100000000E-03 0.  1.
    9900012    2    1    2    0    0  0.95845728314E+01  0.40854856586E+02 -0.11074182019E+02  0.47787298964E+02  0.20000127296E+02 0.  0.
         12    1    1    2    0    0 -0.95845728314E+01 -0.40854856586E+02  0.11074182019E+02  0.43400701036E+02  0.00000000000E+00 0. -1.
         11    1    3    3    0    0 -0.48355638309E-01  0.10580684370E+02  0.39030594195E+01  0.11277725528E+02  0.51100000000E-03 0. -1.
        -11    1    3    3    0    0  0.18398111453E+01  0.13981752903E+02 -0.19396432560E+01  0.14235046031E+02  0.51100000000E-03 0.  1.
         12    1    3    3    0    0  0.77931173244E+01  0.16292419313E+02 -0.13037598182E+02  0.22274527404E+02  0.00000000000E+00 0. -1.
</event>
<event>
 7    1  0.5559916E-010  0.4778727E+02  0.7816164E-02  0.1312668E+00
        -11   -1    0    0    0    0  0.00000000000E+00  0.00000000000E+00  0.45593999997E+02  0.45594000000E+02  0.51100000000E-03 0. -1.
         11   -1    0    0    0    0 -0.00000000000E+00 -0.00000000000E+00 -0.45593999997E+02  0.45594000000E+02  0.51100000000E-03 0.  1.
    9900012    2    1    2    0    0  0.20910424747E+02  0.14365762140E+02 -0.35213665117E+02  0.47787271942E+02  0.20000004094E+02 0.  0.
         12    1    1    2    0    0 -0.20910424747E+02 -0.14365762140E+02  0.35213665117E+02  0.43400728058E+02  0.00000000000E+00 0. -1.
         11    1    3    3    0    0  0.19686382861E+01  0.93658523954E+00  0.68647265653E+00  0.22856013611E+01  0.51100000000E-03 0. -1.
        -11    1    3    3    0    0  0.23989627646E+01 -0.17862346163E+01 -0.13283867319E+02  0.13616416109E+02  0.51100000000E-03 0.  1.
        -12    1    3    3    0    0  0.16542823697E+02  0.15215411517E+02 -0.22616270455E+02  0.31885254472E+02  0.00000000000E+00 0.  1.
</event>
<event>
 7    1  0.5559916E-010  0.4778726E+02  0.7816164E-02  0.1312668E+00
        -11   -1    0    0    0    0  0.00000000000E+00  0.00000000000E+00  0.45593999997E+02  0.45594000000E+02  0.51100000000E-03 0.  1.
         11   -1    0    0    0    0 -0.00000000000E+00 -0.00000000000E+00 -0.45593999997E+02  0.45594000000E+02  0.51100000000E-03 0. -1.
    9900012    2    1    2    0    0  0.21494845470E+02  0.22678950937E+02  0.30120770403E+02  0.47787262598E+02  0.19999961489E+02 0.  0.
         12    1    1    2    0    0 -0.21494845470E+02 -0.22678950937E+02 -0.30120770403E+02  0.43400737402E+02  0.00000000000E+00 0. -1.
         11    1    3    3    0    0 -0.30342033575E+01  0.12348610430E+00  0.69164543785E+00  0.31144843081E+01  0.51100000000E-03 0. -1.
        -11    1    3    3    0    0  0.10617477476E+02  0.72707662404E+01  0.98740590051E+01  0.16220108235E+02  0.51100000000E-03 0.  1.
         12    1    3    3    0    0  0.13911571351E+02  0.15284698592E+02  0.19555065960E+02  0.28452670054E+02  0.00000000000E+00 0. -1.
</event>
<event>
 7    1  0.5559916E-010  0.4778727E+02  0.7816164E-02  0.1312668E+00
        -11   -1    0    0    0    0  0.00000000000E+00  0.00000000000E+00  0.45593999997E+02  0.45594000000E+02  0.51100000000E-03 0. -1.
         11   -1    0    0    0    0 -0.00000000000E+00 -0.00000000000E+00 -0.45593999997E+02  0.45594000000E+02  0.51100000000E-03 0.  1.
    9900012    2    1    2    0    0  0.11260421848E+01 -0.77283719003E+01 -0.42692242199E+02  0.47787271352E+02  0.20000001401E+02 0.  0.
         12    1    1    2    0    0 -0.11260421848E+01  0.77283719003E+01  0.42692242199E+02  0.43400728648E+02  0.00000000000E+00 0. -1.
         11    1    3    3    0    0 -0.55391383212E+01 -0.20776149136E+01 -0.57058338354E+01  0.82191895640E+01  0.51100000000E-03 0. -1.
        -11    1    3    3    0    0  0.38544880892E+01 -0.45531146597E+01 -0.35851272262E+02  0.36344210744E+02  0.51100000000E-03 0.  1.
         12    1    3    3    0    0  0.28106924168E+01 -0.10976423269E+01 -0.11351361017E+01  0.32238710441E+01  0.00000000000E+00 0. -1.
</event>
<event>
 7    1  0.5559916E-010  0.4778727E+02  0.7816164E-02  0.1312668E+00
        -11   -1    0    0    0    0  0.00000000000E+00  0.00000000000E+00  0.45593999997E+02  0.45594000000E+02  0.51100000000E-03 0. -1.
         11   -1    0    0    0    0 -0.00000000000E+00 -0.00000000000E+00 -0.45593999997E+02  0.45594000000E+02  0.51100000000E-03 0.  1.
    9900012    2    1    2    0    0 -0.22126671189E+02 -0.27371432047E+02 -0.25393674552E+02  0.47787267547E+02  0.19999984055E+02 0.  0.
         12    1    1    2    0    0  0.22126671189E+02  0.27371432047E+02  0.25393674552E+02  0.43400732453E+02  0.00000000000E+00 0. -1.
         11    1    3    3    0    0 -0.40789952913E+00 -0.41595077558E+01 -0.39351901545E+01  0.57405233742E+01  0.51100000000E-03 0. -1.
        -11    1    3    3    0    0 -0.46463863264E+01 -0.47690218543E+01 -0.14521428820E+02  0.15975117232E+02  0.51100000000E-03 0.  1.
        -12    1    3    3    0    0 -0.17072385334E+02 -0.18442902437E+02 -0.69370555767E+01  0.26071626941E+02  0.00000000000E+00 0.  1.
</event>
<event>
 7    1  0.5559916E-010  0.4778727E+02  0.7816164E-02  0.1312668E+00
        -11   -1    0    0    0    0  0.00000000000E+00  0.00000000000E+00  0.45593999997E+02  0.45594000000E+02  0.51100000000E-03 0.  1.
         11   -1    0    0    0    0 -0.00000000000E+00 -0.00000000000E+00 -0.45593999997E+02  0.45594000000E+02  0.51100000000E-03 0. -1.
    9900012    2    1    2    0    0 -0.25034852094E+02  0.20246117354E+02  0.29102819959E+02  0.47787271702E+02  0.20000002997E+02 0.  0.
         12    1    1    2    0    0  0.25034852094E+02 -0.20246117354E+02 -0.29102819959E+02  0.43400728298E+02  0.00000000000E+00 0. -1.
         11    1    3    3    0    0 -0.12951667988E+02  0.71432771921E+01  0.23966680332E+02  0.28163342825E+02  0.51100000000E-03 0.  1.
        -11    1    3    3    0    0 -0.96506126575E+01  0.13156708407E+02  0.34885645777E+01  0.16685424293E+02  0.51100000000E-03 0. -1.
         12    1    3    3    0    0 -0.24325714487E+01 -0.53868245778E-01  0.16475750497E+01  0.29385045832E+01  0.00000000000E+00 0. -1.
</event>
<event>
 7    1  0.5559916E-010  0.4778727E+02  0.7816164E-02  0.1312668E+00
        -11   -1    0    0    0    0  0.00000000000E+00  0.00000000000E+00  0.45593999997E+02  0.45594000000E+02  0.51100000000E-03 0. -1.
         11   -1    0    0    0    0 -0.00000000000E+00 -0.00000000000E+00 -0.45593999997E+02  0.45594000000E+02  0.51100000000E-03 0.  1.
    9900012    2    1    2    0    0  0.33798883286E+02  0.44115899318E+01 -0.26866271211E+02  0.47787272288E+02  0.20000005671E+02 0.  0.
         12    1    1    2    0    0 -0.33798883286E+02 -0.44115899318E+01  0.26866271211E+02  0.43400727712E+02  0.00000000000E+00 0. -1.
         11    1    3    3    0    0  0.23373156229E+02 -0.30383037922E+01 -0.79817798304E+01  0.24884624401E+02  0.51100000000E-03 0. -1.
        -11    1    3    3    0    0  0.68542548237E+01  0.48928874045E+01 -0.13963433648E+02  0.16306398617E+02  0.51100000000E-03 0.  1.
         12    1    3    3    0    0  0.35714722332E+01  0.25570063196E+01 -0.49210577322E+01  0.65962492702E+01  0.00000000000E+00 0. -1.
</event>
<event>
 7    1  0.5559916E-010  0.4778727E+02  0.7816164E-02  0.1312668E+00
        -11   -1    0    0    0    0  0.00000000000E+00  0.00000000000E+00  0.45593999997E+02  0.45594000000E+02  0.51100000000E-03 0.  1.
         11   -1    0    0    0    0 -0.00000000000E+00 -0.00000000000E+00 -0.45593999997E+02  0.45594000000E+02  0.51100000000E-03 0. -1.
    9900012    2    1    2    0    0 -0.62506159865E+01 -0.59017397209E+00  0.42944204546E+02  0.47787271785E+02  0.20000003376E+02 0.  0.
         12    1    1    2    0    0  0.62506159865E+01  0.59017397209E+00 -0.42944204546E+02  0.43400728215E+02  0.00000000000E+00 0. -1.
         11    1    3    3    0    0 -0.29302618567E+00 -0.61954952429E+01  0.27140233882E+02  0.27839941111E+02  0.51100000000E-03 0. -1.
        -11    1    3    3    0    0 -0.26782948524E+01  0.73769076908E+01  0.75467383061E+01  0.10887850555E+02  0.51100000000E-03 0.  1.
        -12    1    3    3    0    0 -0.32792949484E+01 -0.17715864200E+01  0.82572323581E+01  0.90594801185E+01  0.00000000000E+00 0.  1.
</event>
<event>
 7    1  0.5559916E-010  0.4778727E+02  0.7816164E-02  0.1312668E+00
        -11   -1    0    0    0    0  0.00000000000E+00  0.00000000000E+00  0.45593999997E+02  0.45594000000E+02  0.51100000000E-03 0.  1.
         11   -1    0    0    0    0 -0.00000000000E+00 -0.00000000000E+00 -0.45593999997E+02  0.45594000000E+02  0.51100000000E-03 0. -1.
    9900012    2    1    2    0    0  0.14721526193E+02 -0.24561422900E+02  0.32613440453E+02  0.47787270438E+02  0.19999997234E+02 0.  0.
         12    1    1    2    0    0 -0.14721526193E+02  0.24561422900E+02 -0.32613440453E+02  0.43400729562E+02  0.00000000000E+00 0. -1.
         11    1    3    3    0    0 -0.23891501671E+01 -0.82543970920E+01  0.87384924714E+01  0.12255788869E+02  0.51100000000E-03 0. -1.
        -11    1    3    3    0    0  0.15357896692E+02 -0.15973995731E+02  0.25011804622E+02  0.33415922868E+02  0.51100000000E-03 0.  1.
         12    1    3    3    0    0  0.17527796681E+01 -0.33303007714E+00 -0.11368566397E+01  0.21155587008E+01  0.00000000000E+00 0. -1.
</event>
<event>
 7    1  0.5559916E-010  0.4778727E+02  0.7816164E-02  0.1312668E+00
        -11   -1    0    0    0    0  0.00000000000E+00  0.00000000000E+00  0.45593999997E+02  0.45594000000E+02  0.51100000000E-03 0.  1.
         11   -1    0    0    0    0 -0.00000000000E+00 -0.00000000000E+00 -0.45593999997E+02  0.45594000000E+02  0.51100000000E-03 0. -1.
    9900012    2    1    2    0    0  0.73216838802E+01 -0.42775468140E+02  0.52493942286E+00  0.47787270849E+02  0.19999999107E+02 0.  0.
         12    1    1    2    0    0 -0.73216838802E+01  0.42775468140E+02 -0.52493942286E+00  0.43400729151E+02  0.00000000000E+00 0. -1.
         11    1    3    3    0    0  0.14252164085E+00 -0.30265404517E+02  0.49442538926E-01  0.30265780476E+02  0.51100000000E-03 0. -1.
        -11    1    3    3    0    0 -0.64253334322E+00  0.12171833597E+01  0.10195890037E+01  0.17128766522E+01  0.51100000000E-03 0.  1.
        -12    1    3    3    0    0  0.78216955826E+01 -0.13727246984E+02 -0.54409211974E+00  0.15808613721E+02  0.00000000000E+00 0.  1.
</event>
<event>
 7    1  0.5559916E-010  0.4778727E+02  0.7816164E-02  0.1312668E+00
        -11   -1    0    0    0    0  0.00000000000E+00  0.00000000000E+00  0.45593999997E+02  0.45594000000E+02  0.51100000000E-03 0.  1.
         11   -1    0    0    0    0 -0.00000000000E+00 -0.00000000000E+00 -0.45593999997E+02  0.45594000000E+02  0.51100000000E-03 0. -1.
    9900012    2    1    2    0    0 -0.30355784930E+02  0.10749028248E+02  0.29096525907E+02  0.47787272969E+02  0.20000008774E+02 0.  0.
         12    1    1    2    0    0  0.30355784930E+02 -0.10749028248E+02 -0.29096525907E+02  0.43400727031E+02  0.00000000000E+00 0. -1.
         11    1    3    3    0    0 -0.59104202445E+00 -0.28580804570E+01  0.16997186677E+01  0.33774248154E+01  0.51100000000E-03 0. -1.
        -11    1    3    3    0    0 -0.23750202265E+02  0.77803361212E+01  0.14098347434E+02  0.28694409532E+02  0.51100000000E-03 0.  1.
        -12    1    3    3    0    0 -0.60145406409E+01  0.58267725839E+01  0.13298459805E+02  0.15715438621E+02  0.00000000000E+00 0.  1.
</event>
<event>
 7    1  0.5559916E-010  0.4778726E+02  0.7816164E-02  0.1312668E+00
        -11   -1    0    0    0    0  0.00000000000E+00  0.00000000000E+00  0.45593999997E+02  0.45594000000E+02  0.51100000000E-03 0. -1.
         11   -1    0    0    0    0 -0.00000000000E+00 -0.00000000000E+00 -0.45593999997E+02  0.45594000000E+02  0.51100000000E-03 0.  1.
    9900012    2    1    2    0    0 -0.40903991827E+01 -0.41658473932E+02 -0.11465781801E+02  0.47787263046E+02  0.19999963532E+02 0.  0.
         12    1    1    2    0    0  0.40903991827E+01  0.41658473932E+02  0.11465781801E+02  0.43400736954E+02  0.00000000000E+00 0. -1.
         11    1    3    3    0    0  0.53907104387E+01 -0.49341947244E+01 -0.11844002070E+01  0.74032993134E+01  0.51100000000E-03 0. -1.
        -11    1    3    3    0    0 -0.89887700555E+01 -0.17341844253E+02 -0.35034125760E+01  0.19844683146E+02  0.51100000000E-03 0.  1.
        -12    1    3    3    0    0 -0.49233956591E+00 -0.19382434955E+02 -0.67779690181E+01  0.20539280587E+02  0.00000000000E+00 0.  1.
</event>
<event>
 7    1  0.5559916E-010  0.4778723E+02  0.7816164E-02  0.1312668E+00
        -11   -1    0    0    0    0  0.00000000000E+00  0.00000000000E+00  0.45593999997E+02  0.45594000000E+02  0.51100000000E-03 0.  1.
         11   -1    0    0    0    0 -0.00000000000E+00 -0.00000000000E+00 -0.45593999997E+02  0.45594000000E+02  0.51100000000E-03 0. -1.
    9900012    2    1    2    0    0  0.26958213471E+02  0.10960223967E+00  0.34012781577E+02  0.47787232762E+02  0.19999825456E+02 0.  0.
         12    1    1    2    0    0 -0.26958213471E+02 -0.10960223967E+00 -0.34012781577E+02  0.43400767238E+02  0.00000000000E+00 0. -1.
         11    1    3    3    0    0  0.23796065432E+01  0.40655684831E+01  0.31281112937E+01  0.56547727557E+01  0.51100000000E-03 0. -1.
        -11    1    3    3    0    0  0.19851455495E+02 -0.89461742721E+01  0.23946578096E+02  0.32365922235E+02  0.51100000000E-03 0.  1.
        -12    1    3    3    0    0  0.47271514336E+01  0.49902080287E+01  0.69380921873E+01  0.97665377717E+01  0.00000000000E+00 0.  1.
</event>
<event>
 7    1  0.5559916E-010  0.4778727E+02  0.7816164E-02  0.1312668E+00
        -11   -1    0    0    0    0  0.00000000000E+00  0.00000000000E+00  0.45593999997E+02  0.45594000000E+02  0.51100000000E-03 0.  1.
         11   -1    0    0    0    0 -0.00000000000E+00 -0.00000000000E+00 -0.45593999997E+02  0.45594000000E+02  0.51100000000E-03 0. -1.
    9900012    2    1    2    0    0  0.14780209219E+02 -0.52886854880E+01  0.40462311122E+02  0.47787269591E+02  0.19999993372E+02 0.  0.
         12    1    1    2    0    0 -0.14780209219E+02  0.52886854880E+01 -0.40462311122E+02  0.43400730409E+02  0.00000000000E+00 0. -1.
         11    1    3    3    0    0  0.66941197259E+01 -0.82676885044E+01  0.93460415064E+01  0.14160310880E+02  0.51100000000E-03 0. -1.
        -11    1    3    3    0    0  0.15178306895E+01  0.14565345474E+00  0.21935264734E+02  0.21988198292E+02  0.51100000000E-03 0.  1.
         12    1    3    3    0    0  0.65682588035E+01  0.28333495616E+01  0.91810048815E+01  0.11638760419E+02  0.00000000000E+00 0. -1.
</event>
<event>
 7    1  0.5559916E-010  0.4778727E+02  0.7816164E-02  0.1312668E+00
        -11   -1    0    0    0    0  0.00000000000E+00  0.00000000000E+00  0.45593999997E+02  0.45594000000E+02  0.51100000000E-03 0.  1.
         11   -1    0    0    0    0 -0.00000000000E+00 -0.00000000000E+00 -0.45593999997E+02  0.45594000000E+02  0.51100000000E-03 0. -1.
    9900012    2    1    2    0    0 -0.13051754127E+02  0.38195422295E+02  0.15949435599E+02  0.47787273439E+02  0.20000010918E+02 0.  0.
         12    1    1    2    0    0  0.13051754127E+02 -0.38195422295E+02 -0.15949435599E+02  0.43400726561E+02  0.00000000000E+00 0. -1.
         11    1    3    3    0    0 -0.31194339783E+01  0.14136730177E+02 -0.73494696421E+00  0.14495452933E+02  0.51100000000E-03 0. -1.
        -11    1    3    3    0    0  0.75667221082E+00  0.82655402220E+01  0.10197450334E+02  0.13148372583E+02  0.51100000000E-03 0.  1.
        -12    1    3    3    0    0 -0.10688992360E+02  0.15793151896E+02  0.64869322285E+01  0.20143447923E+02  0.00000000000E+00 0.  1.
</event>
<event>
 7    1  0.5559916E-010  0.4778727E+02  0.7816164E-02  0.1312668E+00
        -11   -1    0    0    0    0  0.00000000000E+00  0.00000000000E+00  0.45593999997E+02  0.45594000000E+02  0.51100000000E-03 0. -1.
         11   -1    0    0    0    0 -0.00000000000E+00 -0.00000000000E+00 -0.45593999997E+02  0.45594000000E+02  0.51100000000E-03 0.  1.
    9900012    2    1    2    0    0  0.32511545714E+01 -0.36799373764E+02 -0.22778487526E+02  0.47787269483E+02  0.19999992881E+02 0.  0.
         12    1    1    2    0    0 -0.32511545714E+01  0.36799373764E+02  0.22778487526E+02  0.43400730517E+02  0.00000000000E+00 0. -1.
         11    1    3    3    0    0  0.18852810309E+01 -0.11560874135E+01  0.26306751816E+01  0.34367535328E+01  0.51100000000E-03 0. -1.
        -11    1    3    3    0    0 -0.17671259075E+01 -0.27562148229E+01 -0.17151796897E+01  0.36961190122E+01  0.51100000000E-03 0.  1.
         12    1    3    3    0    0  0.31329994480E+01 -0.32887071527E+02 -0.23693983017E+02  0.40654396938E+02  0.00000000000E+00 0. -1.
</event>
<event>
 7    1  0.5559916E-010  0.4778727E+02  0.7816164E-02  0.1312668E+00
        -11   -1    0    0    0    0  0.00000000000E+00  0.00000000000E+00  0.45593999997E+02  0.45594000000E+02  0.51100000000E-03 0.  1.
         11   -1    0    0    0    0 -0.00000000000E+00 -0.00000000000E+00 -0.45593999997E+02  0.45594000000E+02  0.51100000000E-03 0. -1.
    9900012    2    1    2    0    0  0.61894929958E+01  0.10800335004E+02  0.41577231714E+02  0.47787271242E+02  0.20000000902E+02 0.  0.
         12    1    1    2    0    0 -0.61894929958E+01 -0.10800335004E+02 -0.41577231714E+02  0.43400728758E+02  0.00000000000E+00 0. -1.
         11    1    3    3    0    0  0.84271519527E+01  0.85039819207E+01  0.20478561032E+02  0.23721426195E+02  0.51100000000E-03 0. -1.
        -11    1    3    3    0    0  0.27245021133E+01  0.51257596746E+01  0.94168907212E+01  0.11062285258E+02  0.51100000000E-03 0.  1.
         12    1    3    3    0    0 -0.49621610702E+01 -0.28294065918E+01  0.11681779961E+02  0.13003559789E+02  0.00000000000E+00 0. -1.
</event>
<event>
 7    1  0.5559916E-010  0.4778727E+02  0.7816164E-02  0.1312668E+00
        -11   -1    0    0    0    0  0.00000000000E+00  0.00000000000E+00  0.45593999997E+02  0.45594000000E+02  0.51100000000E-03 0.  1.
         11   -1    0    0    0    0 -0.00000000000E+00 -0.00000000000E+00 -0.45593999997E+02  0.45594000000E+02  0.51100000000E-03 0. -1.
    9900012    2    1    2    0    0 -0.29234262137E+02 -0.22915367470E+02  0.22446977363E+02  0.47787274871E+02  0.20000017448E+02 0.  0.
         12    1    1    2    0    0  0.29234262137E+02  0.22915367470E+02 -0.22446977363E+02  0.43400725129E+02  0.00000000000E+00 0. -1.
         11    1    3    3    0    0 -0.17572522407E+01  0.10941060244E+01 -0.43237374946E+00  0.21146987375E+01  0.51100000000E-03 0. -1.
        -11    1    3    3    0    0 -0.22202495064E+02 -0.12111493055E+02  0.20240224391E+02  0.32392988975E+02  0.51100000000E-03 0.  1.
         12    1    3    3    0    0 -0.52745148321E+01 -0.11897980439E+02  0.26391267214E+01  0.13279587158E+02  0.00000000000E+00 0. -1.
</event>
<event>
 7    1  0.5559916E-010  0.4778727E+02  0.7816164E-02  0.1312668E+00
        -11   -1    0    0    0    0  0.00000000000E+00  0.00000000000E+00  0.45593999997E+02  0.45594000000E+02  0.51100000000E-03 0.  1.
         11   -1    0    0    0    0 -0.00000000000E+00 -0.00000000000E+00 -0.45593999997E+02  0.45594000000E+02  0.51100000000E-03 0. -1.
    9900012    2    1    2    0    0  0.56577680193E+01  0.30688047475E+02  0.30163824934E+02  0.47787274990E+02  0.20000017990E+02 0.  0.
         12    1    1    2    0    0 -0.56577680193E+01 -0.30688047475E+02 -0.30163824934E+02  0.43400725010E+02  0.00000000000E+00 0. -1.
         11    1    3    3    0    0  0.76548241849E+01  0.69391385333E+01  0.81068147712E+01  0.13132723361E+02  0.51100000000E-03 0.  1.
        -11    1    3    3    0    0 -0.38996134741E+01  0.18852669393E+02  0.22218926480E+02  0.29399163639E+02  0.51100000000E-03 0. -1.
         12    1    3    3    0    0  0.19025573085E+01  0.48962395484E+01 -0.16191631796E+00  0.52553879897E+01  0.00000000000E+00 0. -1.
</event>
<event>
 7    1  0.5559916E-010  0.4778727E+02  0.7816164E-02  0.1312668E+00
        -11   -1    0    0    0    0  0.00000000000E+00  0.00000000000E+00  0.45593999997E+02  0.45594000000E+02  0.51100000000E-03 0.  1.
         11   -1    0    0    0    0 -0.00000000000E+00 -0.00000000000E+00 -0.45593999997E+02  0.45594000000E+02  0.51100000000E-03 0. -1.
    9900012    2    1    2    0    0 -0.26573530733E+01  0.40882397618E+02  0.14324490705E+02  0.47787274265E+02  0.20000014685E+02 0.  0.
         12    1    1    2    0    0  0.26573530733E+01 -0.40882397618E+02 -0.14324490705E+02  0.43400725735E+02  0.00000000000E+00 0. -1.
         11    1    3    3    0    0 -0.21469064060E+01  0.78505148748E+00  0.12346886669E+00  0.22892701406E+01  0.51100000000E-03 0. -1.
        -11    1    3    3    0    0  0.20544914675E+01  0.27395356291E+01  0.63849051336E+01  0.72452056202E+01  0.51100000000E-03 0.  1.
        -12    1    3    3    0    0 -0.25649381348E+01  0.37357810501E+02  0.78161167042E+01  0.38252798505E+02  0.00000000000E+00 0.  1.
</event>
<event>
 7    1  0.5559916E-010  0.4778727E+02  0.7816164E-02  0.1312668E+00
        -11   -1    0    0    0    0  0.00000000000E+00  0.00000000000E+00  0.45593999997E+02  0.45594000000E+02  0.51100000000E-03 0. -1.
         11   -1    0    0    0    0 -0.00000000000E+00 -0.00000000000E+00 -0.45593999997E+02  0.45594000000E+02  0.51100000000E-03 0.  1.
    9900012    2    1    2    0    0 -0.30264803317E+02  0.30995997759E+02  0.26292752156E+01  0.47787270916E+02  0.19999999412E+02 0.  0.
         12    1    1    2    0    0  0.30264803317E+02 -0.30995997759E+02 -0.26292752156E+01  0.43400729084E+02  0.00000000000E+00 0. -1.
         11    1    3    3    0    0  0.66885931974E+00  0.11615369379E+01 -0.36107440930E+01  0.38514950362E+01  0.51100000000E-03 0. -1.
        -11    1    3    3    0    0 -0.25263603091E+02  0.22013740330E+02  0.70478589931E+01  0.34242177517E+02  0.51100000000E-03 0.  1.
         12    1    3    3    0    0 -0.56700595458E+01  0.78207204915E+01 -0.80783968448E+00  0.96935983626E+01  0.00000000000E+00 0. -1.
</event>
<event>
 7    1  0.5559916E-010  0.4778727E+02  0.7816164E-02  0.1312668E+00
        -11   -1    0    0    0    0  0.00000000000E+00  0.00000000000E+00  0.45593999997E+02  0.45594000000E+02  0.51100000000E-03 0. -1.
         11   -1    0    0    0    0 -0.00000000000E+00 -0.00000000000E+00 -0.45593999997E+02  0.45594000000E+02  0.51100000000E-03 0.  1.
    9900012    2    1    2    0    0 -0.23866475943E+02 -0.21939886012E+02 -0.28855777868E+02  0.47787272028E+02  0.20000004484E+02 0.  0.
         12    1    1    2    0    0  0.23866475943E+02  0.21939886012E+02  0.28855777868E+02  0.43400727972E+02  0.00000000000E+00 0. -1.
         11    1    3    3    0    0 -0.15836573223E+02 -0.19040518164E+02 -0.10106966130E+02  0.26748628900E+02  0.51100000000E-03 0. -1.
        -11    1    3    3    0    0 -0.47373229293E+01 -0.38239668844E+01 -0.12872468395E+02  0.14239571416E+02  0.51100000000E-03 0.  1.
         12    1    3    3    0    0 -0.32925797901E+01  0.92459903719E+00 -0.58763433441E+01  0.67990717125E+01  0.00000000000E+00 0. -1.
</event>
<event>
 7    1  0.5559916E-010  0.4778729E+02  0.7816164E-02  0.1312668E+00
        -11   -1    0    0    0    0  0.00000000000E+00  0.00000000000E+00  0.45593999997E+02  0.45594000000E+02  0.51100000000E-03 0.  1.
         11   -1    0    0    0    0 -0.00000000000E+00 -0.00000000000E+00 -0.45593999997E+02  0.45594000000E+02  0.51100000000E-03 0. -1.
    9900012    2    1    2    0    0 -0.11415026364E+02  0.35481782292E+02  0.22234244286E+02  0.47787293549E+02  0.20000102608E+02 0.  0.
         12    1    1    2    0    0  0.11415026364E+02 -0.35481782292E+02 -0.22234244286E+02  0.43400706451E+02  0.00000000000E+00 0. -1.
         11    1    3    3    0    0 -0.43914184054E+01  0.68243201315E+01  0.25706086113E+01  0.85125748021E+01  0.51100000000E-03 0. -1.
        -11    1    3    3    0    0 -0.89639743739E+01  0.11729749811E+02  0.22879909044E+01  0.14939035104E+02  0.51100000000E-03 0.  1.
        -12    1    3    3    0    0  0.19403664156E+01  0.16927712349E+02  0.17375644770E+02  0.24335683643E+02  0.00000000000E+00 0.  1.
</event>
<event>
 7    1  0.5559916E-010  0.4778727E+02  0.7816164E-02  0.1312668E+00
        -11   -1    0    0    0    0  0.00000000000E+00  0.00000000000E+00  0.45593999997E+02  0.45594000000E+02  0.51100000000E-03 0. -1.
         11   -1    0    0    0    0 -0.00000000000E+00 -0.00000000000E+00 -0.45593999997E+02  0.45594000000E+02  0.51100000000E-03 0.  1.
    9900012    2    1    2    0    0 -0.80264913106E+01  0.42484856061E+02 -0.37730210725E+01  0.47787271373E+02  0.20000001500E+02 0.  0.
         12    1    1    2    0    0  0.80264913106E+01 -0.42484856061E+02  0.37730210725E+01  0.43400728627E+02  0.00000000000E+00 0. -1.
         11    1    3    3    0    0  0.37216319814E+01  0.16468544082E+02  0.16053299866E+01  0.16959969735E+02  0.51100000000E-03 0. -1.
        -11    1    3    3    0    0 -0.57919428379E+01  0.18660512556E+02 -0.78313270777E+01  0.21049727189E+02  0.51100000000E-03 0.  1.
         12    1    3    3    0    0 -0.59561804541E+01  0.73557994231E+01  0.24529760187E+01  0.97775744489E+01  0.00000000000E+00 0. -1.
</event>
<event>
 7    1  0.5559916E-010  0.4778727E+02  0.7816164E-02  0.1312668E+00
        -11   -1    0    0    0    0  0.00000000000E+00  0.00000000000E+00  0.45593999997E+02  0.45594000000E+02  0.51100000000E-03 0.  1.
         11   -1    0    0    0    0 -0.00000000000E+00 -0.00000000000E+00 -0.45593999997E+02  0.45594000000E+02  0.51100000000E-03 0. -1.
    9900012    2    1    2    0    0 -0.18184124014E+02  0.30377630860E+02  0.25102999962E+02  0.47787269247E+02  0.19999991804E+02 0.  0.
         12    1    1    2    0    0  0.18184124014E+02 -0.30377630860E+02 -0.25102999962E+02  0.43400730753E+02  0.00000000000E+00 0. -1.
         11    1    3    3    0    0 -0.16385008316E+02  0.26199799087E+02  0.11355452066E+02  0.32921790073E+02  0.51100000000E-03 0. -1.
        -11    1    3    3    0    0 -0.67991685457E+00  0.44146365880E+01  0.10122020265E+02  0.11063751518E+02  0.51100000000E-03 0.  1.
         12    1    3    3    0    0 -0.11191988431E+01 -0.23680481498E+00  0.36255276312E+01  0.38017276566E+01  0.00000000000E+00 0. -1.
</event>
<event>
 7    1  0.5559916E-010  0.4778727E+02  0.7816164E-02  0.1312668E+00
        -11   -1    0    0    0    0  0.00000000000E+00  0.00000000000E+00  0.45593999997E+02  0.45594000000E+02  0.51100000000E-03 0.  1.
         11   -1    0    0    0    0 -0.00000000000E+00 -0.00000000000E+00 -0.45593999997E+02  0.45594000000E+02  0.51100000000E-03 0. -1.
    9900012    2    1    2    0    0 -0.14427643209E+02 -0.31097146297E+02  0.26616415985E+02  0.47787274242E+02  0.20000014581E+02 0.  0.
         12    1    1    2    0    0  0.14427643209E+02  0.31097146297E+02 -0.26616415985E+02  0.43400725758E+02  0.00000000000E+00 0. -1.
         11    1    3    3    0    0 -0.21071537576E+01 -0.93519897771E+01  0.11055230677E+02  0.14632769230E+02  0.51100000000E-03 0. -1.
        -11    1    3    3    0    0 -0.83199228427E+01 -0.11135310104E+02 -0.11075323866E-03  0.13900224728E+02  0.51100000000E-03 0.  1.
        -12    1    3    3    0    0 -0.40005666087E+01 -0.10609846416E+02  0.15561296061E+02  0.19254280284E+02  0.00000000000E+00 0.  1.
</event>
<event>
 7    1  0.5559916E-010  0.4778727E+02  0.7816164E-02  0.1312668E+00
        -11   -1    0    0    0    0  0.00000000000E+00  0.00000000000E+00  0.45593999997E+02  0.45594000000E+02  0.51100000000E-03 0.  1.
         11   -1    0    0    0    0 -0.00000000000E+00 -0.00000000000E+00 -0.45593999997E+02  0.45594000000E+02  0.51100000000E-03 0. -1.
    9900012    2    1    2    0    0 -0.42190448727E+02 -0.53281422479E+01 -0.86717889705E+01  0.47787274343E+02  0.20000015039E+02 0.  0.
         12    1    1    2    0    0  0.42190448727E+02  0.53281422479E+01  0.86717889705E+01  0.43400725657E+02  0.00000000000E+00 0. -1.
         11    1    3    3    0    0 -0.31477313312E+02 -0.11149882394E+02 -0.64038732225E+01  0.34002216446E+02  0.51100000000E-03 0. -1.
        -11    1    3    3    0    0 -0.24266661659E+01  0.21546633297E+01  0.19541262521E+01  0.37881251848E+01  0.51100000000E-03 0.  1.
         12    1    3    3    0    0 -0.82864692494E+01  0.36670768167E+01 -0.42220420001E+01  0.99969327122E+01  0.00000000000E+00 0. -1.
</event>
<event>
 7    1  0.5559916E-010  0.4778727E+02  0.7816164E-02  0.1312668E+00
        -11   -1    0    0    0    0  0.00000000000E+00  0.00000000000E+00  0.45593999997E+02  0.45594000000E+02  0.51100000000E-03 0.  1.
         11   -1    0    0    0    0 -0.00000000000E+00 -0.00000000000E+00 -0.45593999997E+02  0.45594000000E+02  0.51100000000E-03 0. -1.
    9900012    2    1    2    0    0  0.64110610233E+01 -0.11204032961E+01  0.42909977170E+02  0.47787272497E+02  0.20000006625E+02 0.  0.
         12    1    1    2    0    0 -0.64110610233E+01  0.11204032961E+01 -0.42909977170E+02  0.43400727503E+02  0.00000000000E+00 0. -1.
         11    1    3    3    0    0  0.21642786857E+01  0.49949998415E+01  0.15493607397E+01  0.56599156009E+01  0.51100000000E-03 0. -1.
        -11    1    3    3    0    0  0.36603261435E+01 -0.39346211593E+01  0.34183774434E+02  0.34603607702E+02  0.51100000000E-03 0.  1.
         12    1    3    3    0    0  0.58645619421E+00 -0.21807819783E+01  0.71768419965E+01  0.75237491948E+01  0.00000000000E+00 0. -1.
</event>
<event>
 7    1  0.5559916E-010  0.4778731E+02  0.7816164E-02  0.1312668E+00
        -11   -1    0    0    0    0  0.00000000000E+00  0.00000000000E+00  0.45593999997E+02  0.45594000000E+02  0.51100000000E-03 0. -1.
         11   -1    0    0    0    0 -0.00000000000E+00 -0.00000000000E+00 -0.45593999997E+02  0.45594000000E+02  0.51100000000E-03 0.  1.
    9900012    2    1    2    0    0 -0.41601148331E+02  0.36567842481E+01  0.11814924800E+02  0.47787308052E+02  0.20000168732E+02 0.  0.
         12    1    1    2    0    0  0.41601148331E+02 -0.36567842481E+01 -0.11814924800E+02  0.43400691948E+02  0.00000000000E+00 0. -1.
         11    1    3    3    0    0 -0.11051667010E+02  0.93848376654E+01  0.29742945563E+01  0.14800707756E+02  0.51100000000E-03 0. -1.
        -11    1    3    3    0    0 -0.11353458869E+02 -0.49142276522E+01  0.16919745780E+01  0.12486530340E+02  0.51100000000E-03 0.  1.
         12    1    3    3    0    0 -0.19196022452E+02 -0.81382576515E+00  0.71486556658E+01  0.20500069956E+02  0.00000000000E+00 0. -1.
</event>
<event>
 7    1  0.5559916E-010  0.4778727E+02  0.7816164E-02  0.1312668E+00
        -11   -1    0    0    0    0  0.00000000000E+00  0.00000000000E+00  0.45593999997E+02  0.45594000000E+02  0.51100000000E-03 0. -1.
         11   -1    0    0    0    0 -0.00000000000E+00 -0.00000000000E+00 -0.45593999997E+02  0.45594000000E+02  0.51100000000E-03 0.  1.
    9900012    2    1    2    0    0 -0.32937585375E+02 -0.28168011528E+02  0.23025678597E+01  0.47787271636E+02  0.20000002696E+02 0.  0.
         12    1    1    2    0    0  0.32937585375E+02  0.28168011528E+02 -0.23025678597E+01  0.43400728364E+02  0.00000000000E+00 0. -1.
         11    1    3    3    0    0 -0.15421706259E+02 -0.69197552142E+01  0.64989758906E+01  0.18109354600E+02  0.51100000000E-03 0. -1.
        -11    1    3    3    0    0 -0.20292550612E+01 -0.10089052288E+02 -0.15367214627E+01  0.10405208566E+02  0.51100000000E-03 0.  1.
         12    1    3    3    0    0 -0.15486624056E+02 -0.11159204025E+02 -0.26596865682E+01  0.19272708470E+02  0.00000000000E+00 0. -1.
</event>
<event>
 7    1  0.5559916E-010  0.4778726E+02  0.7816164E-02  0.1312668E+00
        -11   -1    0    0    0    0  0.00000000000E+00  0.00000000000E+00  0.45593999997E+02  0.45594000000E+02  0.51100000000E-03 0.  1.
         11   -1    0    0    0    0 -0.00000000000E+00 -0.00000000000E+00 -0.45593999997E+02  0.45594000000E+02  0.51100000000E-03 0. -1.
    9900012    2    1    2    0    0  0.24528686261E+02 -0.35544245219E+02  0.43097650064E+01  0.47787263920E+02  0.19999967519E+02 0.  0.
         12    1    1    2    0    0 -0.24528686261E+02  0.35544245219E+02 -0.43097650064E+01  0.43400736080E+02  0.00000000000E+00 0. -1.
         11    1    3    3    0    0  0.28901314577E+01 -0.17589254403E+02 -0.39951986581E+00  0.17829591882E+02  0.51100000000E-03 0. -1.
        -11    1    3    3    0    0  0.21636470376E+02 -0.14425241679E+02  0.35677285855E+01  0.26247916781E+02  0.51100000000E-03 0.  1.
        -12    1    3    3    0    0  0.20844269124E-02 -0.35297491368E+01  0.11415562867E+01  0.37097552573E+01  0.00000000000E+00 0.  1.
</event>
<event>
 7    1  0.5559916E-010  0.4778727E+02  0.7816164E-02  0.1312668E+00
        -11   -1    0    0    0    0  0.00000000000E+00  0.00000000000E+00  0.45593999997E+02  0.45594000000E+02  0.51100000000E-03 0. -1.
         11   -1    0    0    0    0 -0.00000000000E+00 -0.00000000000E+00 -0.45593999997E+02  0.45594000000E+02  0.51100000000E-03 0.  1.
    9900012    2    1    2    0    0 -0.17859015802E+02  0.26308386421E+02  0.29538913025E+02  0.47787273921E+02  0.20000013117E+02 0.  0.
         12    1    1    2    0    0  0.17859015802E+02 -0.26308386421E+02 -0.29538913025E+02  0.43400726079E+02  0.00000000000E+00 0. -1.
         11    1    3    3    0    0 -0.14709088832E+02  0.23861036313E+02  0.16439352351E+02  0.32495517448E+02  0.51100000000E-03 0. -1.
        -11    1    3    3    0    0  0.19634672081E+01 -0.26405671549E+00  0.22727508954E+01  0.30150168026E+01  0.51100000000E-03 0.  1.
         12    1    3    3    0    0 -0.51133941775E+01  0.27114068233E+01  0.10826809778E+02  0.12276739671E+02  0.00000000000E+00 0. -1.
</event>
<event>
 7    1  0.5559916E-010  0.4778727E+02  0.7816164E-02  0.1312668E+00
        -11   -1    0    0    0    0  0.00000000000E+00  0.00000000000E+00  0.45593999997E+02  0.45594000000E+02  0.51100000000E-03 0.  1.
         11   -1    0    0    0    0 -0.00000000000E+00 -0.00000000000E+00 -0.45593999997E+02  0.45594000000E+02  0.51100000000E-03 0. -1.
    9900012    2    1    2    0    0 -0.26169363843E+02 -0.27317535317E+01  0.34515579703E+02  0.47787270473E+02  0.19999997392E+02 0.  0.
         12    1    1    2    0    0  0.26169363843E+02  0.27317535317E+01 -0.34515579703E+02  0.43400729527E+02  0.00000000000E+00 0. -1.
         11    1    3    3    0    0 -0.74345346477E+01  0.20811093521E+01  0.55628602109E+00  0.77403343573E+01  0.51100000000E-03 0. -1.
        -11    1    3    3    0    0 -0.19683589448E+02 -0.45142951528E+01  0.32811643190E+02  0.38528255649E+02  0.51100000000E-03 0.  1.
         12    1    3    3    0    0  0.94876025272E+00 -0.29856773102E+00  0.11476504915E+01  0.15186804660E+01  0.00000000000E+00 0. -1.
</event>
<event>
 7    1  0.5559916E-010  0.4778728E+02  0.7816164E-02  0.1312668E+00
        -11   -1    0    0    0    0  0.00000000000E+00  0.00000000000E+00  0.45593999997E+02  0.45594000000E+02  0.51100000000E-03 0. -1.
         11   -1    0    0    0    0 -0.00000000000E+00 -0.00000000000E+00 -0.45593999997E+02  0.45594000000E+02  0.51100000000E-03 0.  1.
    9900012    2    1    2    0    0  0.22714344052E+02 -0.34827662171E+02 -0.12438463190E+02  0.47787275990E+02  0.20000022550E+02 0.  0.
         12    1    1    2    0    0 -0.22714344052E+02  0.34827662171E+02  0.12438463190E+02  0.43400724010E+02  0.00000000000E+00 0. -1.
         11    1    3    3    0    0  0.66859527334E+01 -0.98650946153E+01  0.99325457154E+00  0.11958620766E+02  0.51100000000E-03 0. -1.
        -11    1    3    3    0    0  0.73943132445E+01 -0.16271170999E+02 -0.15185619924E+02  0.23452716832E+02  0.51100000000E-03 0.  1.
        -12    1    3    3    0    0  0.86340780744E+01 -0.86913965569E+01  0.17539021626E+01  0.12375938393E+02  0.00000000000E+00 0.  1.
</event>
<event>
 7    1  0.5559916E-010  0.4778727E+02  0.7816164E-02  0.1312668E+00
        -11   -1    0    0    0    0  0.00000000000E+00  0.00000000000E+00  0.45593999997E+02  0.45594000000E+02  0.51100000000E-03 0.  1.
         11   -1    0    0    0    0 -0.00000000000E+00 -0.00000000000E+00 -0.45593999997E+02  0.45594000000E+02  0.51100000000E-03 0. -1.
    9900012    2    1    2    0    0  0.15882458890E+02 -0.22019515272E+02  0.33860177931E+02  0.47787271864E+02  0.20000003737E+02 0.  0.
         12    1    1    2    0    0 -0.15882458890E+02  0.22019515272E+02 -0.33860177931E+02  0.43400728136E+02  0.00000000000E+00 0. -1.
         11    1    3    3    0    0  0.53948421350E+01  0.21849365772E+01  0.36826044973E+01  0.68876589384E+01  0.51100000000E-03 0. -1.
        -11    1    3    3    0    0  0.31836948174E+01 -0.14349297556E+02  0.12022406109E+02  0.18988852045E+02  0.51100000000E-03 0.  1.
         12    1    3    3    0    0  0.73039219378E+01 -0.98551542934E+01  0.18155167324E+02  0.21910760881E+02  0.00000000000E+00 0. -1.
</event>
<event>
 7    1  0.5559916E-010  0.4778728E+02  0.7816164E-02  0.1312668E+00
        -11   -1    0    0    0    0  0.00000000000E+00  0.00000000000E+00  0.45593999997E+02  0.45594000000E+02  0.51100000000E-03 0.  1.
         11   -1    0    0    0    0 -0.00000000000E+00 -0.00000000000E+00 -0.45593999997E+02  0.45594000000E+02  0.51100000000E-03 0. -1.
    9900012    2    1    2    0    0 -0.22033765075E+02 -0.35666548294E+02  0.11226430298E+02  0.47787283326E+02  0.20000055997E+02 0.  0.
         12    1    1    2    0    0  0.22033765075E+02  0.35666548294E+02 -0.11226430298E+02  0.43400716674E+02  0.00000000000E+00 0. -1.
         11    1    3    3    0    0 -0.32298681930E+01 -0.55599609412E+01 -0.47286879092E+01  0.79815852946E+01  0.51100000000E-03 0. -1.
        -11    1    3    3    0    0 -0.15600437283E+02 -0.26409112562E+02  0.10363799155E+02  0.32376275310E+02  0.51100000000E-03 0.  1.
         12    1    3    3    0    0 -0.32034595985E+01 -0.36974747904E+01  0.55913190529E+01  0.74294227216E+01  0.00000000000E+00 0. -1.
</event>
<event>
 7    1  0.5559916E-010  0.4778727E+02  0.7816164E-02  0.1312668E+00
        -11   -1    0    0    0    0  0.00000000000E+00  0.00000000000E+00  0.45593999997E+02  0.45594000000E+02  0.51100000000E-03 0.  1.
         11   -1    0    0    0    0 -0.00000000000E+00 -0.00000000000E+00 -0.45593999997E+02  0.45594000000E+02  0.51100000000E-03 0. -1.
    9900012    2    1    2    0    0 -0.20482481147E+02  0.29362108746E+02  0.24534828681E+02  0.47787270947E+02  0.19999999555E+02 0.  0.
         12    1    1    2    0    0  0.20482481147E+02 -0.29362108746E+02 -0.24534828681E+02  0.43400729053E+02  0.00000000000E+00 0. -1.
         11    1    3    3    0    0 -0.27694401693E+01  0.87648676717E+01  0.14746882264E+02  0.17377089541E+02  0.51100000000E-03 0. -1.
        -11    1    3    3    0    0 -0.16178415798E+02  0.19738883717E+02  0.11466394859E+02  0.27979329503E+02  0.51100000000E-03 0.  1.
         12    1    3    3    0    0 -0.15346251794E+01  0.85835735738E+00 -0.16784484427E+01  0.24308519019E+01  0.00000000000E+00 0. -1.
</event>
<event>
 7    1  0.5559916E-010  0.4778727E+02  0.7816164E-02  0.1312668E+00
        -11   -1    0    0    0    0  0.00000000000E+00  0.00000000000E+00  0.45593999997E+02  0.45594000000E+02  0.51100000000E-03 0.  1.
         11   -1    0    0    0    0 -0.00000000000E+00 -0.00000000000E+00 -0.45593999997E+02  0.45594000000E+02  0.51100000000E-03 0. -1.
    9900012    2    1    2    0    0 -0.52209330870E+01 -0.11798554542E+02  0.41438623622E+02  0.47787267757E+02  0.19999985010E+02 0.  0.
         12    1    1    2    0    0  0.52209330870E+01  0.11798554542E+02 -0.41438623622E+02  0.43400732243E+02  0.00000000000E+00 0. -1.
         11    1    3    3    0    0 -0.32348567311E+01 -0.74508179205E+01  0.51683551722E+01  0.96276103578E+01  0.51100000000E-03 0. -1.
        -11    1    3    3    0    0 -0.62495170119E+01 -0.21756963782E+01  0.26009047303E+02  0.26837672393E+02  0.51100000000E-03 0.  1.
         12    1    3    3    0    0  0.42634406561E+01 -0.21720402429E+01  0.10261221147E+02  0.11321985006E+02  0.00000000000E+00 0. -1.
</event>
<event>
 7    1  0.5559916E-010  0.4778727E+02  0.7816164E-02  0.1312668E+00
        -11   -1    0    0    0    0  0.00000000000E+00  0.00000000000E+00  0.45593999997E+02  0.45594000000E+02  0.51100000000E-03 0.  1.
         11   -1    0    0    0    0 -0.00000000000E+00 -0.00000000000E+00 -0.45593999997E+02  0.45594000000E+02  0.51100000000E-03 0. -1.
    9900012    2    1    2    0    0 -0.30787257972E+02 -0.24695587475E+02  0.18052600470E+02  0.47787266390E+02  0.19999978777E+02 0.  0.
         12    1    1    2    0    0  0.30787257972E+02  0.24695587475E+02 -0.18052600470E+02  0.43400733610E+02  0.00000000000E+00 0. -1.
         11    1    3    3    0    0 -0.12315502380E+01  0.19589053293E+00  0.61632455795E+01  0.62881384705E+01  0.51100000000E-03 0. -1.
        -11    1    3    3    0    0 -0.24436083759E+02 -0.15296879599E+02  0.76484900539E+01  0.29826433164E+02  0.51100000000E-03 0.  1.
        -12    1    3    3    0    0 -0.51196239755E+01 -0.95945984093E+01  0.42408648370E+01  0.11672694755E+02  0.00000000000E+00 0.  1.
</event>
<event>
 7    1  0.5559916E-010  0.4778727E+02  0.7816164E-02  0.1312668E+00
        -11   -1    0    0    0    0  0.00000000000E+00  0.00000000000E+00  0.45593999997E+02  0.45594000000E+02  0.51100000000E-03 0. -1.
         11   -1    0    0    0    0 -0.00000000000E+00 -0.00000000000E+00 -0.45593999997E+02  0.45594000000E+02  0.51100000000E-03 0.  1.
    9900012    2    1    2    0    0 -0.38359238027E+02 -0.12987162079E+02  0.15605321355E+02  0.47787267569E+02  0.19999984156E+02 0.  0.
         12    1    1    2    0    0  0.38359238027E+02  0.12987162079E+02 -0.15605321355E+02  0.43400732431E+02  0.00000000000E+00 0. -1.
         11    1    3    3    0    0 -0.24721888550E+02 -0.13777636752E+02  0.11338388100E+02  0.30488589553E+02  0.51100000000E-03 0. -1.
        -11    1    3    3    0    0 -0.12896611701E+02 -0.27166845559E+01  0.33577970790E+01  0.13600653287E+02  0.51100000000E-03 0.  1.
         12    1    3    3    0    0 -0.74073777627E+00  0.35071592293E+01  0.90913617629E+00  0.36980247295E+01  0.00000000000E+00 0. -1.
</event>
<event>
 7    1  0.5559916E-010  0.4778727E+02  0.7816164E-02  0.1312668E+00
        -11   -1    0    0    0    0  0.00000000000E+00  0.00000000000E+00  0.45593999997E+02  0.45594000000E+02  0.51100000000E-03 0.  1.
         11   -1    0    0    0    0 -0.00000000000E+00 -0.00000000000E+00 -0.45593999997E+02  0.45594000000E+02  0.51100000000E-03 0. -1.
    9900012    2    1    2    0    0  0.41905587435E+02  0.14178272897E+01  0.11204236742E+02  0.47787269436E+02  0.19999992668E+02 0.  0.
         12    1    1    2    0    0 -0.41905587435E+02 -0.14178272897E+01 -0.11204236742E+02  0.43400730564E+02  0.00000000000E+00 0. -1.
         11    1    3    3    0    0  0.14939612321E+02 -0.10926222901E+01  0.13965730392E+02  0.20479928355E+02  0.51100000000E-03 0. -1.
        -11    1    3    3    0    0  0.26042523327E+02  0.23362341546E+01 -0.30498043697E+01  0.26324367385E+02  0.51100000000E-03 0.  1.
         12    1    3    3    0    0  0.92345178658E+00  0.17421542520E+00  0.28831071979E+00  0.98297369632E+00  0.00000000000E+00 0. -1.
</event>
<event>
 7    1  0.5559916E-010  0.4778727E+02  0.7816164E-02  0.1312668E+00
        -11   -1    0    0    0    0  0.00000000000E+00  0.00000000000E+00  0.45593999997E+02  0.45594000000E+02  0.51100000000E-03 0.  1.
         11   -1    0    0    0    0 -0.00000000000E+00 -0.00000000000E+00 -0.45593999997E+02  0.45594000000E+02  0.51100000000E-03 0. -1.
    9900012    2    1    2    0    0  0.28910177711E+02  0.71835713218E+01  0.31562972229E+02  0.47787270880E+02  0.19999999251E+02 0.  0.
         12    1    1    2    0    0 -0.28910177711E+02 -0.71835713218E+01 -0.31562972229E+02  0.43400729120E+02  0.00000000000E+00 0. -1.
         11    1    3    3    0    0  0.95555681441E+01 -0.23708553097E+01  0.14654859756E+02  0.17654878991E+02  0.51100000000E-03 0. -1.
        -11    1    3    3    0    0  0.14622743094E+02  0.69895677196E+01  0.48338987964E+01  0.16912872327E+02  0.51100000000E-03 0.  1.
        -12    1    3    3    0    0  0.47318664723E+01  0.25648589119E+01  0.12074213677E+02  0.13219519562E+02  0.00000000000E+00 0.  1.
</event>
<event>
 7    1  0.5559916E-010  0.4778727E+02  0.7816164E-02  0.1312668E+00
        -11   -1    0    0    0    0  0.00000000000E+00  0.00000000000E+00  0.45593999997E+02  0.45594000000E+02  0.51100000000E-03 0. -1.
         11   -1    0    0    0    0 -0.00000000000E+00 -0.00000000000E+00 -0.45593999997E+02  0.45594000000E+02  0.51100000000E-03 0.  1.
    9900012    2    1    2    0    0 -0.21998523552E+02 -0.19851585913E+02 -0.31711237477E+02  0.47787273231E+02  0.20000009970E+02 0.  0.
         12    1    1    2    0    0  0.21998523552E+02  0.19851585913E+02  0.31711237477E+02  0.43400726769E+02  0.00000000000E+00 0. -1.
         11    1    3    3    0    0 -0.65847597631E-01  0.11102992263E+01 -0.39993439891E-02  0.11122574045E+01  0.51100000000E-03 0. -1.
        -11    1    3    3    0    0 -0.35403649267E+01 -0.14008017727E+02 -0.11361896985E+02  0.18380735780E+02  0.51100000000E-03 0.  1.
        -12    1    3    3    0    0 -0.18392311027E+02 -0.69538674123E+01 -0.20345341148E+02  0.28294280046E+02  0.00000000000E+00 0.  1.
</event>
<event>
 7    1  0.5559916E-010  0.4778728E+02  0.7816164E-02  0.1312668E+00
        -11   -1    0    0    0    0  0.00000000000E+00  0.00000000000E+00  0.45593999997E+02  0.45594000000E+02  0.51100000000E-03 0.  1.
         11   -1    0    0    0    0 -0.00000000000E+00 -0.00000000000E+00 -0.45593999997E+02  0.45594000000E+02  0.51100000000E-03 0. -1.
    9900012    2    1    2    0    0  0.17905380850E+01 -0.26168907595E+02  0.34577523759E+02  0.47787275344E+02  0.20000019602E+02 0.  0.
         12    1    1    2    0    0 -0.17905380850E+01  0.26168907595E+02 -0.34577523759E+02  0.43400724656E+02  0.00000000000E+00 0. -1.
         11    1    3    3    0    0 -0.22109713284E+01  0.23702461466E+01  0.24480369742E+01  0.40619387364E+01  0.51100000000E-03 0. -1.
        -11    1    3    3    0    0  0.35273654895E+01 -0.22980868612E+02  0.29492793474E+02  0.37555126103E+02  0.51100000000E-03 0.  1.
         12    1    3    3    0    0  0.47414392387E+00 -0.55582851302E+01  0.26366933108E+01  0.61702105041E+01  0.00000000000E+00 0. -1.
</event>
<event>
 7    1  0.5559916E-010  0.4778727E+02  0.7816164E-02  0.1312668E+00
        -11   -1    0    0    0    0  0.00000000000E+00  0.00000000000E+00  0.45593999997E+02  0.45594000000E+02  0.51100000000E-03 0.  1.
         11   -1    0    0    0    0 -0.00000000000E+00 -0.00000000000E+00 -0.45593999997E+02  0.45594000000E+02  0.51100000000E-03 0. -1.
    9900012    2    1    2    0    0 -0.20070759529E+02  0.22341488426E+02  0.31331223365E+02  0.47787273615E+02  0.20000011722E+02 0.  0.
         12    1    1    2    0    0  0.20070759529E+02 -0.22341488426E+02 -0.31331223365E+02  0.43400726385E+02  0.00000000000E+00 0. -1.
         11    1    3    3    0    0 -0.11037776619E+02  0.37636291354E+01  0.11162890272E+02  0.16143343410E+02  0.51100000000E-03 0. -1.
        -11    1    3    3    0    0 -0.44331147614E+01  0.17558037297E+02  0.10612203141E+02  0.20989426766E+02  0.51100000000E-03 0.  1.
        -12    1    3    3    0    0 -0.45998681482E+01  0.10198219940E+01  0.95561299525E+01  0.10654503440E+02  0.00000000000E+00 0.  1.
</event>
<event>
 7    1  0.5559916E-010  0.4778727E+02  0.7816164E-02  0.1312668E+00
        -11   -1    0    0    0    0  0.00000000000E+00  0.00000000000E+00  0.45593999997E+02  0.45594000000E+02  0.51100000000E-03 0.  1.
         11   -1    0    0    0    0 -0.00000000000E+00 -0.00000000000E+00 -0.45593999997E+02  0.45594000000E+02  0.51100000000E-03 0. -1.
    9900012    2    1    2    0    0 -0.22388524574E+02 -0.16311616046E+02  0.33411199334E+02  0.47787273145E+02  0.20000009575E+02 0.  0.
         12    1    1    2    0    0  0.22388524574E+02  0.16311616046E+02 -0.33411199334E+02  0.43400726855E+02  0.00000000000E+00 0. -1.
         11    1    3    3    0    0  0.11529901051E+01 -0.74939723429E+01  0.85756948057E+01  0.11446901298E+02  0.51100000000E-03 0. -1.
        -11    1    3    3    0    0 -0.15707583818E+02 -0.90308347313E+01  0.13660243531E+02  0.22691108808E+02  0.51100000000E-03 0.  1.
         12    1    3    3    0    0 -0.78339308610E+01  0.21319102771E+00  0.11175260997E+02  0.13649263039E+02  0.00000000000E+00 0. -1.
</event>
<event>
 7    1 -0.5559916E-010  0.4778727E+02  0.7816164E-02  0.1312668E+00
        -11   -1    0    0    0    0  0.00000000000E+00  0.00000000000E+00  0.45593999997E+02  0.45594000000E+02  0.51100000000E-03 0. -1.
         11   -1    0    0    0    0 -0.00000000000E+00 -0.00000000000E+00 -0.45593999997E+02  0.45594000000E+02  0.51100000000E-03 0.  1.
    9900012    2    1    2    0    0  0.24106851394E+02  0.35686466899E+02  0.53813772900E+01  0.47787269298E+02  0.19999992039E+02 0.  0.
         12    1    1    2    0    0 -0.24106851394E+02 -0.35686466899E+02 -0.53813772900E+01  0.43400730702E+02  0.00000000000E+00 0. -1.
         11    1    3    3    0    0  0.11542317867E+01  0.54147405295E+00  0.27323335538E+01  0.30151437905E+01  0.51100000000E-03 0. -1.
        -11    1    3    3    0    0  0.20723573795E+02  0.18158235363E+02  0.12230343924E+01  0.27580497380E+02  0.51100000000E-03 0.  1.
        -12    1    3    3    0    0  0.22290458120E+01  0.16986757483E+02  0.14260093438E+01  0.17191628128E+02  0.00000000000E+00 0.  1.
</event>
<event>
 7    1  0.5559916E-010  0.4778727E+02  0.7816164E-02  0.1312668E+00
        -11   -1    0    0    0    0  0.00000000000E+00  0.00000000000E+00  0.45593999997E+02  0.45594000000E+02  0.51100000000E-03 0.  1.
         11   -1    0    0    0    0 -0.00000000000E+00 -0.00000000000E+00 -0.45593999997E+02  0.45594000000E+02  0.51100000000E-03 0. -1.
    9900012    2    1    2    0    0  0.14714287070E+02 -0.26043755232E+02  0.31445760820E+02  0.47787270696E+02  0.19999998412E+02 0.  0.
         12    1    1    2    0    0 -0.14714287070E+02  0.26043755232E+02 -0.31445760820E+02  0.43400729304E+02  0.00000000000E+00 0. -1.
         11    1    3    3    0    0 -0.13288808162E+01  0.11297935281E+00  0.97382334500E+00  0.16513693489E+01  0.51100000000E-03 0. -1.
        -11    1    3    3    0    0  0.13805690141E+02 -0.77535552559E+01  0.11199930822E+02  0.19394668083E+02  0.51100000000E-03 0.  1.
        -12    1    3    3    0    0  0.22374777458E+01 -0.18403179329E+02  0.19272006653E+02  0.26741233264E+02  0.00000000000E+00 0.  1.
</event>
<event>
 7    1  0.5559916E-010  0.4778728E+02  0.7816164E-02  0.1312668E+00
        -11   -1    0    0    0    0  0.00000000000E+00  0.00000000000E+00  0.45593999997E+02  0.45594000000E+02  0.51100000000E-03 0.  1.
         11   -1    0    0    0    0 -0.00000000000E+00 -0.00000000000E+00 -0.45593999997E+02  0.45594000000E+02  0.51100000000E-03 0. -1.
    9900012    2    1    2    0    0 -0.29712487902E+02 -0.46886760728E+01  0.31285886436E+02  0.47787282140E+02  0.20000050589E+02 0.  0.
         12    1    1    2    0    0  0.29712487902E+02  0.46886760728E+01 -0.31285886436E+02  0.43400717860E+02  0.00000000000E+00 0. -1.
         11    1    3    3    0    0 -0.86178829077E+01  0.15761612353E+01  0.15132875461E+00  0.87621396190E+01  0.51100000000E-03 0. -1.
        -11    1    3    3    0    0 -0.14559491385E+02 -0.55350299470E+01  0.15096908900E+02  0.21691749687E+02  0.51100000000E-03 0.  1.
         12    1    3    3    0    0 -0.65351136096E+01 -0.72980736110E+00  0.16037648782E+02  0.17333392833E+02  0.00000000000E+00 0. -1.
</event>
<event>
 7    1  0.5559916E-010  0.4778727E+02  0.7816164E-02  0.1312668E+00
        -11   -1    0    0    0    0  0.00000000000E+00  0.00000000000E+00  0.45593999997E+02  0.45594000000E+02  0.51100000000E-03 0.  1.
         11   -1    0    0    0    0 -0.00000000000E+00 -0.00000000000E+00 -0.45593999997E+02  0.45594000000E+02  0.51100000000E-03 0. -1.
    9900012    2    1    2    0    0  0.26560317790E+02 -0.34313926036E+02  0.85285205220E+00  0.47787270078E+02  0.19999995594E+02 0.  0.
         12    1    1    2    0    0 -0.26560317790E+02  0.34313926036E+02 -0.85285205220E+00  0.43400729922E+02  0.00000000000E+00 0. -1.
         11    1    3    3    0    0  0.69828614752E+01  0.57752999765E+00 -0.17303461565E+01  0.72172012139E+01  0.51100000000E-03 0. -1.
        -11    1    3    3    0    0  0.18248445724E+02 -0.34389321116E+02  0.18590909267E+01  0.38975471741E+02  0.51100000000E-03 0.  1.
        -12    1    3    3    0    0  0.13290105916E+01 -0.50213491781E+00  0.72410728204E+00  0.15945971228E+01  0.00000000000E+00 0.  1.
</event>
<event>
 7    1  0.5559916E-010  0.4778727E+02  0.7816164E-02  0.1312668E+00
        -11   -1    0    0    0    0  0.00000000000E+00  0.00000000000E+00  0.45593999997E+02  0.45594000000E+02  0.51100000000E-03 0.  1.
         11   -1    0    0    0    0 -0.00000000000E+00 -0.00000000000E+00 -0.45593999997E+02  0.45594000000E+02  0.51100000000E-03 0. -1.
    9900012    2    1    2    0    0  0.14130609147E+02  0.30121957689E+02  0.27867840604E+02  0.47787274317E+02  0.20000014922E+02 0.  0.
         12    1    1    2    0    0 -0.14130609147E+02 -0.30121957689E+02 -0.27867840604E+02  0.43400725683E+02  0.00000000000E+00 0. -1.
         11    1    3    3    0    0 -0.30862795194E+01  0.35333994773E+01  0.10437435456E+02  0.11443342707E+02  0.51100000000E-03 0. -1.
        -11    1    3    3    0    0  0.10453141009E+02  0.19277477090E+02  0.12188084967E+02  0.25088616848E+02  0.51100000000E-03 0.  1.
        -12    1    3    3    0    0  0.67637476568E+01  0.73110811213E+01  0.52423201809E+01  0.11255314763E+02  0.00000000000E+00 0.  1.
</event>
<event>
 7    1  0.5559916E-010  0.4778726E+02  0.7816164E-02  0.1312668E+00
        -11   -1    0    0    0    0  0.00000000000E+00  0.00000000000E+00  0.45593999997E+02  0.45594000000E+02  0.51100000000E-03 0.  1.
         11   -1    0    0    0    0 -0.00000000000E+00 -0.00000000000E+00 -0.45593999997E+02  0.45594000000E+02  0.51100000000E-03 0. -1.
    9900012    2    1    2    0    0 -0.35363777391E+02  0.97358057712E+01  0.23200035791E+02  0.47787258922E+02  0.19999944729E+02 0.  0.
         12    1    1    2    0    0  0.35363777391E+02 -0.97358057712E+01 -0.23200035791E+02  0.43400741078E+02  0.00000000000E+00 0. -1.
         11    1    3    3    0    0 -0.73340289898E+01  0.10483785430E+02  0.87903624080E+01  0.15523150765E+02  0.51100000000E-03 0. -1.
        -11    1    3    3    0    0 -0.15533363745E+02 -0.34811873863E+01  0.96516187951E+01  0.18616062969E+02  0.51100000000E-03 0.  1.
        -12    1    3    3    0    0 -0.12496384657E+02  0.27332077275E+01  0.47580545881E+01  0.13648045188E+02  0.00000000000E+00 0.  1.
</event>
<event>
 7    1  0.5559916E-010  0.4778727E+02  0.7816164E-02  0.1312668E+00
        -11   -1    0    0    0    0  0.00000000000E+00  0.00000000000E+00  0.45593999997E+02  0.45594000000E+02  0.51100000000E-03 0. -1.
         11   -1    0    0    0    0 -0.00000000000E+00 -0.00000000000E+00 -0.45593999997E+02  0.45594000000E+02  0.51100000000E-03 0.  1.
    9900012    2    1    2    0    0 -0.24457620100E+02  0.35574037632E+02  0.44649656527E+01  0.47787271289E+02  0.20000001113E+02 0.  0.
         12    1    1    2    0    0  0.24457620100E+02 -0.35574037632E+02 -0.44649656527E+01  0.43400728711E+02  0.00000000000E+00 0. -1.
         11    1    3    3    0    0 -0.16856164253E+01 -0.18718661438E+01  0.13687041263E+01  0.28667990582E+01  0.51100000000E-03 0. -1.
        -11    1    3    3    0    0 -0.14440436111E+02  0.22249126885E+02  0.63806861270E+01  0.27281183955E+02  0.51100000000E-03 0.  1.
         12    1    3    3    0    0 -0.83315675637E+01  0.15196776890E+02 -0.32844246007E+01  0.17639288276E+02  0.00000000000E+00 0. -1.
</event>
<event>
 7    1  0.5559916E-010  0.4778727E+02  0.7816164E-02  0.1312668E+00
        -11   -1    0    0    0    0  0.00000000000E+00  0.00000000000E+00  0.45593999997E+02  0.45594000000E+02  0.51100000000E-03 0.  1.
         11   -1    0    0    0    0 -0.00000000000E+00 -0.00000000000E+00 -0.45593999997E+02  0.45594000000E+02  0.51100000000E-03 0. -1.
    9900012    2    1    2    0    0  0.36570817391E+00  0.24174773521E+01  0.43331805420E+02  0.47787270742E+02  0.19999998620E+02 0.  0.
         12    1    1    2    0    0 -0.36570817391E+00 -0.24174773521E+01 -0.43331805420E+02  0.43400729258E+02  0.00000000000E+00 0. -1.
         11    1    3    3    0    0 -0.28680261747E+01 -0.25326856729E+01  0.11435557041E+02  0.12058691303E+02  0.51100000000E-03 0. -1.
        -11    1    3    3    0    0  0.39120693750E+01  0.10134980432E+02  0.21972375821E+02  0.24511373169E+02  0.51100000000E-03 0.  1.
        -12    1    3    3    0    0 -0.67833502642E+00 -0.51848174066E+01  0.99238725577E+01  0.11217206269E+02  0.00000000000E+00 0.  1.
</event>
<event>
 7    1  0.5559916E-010  0.4778727E+02  0.7816164E-02  0.1312668E+00
        -11   -1    0    0    0    0  0.00000000000E+00  0.00000000000E+00  0.45593999997E+02  0.45594000000E+02  0.51100000000E-03 0.  1.
         11   -1    0    0    0    0 -0.00000000000E+00 -0.00000000000E+00 -0.45593999997E+02  0.45594000000E+02  0.51100000000E-03 0. -1.
    9900012    2    1    2    0    0  0.13010949425E+02  0.13095036063E+02  0.39279239308E+02  0.47787269418E+02  0.19999992584E+02 0.  0.
         12    1    1    2    0    0 -0.13010949425E+02 -0.13095036063E+02 -0.39279239308E+02  0.43400730582E+02  0.00000000000E+00 0. -1.
         11    1    3    3    0    0  0.12901249387E+02  0.19911909877E+01  0.29406802902E+02  0.32174013341E+02  0.51100000000E-03 0.  1.
        -11    1    3    3    0    0  0.15049757030E+01  0.10422020537E+02  0.88359148472E+01  0.13746157841E+02  0.51100000000E-03 0. -1.
         12    1    3    3    0    0 -0.13952756645E+01  0.68182453879E+00  0.10365215588E+01  0.18670982362E+01  0.00000000000E+00 0. -1.
</event>
<event>
 7    1  0.5559916E-010  0.4778727E+02  0.7816164E-02  0.1312668E+00
        -11   -1    0    0    0    0  0.00000000000E+00  0.00000000000E+00  0.45593999997E+02  0.45594000000E+02  0.51100000000E-03 0.  1.
         11   -1    0    0    0    0 -0.00000000000E+00 -0.00000000000E+00 -0.45593999997E+02  0.45594000000E+02  0.51100000000E-03 0. -1.
    9900012    2    1    2    0    0 -0.34951623830E+02  0.19081648884E+02  0.17259720431E+02  0.47787270952E+02  0.19999999579E+02 0.  0.
         12    1    1    2    0    0  0.34951623830E+02 -0.19081648884E+02 -0.17259720431E+02  0.43400729048E+02  0.00000000000E+00 0. -1.
         11    1    3    3    0    0 -0.21622220936E+02  0.40298333999E+01  0.15705484144E+02  0.27026324720E+02  0.51100000000E-03 0. -1.
        -11    1    3    3    0    0 -0.54594635516E+01  0.93792412531E+01  0.20612069316E+01  0.11046469256E+02  0.51100000000E-03 0.  1.
         12    1    3    3    0    0 -0.78699393431E+01  0.56725742313E+01 -0.50697064467E+00  0.97144769755E+01  0.00000000000E+00 0. -1.
</event>
<event>
 7    1  0.5559916E-010  0.4778728E+02  0.7816164E-02  0.1312668E+00
        -11   -1    0    0    0    0  0.00000000000E+00  0.00000000000E+00  0.45593999997E+02  0.45594000000E+02  0.51100000000E-03 0.  1.
         11   -1    0    0    0    0 -0.00000000000E+00 -0.00000000000E+00 -0.45593999997E+02  0.45594000000E+02  0.51100000000E-03 0. -1.
    9900012    2    1    2    0    0  0.22372775217E+02 -0.29738180318E+02  0.22332080033E+02  0.47787282977E+02  0.20000054404E+02 0.  0.
         12    1    1    2    0    0 -0.22372775217E+02  0.29738180318E+02 -0.22332080033E+02  0.43400717023E+02  0.00000000000E+00 0. -1.
         11    1    3    3    0    0  0.12563406335E+02 -0.39293023017E+01  0.67028335994E+01  0.14771816876E+02  0.51100000000E-03 0. -1.
        -11    1    3    3    0    0  0.81472216066E+01 -0.19916286835E+02  0.16100349777E+02  0.26874838872E+02  0.51100000000E-03 0.  1.
         12    1    3    3    0    0  0.16621472756E+01 -0.58925911809E+01 -0.47110334346E+00  0.61406272279E+01  0.00000000000E+00 0. -1.
</event>
<event>
 7    1  0.5559916E-010  0.4778725E+02  0.7816164E-02  0.1312668E+00
        -11   -1    0    0    0    0  0.00000000000E+00  0.00000000000E+00  0.45593999997E+02  0.45594000000E+02  0.51100000000E-03 0.  1.
         11   -1    0    0    0    0 -0.00000000000E+00 -0.00000000000E+00 -0.45593999997E+02  0.45594000000E+02  0.51100000000E-03 0. -1.
    9900012    2    1    2    0    0 -0.30454097382E+02 -0.25862373047E+02  0.16950234520E+02  0.47787253033E+02  0.19999917879E+02 0.  0.
         12    1    1    2    0    0  0.30454097382E+02  0.25862373047E+02 -0.16950234520E+02  0.43400746967E+02  0.00000000000E+00 0. -1.
         11    1    3    3    0    0 -0.11176790379E+02 -0.43449105746E+01  0.70569945204E+00  0.12012364590E+02  0.51100000000E-03 0. -1.
        -11    1    3    3    0    0 -0.18962444480E+02 -0.21043298253E+02  0.10823359757E+02  0.30323914963E+02  0.51100000000E-03 0.  1.
        -12    1    3    3    0    0 -0.31486252347E+00 -0.47416421975E+00  0.54211753117E+01  0.54509734797E+01  0.00000000000E+00 0.  1.
</event>
<event>
 7    1  0.5559916E-010  0.4778729E+02  0.7816164E-02  0.1312668E+00
        -11   -1    0    0    0    0  0.00000000000E+00  0.00000000000E+00  0.45593999997E+02  0.45594000000E+02  0.51100000000E-03 0.  1.
         11   -1    0    0    0    0 -0.00000000000E+00 -0.00000000000E+00 -0.45593999997E+02  0.45594000000E+02  0.51100000000E-03 0. -1.
    9900012    2    1    2    0    0  0.91383672009E+01  0.10586098088E+02  0.41085841246E+02  0.47787290574E+02  0.20000089041E+02 0.  0.
         12    1    1    2    0    0 -0.91383672009E+01 -0.10586098088E+02 -0.41085841246E+02  0.43400709426E+02  0.00000000000E+00 0. -1.
         11    1    3    3    0    0 -0.22716300509E+00 -0.29203922975E+01  0.31925131131E+01  0.43327167506E+01  0.51100000000E-03 0. -1.
        -11    1    3    3    0    0  0.12729169733E+02  0.99362237986E+01  0.26235959148E+02  0.30807237107E+02  0.51100000000E-03 0.  1.
        -12    1    3    3    0    0 -0.33636395268E+01  0.35702665867E+01  0.11657368985E+02  0.12647336716E+02  0.00000000000E+00 0.  1.
</event>
<event>
 7    1  0.5559916E-010  0.4778727E+02  0.7816164E-02  0.1312668E+00
        -11   -1    0    0    0    0  0.00000000000E+00  0.00000000000E+00  0.45593999997E+02  0.45594000000E+02  0.51100000000E-03 0.  1.
         11   -1    0    0    0    0 -0.00000000000E+00 -0.00000000000E+00 -0.45593999997E+02  0.45594000000E+02  0.51100000000E-03 0. -1.
    9900012    2    1    2    0    0 -0.36944683638E+02  0.21987762030E+02  0.59373349168E+01  0.47787271042E+02  0.19999999988E+02 0.  0.
         12    1    1    2    0    0  0.36944683638E+02 -0.21987762030E+02 -0.59373349168E+01  0.43400728958E+02  0.00000000000E+00 0. -1.
         11    1    3    3    0    0 -0.13003614641E+02 -0.37415648911E+00 -0.71096640429E+00  0.13028409738E+02  0.51100000000E-03 0. -1.
        -11    1    3    3    0    0 -0.24131405636E+02  0.19032590675E+02  0.65424888857E+01  0.31422418857E+02  0.51100000000E-03 0.  1.
         12    1    3    3    0    0  0.19033663891E+00  0.33293278442E+01  0.10581243538E+00  0.33364424470E+01  0.00000000000E+00 0. -1.
</event>
<event>
 7    1  0.5559916E-010  0.4778727E+02  0.7816164E-02  0.1312668E+00
        -11   -1    0    0    0    0  0.00000000000E+00  0.00000000000E+00  0.45593999997E+02  0.45594000000E+02  0.51100000000E-03 0. -1.
         11   -1    0    0    0    0 -0.00000000000E+00 -0.00000000000E+00 -0.45593999997E+02  0.45594000000E+02  0.51100000000E-03 0.  1.
    9900012    2    1    2    0    0  0.38331424434E+02 -0.13449825579E+02  0.15278334762E+02  0.47787269357E+02  0.19999992305E+02 0.  0.
         12    1    1    2    0    0 -0.38331424434E+02  0.13449825579E+02 -0.15278334762E+02  0.43400730643E+02  0.00000000000E+00 0. -1.
         11    1    3    3    0    0  0.30032069706E+02 -0.98001842733E+01  0.56834653353E+01  0.32097828604E+02  0.51100000000E-03 0. -1.
        -11    1    3    3    0    0  0.54026762731E+01  0.20576753699E+01  0.30549906674E+01  0.65388001253E+01  0.51100000000E-03 0.  1.
         12    1    3    3    0    0  0.28966784555E+01 -0.57073166755E+01  0.65398787594E+01  0.91506406277E+01  0.00000000000E+00 0. -1.
</event>
<event>
 7    1  0.5559916E-010  0.4778727E+02  0.7816164E-02  0.1312668E+00
        -11   -1    0    0    0    0  0.00000000000E+00  0.00000000000E+00  0.45593999997E+02  0.45594000000E+02  0.51100000000E-03 0.  1.
         11   -1    0    0    0    0 -0.00000000000E+00 -0.00000000000E+00 -0.45593999997E+02  0.45594000000E+02  0.51100000000E-03 0. -1.
    9900012    2    1    2    0    0  0.31727496974E+02 -0.28770215168E+02  0.70188247193E+01  0.47787271371E+02  0.20000001490E+02 0.  0.
         12    1    1    2    0    0 -0.31727496974E+02  0.28770215168E+02 -0.70188247193E+01  0.43400728629E+02  0.00000000000E+00 0. -1.
         11    1    3    3    0    0  0.22124705844E+02 -0.23162222935E+02  0.54749752369E+01  0.32495638694E+02  0.51100000000E-03 0. -1.
        -11    1    3    3    0    0  0.11433715819E+02 -0.48893552605E+01  0.30623309777E+01  0.12806776471E+02  0.51100000000E-03 0.  1.
         12    1    3    3    0    0 -0.18309246893E+01 -0.71863697243E+00 -0.15184814953E+01  0.24848562066E+01  0.00000000000E+00 0. -1.
</event>
<event>
 7    1  0.5559916E-010  0.4778727E+02  0.7816164E-02  0.1312668E+00
        -11   -1    0    0    0    0  0.00000000000E+00  0.00000000000E+00  0.45593999997E+02  0.45594000000E+02  0.51100000000E-03 0.  1.
         11   -1    0    0    0    0 -0.00000000000E+00 -0.00000000000E+00 -0.45593999997E+02  0.45594000000E+02  0.51100000000E-03 0. -1.
    9900012    2    1    2    0    0  0.10502911941E+02  0.48127238217E+01  0.41834794511E+02  0.47787268421E+02  0.19999988040E+02 0.  0.
         12    1    1    2    0    0 -0.10502911941E+02 -0.48127238217E+01 -0.41834794511E+02  0.43400731579E+02  0.00000000000E+00 0. -1.
         11    1    3    3    0    0  0.41506413246E+01 -0.89379025470E+00  0.25370238902E+01  0.49460261732E+01  0.51100000000E-03 0. -1.
        -11    1    3    3    0    0  0.72041727407E+01  0.98090586539E+01  0.33830397154E+02  0.35952934628E+02  0.51100000000E-03 0.  1.
        -12    1    3    3    0    0 -0.85190212438E+00 -0.41025445775E+01  0.54673734668E+01  0.68883076198E+01  0.00000000000E+00 0.  1.
</event>
<event>
 7    1  0.5559916E-010  0.4778728E+02  0.7816164E-02  0.1312668E+00
        -11   -1    0    0    0    0  0.00000000000E+00  0.00000000000E+00  0.45593999997E+02  0.45594000000E+02  0.51100000000E-03 0. -1.
         11   -1    0    0    0    0 -0.00000000000E+00 -0.00000000000E+00 -0.45593999997E+02  0.45594000000E+02  0.51100000000E-03 0.  1.
    9900012    2    1    2    0    0 -0.18609810729E+02 -0.29079819607E+02 -0.26299460167E+02  0.47787279167E+02  0.20000037034E+02 0.  0.
         12    1    1    2    0    0  0.18609810729E+02  0.29079819607E+02  0.26299460167E+02  0.43400720833E+02  0.00000000000E+00 0. -1.
         11    1    3    3    0    0 -0.63182773985E+01 -0.20528202081E+02 -0.21515536725E+02  0.30401414947E+02  0.51100000000E-03 0.  1.
        -11    1    3    3    0    0 -0.26871964773E+01 -0.50897407225E+01 -0.42648360826E+01  0.71634707093E+01  0.51100000000E-03 0. -1.
         12    1    3    3    0    0 -0.96043368537E+01 -0.34618768034E+01 -0.51908735930E+00  0.10222393511E+02  0.00000000000E+00 0. -1.
</event>
<event>
 7    1  0.5559916E-010  0.4778727E+02  0.7816164E-02  0.1312668E+00
        -11   -1    0    0    0    0  0.00000000000E+00  0.00000000000E+00  0.45593999997E+02  0.45594000000E+02  0.51100000000E-03 0.  1.
         11   -1    0    0    0    0 -0.00000000000E+00 -0.00000000000E+00 -0.45593999997E+02  0.45594000000E+02  0.51100000000E-03 0. -1.
    9900012    2    1    2    0    0 -0.13570928086E+02  0.33805865237E+02  0.23592728878E+02  0.47787268791E+02  0.19999989724E+02 0.  0.
         12    1    1    2    0    0  0.13570928086E+02 -0.33805865237E+02 -0.23592728878E+02  0.43400731209E+02  0.00000000000E+00 0. -1.
         11    1    3    3    0    0 -0.92502461554E+01  0.24416156578E+02  0.18896024491E+02  0.32230040301E+02  0.51100000000E-03 0.  1.
        -11    1    3    3    0    0 -0.25179071992E+00  0.30770508641E+01 -0.33462589354E+01  0.45529210086E+01  0.51100000000E-03 0. -1.
         12    1    3    3    0    0 -0.40688912109E+01  0.63126577954E+01  0.80429633224E+01  0.11004307481E+02  0.00000000000E+00 0. -1.
</event>
<event>
 7    1  0.5559916E-010  0.4778727E+02  0.7816164E-02  0.1312668E+00
        -11   -1    0    0    0    0  0.00000000000E+00  0.00000000000E+00  0.45593999997E+02  0.45594000000E+02  0.51100000000E-03 0. -1.
         11   -1    0    0    0    0 -0.00000000000E+00 -0.00000000000E+00 -0.45593999997E+02  0.45594000000E+02  0.51100000000E-03 0.  1.
    9900012    2    1    2    0    0 -0.33076690316E+02  0.27823921332E+02  0.39224477898E+01  0.47787266859E+02  0.19999980916E+02 0.  0.
         12    1    1    2    0    0  0.33076690316E+02 -0.27823921332E+02 -0.39224477898E+01  0.43400733141E+02  0.00000000000E+00 0. -1.
         11    1    3    3    0    0 -0.46761300699E+01 -0.69134321628E+00  0.46355198490E+01  0.66205885241E+01  0.51100000000E-03 0. -1.
        -11    1    3    3    0    0 -0.24506531959E+02  0.27408451071E+02  0.97715623555E+00  0.36779724487E+02  0.51100000000E-03 0.  1.
        -12    1    3    3    0    0 -0.38940282870E+01  0.11068134765E+01 -0.16902282948E+01  0.43869538475E+01  0.00000000000E+00 0.  1.
</event>
<event>
 7    1  0.5559916E-010  0.4778723E+02  0.7816164E-02  0.1312668E+00
        -11   -1    0    0    0    0  0.00000000000E+00  0.00000000000E+00  0.45593999997E+02  0.45594000000E+02  0.51100000000E-03 0. -1.
         11   -1    0    0    0    0 -0.00000000000E+00 -0.00000000000E+00 -0.45593999997E+02  0.45594000000E+02  0.51100000000E-03 0.  1.
    9900012    2    1    2    0    0  0.49248479342E+01  0.22180536813E+02 -0.36978323627E+02  0.47787230897E+02  0.19999816952E+02 0.  0.
         12    1    1    2    0    0 -0.49248479342E+01 -0.22180536813E+02  0.36978323627E+02  0.43400769103E+02  0.00000000000E+00 0. -1.
         11    1    3    3    0    0  0.57746305454E+01  0.13790780934E+01 -0.10554566333E+01  0.60301080661E+01  0.51100000000E-03 0. -1.
        -11    1    3    3    0    0  0.10451901324E+01  0.49288044267E+01 -0.60245419189E+01  0.78537023806E+01  0.51100000000E-03 0.  1.
         12    1    3    3    0    0 -0.18949727435E+01  0.15872654292E+02 -0.29898325074E+02  0.33903420451E+02  0.00000000000E+00 0. -1.
</event>
<event>
 7    1  0.5559916E-010  0.4778727E+02  0.7816164E-02  0.1312668E+00
        -11   -1    0    0    0    0  0.00000000000E+00  0.00000000000E+00  0.45593999997E+02  0.45594000000E+02  0.51100000000E-03 0. -1.
         11   -1    0    0    0    0 -0.00000000000E+00 -0.00000000000E+00 -0.45593999997E+02  0.45594000000E+02  0.51100000000E-03 0.  1.
    9900012    2    1    2    0    0 -0.36456834642E+02  0.20172839712E+02  0.12148201962E+02  0.47787273450E+02  0.20000010967E+02 0.  0.
         12    1    1    2    0    0  0.36456834642E+02 -0.20172839712E+02 -0.12148201962E+02  0.43400726550E+02  0.00000000000E+00 0. -1.
         11    1    3    3    0    0  0.11357155334E+01  0.59918317036E-01  0.10974116234E+01  0.15804279515E+01  0.51100000000E-03 0. -1.
        -11    1    3    3    0    0 -0.38621122154E+02  0.20343157550E+02  0.11365856846E+02  0.45106738273E+02  0.51100000000E-03 0.  1.
        -12    1    3    3    0    0  0.10285719787E+01 -0.23023615455E+00 -0.31506650740E+00  0.11001072249E+01  0.00000000000E+00 0.  1.
</event>
<event>
 7    1  0.5559916E-010  0.4778727E+02  0.7816164E-02  0.1312668E+00
        -11   -1    0    0    0    0  0.00000000000E+00  0.00000000000E+00  0.45593999997E+02  0.45594000000E+02  0.51100000000E-03 0.  1.
         11   -1    0    0    0    0 -0.00000000000E+00 -0.00000000000E+00 -0.45593999997E+02  0.45594000000E+02  0.51100000000E-03 0. -1.
    9900012    2    1    2    0    0  0.75536727515E+01 -0.10456964795E+01  0.42725540728E+02  0.47787270931E+02  0.19999999485E+02 0.  0.
         12    1    1    2    0    0 -0.75536727515E+01  0.10456964795E+01 -0.42725540728E+02  0.43400729069E+02  0.00000000000E+00 0. -1.
         11    1    3    3    0    0  0.64237483446E-01 -0.14348618276E+01  0.20506536348E+00  0.14508642194E+01  0.51100000000E-03 0. -1.
        -11    1    3    3    0    0  0.60736064317E+01 -0.79142914445E+01  0.23964450732E+02  0.25958035428E+02  0.51100000000E-03 0.  1.
        -12    1    3    3    0    0  0.14158288363E+01  0.83034567926E+01  0.18556024633E+02  0.20378371284E+02  0.00000000000E+00 0.  1.
</event>
<event>
 7    1  0.5559916E-010  0.4778727E+02  0.7816164E-02  0.1312668E+00
        -11   -1    0    0    0    0  0.00000000000E+00  0.00000000000E+00  0.45593999997E+02  0.45594000000E+02  0.51100000000E-03 0.  1.
         11   -1    0    0    0    0 -0.00000000000E+00 -0.00000000000E+00 -0.45593999997E+02  0.45594000000E+02  0.51100000000E-03 0. -1.
    9900012    2    1    2    0    0 -0.19777891505E+02 -0.19511248411E+02  0.33343206370E+02  0.47787271689E+02  0.20000002938E+02 0.  0.
         12    1    1    2    0    0  0.19777891505E+02  0.19511248411E+02 -0.33343206370E+02  0.43400728311E+02  0.00000000000E+00 0. -1.
         11    1    3    3    0    0 -0.39737738707E+00 -0.14162907896E+01  0.11989779019E+02  0.12079676716E+02  0.51100000000E-03 0. -1.
        -11    1    3    3    0    0 -0.12223074262E+02 -0.15851465707E+02  0.10754283375E+02  0.22722832584E+02  0.51100000000E-03 0.  1.
        -12    1    3    3    0    0 -0.71574398559E+01 -0.22434919143E+01  0.10599143976E+02  0.12984762388E+02  0.00000000000E+00 0.  1.
</event>
<event>
 7    1  0.5559916E-010  0.4778727E+02  0.7816164E-02  0.1312668E+00
        -11   -1    0    0    0    0  0.00000000000E+00  0.00000000000E+00  0.45593999997E+02  0.45594000000E+02  0.51100000000E-03 0.  1.
         11   -1    0    0    0    0 -0.00000000000E+00 -0.00000000000E+00 -0.45593999997E+02  0.45594000000E+02  0.51100000000E-03 0. -1.
    9900012    2    1    2    0    0 -0.17781275801E+02 -0.15691170272E+02  0.36348819607E+02  0.47787270969E+02  0.19999999656E+02 0.  0.
         12    1    1    2    0    0  0.17781275801E+02  0.15691170272E+02 -0.36348819607E+02  0.43400729031E+02  0.00000000000E+00 0. -1.
         11    1    3    3    0    0 -0.14156265490E+01 -0.55121308190E+01  0.65723929917E+01  0.86939021498E+01  0.51100000000E-03 0. -1.
        -11    1    3    3    0    0 -0.12358349201E+02 -0.14575261801E+02  0.24985636167E+02  0.31455509318E+02  0.51100000000E-03 0.  1.
        -12    1    3    3    0    0 -0.40073000512E+01  0.43962223485E+01  0.47907904483E+01  0.76378595010E+01  0.00000000000E+00 0.  1.
</event>
<event>
 7    1  0.5559916E-010  0.4778727E+02  0.7816164E-02  0.1312668E+00
        -11   -1    0    0    0    0  0.00000000000E+00  0.00000000000E+00  0.45593999997E+02  0.45594000000E+02  0.51100000000E-03 0.  1.
         11   -1    0    0    0    0 -0.00000000000E+00 -0.00000000000E+00 -0.45593999997E+02  0.45594000000E+02  0.51100000000E-03 0. -1.
    9900012    2    1    2    0    0  0.26472007853E+02 -0.50911352571E+01  0.34013768995E+02  0.47787270292E+02  0.19999996568E+02 0.  0.
         12    1    1    2    0    0 -0.26472007853E+02  0.50911352571E+01 -0.34013768995E+02  0.43400729708E+02  0.00000000000E+00 0. -1.
         11    1    3    3    0    0  0.19430919995E+02 -0.43582851584E+01  0.22397359893E+02  0.29969935466E+02  0.51100000000E-03 0.  1.
        -11    1    3    3    0    0  0.21561021411E+01  0.23843077388E+01 -0.14478129344E+01  0.35256009970E+01  0.51100000000E-03 0. -1.
         12    1    3    3    0    0  0.48849857176E+01 -0.31171578375E+01  0.13064222036E+02  0.14291733829E+02  0.00000000000E+00 0. -1.
</event>
<event>
 7    1  0.5559916E-010  0.4778727E+02  0.7816164E-02  0.1312668E+00
        -11   -1    0    0    0    0  0.00000000000E+00  0.00000000000E+00  0.45593999997E+02  0.45594000000E+02  0.51100000000E-03 0.  1.
         11   -1    0    0    0    0 -0.00000000000E+00 -0.00000000000E+00 -0.45593999997E+02  0.45594000000E+02  0.51100000000E-03 0. -1.
    9900012    2    1    2    0    0  0.43140998611E+02  0.47012362114E+01 -0.61308099295E+00  0.47787271303E+02  0.20000001181E+02 0.  0.
         12    1    1    2    0    0 -0.43140998611E+02 -0.47012362114E+01  0.61308099295E+00  0.43400728697E+02  0.00000000000E+00 0. -1.
         11    1    3    3    0    0  0.12474431847E+02 -0.61332576822E+01 -0.46949745219E+01  0.14672119333E+02  0.51100000000E-03 0. -1.
        -11    1    3    3    0    0  0.27896105266E+02  0.95174838761E+01  0.50371080066E+01  0.29902301678E+02  0.51100000000E-03 0.  1.
         12    1    3    3    0    0  0.27704614990E+01  0.13170100175E+01 -0.95521447764E+00  0.32128502925E+01  0.00000000000E+00 0. -1.
</event>
<event>
 7    1  0.5559916E-010  0.4778729E+02  0.7816164E-02  0.1312668E+00
        -11   -1    0    0    0    0  0.00000000000E+00  0.00000000000E+00  0.45593999997E+02  0.45594000000E+02  0.51100000000E-03 0.  1.
         11   -1    0    0    0    0 -0.00000000000E+00 -0.00000000000E+00 -0.45593999997E+02  0.45594000000E+02  0.51100000000E-03 0. -1.
    9900012    2    1    2    0    0  0.53828188610E+01  0.18797804154E+02  0.38746473779E+02  0.47787292515E+02  0.20000097891E+02 0.  0.
         12    1    1    2    0    0 -0.53828188610E+01 -0.18797804154E+02 -0.38746473779E+02  0.43400707485E+02  0.00000000000E+00 0. -1.
         11    1    3    3    0    0  0.73095618700E+01  0.62127035956E+01  0.95403508895E+01  0.13529437389E+02  0.51100000000E-03 0. -1.
        -11    1    3    3    0    0 -0.32380974072E+01 -0.14519294392E+01  0.84668989113E+01  0.91805093187E+01  0.51100000000E-03 0.  1.
         12    1    3    3    0    0  0.13113543982E+01  0.14037029998E+02  0.20739223978E+02  0.25077345807E+02  0.00000000000E+00 0. -1.
</event>
<event>
 7    1  0.5559916E-010  0.4778727E+02  0.7816164E-02  0.1312668E+00
        -11   -1    0    0    0    0  0.00000000000E+00  0.00000000000E+00  0.45593999997E+02  0.45594000000E+02  0.51100000000E-03 0. -1.
         11   -1    0    0    0    0 -0.00000000000E+00 -0.00000000000E+00 -0.45593999997E+02  0.45594000000E+02  0.51100000000E-03 0.  1.
    9900012    2    1    2    0    0  0.36416655525E+02 -0.22891047339E+02  0.57836362392E+01  0.47787270789E+02  0.19999998834E+02 0.  0.
         12    1    1    2    0    0 -0.36416655525E+02  0.22891047339E+02 -0.57836362392E+01  0.43400729211E+02  0.00000000000E+00 0. -1.
         11    1    3    3    0    0  0.10171140623E+02 -0.77078164344E+01  0.15936713317E+00  0.12762755734E+02  0.51100000000E-03 0. -1.
        -11    1    3    3    0    0  0.31772701610E+01 -0.27770409093E+01  0.76677519106E+01  0.87522238038E+01  0.51100000000E-03 0.  1.
        -12    1    3    3    0    0  0.23068244741E+02 -0.12406189995E+02 -0.20434828045E+01  0.26272291251E+02  0.00000000000E+00 0.  1.
</event>
<event>
 7    1  0.5559916E-010  0.4778727E+02  0.7816164E-02  0.1312668E+00
        -11   -1    0    0    0    0  0.00000000000E+00  0.00000000000E+00  0.45593999997E+02  0.45594000000E+02  0.51100000000E-03 0. -1.
         11   -1    0    0    0    0 -0.00000000000E+00 -0.00000000000E+00 -0.45593999997E+02  0.45594000000E+02  0.51100000000E-03 0.  1.
    9900012    2    1    2    0    0 -0.17314328123E+02  0.16761852471E+02 -0.36095393885E+02  0.47787272859E+02  0.20000008272E+02 0.  0.
         12    1    1    2    0    0  0.17314328123E+02 -0.16761852471E+02  0.36095393885E+02  0.43400727141E+02  0.00000000000E+00 0. -1.
         11    1    3    3    0    0 -0.14076213658E+01 -0.11036831703E+01 -0.11754531433E+02  0.11889849617E+02  0.51100000000E-03 0. -1.
        -11    1    3    3    0    0 -0.14544262073E+02  0.11458761436E+02 -0.12420141315E+02  0.22295709978E+02  0.51100000000E-03 0.  1.
         12    1    3    3    0    0 -0.13624446841E+01  0.64067742059E+01 -0.11920721138E+02  0.13601713263E+02  0.00000000000E+00 0. -1.
</event>
<event>
 7    1  0.5559916E-010  0.4778727E+02  0.7816164E-02  0.1312668E+00
        -11   -1    0    0    0    0  0.00000000000E+00  0.00000000000E+00  0.45593999997E+02  0.45594000000E+02  0.51100000000E-03 0. -1.
         11   -1    0    0    0    0 -0.00000000000E+00 -0.00000000000E+00 -0.45593999997E+02  0.45594000000E+02  0.51100000000E-03 0.  1.
    9900012    2    1    2    0    0 -0.36724710551E+02  0.22980308098E+02  0.26123761281E+01  0.47787269195E+02  0.19999991569E+02 0.  0.
         12    1    1    2    0    0  0.36724710551E+02 -0.22980308098E+02 -0.26123761281E+01  0.43400730805E+02  0.00000000000E+00 0. -1.
         11    1    3    3    0    0  0.23991056738E+00  0.66179891402E-01  0.93283667676E-01  0.26577991298E+00  0.51100000000E-03 0. -1.
        -11    1    3    3    0    0 -0.82091536696E+01 -0.29891508507E+01  0.94418470247E+00  0.87873040116E+01  0.51100000000E-03 0.  1.
        -12    1    3    3    0    0 -0.28755467449E+02  0.25903279057E+02  0.15749077580E+01  0.38734185271E+02  0.00000000000E+00 0.  1.
</event>
<event>
 7    1  0.5559916E-010  0.4778727E+02  0.7816164E-02  0.1312668E+00
        -11   -1    0    0    0    0  0.00000000000E+00  0.00000000000E+00  0.45593999997E+02  0.45594000000E+02  0.51100000000E-03 0.  1.
         11   -1    0    0    0    0 -0.00000000000E+00 -0.00000000000E+00 -0.45593999997E+02  0.45594000000E+02  0.51100000000E-03 0. -1.
    9900012    2    1    2    0    0 -0.10065300618E+01  0.42405050519E+02  0.91881290640E+01  0.47787272725E+02  0.20000007662E+02 0.  0.
         12    1    1    2    0    0  0.10065300618E+01 -0.42405050519E+02 -0.91881290640E+01  0.43400727275E+02  0.00000000000E+00 0. -1.
         11    1    3    3    0    0 -0.66444991731E+01  0.39124885609E+02  0.72976334589E+01  0.40350483238E+02  0.51100000000E-03 0. -1.
        -11    1    3    3    0    0  0.27737616507E+01  0.82336089024E-01  0.14225663603E+01  0.31183694838E+01  0.51100000000E-03 0.  1.
         12    1    3    3    0    0  0.28642074606E+01  0.31978288213E+01  0.46792924470E+00  0.43184200034E+01  0.00000000000E+00 0. -1.
</event>
<event>
 7    1  0.5559916E-010  0.4778726E+02  0.7816164E-02  0.1312668E+00
        -11   -1    0    0    0    0  0.00000000000E+00  0.00000000000E+00  0.45593999997E+02  0.45594000000E+02  0.51100000000E-03 0.  1.
         11   -1    0    0    0    0 -0.00000000000E+00 -0.00000000000E+00 -0.45593999997E+02  0.45594000000E+02  0.51100000000E-03 0. -1.
    9900012    2    1    2    0    0 -0.31152772403E+02 -0.59752126495E+01  0.29621370600E+02  0.47787262785E+02  0.19999962341E+02 0.  0.
         12    1    1    2    0    0  0.31152772403E+02  0.59752126495E+01 -0.29621370600E+02  0.43400737215E+02  0.00000000000E+00 0. -1.
         11    1    3    3    0    0 -0.68351327979E+01  0.38452383869E+01  0.42171374996E+01  0.89044453825E+01  0.51100000000E-03 0. -1.
        -11    1    3    3    0    0 -0.27991685087E+01 -0.61473669017E+01  0.10373727161E+02  0.12379001561E+02  0.51100000000E-03 0.  1.
        -12    1    3    3    0    0 -0.21518471096E+02 -0.36730841348E+01  0.15030505940E+02  0.26503815842E+02  0.00000000000E+00 0.  1.
</event>
<event>
 7    1  0.5559916E-010  0.4778727E+02  0.7816164E-02  0.1312668E+00
        -11   -1    0    0    0    0  0.00000000000E+00  0.00000000000E+00  0.45593999997E+02  0.45594000000E+02  0.51100000000E-03 0.  1.
         11   -1    0    0    0    0 -0.00000000000E+00 -0.00000000000E+00 -0.45593999997E+02  0.45594000000E+02  0.51100000000E-03 0. -1.
    9900012    2    1    2    0    0  0.27884495136E+02 -0.15565395137E+02  0.29390413427E+02  0.47787274244E+02  0.20000014587E+02 0.  0.
         12    1    1    2    0    0 -0.27884495136E+02  0.15565395137E+02 -0.29390413427E+02  0.43400725756E+02  0.00000000000E+00 0. -1.
         11    1    3    3    0    0  0.13372668189E+02 -0.14716074363E+02  0.15038516896E+02  0.24930866207E+02  0.51100000000E-03 0. -1.
        -11    1    3    3    0    0  0.17452140362E+01  0.13338691356E+01  0.82530804306E+01  0.85403931852E+01  0.51100000000E-03 0.  1.
        -12    1    3    3    0    0  0.12766612911E+02 -0.21831899101E+01  0.60988161006E+01  0.14316014852E+02  0.00000000000E+00 0.  1.
</event>
<event>
 7    1  0.5559916E-010  0.4778727E+02  0.7816164E-02  0.1312668E+00
        -11   -1    0    0    0    0  0.00000000000E+00  0.00000000000E+00  0.45593999997E+02  0.45594000000E+02  0.51100000000E-03 0.  1.
         11   -1    0    0    0    0 -0.00000000000E+00 -0.00000000000E+00 -0.45593999997E+02  0.45594000000E+02  0.51100000000E-03 0. -1.
    9900012    2    1    2    0    0  0.32032746307E+01 -0.51628260863E+01  0.42973334445E+02  0.47787271724E+02  0.20000003100E+02 0.  0.
         12    1    1    2    0    0 -0.32032746307E+01  0.51628260863E+01 -0.42973334445E+02  0.43400728276E+02  0.00000000000E+00 0. -1.
         11    1    3    3    0    0  0.68665669028E+01 -0.45773097399E+01  0.16153702963E+02  0.18139559674E+02  0.51100000000E-03 0. -1.
        -11    1    3    3    0    0  0.99527020273E+00 -0.55427893949E+01  0.14821070577E+02  0.15854879702E+02  0.51100000000E-03 0.  1.
        -12    1    3    3    0    0 -0.46585624748E+01  0.49572730485E+01  0.11998560905E+02  0.13792832348E+02  0.00000000000E+00 0.  1.
</event>
<event>
 7    1  0.5559916E-010  0.4778727E+02  0.7816164E-02  0.1312668E+00
        -11   -1    0    0    0    0  0.00000000000E+00  0.00000000000E+00  0.45593999997E+02  0.45594000000E+02  0.51100000000E-03 0.  1.
         11   -1    0    0    0    0 -0.00000000000E+00 -0.00000000000E+00 -0.45593999997E+02  0.45594000000E+02  0.51100000000E-03 0. -1.
    9900012    2    1    2    0    0  0.36522525605E+02 -0.17508349636E+02  0.15594427417E+02  0.47787270167E+02  0.19999996001E+02 0.  0.
         12    1    1    2    0    0 -0.36522525605E+02  0.17508349636E+02 -0.15594427417E+02  0.43400729833E+02  0.00000000000E+00 0. -1.
         11    1    3    3    0    0  0.10843515197E+02 -0.13289867378E+02  0.27882814236E+01  0.17377482853E+02  0.51100000000E-03 0. -1.
        -11    1    3    3    0    0  0.37568387435E+01  0.24796437410E+01  0.33600025796E+01  0.56171245333E+01  0.51100000000E-03 0.  1.
         12    1    3    3    0    0  0.21922171664E+02 -0.66981259994E+01  0.94461434138E+01  0.24792662781E+02  0.00000000000E+00 0. -1.
</event>
<event>
 7    1  0.5559916E-010  0.4778727E+02  0.7816164E-02  0.1312668E+00
        -11   -1    0    0    0    0  0.00000000000E+00  0.00000000000E+00  0.45593999997E+02  0.45594000000E+02  0.51100000000E-03 0.  1.
         11   -1    0    0    0    0 -0.00000000000E+00 -0.00000000000E+00 -0.45593999997E+02  0.45594000000E+02  0.51100000000E-03 0. -1.
    9900012    2    1    2    0    0 -0.38343091556E+02 -0.20083223669E+02 -0.31771732841E+01  0.47787274510E+02  0.20000015800E+02 0.  0.
         12    1    1    2    0    0  0.38343091556E+02  0.20083223669E+02  0.31771732841E+01  0.43400725490E+02  0.00000000000E+00 0. -1.
         11    1    3    3    0    0 -0.17591648529E+01 -0.55150893659E+01  0.17870762488E+01  0.60584249995E+01  0.51100000000E-03 0. -1.
        -11    1    3    3    0    0 -0.32907967671E+02 -0.83246458265E+01 -0.57965408332E+01  0.34435939805E+02  0.51100000000E-03 0.  1.
        -12    1    3    3    0    0 -0.36759590320E+01 -0.62434884760E+01  0.83229130031E+00  0.72929097049E+01  0.00000000000E+00 0.  1.
</event>
<event>
 7    1  0.5559916E-010  0.4778728E+02  0.7816164E-02  0.1312668E+00
        -11   -1    0    0    0    0  0.00000000000E+00  0.00000000000E+00  0.45593999997E+02  0.45594000000E+02  0.51100000000E-03 0.  1.
         11   -1    0    0    0    0 -0.00000000000E+00 -0.00000000000E+00 -0.45593999997E+02  0.45594000000E+02  0.51100000000E-03 0. -1.
    9900012    2    1    2    0    0  0.11139957325E+02 -0.13755983134E+02  0.39626975329E+02  0.47787275410E+02  0.20000019904E+02 0.  0.
         12    1    1    2    0    0 -0.11139957325E+02  0.13755983134E+02 -0.39626975329E+02  0.43400724590E+02  0.00000000000E+00 0. -1.
         11    1    3    3    0    0  0.83535349730E+01 -0.11900707167E+02  0.37795885354E+02  0.40496139662E+02  0.51100000000E-03 0.  1.
        -11    1    3    3    0    0 -0.65694896853E+00 -0.10387619298E+01 -0.18266697541E+01  0.22016654936E+01  0.51100000000E-03 0. -1.
        -12    1    3    3    0    0  0.34433713205E+01 -0.81651403768E+00  0.36577597297E+01  0.50894702538E+01  0.00000000000E+00 0.  1.
</event>
<event>
 7    1  0.5559916E-010  0.4778727E+02  0.7816164E-02  0.1312668E+00
        -11   -1    0    0    0    0  0.00000000000E+00  0.00000000000E+00  0.45593999997E+02  0.45594000000E+02  0.51100000000E-03 0.  1.
         11   -1    0    0    0    0 -0.00000000000E+00 -0.00000000000E+00 -0.45593999997E+02  0.45594000000E+02  0.51100000000E-03 0. -1.
    9900012    2    1    2    0    0  0.13118975076E+02  0.22266314809E+02  0.34867279090E+02  0.47787269207E+02  0.19999991624E+02 0.  0.
         12    1    1    2    0    0 -0.13118975076E+02 -0.22266314809E+02 -0.34867279090E+02  0.43400730793E+02  0.00000000000E+00 0. -1.
         11    1    3    3    0    0  0.88708295188E+01  0.58398694233E+01  0.11122440374E+02  0.15378698624E+02  0.51100000000E-03 0. -1.
        -11    1    3    3    0    0  0.82540524655E+00  0.97699284367E+01  0.28454594871E+01  0.10209281827E+02  0.51100000000E-03 0.  1.
        -12    1    3    3    0    0  0.34227403104E+01  0.66565169491E+01  0.20899379229E+02  0.22199288756E+02  0.00000000000E+00 0.  1.
</event>
<event>
 7    1  0.5559916E-010  0.4778728E+02  0.7816164E-02  0.1312668E+00
        -11   -1    0    0    0    0  0.00000000000E+00  0.00000000000E+00  0.45593999997E+02  0.45594000000E+02  0.51100000000E-03 0.  1.
         11   -1    0    0    0    0 -0.00000000000E+00 -0.00000000000E+00 -0.45593999997E+02  0.45594000000E+02  0.51100000000E-03 0. -1.
    9900012    2    1    2    0    0 -0.38086724313E+02 -0.99427870356E+01  0.18280182064E+02  0.47787278356E+02  0.20000033335E+02 0.  0.
         12    1    1    2    0    0  0.38086724313E+02  0.99427870356E+01 -0.18280182064E+02  0.43400721644E+02  0.00000000000E+00 0. -1.
         11    1    3    3    0    0 -0.76885193871E+01 -0.11792307124E+01 -0.21079510635E+01  0.80589933234E+01  0.51100000000E-03 0. -1.
        -11    1    3    3    0    0 -0.25935030800E+02 -0.39885707114E+01  0.20326542781E+02  0.33191909565E+02  0.51100000000E-03 0.  1.
        -12    1    3    3    0    0 -0.44631741265E+01 -0.47749856117E+01  0.61590346235E-01  0.65363754671E+01  0.00000000000E+00 0.  1.
</event>
<event>
 7    1  0.5559916E-010  0.4778727E+02  0.7816164E-02  0.1312668E+00
        -11   -1    0    0    0    0  0.00000000000E+00  0.00000000000E+00  0.45593999997E+02  0.45594000000E+02  0.51100000000E-03 0.  1.
         11   -1    0    0    0    0 -0.00000000000E+00 -0.00000000000E+00 -0.45593999997E+02  0.45594000000E+02  0.51100000000E-03 0. -1.
    9900012    2    1    2    0    0 -0.16583755665E+02  0.27437293245E+02  0.29254019570E+02  0.47787266440E+02  0.19999979007E+02 0.  0.
         12    1    1    2    0    0  0.16583755665E+02 -0.27437293245E+02 -0.29254019570E+02  0.43400733560E+02  0.00000000000E+00 0. -1.
         11    1    3    3    0    0 -0.21088046601E+01  0.81016674951E+01  0.18928338695E+02  0.20697006530E+02  0.51100000000E-03 0. -1.
        -11    1    3    3    0    0 -0.19599081692E+01  0.11261584497E+01  0.31134456630E+01  0.38474689138E+01  0.51100000000E-03 0.  1.
         12    1    3    3    0    0 -0.12515042835E+02  0.18209467300E+02  0.72122352114E+01  0.23242790996E+02  0.00000000000E+00 0. -1.
</event>
<event>
 7    1  0.5559916E-010  0.4778727E+02  0.7816164E-02  0.1312668E+00
        -11   -1    0    0    0    0  0.00000000000E+00  0.00000000000E+00  0.45593999997E+02  0.45594000000E+02  0.51100000000E-03 0.  1.
         11   -1    0    0    0    0 -0.00000000000E+00 -0.00000000000E+00 -0.45593999997E+02  0.45594000000E+02  0.51100000000E-03 0. -1.
    9900012    2    1    2    0    0  0.30504908621E+01 -0.14881064511E+01  0.43267808695E+02  0.47787271612E+02  0.20000002590E+02 0.  0.
         12    1    1    2    0    0 -0.30504908621E+01  0.14881064511E+01 -0.43267808695E+02  0.43400728388E+02  0.00000000000E+00 0. -1.
         11    1    3    3    0    0  0.27295429478E+01  0.24925339582E+00  0.29072063981E+00  0.27562747887E+01  0.51100000000E-03 0. -1.
        -11    1    3    3    0    0 -0.19547588926E+01 -0.28463582148E+01  0.42258645225E+02  0.42399480350E+02  0.51100000000E-03 0.  1.
        -12    1    3    3    0    0  0.22757068070E+01  0.11089983679E+01  0.71844282969E+00  0.26315164736E+01  0.00000000000E+00 0.  1.
</event>
<event>
 7    1  0.5559916E-010  0.4778726E+02  0.7816164E-02  0.1312668E+00
        -11   -1    0    0    0    0  0.00000000000E+00  0.00000000000E+00  0.45593999997E+02  0.45594000000E+02  0.51100000000E-03 0.  1.
         11   -1    0    0    0    0 -0.00000000000E+00 -0.00000000000E+00 -0.45593999997E+02  0.45594000000E+02  0.51100000000E-03 0. -1.
    9900012    2    1    2    0    0 -0.10629935478E+02 -0.37141646300E+01  0.41914601676E+02  0.47787258292E+02  0.19999941857E+02 0.  0.
         12    1    1    2    0    0  0.10629935478E+02  0.37141646300E+01 -0.41914601676E+02  0.43400741708E+02  0.00000000000E+00 0. -1.
         11    1    3    3    0    0  0.16921963127E+01 -0.51208985681E+01  0.36838851185E+01  0.65313199533E+01  0.51100000000E-03 0. -1.
        -11    1    3    3    0    0 -0.68194608738E+01  0.52243696384E+01  0.24844983589E+02  0.26288253927E+02  0.51100000000E-03 0.  1.
        -12    1    3    3    0    0 -0.55026709172E+01 -0.38176357003E+01  0.13385732968E+02  0.14967684412E+02  0.00000000000E+00 0.  1.
</event>
<event>
 7    1  0.5559916E-010  0.4778727E+02  0.7816164E-02  0.1312668E+00
        -11   -1    0    0    0    0  0.00000000000E+00  0.00000000000E+00  0.45593999997E+02  0.45594000000E+02  0.51100000000E-03 0. -1.
         11   -1    0    0    0    0 -0.00000000000E+00 -0.00000000000E+00 -0.45593999997E+02  0.45594000000E+02  0.51100000000E-03 0.  1.
    9900012    2    1    2    0    0 -0.10717515352E+02  0.40216672460E+02 -0.12303554074E+02  0.47787270491E+02  0.19999997476E+02 0.  0.
         12    1    1    2    0    0  0.10717515352E+02 -0.40216672460E+02  0.12303554074E+02  0.43400729509E+02  0.00000000000E+00 0. -1.
         11    1    3    3    0    0 -0.43322439328E+01  0.21091812860E+02 -0.63139042686E+01  0.22438767671E+02  0.51100000000E-03 0. -1.
        -11    1    3    3    0    0 -0.41001391031E+01  0.38074268194E+01  0.40365513676E+01  0.68993758308E+01  0.51100000000E-03 0.  1.
        -12    1    3    3    0    0 -0.22851323158E+01  0.15317432780E+02 -0.10026201173E+02  0.18449126989E+02  0.00000000000E+00 0.  1.
</event>
<event>
 7    1  0.5559916E-010  0.4778727E+02  0.7816164E-02  0.1312668E+00
        -11   -1    0    0    0    0  0.00000000000E+00  0.00000000000E+00  0.45593999997E+02  0.45594000000E+02  0.51100000000E-03 0.  1.
         11   -1    0    0    0    0 -0.00000000000E+00 -0.00000000000E+00 -0.45593999997E+02  0.45594000000E+02  0.51100000000E-03 0. -1.
    9900012    2    1    2    0    0 -0.37986972103E+01 -0.38978461854E+02  0.18704878762E+02  0.47787273295E+02  0.20000010261E+02 0.  0.
         12    1    1    2    0    0  0.37986972103E+01  0.38978461854E+02 -0.18704878762E+02  0.43400726705E+02  0.00000000000E+00 0. -1.
         11    1    3    3    0    0  0.15853937366E+01 -0.90523493436E+01  0.12513581543E+02  0.15525727849E+02  0.51100000000E-03 0. -1.
        -11    1    3    3    0    0 -0.23742613437E+01 -0.26098916296E+02  0.28605184058E+01  0.26362342736E+02  0.51100000000E-03 0.  1.
         12    1    3    3    0    0 -0.30098296033E+01 -0.38271962153E+01  0.33307788127E+01  0.58992027097E+01  0.00000000000E+00 0. -1.
</event>
<event>
 7    1  0.5559916E-010  0.4778727E+02  0.7816164E-02  0.1312668E+00
        -11   -1    0    0    0    0  0.00000000000E+00  0.00000000000E+00  0.45593999997E+02  0.45594000000E+02  0.51100000000E-03 0. -1.
         11   -1    0    0    0    0 -0.00000000000E+00 -0.00000000000E+00 -0.45593999997E+02  0.45594000000E+02  0.51100000000E-03 0.  1.
    9900012    2    1    2    0    0 -0.80103369690E+01 -0.42148379480E+02  0.65552846200E+01  0.47787272500E+02  0.20000006634E+02 0.  0.
         12    1    1    2    0    0  0.80103369690E+01  0.42148379480E+02 -0.65552846200E+01  0.43400727500E+02  0.00000000000E+00 0. -1.
         11    1    3    3    0    0  0.13981227316E+01 -0.46465276054E+00 -0.77600102325E+00  0.16651808339E+01  0.51100000000E-03 0. -1.
        -11    1    3    3    0    0 -0.39138395865E+01 -0.13573111774E+02  0.10071322712E+02  0.17348747648E+02  0.51100000000E-03 0.  1.
        -12    1    3    3    0    0 -0.54946201141E+01 -0.28110614945E+02 -0.27400370687E+01  0.28773344017E+02  0.00000000000E+00 0.  1.
</event>
<event>
 7    1  0.5559916E-010  0.4778727E+02  0.7816164E-02  0.1312668E+00
        -11   -1    0    0    0    0  0.00000000000E+00  0.00000000000E+00  0.45593999997E+02  0.45594000000E+02  0.51100000000E-03 0. -1.
         11   -1    0    0    0    0 -0.00000000000E+00 -0.00000000000E+00 -0.45593999997E+02  0.45594000000E+02  0.51100000000E-03 0.  1.
    9900012    2    1    2    0    0  0.56153207756E+01 -0.59929102016E+01 -0.42616623631E+02  0.47787269478E+02  0.19999992860E+02 0.  0.
         12    1    1    2    0    0 -0.56153207756E+01  0.59929102016E+01  0.42616623631E+02  0.43400730522E+02  0.00000000000E+00 0. -1.
         11    1    3    3    0    0  0.85019453801E+01 -0.60377736808E+01 -0.16508243335E+02  0.19525877305E+02  0.51100000000E-03 0. -1.
        -11    1    3    3    0    0 -0.46717007569E+01  0.42085971761E+01 -0.14961197128E+02  0.16228816898E+02  0.51100000000E-03 0.  1.
        -12    1    3    3    0    0  0.17850761524E+01 -0.41637336969E+01 -0.11147183168E+02  0.12032575275E+02  0.00000000000E+00 0.  1.
</event>
<event>
 7    1  0.5559916E-010  0.4778727E+02  0.7816164E-02  0.1312668E+00
        -11   -1    0    0    0    0  0.00000000000E+00  0.00000000000E+00  0.45593999997E+02  0.45594000000E+02  0.51100000000E-03 0.  1.
         11   -1    0    0    0    0 -0.00000000000E+00 -0.00000000000E+00 -0.45593999997E+02  0.45594000000E+02  0.51100000000E-03 0. -1.
    9900012    2    1    2    0    0  0.20320501599E+02 -0.35787773643E+02  0.13781720078E+02  0.47787270330E+02  0.19999996742E+02 0.  0.
         12    1    1    2    0    0 -0.20320501599E+02  0.35787773643E+02 -0.13781720078E+02  0.43400729670E+02  0.00000000000E+00 0. -1.
         11    1    3    3    0    0  0.58897470990E+01 -0.27349668097E+01 -0.37554646757E+01  0.75015118164E+01  0.51100000000E-03 0. -1.
        -11    1    3    3    0    0  0.92084922785E+00 -0.53313972215E+01  0.30984064742E+01  0.62347319569E+01  0.51100000000E-03 0.  1.
         12    1    3    3    0    0  0.13509905272E+02 -0.27721409612E+02  0.14438778280E+02  0.34051026557E+02  0.00000000000E+00 0. -1.
</event>
<event>
 7    1  0.5559916E-010  0.4778727E+02  0.7816164E-02  0.1312668E+00
        -11   -1    0    0    0    0  0.00000000000E+00  0.00000000000E+00  0.45593999997E+02  0.45594000000E+02  0.51100000000E-03 0.  1.
         11   -1    0    0    0    0 -0.00000000000E+00 -0.00000000000E+00 -0.45593999997E+02  0.45594000000E+02  0.51100000000E-03 0. -1.
    9900012    2    1    2    0    0  0.36649564452E+02  0.22064860370E+02  0.73194763169E+01  0.47787269923E+02  0.19999994886E+02 0.  0.
         12    1    1    2    0    0 -0.36649564452E+02 -0.22064860370E+02 -0.73194763169E+01  0.43400730077E+02  0.00000000000E+00 0. -1.
         11    1    3    3    0    0  0.50675849052E+01  0.75744928436E+01 -0.43749739850E+01  0.10109092751E+02  0.51100000000E-03 0. -1.
        -11    1    3    3    0    0  0.23922472766E+02  0.12938447957E+02  0.12280216322E+02  0.29841110100E+02  0.51100000000E-03 0.  1.
        -12    1    3    3    0    0  0.76595067807E+01  0.15519195688E+01 -0.58576601999E+00  0.78370670727E+01  0.00000000000E+00 0.  1.
</event>
<event>
 7    1  0.5559916E-010  0.4778727E+02  0.7816164E-02  0.1312668E+00
        -11   -1    0    0    0    0  0.00000000000E+00  0.00000000000E+00  0.45593999997E+02  0.45594000000E+02  0.51100000000E-03 0.  1.
         11   -1    0    0    0    0 -0.00000000000E+00 -0.00000000000E+00 -0.45593999997E+02  0.45594000000E+02  0.51100000000E-03 0. -1.
    9900012    2    1    2    0    0  0.25010277827E+02 -0.13469739625E+02  0.32812731206E+02  0.47787271760E+02  0.20000003265E+02 0.  0.
         12    1    1    2    0    0 -0.25010277827E+02  0.13469739625E+02 -0.32812731206E+02  0.43400728240E+02  0.00000000000E+00 0. -1.
         11    1    3    3    0    0  0.18144327154E+01 -0.40122784818E+01  0.22577204018E+01  0.49485196138E+01  0.51100000000E-03 0. -1.
        -11    1    3    3    0    0  0.66661699116E+01 -0.11362154849E+02  0.16059062644E+02  0.20770890143E+02  0.51100000000E-03 0.  1.
        -12    1    3    3    0    0  0.16529675200E+02  0.19046937059E+01  0.14495948161E+02  0.22067862003E+02  0.00000000000E+00 0.  1.
</event>
<event>
 7    1  0.5559916E-010  0.4778727E+02  0.7816164E-02  0.1312668E+00
        -11   -1    0    0    0    0  0.00000000000E+00  0.00000000000E+00  0.45593999997E+02  0.45594000000E+02  0.51100000000E-03 0.  1.
         11   -1    0    0    0    0 -0.00000000000E+00 -0.00000000000E+00 -0.45593999997E+02  0.45594000000E+02  0.51100000000E-03 0. -1.
    9900012    2    1    2    0    0  0.30278118049E+02 -0.17715701680E+02  0.25554113240E+02  0.47787271641E+02  0.20000002718E+02 0.  0.
         12    1    1    2    0    0 -0.30278118049E+02  0.17715701680E+02 -0.25554113240E+02  0.43400728359E+02  0.00000000000E+00 0. -1.
         11    1    3    3    0    0  0.86016663842E+00 -0.82884828097E+01  0.68797965925E+01  0.10806036986E+02  0.51100000000E-03 0. -1.
        -11    1    3    3    0    0  0.27863359311E+02 -0.83433358146E+01  0.19388960954E+02  0.34955827150E+02  0.51100000000E-03 0.  1.
         12    1    3    3    0    0  0.15545920995E+01 -0.10838830557E+01 -0.71464430577E+00  0.20254075042E+01  0.00000000000E+00 0. -1.
</event>
<event>
 7    1  0.5559916E-010  0.4778727E+02  0.7816164E-02  0.1312668E+00
        -11   -1    0    0    0    0  0.00000000000E+00  0.00000000000E+00  0.45593999997E+02  0.45594000000E+02  0.51100000000E-03 0.  1.
         11   -1    0    0    0    0 -0.00000000000E+00 -0.00000000000E+00 -0.45593999997E+02  0.45594000000E+02  0.51100000000E-03 0. -1.
    9900012    2    1    2    0    0 -0.25095712911E+02 -0.22860154505E+02  0.27041481743E+02  0.47787271834E+02  0.20000003599E+02 0.  0.
         12    1    1    2    0    0  0.25095712911E+02  0.22860154505E+02 -0.27041481743E+02  0.43400728166E+02  0.00000000000E+00 0. -1.
         11    1    3    3    0    0 -0.68159455713E+01  0.66248572231E-01  0.12449716710E+02  0.14193553090E+02  0.51100000000E-03 0. -1.
        -11    1    3    3    0    0  0.10659686910E+00 -0.87702830288E+00  0.21115781762E+01  0.22889526408E+01  0.51100000000E-03 0.  1.
         12    1    3    3    0    0 -0.18386364209E+02 -0.22049374774E+02  0.12480186857E+02  0.31304766103E+02  0.00000000000E+00 0. -1.
</event>
<event>
 7    1  0.5559916E-010  0.4778727E+02  0.7816164E-02  0.1312668E+00
        -11   -1    0    0    0    0  0.00000000000E+00  0.00000000000E+00  0.45593999997E+02  0.45594000000E+02  0.51100000000E-03 0.  1.
         11   -1    0    0    0    0 -0.00000000000E+00 -0.00000000000E+00 -0.45593999997E+02  0.45594000000E+02  0.51100000000E-03 0. -1.
    9900012    2    1    2    0    0  0.39944668103E+02  0.67214562580E+01 -0.15584243565E+02  0.47787272684E+02  0.20000007477E+02 0.  0.
         12    1    1    2    0    0 -0.39944668103E+02 -0.67214562580E+01  0.15584243565E+02  0.43400727316E+02  0.00000000000E+00 0. -1.
         11    1    3    3    0    0  0.10824361923E+02  0.59714050850E+01 -0.10794248621E+02  0.16411590212E+02  0.51100000000E-03 0. -1.
        -11    1    3    3    0    0  0.18149103937E+02  0.40036134411E+01  0.87649963078E+00  0.18606105078E+02  0.51100000000E-03 0.  1.
        -12    1    3    3    0    0  0.10971202242E+02 -0.32535622681E+01 -0.56664945743E+01  0.12769577394E+02  0.00000000000E+00 0.  1.
</event>
<event>
 7    1  0.5559916E-010  0.4778727E+02  0.7816164E-02  0.1312668E+00
        -11   -1    0    0    0    0  0.00000000000E+00  0.00000000000E+00  0.45593999997E+02  0.45594000000E+02  0.51100000000E-03 0.  1.
         11   -1    0    0    0    0 -0.00000000000E+00 -0.00000000000E+00 -0.45593999997E+02  0.45594000000E+02  0.51100000000E-03 0. -1.
    9900012    2    1    2    0    0  0.28285421350E+02 -0.38856099967E+01  0.32687316080E+02  0.47787266613E+02  0.19999979795E+02 0.  0.
         12    1    1    2    0    0 -0.28285421350E+02  0.38856099967E+01 -0.32687316080E+02  0.43400733387E+02  0.00000000000E+00 0. -1.
         11    1    3    3    0    0  0.88663322192E+01 -0.88413115909E+01  0.16374562318E+02  0.20613270702E+02  0.51100000000E-03 0. -1.
        -11    1    3    3    0    0  0.11916660132E+01 -0.14204298312E+01  0.36151821124E+01  0.40629091498E+01  0.51100000000E-03 0.  1.
         12    1    3    3    0    0  0.18227423118E+02  0.63761314254E+01  0.12697571649E+02  0.23111086761E+02  0.00000000000E+00 0. -1.
</event>
<event>
 7    1  0.5559916E-010  0.4778727E+02  0.7816164E-02  0.1312668E+00
        -11   -1    0    0    0    0  0.00000000000E+00  0.00000000000E+00  0.45593999997E+02  0.45594000000E+02  0.51100000000E-03 0.  1.
         11   -1    0    0    0    0 -0.00000000000E+00 -0.00000000000E+00 -0.45593999997E+02  0.45594000000E+02  0.51100000000E-03 0. -1.
    9900012    2    1    2    0    0 -0.38030388597E+02 -0.20023890233E+02  0.60296282218E+01  0.47787273584E+02  0.20000011581E+02 0.  0.
         12    1    1    2    0    0  0.38030388597E+02  0.20023890233E+02 -0.60296282218E+01  0.43400726416E+02  0.00000000000E+00 0. -1.
         11    1    3    3    0    0 -0.14516182199E+02  0.20560741786E+01  0.27307982889E+01  0.14913223871E+02  0.51100000000E-03 0. -1.
        -11    1    3    3    0    0 -0.17973281514E+02 -0.14020340411E+02  0.36596613164E+01  0.23086834231E+02  0.51100000000E-03 0.  1.
         12    1    3    3    0    0 -0.55409248838E+01 -0.80596240011E+01 -0.36083138343E+00  0.97872154821E+01  0.00000000000E+00 0. -1.
</event>
<event>
 7    1  0.5559916E-010  0.4778727E+02  0.7816164E-02  0.1312668E+00
        -11   -1    0    0    0    0  0.00000000000E+00  0.00000000000E+00  0.45593999997E+02  0.45594000000E+02  0.51100000000E-03 0.  1.
         11   -1    0    0    0    0 -0.00000000000E+00 -0.00000000000E+00 -0.45593999997E+02  0.45594000000E+02  0.51100000000E-03 0. -1.
    9900012    2    1    2    0    0  0.30538968193E+02 -0.18748825637E+02  0.24484204097E+02  0.47787270843E+02  0.19999999083E+02 0.  0.
         12    1    1    2    0    0 -0.30538968193E+02  0.18748825637E+02 -0.24484204097E+02  0.43400729157E+02  0.00000000000E+00 0. -1.
         11    1    3    3    0    0 -0.10976432299E+01 -0.57387939043E+01  0.95724329093E+00  0.59207171116E+01  0.51100000000E-03 0. -1.
        -11    1    3    3    0    0  0.45296005306E+01 -0.37882205992E+01  0.52217540711E+01  0.78825511171E+01  0.51100000000E-03 0.  1.
         12    1    3    3    0    0  0.27107010893E+02 -0.92218111335E+01  0.18305206734E+02  0.33984002615E+02  0.00000000000E+00 0. -1.
</event>
<event>
 7    1  0.5559916E-010  0.4778727E+02  0.7816164E-02  0.1312668E+00
        -11   -1    0    0    0    0  0.00000000000E+00  0.00000000000E+00  0.45593999997E+02  0.45594000000E+02  0.51100000000E-03 0. -1.
         11   -1    0    0    0    0 -0.00000000000E+00 -0.00000000000E+00 -0.45593999997E+02  0.45594000000E+02  0.51100000000E-03 0.  1.
    9900012    2    1    2    0    0 -0.41734216982E+02 -0.93182696321E+01 -0.74194752842E+01  0.47787266947E+02  0.19999981317E+02 0.  0.
         12    1    1    2    0    0  0.41734216982E+02  0.93182696321E+01  0.74194752842E+01  0.43400733053E+02  0.00000000000E+00 0. -1.
         11    1    3    3    0    0  0.15269650398E+01 -0.14549099329E+01  0.49778587877E+00  0.21670662629E+01  0.51100000000E-03 0. -1.
        -11    1    3    3    0    0 -0.27779713661E+02 -0.94437779156E+01 -0.58956055793E+01  0.29927505706E+02  0.51100000000E-03 0.  1.
         12    1    3    3    0    0 -0.15481468361E+02  0.15804182165E+01 -0.20216555837E+01  0.15692694977E+02  0.00000000000E+00 0. -1.
</event>
<event>
 7    1  0.5559916E-010  0.4778727E+02  0.7816164E-02  0.1312668E+00
        -11   -1    0    0    0    0  0.00000000000E+00  0.00000000000E+00  0.45593999997E+02  0.45594000000E+02  0.51100000000E-03 0. -1.
         11   -1    0    0    0    0 -0.00000000000E+00 -0.00000000000E+00 -0.45593999997E+02  0.45594000000E+02  0.51100000000E-03 0.  1.
    9900012    2    1    2    0    0  0.27967125717E+02  0.26845673725E+02  0.19513408388E+02  0.47787269297E+02  0.19999992034E+02 0.  0.
         12    1    1    2    0    0 -0.27967125717E+02 -0.26845673725E+02 -0.19513408388E+02  0.43400730703E+02  0.00000000000E+00 0. -1.
         11    1    3    3    0    0  0.47371132463E+00  0.23590865461E+01 -0.26699841871E+01  0.35942325428E+01  0.51100000000E-03 0. -1.
        -11    1    3    3    0    0  0.26424259388E+02  0.22555545196E+02  0.17250513178E+02  0.38788842577E+02  0.51100000000E-03 0.  1.
        -12    1    3    3    0    0  0.10691550046E+01  0.19310419829E+01  0.49328793973E+01  0.54041941779E+01  0.00000000000E+00 0.  1.
</event>
<event>
 7    1  0.5559916E-010  0.4778727E+02  0.7816164E-02  0.1312668E+00
        -11   -1    0    0    0    0  0.00000000000E+00  0.00000000000E+00  0.45593999997E+02  0.45594000000E+02  0.51100000000E-03 0.  1.
         11   -1    0    0    0    0 -0.00000000000E+00 -0.00000000000E+00 -0.45593999997E+02  0.45594000000E+02  0.51100000000E-03 0. -1.
    9900012    2    1    2    0    0  0.14872118959E+02 -0.32505615506E+02  0.24613583546E+02  0.47787268938E+02  0.19999990396E+02 0.  0.
         12    1    1    2    0    0 -0.14872118959E+02  0.32505615506E+02 -0.24613583546E+02  0.43400731062E+02  0.00000000000E+00 0. -1.
         11    1    3    3    0    0  0.87141122890E+01 -0.38463299729E+01  0.26548458706E+00  0.95289290885E+01  0.51100000000E-03 0. -1.
        -11    1    3    3    0    0  0.65166920824E+01 -0.25564665014E+02  0.22117387366E+02  0.34426707614E+02  0.51100000000E-03 0.  1.
         12    1    3    3    0    0 -0.35868541205E+00 -0.30946205185E+01  0.22307115930E+01  0.38316322357E+01  0.00000000000E+00 0. -1.
</event>
<event>
 7    1  0.5559916E-010  0.4778727E+02  0.7816164E-02  0.1312668E+00
        -11   -1    0    0    0    0  0.00000000000E+00  0.00000000000E+00  0.45593999997E+02  0.45594000000E+02  0.51100000000E-03 0.  1.
         11   -1    0    0    0    0 -0.00000000000E+00 -0.00000000000E+00 -0.45593999997E+02  0.45594000000E+02  0.51100000000E-03 0. -1.
    9900012    2    1    2    0    0  0.32401314638E+01 -0.28310973207E+01  0.43186916101E+02  0.47787270902E+02  0.19999999351E+02 0.  0.
         12    1    1    2    0    0 -0.32401314638E+01  0.28310973207E+01 -0.43186916101E+02  0.43400729098E+02  0.00000000000E+00 0. -1.
         11    1    3    3    0    0  0.81695585266E+01  0.12661339661E+01  0.17095326013E+02  0.18989337890E+02  0.51100000000E-03 0. -1.
        -11    1    3    3    0    0 -0.51056049556E+01  0.41175204660E+00  0.22369638712E+02  0.22948583357E+02  0.51100000000E-03 0.  1.
         12    1    3    3    0    0  0.17617789278E+00 -0.45089833334E+01  0.37219513759E+01  0.58493496557E+01  0.00000000000E+00 0. -1.
</event>
<event>
 7    1  0.5559916E-010  0.4778727E+02  0.7816164E-02  0.1312668E+00
        -11   -1    0    0    0    0  0.00000000000E+00  0.00000000000E+00  0.45593999997E+02  0.45594000000E+02  0.51100000000E-03 0.  1.
         11   -1    0    0    0    0 -0.00000000000E+00 -0.00000000000E+00 -0.45593999997E+02  0.45594000000E+02  0.51100000000E-03 0. -1.
    9900012    2    1    2    0    0 -0.41786462897E+02 -0.11076657549E+02  0.38499764558E+01  0.47787272557E+02  0.20000006894E+02 0.  0.
         12    1    1    2    0    0  0.41786462897E+02  0.11076657549E+02 -0.38499764558E+01  0.43400727443E+02  0.00000000000E+00 0. -1.
         11    1    3    3    0    0 -0.42794504234E+01  0.20888152064E+01 -0.43725743121E+01  0.64650020316E+01  0.51100000000E-03 0. -1.
        -11    1    3    3    0    0 -0.16607442584E+02 -0.54119155243E+01  0.75274919658E+01  0.19019966203E+02  0.51100000000E-03 0.  1.
        -12    1    3    3    0    0 -0.20899569890E+02 -0.77535572312E+01  0.69505880217E+00  0.22302304322E+02  0.00000000000E+00 0.  1.
</event>
<event>
 7    1  0.5559916E-010  0.4778727E+02  0.7816164E-02  0.1312668E+00
        -11   -1    0    0    0    0  0.00000000000E+00  0.00000000000E+00  0.45593999997E+02  0.45594000000E+02  0.51100000000E-03 0.  1.
         11   -1    0    0    0    0 -0.00000000000E+00 -0.00000000000E+00 -0.45593999997E+02  0.45594000000E+02  0.51100000000E-03 0. -1.
    9900012    2    1    2    0    0 -0.23284144083E+01 -0.27868845006E+02  0.33189300061E+02  0.47787266433E+02  0.19999978974E+02 0.  0.
         12    1    1    2    0    0  0.23284144083E+01  0.27868845006E+02 -0.33189300061E+02  0.43400733567E+02  0.00000000000E+00 0. -1.
         11    1    3    3    0    0  0.61881190938E+01 -0.81177370725E+01  0.52669478342E+01  0.11486131326E+02  0.51100000000E-03 0. -1.
        -11    1    3    3    0    0 -0.77144109055E+01 -0.84495641898E+01  0.17488907744E+02  0.20899023063E+02  0.51100000000E-03 0.  1.
         12    1    3    3    0    0 -0.80212259659E+00 -0.11301543743E+02  0.10433444483E+02  0.15402112044E+02  0.00000000000E+00 0. -1.
</event>
<event>
 7    1  0.5559916E-010  0.4778727E+02  0.7816164E-02  0.1312668E+00
        -11   -1    0    0    0    0  0.00000000000E+00  0.00000000000E+00  0.45593999997E+02  0.45594000000E+02  0.51100000000E-03 0. -1.
         11   -1    0    0    0    0 -0.00000000000E+00 -0.00000000000E+00 -0.45593999997E+02  0.45594000000E+02  0.51100000000E-03 0.  1.
    9900012    2    1    2    0    0 -0.27305999874E+02 -0.32514992522E+02 -0.89878128138E+01  0.47787272507E+02  0.20000006667E+02 0.  0.
         12    1    1    2    0    0  0.27305999874E+02  0.32514992522E+02  0.89878128138E+01  0.43400727493E+02  0.00000000000E+00 0. -1.
         11    1    3    3    0    0  0.20711199590E+01 -0.28796586497E+01  0.25750548873E+01  0.43832499081E+01  0.51100000000E-03 0. -1.
        -11    1    3    3    0    0 -0.13513640581E+02 -0.15653843652E+02 -0.61923245865E+01  0.21587176445E+02  0.51100000000E-03 0.  1.
         12    1    3    3    0    0 -0.15863479252E+02 -0.13981490220E+02 -0.53705431145E+01  0.21816846153E+02  0.00000000000E+00 0. -1.
</event>
<event>
 7    1  0.5559916E-010  0.4778727E+02  0.7816164E-02  0.1312668E+00
        -11   -1    0    0    0    0  0.00000000000E+00  0.00000000000E+00  0.45593999997E+02  0.45594000000E+02  0.51100000000E-03 0.  1.
         11   -1    0    0    0    0 -0.00000000000E+00 -0.00000000000E+00 -0.45593999997E+02  0.45594000000E+02  0.51100000000E-03 0. -1.
    9900012    2    1    2    0    0  0.54608569497E+01  0.18190344502E+02  0.39024526455E+02  0.47787271241E+02  0.20000000898E+02 0.  0.
         12    1    1    2    0    0 -0.54608569497E+01 -0.18190344502E+02 -0.39024526455E+02  0.43400728759E+02  0.00000000000E+00 0. -1.
         11    1    3    3    0    0 -0.45600554172E+01 -0.84232660751E-01  0.22544097914E+01  0.50875892442E+01  0.51100000000E-03 0. -1.
        -11    1    3    3    0    0  0.98065216756E+01  0.18057458881E+02  0.36996339272E+02  0.42319839418E+02  0.51100000000E-03 0.  1.
        -12    1    3    3    0    0  0.21439069132E+00  0.21711828200E+00 -0.22622260751E+00  0.37984257931E+00  0.00000000000E+00 0.  1.
</event>
<event>
 7    1  0.5559916E-010  0.4778727E+02  0.7816164E-02  0.1312668E+00
        -11   -1    0    0    0    0  0.00000000000E+00  0.00000000000E+00  0.45593999997E+02  0.45594000000E+02  0.51100000000E-03 0.  1.
         11   -1    0    0    0    0 -0.00000000000E+00 -0.00000000000E+00 -0.45593999997E+02  0.45594000000E+02  0.51100000000E-03 0. -1.
    9900012    2    1    2    0    0  0.33280801542E+02 -0.80779156230E+01  0.26660059138E+02  0.47787271603E+02  0.20000002549E+02 0.  0.
         12    1    1    2    0    0 -0.33280801542E+02  0.80779156230E+01 -0.26660059138E+02  0.43400728397E+02  0.00000000000E+00 0. -1.
         11    1    3    3    0    0  0.14048319119E+02 -0.11663786847E+02  0.59552343269E+01  0.19205832703E+02  0.51100000000E-03 0. -1.
        -11    1    3    3    0    0  0.85493213045E+01  0.15683697133E+01  0.10899378214E+02  0.13940843735E+02  0.51100000000E-03 0.  1.
         12    1    3    3    0    0  0.10683161119E+02  0.20175015103E+01  0.98054465973E+01  0.14640595166E+02  0.00000000000E+00 0. -1.
</event>
<event>
 7    1  0.5559916E-010  0.4778727E+02  0.7816164E-02  0.1312668E+00
        -11   -1    0    0    0    0  0.00000000000E+00  0.00000000000E+00  0.45593999997E+02  0.45594000000E+02  0.51100000000E-03 0. -1.
         11   -1    0    0    0    0 -0.00000000000E+00 -0.00000000000E+00 -0.45593999997E+02  0.45594000000E+02  0.51100000000E-03 0.  1.
    9900012    2    1    2    0    0 -0.97851709673E+01 -0.36646250441E+02 -0.21093271407E+02  0.47787270272E+02  0.19999996479E+02 0.  0.
         12    1    1    2    0    0  0.97851709673E+01  0.36646250441E+02  0.21093271407E+02  0.43400729728E+02  0.00000000000E+00 0. -1.
         11    1    3    3    0    0  0.47529547722E+01 -0.10090351235E+02 -0.11433610643E+02  0.15972890149E+02  0.51100000000E-03 0.  1.
        -11    1    3    3    0    0 -0.82726536999E+01 -0.13573755605E+02 -0.49107431994E+01  0.16637278609E+02  0.51100000000E-03 0. -1.
        -12    1    3    3    0    0 -0.62654720396E+01 -0.12982143601E+02 -0.47489175644E+01  0.15177101515E+02  0.00000000000E+00 0.  1.
</event>
<event>
 7    1  0.5559916E-010  0.4778727E+02  0.7816164E-02  0.1312668E+00
        -11   -1    0    0    0    0  0.00000000000E+00  0.00000000000E+00  0.45593999997E+02  0.45594000000E+02  0.51100000000E-03 0.  1.
         11   -1    0    0    0    0 -0.00000000000E+00 -0.00000000000E+00 -0.45593999997E+02  0.45594000000E+02  0.51100000000E-03 0. -1.
    9900012    2    1    2    0    0 -0.22192419394E+02 -0.17430561394E+02  0.32974165716E+02  0.47787267820E+02  0.19999985300E+02 0.  0.
         12    1    1    2    0    0  0.22192419394E+02  0.17430561394E+02 -0.32974165716E+02  0.43400732180E+02  0.00000000000E+00 0. -1.
         11    1    3    3    0    0 -0.10593494899E+01 -0.11640370057E+02  0.16721618821E+02  0.20401788467E+02  0.51100000000E-03 0. -1.
        -11    1    3    3    0    0 -0.12850159737E+02 -0.25003521111E+01  0.10451540596E+02  0.16751509396E+02  0.51100000000E-03 0.  1.
        -12    1    3    3    0    0 -0.82829101673E+01 -0.32898392266E+01  0.58010062984E+01  0.10633969957E+02  0.00000000000E+00 0.  1.
</event>
<event>
 7    1  0.5559916E-010  0.4778727E+02  0.7816164E-02  0.1312668E+00
        -11   -1    0    0    0    0  0.00000000000E+00  0.00000000000E+00  0.45593999997E+02  0.45594000000E+02  0.51100000000E-03 0. -1.
         11   -1    0    0    0    0 -0.00000000000E+00 -0.00000000000E+00 -0.45593999997E+02  0.45594000000E+02  0.51100000000E-03 0.  1.
    9900012    2    1    2    0    0  0.99421044114E+01  0.38263896392E+02 -0.17906760667E+02  0.47787270918E+02  0.19999999426E+02 0.  0.
         12    1    1    2    0    0 -0.99421044114E+01 -0.38263896392E+02  0.17906760667E+02  0.43400729082E+02  0.00000000000E+00 0. -1.
         11    1    3    3    0    0 -0.52270137916E+01  0.14747382090E+02 -0.10114082604E+02  0.18630663404E+02  0.51100000000E-03 0. -1.
        -11    1    3    3    0    0  0.11450474621E+02  0.17942480288E+02 -0.70147328259E+01  0.22410989376E+02  0.51100000000E-03 0.  1.
         12    1    3    3    0    0  0.37186435823E+01  0.55740340139E+01 -0.77794523691E+00  0.67456181386E+01  0.00000000000E+00 0. -1.
</event>
<event>
 7    1  0.5559916E-010  0.4778727E+02  0.7816164E-02  0.1312668E+00
        -11   -1    0    0    0    0  0.00000000000E+00  0.00000000000E+00  0.45593999997E+02  0.45594000000E+02  0.51100000000E-03 0. -1.
         11   -1    0    0    0    0 -0.00000000000E+00 -0.00000000000E+00 -0.45593999997E+02  0.45594000000E+02  0.51100000000E-03 0.  1.
    9900012    2    1    2    0    0 -0.53456136475E+01  0.42937159936E+02  0.33835158861E+01  0.47787268803E+02  0.19999989782E+02 0.  0.
         12    1    1    2    0    0  0.53456136475E+01 -0.42937159936E+02 -0.33835158861E+01  0.43400731197E+02  0.00000000000E+00 0. -1.
         11    1    3    3    0    0  0.54717804344E+01  0.21256667573E+02  0.55202181847E+01  0.22633141772E+02  0.51100000000E-03 0. -1.
        -11    1    3    3    0    0 -0.88281649336E+01  0.10639376735E+02 -0.16695602384E+01  0.13925525665E+02  0.51100000000E-03 0.  1.
         12    1    3    3    0    0 -0.19892291483E+01  0.11041115628E+02 -0.46714206025E+00  0.11228601366E+02  0.00000000000E+00 0. -1.
</event>
<event>
 7    1  0.5559916E-010  0.4778727E+02  0.7816164E-02  0.1312668E+00
        -11   -1    0    0    0    0  0.00000000000E+00  0.00000000000E+00  0.45593999997E+02  0.45594000000E+02  0.51100000000E-03 0.  1.
         11   -1    0    0    0    0 -0.00000000000E+00 -0.00000000000E+00 -0.45593999997E+02  0.45594000000E+02  0.51100000000E-03 0. -1.
    9900012    2    1    2    0    0 -0.11886306900E+02 -0.32276220247E+02  0.26468560585E+02  0.47787269769E+02  0.19999994186E+02 0.  0.
         12    1    1    2    0    0  0.11886306900E+02  0.32276220247E+02 -0.26468560585E+02  0.43400730231E+02  0.00000000000E+00 0. -1.
         11    1    3    3    0    0 -0.10559305975E+02 -0.74477339991E+01  0.80238282923E+01  0.15210177682E+02  0.51100000000E-03 0. -1.
        -11    1    3    3    0    0 -0.22043222742E+01 -0.16049665645E+02  0.59013522489E+01  0.17241715768E+02  0.51100000000E-03 0.  1.
         12    1    3    3    0    0  0.87732134957E+00 -0.87788206031E+01  0.12543380044E+02  0.15335376319E+02  0.00000000000E+00 0. -1.
</event>
<event>
 7    1  0.5559916E-010  0.4778727E+02  0.7816164E-02  0.1312668E+00
        -11   -1    0    0    0    0  0.00000000000E+00  0.00000000000E+00  0.45593999997E+02  0.45594000000E+02  0.51100000000E-03 0. -1.
         11   -1    0    0    0    0 -0.00000000000E+00 -0.00000000000E+00 -0.45593999997E+02  0.45594000000E+02  0.51100000000E-03 0.  1.
    9900012    2    1    2    0    0 -0.21568941543E+02 -0.21824638594E+02  0.30693469214E+02  0.47787272570E+02  0.20000006956E+02 0.  0.
         12    1    1    2    0    0  0.21568941543E+02  0.21824638594E+02 -0.30693469214E+02  0.43400727430E+02  0.00000000000E+00 0. -1.
         11    1    3    3    0    0 -0.13605244724E+02 -0.98278885402E+01  0.26948862777E+02  0.31747933514E+02  0.51100000000E-03 0. -1.
        -11    1    3    3    0    0 -0.73869932593E+01 -0.59630524754E+01  0.17132720482E+01  0.96468111627E+01  0.51100000000E-03 0.  1.
         12    1    3    3    0    0 -0.57670355903E+00 -0.60336975787E+01  0.20313343889E+01  0.63925278933E+01  0.00000000000E+00 0. -1.
</event>
<event>
 7    1  0.5559916E-010  0.4778727E+02  0.7816164E-02  0.1312668E+00
        -11   -1    0    0    0    0  0.00000000000E+00  0.00000000000E+00  0.45593999997E+02  0.45594000000E+02  0.51100000000E-03 0.  1.
         11   -1    0    0    0    0 -0.00000000000E+00 -0.00000000000E+00 -0.45593999997E+02  0.45594000000E+02  0.51100000000E-03 0. -1.
    9900012    2    1    2    0    0  0.14884992552E+02 -0.40367014935E+02  0.57065170958E+01  0.47787271488E+02  0.20000002021E+02 0.  0.
         12    1    1    2    0    0 -0.14884992552E+02  0.40367014935E+02 -0.57065170958E+01  0.43400728512E+02  0.00000000000E+00 0. -1.
         11    1    3    3    0    0  0.18353305094E+01 -0.12150810030E+01  0.42308739103E+00  0.22413975828E+01  0.51100000000E-03 0. -1.
        -11    1    3    3    0    0  0.14997671484E+02 -0.17997109075E+02  0.63577182993E+01  0.24274403540E+02  0.51100000000E-03 0.  1.
        -12    1    3    3    0    0 -0.19480094409E+01 -0.21154824857E+02 -0.10742885945E+01  0.21271470365E+02  0.00000000000E+00 0.  1.
</event>
<event>
 7    1  0.5559916E-010  0.4778727E+02  0.7816164E-02  0.1312668E+00
        -11   -1    0    0    0    0  0.00000000000E+00  0.00000000000E+00  0.45593999997E+02  0.45594000000E+02  0.51100000000E-03 0.  1.
         11   -1    0    0    0    0 -0.00000000000E+00 -0.00000000000E+00 -0.45593999997E+02  0.45594000000E+02  0.51100000000E-03 0. -1.
    9900012    2    1    2    0    0  0.44241633450E+01 -0.66091044083E+01  0.42665790428E+02  0.47787272411E+02  0.20000006231E+02 0.  0.
         12    1    1    2    0    0 -0.44241633450E+01  0.66091044083E+01 -0.42665790428E+02  0.43400727589E+02  0.00000000000E+00 0. -1.
         11    1    3    3    0    0  0.41598426073E+01  0.72915318644E+00 -0.10792349582E+00  0.42246423078E+01  0.51100000000E-03 0. -1.
        -11    1    3    3    0    0  0.64718765295E+00 -0.15729328316E+01  0.19820065923E+02  0.19892912884E+02  0.51100000000E-03 0.  1.
         12    1    3    3    0    0 -0.38286691521E+00 -0.57653247632E+01  0.22953648001E+02  0.23669717219E+02  0.00000000000E+00 0. -1.
</event>
<event>
 7    1  0.5559916E-010  0.4778728E+02  0.7816164E-02  0.1312668E+00
        -11   -1    0    0    0    0  0.00000000000E+00  0.00000000000E+00  0.45593999997E+02  0.45594000000E+02  0.51100000000E-03 0.  1.
         11   -1    0    0    0    0 -0.00000000000E+00 -0.00000000000E+00 -0.45593999997E+02  0.45594000000E+02  0.51100000000E-03 0. -1.
    9900012    2    1    2    0    0 -0.17473423092E+02 -0.11131391560E+02  0.38136516874E+02  0.47787282127E+02  0.20000050529E+02 0.  0.
         12    1    1    2    0    0  0.17473423092E+02  0.11131391560E+02 -0.38136516874E+02  0.43400717873E+02  0.00000000000E+00 0. -1.
         11    1    3    3    0    0  0.17001737849E+01  0.83785885705E+00  0.97204270607E+01  0.99034994253E+01  0.51100000000E-03 0. -1.
        -11    1    3    3    0    0 -0.18412032662E+02 -0.79419199390E+01  0.26815706569E+02  0.33483714820E+02  0.51100000000E-03 0.  1.
         12    1    3    3    0    0 -0.76156421430E+00 -0.40273304785E+01  0.16003832443E+01  0.44000678817E+01  0.00000000000E+00 0. -1.
</event>
<event>
 7    1  0.5559916E-010  0.4778727E+02  0.7816164E-02  0.1312668E+00
        -11   -1    0    0    0    0  0.00000000000E+00  0.00000000000E+00  0.45593999997E+02  0.45594000000E+02  0.51100000000E-03 0.  1.
         11   -1    0    0    0    0 -0.00000000000E+00 -0.00000000000E+00 -0.45593999997E+02  0.45594000000E+02  0.51100000000E-03 0. -1.
    9900012    2    1    2    0    0  0.33155478744E+02 -0.27967783097E+02  0.14630732495E+01  0.47787271373E+02  0.20000001497E+02 0.  0.
         12    1    1    2    0    0 -0.33155478744E+02  0.27967783097E+02 -0.14630732495E+01  0.43400728627E+02  0.00000000000E+00 0. -1.
         11    1    3    3    0    0  0.46037940296E+01 -0.42120732791E+01 -0.62531542340E+01  0.88339356411E+01  0.51100000000E-03 0. -1.
        -11    1    3    3    0    0  0.26854975763E+02 -0.18414440572E+02  0.61919411644E+01  0.33145459424E+02  0.51100000000E-03 0.  1.
         12    1    3    3    0    0  0.16967089512E+01 -0.53412692460E+01  0.15242863191E+01  0.58078763077E+01  0.00000000000E+00 0. -1.
</event>
<event>
 7    1  0.5559916E-010  0.4778727E+02  0.7816164E-02  0.1312668E+00
        -11   -1    0    0    0    0  0.00000000000E+00  0.00000000000E+00  0.45593999997E+02  0.45594000000E+02  0.51100000000E-03 0. -1.
         11   -1    0    0    0    0 -0.00000000000E+00 -0.00000000000E+00 -0.45593999997E+02  0.45594000000E+02  0.51100000000E-03 0.  1.
    9900012    2    1    2    0    0  0.27054270944E+02 -0.10255283247E+02 -0.32349944820E+02  0.47787270275E+02  0.19999996493E+02 0.  0.
         12    1    1    2    0    0 -0.27054270944E+02  0.10255283247E+02  0.32349944820E+02  0.43400729725E+02  0.00000000000E+00 0. -1.
         11    1    3    3    0    0  0.75423339991E+01  0.10021043425E+01 -0.16777702905E+02  0.18422332379E+02  0.51100000000E-03 0. -1.
        -11    1    3    3    0    0  0.10568063321E+02 -0.20825670412E+01 -0.24941822836E+01  0.11056310115E+02  0.51100000000E-03 0.  1.
         12    1    3    3    0    0  0.89438736239E+01 -0.91748205487E+01 -0.13078059631E+02  0.18308627781E+02  0.00000000000E+00 0. -1.
</event>
<event>
 7    1  0.5559916E-010  0.4778727E+02  0.7816164E-02  0.1312668E+00
        -11   -1    0    0    0    0  0.00000000000E+00  0.00000000000E+00  0.45593999997E+02  0.45594000000E+02  0.51100000000E-03 0.  1.
         11   -1    0    0    0    0 -0.00000000000E+00 -0.00000000000E+00 -0.45593999997E+02  0.45594000000E+02  0.51100000000E-03 0. -1.
    9900012    2    1    2    0    0  0.13826773099E+02 -0.28048728892E+01  0.41043594796E+02  0.47787266826E+02  0.19999980766E+02 0.  0.
         12    1    1    2    0    0 -0.13826773099E+02  0.28048728892E+01 -0.41043594796E+02  0.43400733174E+02  0.00000000000E+00 0. -1.
         11    1    3    3    0    0  0.10360396936E+02  0.74578236873E+01  0.16835739962E+02  0.21128158915E+02  0.51100000000E-03 0.  1.
        -11    1    3    3    0    0  0.36799271373E+01 -0.88928610813E+01  0.19410797291E+02  0.21665730860E+02  0.51100000000E-03 0. -1.
        -12    1    3    3    0    0 -0.21355097404E+00 -0.13698354953E+01  0.47970575430E+01  0.49933770510E+01  0.00000000000E+00 0.  1.
</event>
<event>
 7    1  0.5559916E-010  0.4778727E+02  0.7816164E-02  0.1312668E+00
        -11   -1    0    0    0    0  0.00000000000E+00  0.00000000000E+00  0.45593999997E+02  0.45594000000E+02  0.51100000000E-03 0.  1.
         11   -1    0    0    0    0 -0.00000000000E+00 -0.00000000000E+00 -0.45593999997E+02  0.45594000000E+02  0.51100000000E-03 0. -1.
    9900012    2    1    2    0    0  0.13100909271E+02  0.78641734420E+01  0.40621966811E+02  0.47787271489E+02  0.20000002029E+02 0.  0.
         12    1    1    2    0    0 -0.13100909271E+02 -0.78641734420E+01 -0.40621966811E+02  0.43400728511E+02  0.00000000000E+00 0. -1.
         11    1    3    3    0    0  0.16286215863E+01  0.34421756662E+01  0.32968879856E+01  0.50369089965E+01  0.51100000000E-03 0. -1.
        -11    1    3    3    0    0  0.10739977658E+02  0.54676599709E+01  0.10764466561E+02  0.16159089277E+02  0.51100000000E-03 0.  1.
        -12    1    3    3    0    0  0.73231002665E+00 -0.10456621950E+01  0.26560612264E+02  0.26591273216E+02  0.00000000000E+00 0.  1.
</event>
<event>
 7    1  0.5559916E-010  0.4778728E+02  0.7816164E-02  0.1312668E+00
        -11   -1    0    0    0    0  0.00000000000E+00  0.00000000000E+00  0.45593999997E+02  0.45594000000E+02  0.51100000000E-03 0.  1.
         11   -1    0    0    0    0 -0.00000000000E+00 -0.00000000000E+00 -0.45593999997E+02  0.45594000000E+02  0.51100000000E-03 0. -1.
    9900012    2    1    2    0    0  0.34729072258E+01 -0.61585022135E+01  0.42820959066E+02  0.47787276856E+02  0.20000026498E+02 0.  0.
         12    1    1    2    0    0 -0.34729072258E+01  0.61585022135E+01 -0.42820959066E+02  0.43400723144E+02  0.00000000000E+00 0. -1.
         11    1    3    3    0    0 -0.48454187201E-01  0.33522016660E+01  0.96027174008E-01  0.33539268473E+01  0.51100000000E-03 0. -1.
        -11    1    3    3    0    0  0.44161036727E+01 -0.32445073904E+01  0.25501607312E+02  0.26083726260E+02  0.51100000000E-03 0.  1.
         12    1    3    3    0    0 -0.89474225968E+00 -0.62661964891E+01  0.17223324579E+02  0.18349623749E+02  0.00000000000E+00 0. -1.
</event>
<event>
 7    1  0.5559916E-010  0.4778727E+02  0.7816164E-02  0.1312668E+00
        -11   -1    0    0    0    0  0.00000000000E+00  0.00000000000E+00  0.45593999997E+02  0.45594000000E+02  0.51100000000E-03 0.  1.
         11   -1    0    0    0    0 -0.00000000000E+00 -0.00000000000E+00 -0.45593999997E+02  0.45594000000E+02  0.51100000000E-03 0. -1.
    9900012    2    1    2    0    0  0.20244933285E+02  0.41405283465E+01  0.38165718492E+02  0.47787269975E+02  0.19999995124E+02 0.  0.
         12    1    1    2    0    0 -0.20244933285E+02 -0.41405283465E+01 -0.38165718492E+02  0.43400730025E+02  0.00000000000E+00 0. -1.
         11    1    3    3    0    0 -0.12410577180E+01  0.31087514706E+01  0.22171719841E+01  0.40150232669E+01  0.51100000000E-03 0. -1.
        -11    1    3    3    0    0  0.21645880605E+02 -0.19603730957E+01  0.33343749545E+02  0.39801920102E+02  0.51100000000E-03 0.  1.
        -12    1    3    3    0    0 -0.15988960271E+00  0.29921499716E+01  0.26047969631E+01  0.39703266058E+01  0.00000000000E+00 0.  1.
</event>
<event>
 7    1  0.5559916E-010  0.4778727E+02  0.7816164E-02  0.1312668E+00
        -11   -1    0    0    0    0  0.00000000000E+00  0.00000000000E+00  0.45593999997E+02  0.45594000000E+02  0.51100000000E-03 0.  1.
         11   -1    0    0    0    0 -0.00000000000E+00 -0.00000000000E+00 -0.45593999997E+02  0.45594000000E+02  0.51100000000E-03 0. -1.
    9900012    2    1    2    0    0  0.14400942303E+02  0.39654146684E+02  0.10187475435E+02  0.47787272538E+02  0.20000006811E+02 0.  0.
         12    1    1    2    0    0 -0.14400942303E+02 -0.39654146684E+02 -0.10187475435E+02  0.43400727462E+02  0.00000000000E+00 0. -1.
         11    1    3    3    0    0  0.13150524193E+01  0.92946116149E+01  0.18762919262E+01  0.95728595305E+01  0.51100000000E-03 0. -1.
        -11    1    3    3    0    0 -0.17297078428E+01  0.11133100680E+02 -0.26617043971E+01  0.11576808305E+02  0.51100000000E-03 0.  1.
        -12    1    3    3    0    0  0.14815597726E+02  0.19226434390E+02  0.10972887906E+02  0.26637604703E+02  0.00000000000E+00 0.  1.
</event>
<event>
 7    1  0.5559916E-010  0.4778728E+02  0.7816164E-02  0.1312668E+00
        -11   -1    0    0    0    0  0.00000000000E+00  0.00000000000E+00  0.45593999997E+02  0.45594000000E+02  0.51100000000E-03 0.  1.
         11   -1    0    0    0    0 -0.00000000000E+00 -0.00000000000E+00 -0.45593999997E+02  0.45594000000E+02  0.51100000000E-03 0. -1.
    9900012    2    1    2    0    0 -0.93544786317E+01  0.13384034850E+01  0.42359475234E+02  0.47787277236E+02  0.20000028229E+02 0.  0.
         12    1    1    2    0    0  0.93544786317E+01 -0.13384034850E+01 -0.42359475234E+02  0.43400722764E+02  0.00000000000E+00 0. -1.
         11    1    3    3    0    0  0.87058814762E+00 -0.43846071887E+01  0.15911943301E+02  0.16527935256E+02  0.51100000000E-03 0. -1.
        -11    1    3    3    0    0 -0.11805056127E+02  0.11946364321E+01  0.18607089326E+02  0.22068309401E+02  0.51100000000E-03 0.  1.
        -12    1    3    3    0    0  0.15799893475E+01  0.45283742417E+01  0.78404426060E+01  0.91910325790E+01  0.00000000000E+00 0.  1.
</event>
<event>
 7    1  0.5559916E-010  0.4778727E+02  0.7816164E-02  0.1312668E+00
        -11   -1    0    0    0    0  0.00000000000E+00  0.00000000000E+00  0.45593999997E+02  0.45594000000E+02  0.51100000000E-03 0.  1.
         11   -1    0    0    0    0 -0.00000000000E+00 -0.00000000000E+00 -0.45593999997E+02  0.45594000000E+02  0.51100000000E-03 0. -1.
    9900012    2    1    2    0    0 -0.10997759582E+02  0.84839917828E+01  0.41118056787E+02  0.47787269288E+02  0.19999991993E+02 0.  0.
         12    1    1    2    0    0  0.10997759582E+02 -0.84839917828E+01 -0.41118056787E+02  0.43400730712E+02  0.00000000000E+00 0. -1.
         11    1    3    3    0    0 -0.10984219821E+02  0.10522823145E+02  0.30278038049E+02  0.33884251215E+02  0.51100000000E-03 0. -1.
        -11    1    3    3    0    0 -0.35064151195E+01 -0.65733930392E+00  0.90785677632E+01  0.97543546605E+01  0.51100000000E-03 0.  1.
         12    1    3    3    0    0  0.34928753589E+01 -0.13814920582E+01  0.17614509743E+01  0.41486634130E+01  0.00000000000E+00 0. -1.
</event>
<event>
 7    1  0.5559916E-010  0.4778728E+02  0.7816164E-02  0.1312668E+00
        -11   -1    0    0    0    0  0.00000000000E+00  0.00000000000E+00  0.45593999997E+02  0.45594000000E+02  0.51100000000E-03 0.  1.
         11   -1    0    0    0    0 -0.00000000000E+00 -0.00000000000E+00 -0.45593999997E+02  0.45594000000E+02  0.51100000000E-03 0. -1.
    9900012    2    1    2    0    0 -0.12398375045E+02 -0.36007234999E+02  0.20817815971E+02  0.47787284132E+02  0.20000059672E+02 0.  0.
         12    1    1    2    0    0  0.12398375045E+02  0.36007234999E+02 -0.20817815971E+02  0.43400715868E+02  0.00000000000E+00 0. -1.
         11    1    3    3    0    0 -0.15651201735E+01  0.86769538025E+00  0.13717498687E+01  0.22548158226E+01  0.51100000000E-03 0. -1.
        -11    1    3    3    0    0 -0.10149196551E+02 -0.33643224650E+02  0.21909860433E+02  0.41411529070E+02  0.51100000000E-03 0.  1.
        -12    1    3    3    0    0 -0.68405832022E+00 -0.32317057300E+01 -0.24637943309E+01  0.41209392395E+01  0.00000000000E+00 0.  1.
</event>
<event>
 7    1  0.5559916E-010  0.4778727E+02  0.7816164E-02  0.1312668E+00
        -11   -1    0    0    0    0  0.00000000000E+00  0.00000000000E+00  0.45593999997E+02  0.45594000000E+02  0.51100000000E-03 0.  1.
         11   -1    0    0    0    0 -0.00000000000E+00 -0.00000000000E+00 -0.45593999997E+02  0.45594000000E+02  0.51100000000E-03 0. -1.
    9900012    2    1    2    0    0 -0.36575757373E+02 -0.89957108076E+01  0.21561873724E+02  0.47787271448E+02  0.20000001840E+02 0.  0.
         12    1    1    2    0    0  0.36575757373E+02  0.89957108076E+01 -0.21561873724E+02  0.43400728552E+02  0.00000000000E+00 0. -1.
         11    1    3    3    0    0 -0.20264624325E+02  0.24201823527E+01  0.10662784232E+02  0.23026229598E+02  0.51100000000E-03 0. -1.
        -11    1    3    3    0    0 -0.67735480961E+01 -0.62995932611E+01 -0.20821023765E+00  0.92525229440E+01  0.51100000000E-03 0.  1.
         12    1    3    3    0    0 -0.95375849518E+01 -0.51162998992E+01  0.11107299730E+02  0.15508518906E+02  0.00000000000E+00 0. -1.
</event>
<event>
 7    1  0.5559916E-010  0.4778727E+02  0.7816164E-02  0.1312668E+00
        -11   -1    0    0    0    0  0.00000000000E+00  0.00000000000E+00  0.45593999997E+02  0.45594000000E+02  0.51100000000E-03 0.  1.
         11   -1    0    0    0    0 -0.00000000000E+00 -0.00000000000E+00 -0.45593999997E+02  0.45594000000E+02  0.51100000000E-03 0. -1.
    9900012    2    1    2    0    0  0.19471249255E+02  0.23759022132E+02  0.30659460712E+02  0.47787271764E+02  0.20000003282E+02 0.  0.
         12    1    1    2    0    0 -0.19471249255E+02 -0.23759022132E+02 -0.30659460712E+02  0.43400728236E+02  0.00000000000E+00 0. -1.
         11    1    3    3    0    0  0.64148427937E+01  0.19059816616E+02  0.12892874514E+02  0.23888345087E+02  0.51100000000E-03 0. -1.
        -11    1    3    3    0    0  0.13284643432E+02  0.55520742517E+01  0.17935771725E+02  0.22999982331E+02  0.51100000000E-03 0.  1.
        -12    1    3    3    0    0 -0.22823697034E+00 -0.85286873543E+00 -0.16918552701E+00  0.89894434592E+00  0.00000000000E+00 0.  1.
</event>
<event>
 7    1  0.5559916E-010  0.4778728E+02  0.7816164E-02  0.1312668E+00
        -11   -1    0    0    0    0  0.00000000000E+00  0.00000000000E+00  0.45593999997E+02  0.45594000000E+02  0.51100000000E-03 0. -1.
         11   -1    0    0    0    0 -0.00000000000E+00 -0.00000000000E+00 -0.45593999997E+02  0.45594000000E+02  0.51100000000E-03 0.  1.
    9900012    2    1    2    0    0 -0.12236766955E+02 -0.46655311119E+01 -0.41377736233E+02  0.47787277635E+02  0.20000030048E+02 0.  0.
         12    1    1    2    0    0  0.12236766955E+02  0.46655311119E+01  0.41377736233E+02  0.43400722365E+02  0.00000000000E+00 0. -1.
         11    1    3    3    0    0  0.19334624454E+01 -0.54895520338E+01 -0.45283436954E+01  0.73742359227E+01  0.51100000000E-03 0. -1.
        -11    1    3    3    0    0 -0.14297876029E+02 -0.56396875350E+00 -0.27895770389E+02  0.31351576125E+02  0.51100000000E-03 0.  1.
         12    1    3    3    0    0  0.12764662769E+00  0.13879896754E+01 -0.89536221488E+01  0.90614655870E+01  0.00000000000E+00 0. -1.
</event>
<event>
 7    1  0.5559916E-010  0.4778727E+02  0.7816164E-02  0.1312668E+00
        -11   -1    0    0    0    0  0.00000000000E+00  0.00000000000E+00  0.45593999997E+02  0.45594000000E+02  0.51100000000E-03 0.  1.
         11   -1    0    0    0    0 -0.00000000000E+00 -0.00000000000E+00 -0.45593999997E+02  0.45594000000E+02  0.51100000000E-03 0. -1.
    9900012    2    1    2    0    0  0.84181980051E+01 -0.41208598576E+02 -0.10705545865E+02  0.47787269978E+02  0.19999995136E+02 0.  0.
         12    1    1    2    0    0 -0.84181980051E+01  0.41208598576E+02  0.10705545865E+02  0.43400730022E+02  0.00000000000E+00 0. -1.
         11    1    3    3    0    0 -0.36461896195E+01 -0.13055927673E+02 -0.10426286322E+02  0.17101444176E+02  0.51100000000E-03 0. -1.
        -11    1    3    3    0    0  0.96928400544E+01 -0.22127059081E+02 -0.95038181446E+00  0.24175630659E+02  0.51100000000E-03 0.  1.
         12    1    3    3    0    0  0.23715475702E+01 -0.60256118208E+01  0.67112227238E+00  0.65101951428E+01  0.00000000000E+00 0. -1.
</event>
<event>
 7    1  0.5559916E-010  0.4778730E+02  0.7816164E-02  0.1312668E+00
        -11   -1    0    0    0    0  0.00000000000E+00  0.00000000000E+00  0.45593999997E+02  0.45594000000E+02  0.51100000000E-03 0. -1.
         11   -1    0    0    0    0 -0.00000000000E+00 -0.00000000000E+00 -0.45593999997E+02  0.45594000000E+02  0.51100000000E-03 0.  1.
    9900012    2    1    2    0    0  0.11088681620E+00  0.11158505161E+02 -0.41941579296E+02  0.47787301767E+02  0.20000140074E+02 0.  0.
         12    1    1    2    0    0 -0.11088681620E+00 -0.11158505161E+02  0.41941579296E+02  0.43400698233E+02  0.00000000000E+00 0. -1.
         11    1    3    3    0    0  0.61355916439E+01  0.44779076773E+00 -0.18829445409E+02  0.19808937783E+02  0.51100000000E-03 0. -1.
        -11    1    3    3    0    0 -0.76581126119E+01  0.68864405048E+01 -0.20824715793E+02  0.23232273666E+02  0.51100000000E-03 0.  1.
        -12    1    3    3    0    0  0.16334077842E+01  0.38242738888E+01 -0.22874180939E+01  0.47460903176E+01  0.00000000000E+00 0.  1.
</event>
<event>
 7    1  0.5559916E-010  0.4778727E+02  0.7816164E-02  0.1312668E+00
        -11   -1    0    0    0    0  0.00000000000E+00  0.00000000000E+00  0.45593999997E+02  0.45594000000E+02  0.51100000000E-03 0. -1.
         11   -1    0    0    0    0 -0.00000000000E+00 -0.00000000000E+00 -0.45593999997E+02  0.45594000000E+02  0.51100000000E-03 0.  1.
    9900012    2    1    2    0    0  0.50503493661E+01 -0.60864397600E+00 -0.43101589677E+02  0.47787268337E+02  0.19999987655E+02 0.  0.
         12    1    1    2    0    0 -0.50503493661E+01  0.60864397600E+00  0.43101589677E+02  0.43400731663E+02  0.00000000000E+00 0. -1.
         11    1    3    3    0    0  0.21991923263E+01 -0.18326081626E+01  0.76613743202E+00  0.29634213996E+01  0.51100000000E-03 0. -1.
        -11    1    3    3    0    0  0.45464597453E+01  0.28101093123E+01 -0.16200878447E+02  0.17059761817E+02  0.51100000000E-03 0.  1.
         12    1    3    3    0    0 -0.16953027055E+01 -0.15861451257E+01 -0.27666848663E+02  0.27764085120E+02  0.00000000000E+00 0. -1.
</event>
<event>
 7    1  0.5559916E-010  0.4778727E+02  0.7816164E-02  0.1312668E+00
        -11   -1    0    0    0    0  0.00000000000E+00  0.00000000000E+00  0.45593999997E+02  0.45594000000E+02  0.51100000000E-03 0. -1.
         11   -1    0    0    0    0 -0.00000000000E+00 -0.00000000000E+00 -0.45593999997E+02  0.45594000000E+02  0.51100000000E-03 0.  1.
    9900012    2    1    2    0    0 -0.31508307672E+02 -0.98029043613E+01 -0.28191363824E+02  0.47787269816E+02  0.19999994398E+02 0.  0.
         12    1    1    2    0    0  0.31508307672E+02  0.98029043613E+01  0.28191363824E+02  0.43400730184E+02  0.00000000000E+00 0. -1.
         11    1    3    3    0    0 -0.44193105631E+01 -0.51501864249E+01 -0.36621052153E+01  0.77114033051E+01  0.51100000000E-03 0. -1.
        -11    1    3    3    0    0 -0.26643984905E+02 -0.57679442946E+01 -0.16306519228E+02  0.31765920144E+02  0.51100000000E-03 0.  1.
        -12    1    3    3    0    0 -0.44501220379E+00  0.11152263582E+01 -0.82227393811E+01  0.83099463669E+01  0.00000000000E+00 0.  1.
</event>
<event>
 7    1  0.5559916E-010  0.4778727E+02  0.7816164E-02  0.1312668E+00
        -11   -1    0    0    0    0  0.00000000000E+00  0.00000000000E+00  0.45593999997E+02  0.45594000000E+02  0.51100000000E-03 0.  1.
         11   -1    0    0    0    0 -0.00000000000E+00 -0.00000000000E+00 -0.45593999997E+02  0.45594000000E+02  0.51100000000E-03 0. -1.
    9900012    2    1    2    0    0  0.24019043770E+02  0.97060850490E+01  0.34820981236E+02  0.47787270918E+02  0.19999999425E+02 0.  0.
         12    1    1    2    0    0 -0.24019043770E+02 -0.97060850490E+01 -0.34820981236E+02  0.43400729082E+02  0.00000000000E+00 0. -1.
         11    1    3    3    0    0  0.10729528196E+02  0.33893779259E+01  0.52189638022E+01  0.12403557614E+02  0.51100000000E-03 0. -1.
        -11    1    3    3    0    0  0.26214600661E+01  0.25752705650E+01  0.20619731296E+02  0.20944626766E+02  0.51100000000E-03 0.  1.
        -12    1    3    3    0    0  0.10668055508E+02  0.37414365581E+01  0.89822861373E+01  0.14439086539E+02  0.00000000000E+00 0.  1.
</event>
<event>
 7    1  0.5559916E-010  0.4778727E+02  0.7816164E-02  0.1312668E+00
        -11   -1    0    0    0    0  0.00000000000E+00  0.00000000000E+00  0.45593999997E+02  0.45594000000E+02  0.51100000000E-03 0. -1.
         11   -1    0    0    0    0 -0.00000000000E+00 -0.00000000000E+00 -0.45593999997E+02  0.45594000000E+02  0.51100000000E-03 0.  1.
    9900012    2    1    2    0    0 -0.20890050475E+01  0.25074863828E+01 -0.43277846565E+02  0.47787269208E+02  0.19999991625E+02 0.  0.
         12    1    1    2    0    0  0.20890050475E+01 -0.25074863828E+01  0.43277846565E+02  0.43400730792E+02  0.00000000000E+00 0. -1.
         11    1    3    3    0    0 -0.12254407894E+01 -0.58743752709E+01 -0.63314330155E+01  0.87233614073E+01  0.51100000000E-03 0. -1.
        -11    1    3    3    0    0  0.10838163834E+00  0.92800301930E+01 -0.19806731108E+02  0.21873209741E+02  0.51100000000E-03 0.  1.
         12    1    3    3    0    0 -0.97194589646E+00 -0.89816853940E+00 -0.17139682442E+02  0.17190698059E+02  0.00000000000E+00 0. -1.
</event>
<event>
 7    1  0.5559916E-010  0.4778727E+02  0.7816164E-02  0.1312668E+00
        -11   -1    0    0    0    0  0.00000000000E+00  0.00000000000E+00  0.45593999997E+02  0.45594000000E+02  0.51100000000E-03 0. -1.
         11   -1    0    0    0    0 -0.00000000000E+00 -0.00000000000E+00 -0.45593999997E+02  0.45594000000E+02  0.51100000000E-03 0.  1.
    9900012    2    1    2    0    0  0.29445582199E+02  0.27962610787E+02 -0.15319059120E+02  0.47787268608E+02  0.19999988892E+02 0.  0.
         12    1    1    2    0    0 -0.29445582199E+02 -0.27962610787E+02  0.15319059120E+02  0.43400731392E+02  0.00000000000E+00 0. -1.
         11    1    3    3    0    0  0.21133864823E+01  0.30608281688E+01 -0.86972050083E+01  0.94591990528E+01  0.51100000000E-03 0. -1.
        -11    1    3    3    0    0  0.98239284672E-01  0.66768268400E+00 -0.13291763757E+01  0.14906915249E+01  0.51100000000E-03 0.  1.
         12    1    3    3    0    0  0.27233956432E+02  0.24234099934E+02 -0.52926777357E+01  0.36837378030E+02  0.00000000000E+00 0. -1.
</event>
<event>
 7    1  0.5559916E-010  0.4778727E+02  0.7816164E-02  0.1312668E+00
        -11   -1    0    0    0    0  0.00000000000E+00  0.00000000000E+00  0.45593999997E+02  0.45594000000E+02  0.51100000000E-03 0.  1.
         11   -1    0    0    0    0 -0.00000000000E+00 -0.00000000000E+00 -0.45593999997E+02  0.45594000000E+02  0.51100000000E-03 0. -1.
    9900012    2    1    2    0    0 -0.15236932457E+02  0.32053335593E+02  0.24980845331E+02  0.47787273430E+02  0.20000010875E+02 0.  0.
         12    1    1    2    0    0  0.15236932457E+02 -0.32053335593E+02 -0.24980845331E+02  0.43400726570E+02  0.00000000000E+00 0. -1.
         11    1    3    3    0    0 -0.36022538138E+01  0.26457757431E+01 -0.13480075205E+01  0.46683494254E+01  0.51100000000E-03 0. -1.
        -11    1    3    3    0    0 -0.44092969790E+01  0.25605769081E+02  0.20002224310E+02  0.32790033359E+02  0.51100000000E-03 0.  1.
        -12    1    3    3    0    0 -0.72253816646E+01  0.38017907688E+01  0.63266285421E+01  0.10328890645E+02  0.00000000000E+00 0.  1.
</event>
<event>
 7    1  0.5559916E-010  0.4778728E+02  0.7816164E-02  0.1312668E+00
        -11   -1    0    0    0    0  0.00000000000E+00  0.00000000000E+00  0.45593999997E+02  0.45594000000E+02  0.51100000000E-03 0.  1.
         11   -1    0    0    0    0 -0.00000000000E+00 -0.00000000000E+00 -0.45593999997E+02  0.45594000000E+02  0.51100000000E-03 0. -1.
    9900012    2    1    2    0    0 -0.19673336562E+02  0.25349721068E+02 -0.29222840081E+02  0.47787275212E+02  0.20000019002E+02 0.  0.
         12    1    1    2    0    0  0.19673336562E+02 -0.25349721068E+02  0.29222840081E+02  0.43400724788E+02  0.00000000000E+00 0. -1.
         11    1    3    3    0    0 -0.13293076815E+01  0.17203920009E+01 -0.54295364904E+01  0.58486472206E+01  0.51100000000E-03 0. -1.
        -11    1    3    3    0    0 -0.10281166574E+01  0.15212603676E+02 -0.95744453748E+01  0.18004175598E+02  0.51100000000E-03 0.  1.
        -12    1    3    3    0    0 -0.17315912223E+02  0.84167253910E+01 -0.14218858216E+02  0.23934452394E+02  0.00000000000E+00 0.  1.
</event>
<event>
 7    1  0.5559916E-010  0.4778727E+02  0.7816164E-02  0.1312668E+00
        -11   -1    0    0    0    0  0.00000000000E+00  0.00000000000E+00  0.45593999997E+02  0.45594000000E+02  0.51100000000E-03 0. -1.
         11   -1    0    0    0    0 -0.00000000000E+00 -0.00000000000E+00 -0.45593999997E+02  0.45594000000E+02  0.51100000000E-03 0.  1.
    9900012    2    1    2    0    0 -0.30779201987E+02  0.28410454027E+02 -0.11362666528E+02  0.47787270011E+02  0.19999995288E+02 0.  0.
         12    1    1    2    0    0  0.30779201987E+02 -0.28410454027E+02  0.11362666528E+02  0.43400729989E+02  0.00000000000E+00 0. -1.
         11    1    3    3    0    0 -0.13787926423E+01  0.27579452280E+00  0.60389784922E+00  0.15303021410E+01  0.51100000000E-03 0. -1.
        -11    1    3    3    0    0 -0.51079452504E+00  0.60354671809E+01  0.31980629402E+01  0.68494804160E+01  0.51100000000E-03 0.  1.
        -12    1    3    3    0    0 -0.28889614820E+02  0.22099192323E+02 -0.15164627317E+02  0.39407487454E+02  0.00000000000E+00 0.  1.
</event>
<event>
 7    1  0.5559916E-010  0.4778729E+02  0.7816164E-02  0.1312668E+00
        -11   -1    0    0    0    0  0.00000000000E+00  0.00000000000E+00  0.45593999997E+02  0.45594000000E+02  0.51100000000E-03 0.  1.
         11   -1    0    0    0    0 -0.00000000000E+00 -0.00000000000E+00 -0.45593999997E+02  0.45594000000E+02  0.51100000000E-03 0. -1.
    9900012    2    1    2    0    0  0.26317444382E+02 -0.21521169321E+02  0.26978753703E+02  0.47787288495E+02  0.20000079566E+02 0.  0.
         12    1    1    2    0    0 -0.26317444382E+02  0.21521169321E+02 -0.26978753703E+02  0.43400711505E+02  0.00000000000E+00 0. -1.
         11    1    3    3    0    0 -0.24661712392E+01 -0.36639533086E+01 -0.58442656695E-01  0.44170091956E+01  0.51100000000E-03 0. -1.
        -11    1    3    3    0    0  0.24020563520E+02 -0.14197020138E+02  0.22420675158E+02  0.35794266684E+02  0.51100000000E-03 0.  1.
         12    1    3    3    0    0  0.47630521010E+01 -0.36601958739E+01  0.46165212022E+01  0.75760126163E+01  0.00000000000E+00 0. -1.
</event>
<event>
 7    1  0.5559916E-010  0.4778727E+02  0.7816164E-02  0.1312668E+00
        -11   -1    0    0    0    0  0.00000000000E+00  0.00000000000E+00  0.45593999997E+02  0.45594000000E+02  0.51100000000E-03 0.  1.
         11   -1    0    0    0    0 -0.00000000000E+00 -0.00000000000E+00 -0.45593999997E+02  0.45594000000E+02  0.51100000000E-03 0. -1.
    9900012    2    1    2    0    0  0.13117138827E+02 -0.88040606186E+01  0.40423417744E+02  0.47787268249E+02  0.19999987256E+02 0.  0.
         12    1    1    2    0    0 -0.13117138827E+02  0.88040606186E+01 -0.40423417744E+02  0.43400731751E+02  0.00000000000E+00 0. -1.
         11    1    3    3    0    0  0.54849833511E+01  0.40635036380E+01  0.85412309640E+01  0.10933879953E+02  0.51100000000E-03 0. -1.
        -11    1    3    3    0    0  0.96488062684E+01 -0.13039997929E+02  0.29919343193E+02  0.34033925805E+02  0.51100000000E-03 0.  1.
         12    1    3    3    0    0 -0.20166507927E+01  0.17243367192E+00  0.19628435876E+01  0.28194624914E+01  0.00000000000E+00 0. -1.
</event>
<event>
 7    1  0.5559916E-010  0.4778727E+02  0.7816164E-02  0.1312668E+00
        -11   -1    0    0    0    0  0.00000000000E+00  0.00000000000E+00  0.45593999997E+02  0.45594000000E+02  0.51100000000E-03 0. -1.
         11   -1    0    0    0    0 -0.00000000000E+00 -0.00000000000E+00 -0.45593999997E+02  0.45594000000E+02  0.51100000000E-03 0.  1.
    9900012    2    1    2    0    0  0.48211618880E+01 -0.53512415012E+01 -0.42798874744E+02  0.47787273428E+02  0.20000010870E+02 0.  0.
         12    1    1    2    0    0 -0.48211618880E+01  0.53512415012E+01  0.42798874744E+02  0.43400726572E+02  0.00000000000E+00 0. -1.
         11    1    3    3    0    0 -0.28617382903E+01  0.43375648854E+01 -0.46528861273E+01  0.69751963952E+01  0.51100000000E-03 0. -1.
        -11    1    3    3    0    0  0.60642747431E+01 -0.34692968455E+01 -0.27527033166E+02  0.28399806407E+02  0.51100000000E-03 0.  1.
         12    1    3    3    0    0  0.16186254351E+01 -0.62195095411E+01 -0.10618955451E+02  0.12412270626E+02  0.00000000000E+00 0. -1.
</event>
<event>
 7    1  0.5559916E-010  0.4778726E+02  0.7816164E-02  0.1312668E+00
        -11   -1    0    0    0    0  0.00000000000E+00  0.00000000000E+00  0.45593999997E+02  0.45594000000E+02  0.51100000000E-03 0.  1.
         11   -1    0    0    0    0 -0.00000000000E+00 -0.00000000000E+00 -0.45593999997E+02  0.45594000000E+02  0.51100000000E-03 0. -1.
    9900012    2    1    2    0    0  0.81342222824E+01 -0.67651789242E+01  0.42091460772E+02  0.47787259362E+02  0.19999946736E+02 0.  0.
         12    1    1    2    0    0 -0.81342222824E+01  0.67651789242E+01 -0.42091460772E+02  0.43400740638E+02  0.00000000000E+00 0. -1.
         11    1    3    3    0    0 -0.20549986492E+01 -0.25936278204E+01  0.51476655013E+00  0.33488669100E+01  0.51100000000E-03 0. -1.
        -11    1    3    3    0    0  0.10091693657E+02 -0.49445536148E+01  0.42050664748E+02  0.43526420681E+02  0.51100000000E-03 0.  1.
        -12    1    3    3    0    0  0.97527274248E-01  0.77300251099E+00 -0.47397052634E+00  0.91197177097E+00  0.00000000000E+00 0.  1.
</event>
<event>
 7    1  0.5559916E-010  0.4778727E+02  0.7816164E-02  0.1312668E+00
        -11   -1    0    0    0    0  0.00000000000E+00  0.00000000000E+00  0.45593999997E+02  0.45594000000E+02  0.51100000000E-03 0. -1.
         11   -1    0    0    0    0 -0.00000000000E+00 -0.00000000000E+00 -0.45593999997E+02  0.45594000000E+02  0.51100000000E-03 0.  1.
    9900012    2    1    2    0    0  0.31958183265E+02  0.25051472163E+02 -0.15320626501E+02  0.47787270380E+02  0.19999996971E+02 0.  0.
         12    1    1    2    0    0 -0.31958183265E+02 -0.25051472163E+02  0.15320626501E+02  0.43400729620E+02  0.00000000000E+00 0. -1.
         11    1    3    3    0    0  0.90311389069E+01  0.31400565285E+01  0.11548437781E+01  0.96309443655E+01  0.51100000000E-03 0. -1.
        -11    1    3    3    0    0  0.21589698491E+02  0.23672887472E+02 -0.14411981842E+02  0.35131551390E+02  0.51100000000E-03 0.  1.
         12    1    3    3    0    0  0.13373458676E+01 -0.17614718371E+01 -0.20634884372E+01  0.30247746251E+01  0.00000000000E+00 0. -1.
</event>
<event>
 7    1  0.5559916E-010  0.4778727E+02  0.7816164E-02  0.1312668E+00
        -11   -1    0    0    0    0  0.00000000000E+00  0.00000000000E+00  0.45593999997E+02  0.45594000000E+02  0.51100000000E-03 0. -1.
         11   -1    0    0    0    0 -0.00000000000E+00 -0.00000000000E+00 -0.45593999997E+02  0.45594000000E+02  0.51100000000E-03 0.  1.
    9900012    2    1    2    0    0  0.22819391511E+01 -0.27228890399E+02 -0.33719484214E+02  0.47787270348E+02  0.19999996826E+02 0.  0.
         12    1    1    2    0    0 -0.22819391511E+01  0.27228890399E+02  0.33719484214E+02  0.43400729652E+02  0.00000000000E+00 0. -1.
         11    1    3    3    0    0  0.10224350096E+01 -0.20635344833E+02 -0.10844545266E+02  0.23333816491E+02  0.51100000000E-03 0. -1.
        -11    1    3    3    0    0  0.22635589706E+01 -0.66744834100E+01 -0.22057739716E+02  0.23156344912E+02  0.51100000000E-03 0.  1.
        -12    1    3    3    0    0 -0.10040548292E+01  0.80937843892E-01 -0.81719923142E+00  0.12971089462E+01  0.00000000000E+00 0.  1.
</event>
<event>
 7    1  0.5559916E-010  0.4778727E+02  0.7816164E-02  0.1312668E+00
        -11   -1    0    0    0    0  0.00000000000E+00  0.00000000000E+00  0.45593999997E+02  0.45594000000E+02  0.51100000000E-03 0. -1.
         11   -1    0    0    0    0 -0.00000000000E+00 -0.00000000000E+00 -0.45593999997E+02  0.45594000000E+02  0.51100000000E-03 0.  1.
    9900012    2    1    2    0    0  0.20177504301E+02 -0.28804912153E+02 -0.25431645154E+02  0.47787271674E+02  0.20000002871E+02 0.  0.
         12    1    1    2    0    0 -0.20177504301E+02  0.28804912153E+02  0.25431645154E+02  0.43400728326E+02  0.00000000000E+00 0. -1.
         11    1    3    3    0    0  0.14462576494E+02 -0.12631811396E+02 -0.18042760932E+02  0.26349003781E+02  0.51100000000E-03 0.  1.
        -11    1    3    3    0    0  0.25063230741E+01 -0.41905524510E+01  0.25815557590E+01  0.55232975290E+01  0.51100000000E-03 0. -1.
        -12    1    3    3    0    0  0.32086047329E+01 -0.11982548307E+02 -0.99704399815E+01  0.15914970364E+02  0.00000000000E+00 0.  1.
</event>
<event>
 7    1  0.5559916E-010  0.4778727E+02  0.7816164E-02  0.1312668E+00
        -11   -1    0    0    0    0  0.00000000000E+00  0.00000000000E+00  0.45593999997E+02  0.45594000000E+02  0.51100000000E-03 0.  1.
         11   -1    0    0    0    0 -0.00000000000E+00 -0.00000000000E+00 -0.45593999997E+02  0.45594000000E+02  0.51100000000E-03 0. -1.
    9900012    2    1    2    0    0  0.22875867097E+02  0.35680317877E+02 -0.93398728582E+01  0.47787267238E+02  0.19999982644E+02 0.  0.
         12    1    1    2    0    0 -0.22875867097E+02 -0.35680317877E+02  0.93398728582E+01  0.43400732762E+02  0.00000000000E+00 0. -1.
         11    1    3    3    0    0  0.11652034275E+02  0.25672848431E+02 -0.10676760217E+02  0.30147276134E+02  0.51100000000E-03 0. -1.
        -11    1    3    3    0    0  0.64575218133E+01  0.83934378025E+01  0.47013211831E+01  0.11586708214E+02  0.51100000000E-03 0.  1.
         12    1    3    3    0    0  0.47663110090E+01  0.16140316439E+01 -0.33644338240E+01  0.60532828893E+01  0.00000000000E+00 0. -1.
</event>
<event>
 7    1  0.5559916E-010  0.4778727E+02  0.7816164E-02  0.1312668E+00
        -11   -1    0    0    0    0  0.00000000000E+00  0.00000000000E+00  0.45593999997E+02  0.45594000000E+02  0.51100000000E-03 0.  1.
         11   -1    0    0    0    0 -0.00000000000E+00 -0.00000000000E+00 -0.45593999997E+02  0.45594000000E+02  0.51100000000E-03 0. -1.
    9900012    2    1    2    0    0 -0.12929066606E+02  0.24766976751E+02  0.33212343714E+02  0.47787266416E+02  0.19999978896E+02 0.  0.
         12    1    1    2    0    0  0.12929066606E+02 -0.24766976751E+02 -0.33212343714E+02  0.43400733584E+02  0.00000000000E+00 0. -1.
         11    1    3    3    0    0 -0.60765797461E+01  0.11055992595E+02  0.45490376611E+01  0.13410948422E+02  0.51100000000E-03 0. -1.
        -11    1    3    3    0    0 -0.10863076079E+01 -0.71107191986E+00  0.10051258171E+02  0.10134765837E+02  0.51100000000E-03 0.  1.
        -12    1    3    3    0    0 -0.57661792520E+01  0.14422056076E+02  0.18612047882E+02  0.24241552157E+02  0.00000000000E+00 0.  1.
</event>
<event>
 7    1  0.5559916E-010  0.4778727E+02  0.7816164E-02  0.1312668E+00
        -11   -1    0    0    0    0  0.00000000000E+00  0.00000000000E+00  0.45593999997E+02  0.45594000000E+02  0.51100000000E-03 0.  1.
         11   -1    0    0    0    0 -0.00000000000E+00 -0.00000000000E+00 -0.45593999997E+02  0.45594000000E+02  0.51100000000E-03 0. -1.
    9900012    2    1    2    0    0  0.23410358980E+02  0.58507102789E+01  0.36074194569E+02  0.47787271525E+02  0.20000002192E+02 0.  0.
         12    1    1    2    0    0 -0.23410358980E+02 -0.58507102789E+01 -0.36074194569E+02  0.43400728475E+02  0.00000000000E+00 0. -1.
         11    1    3    3    0    0  0.21635005723E+02  0.64635105419E+01  0.25921058534E+02  0.34376615845E+02  0.51100000000E-03 0. -1.
        -11    1    3    3    0    0  0.44427994169E+01  0.21107560445E+01  0.62683458069E+01  0.79678050399E+01  0.51100000000E-03 0.  1.
         12    1    3    3    0    0 -0.26674461601E+01 -0.27235563075E+01  0.38847902276E+01  0.54428506400E+01  0.00000000000E+00 0. -1.
</event>
<event>
 7    1  0.5559916E-010  0.4778727E+02  0.7816164E-02  0.1312668E+00
        -11   -1    0    0    0    0  0.00000000000E+00  0.00000000000E+00  0.45593999997E+02  0.45594000000E+02  0.51100000000E-03 0.  1.
         11   -1    0    0    0    0 -0.00000000000E+00 -0.00000000000E+00 -0.45593999997E+02  0.45594000000E+02  0.51100000000E-03 0. -1.
    9900012    2    1    2    0    0 -0.12939429123E+02  0.49116269605E+01  0.41134782446E+02  0.47787271523E+02  0.20000002181E+02 0.  0.
         12    1    1    2    0    0  0.12939429123E+02 -0.49116269605E+01 -0.41134782446E+02  0.43400728477E+02  0.00000000000E+00 0. -1.
         11    1    3    3    0    0  0.48462198798E+01  0.38019184221E+00  0.67325830234E+01  0.83040994327E+01  0.51100000000E-03 0. -1.
        -11    1    3    3    0    0 -0.10358605934E+02  0.27950433970E+00  0.23000385051E+02  0.25226901362E+02  0.51100000000E-03 0.  1.
         12    1    3    3    0    0 -0.74270430689E+01  0.42519307786E+01  0.11401814372E+02  0.14256270728E+02  0.00000000000E+00 0. -1.
</event>
<event>
 7    1  0.5559916E-010  0.4778727E+02  0.7816164E-02  0.1312668E+00
        -11   -1    0    0    0    0  0.00000000000E+00  0.00000000000E+00  0.45593999997E+02  0.45594000000E+02  0.51100000000E-03 0. -1.
         11   -1    0    0    0    0 -0.00000000000E+00 -0.00000000000E+00 -0.45593999997E+02  0.45594000000E+02  0.51100000000E-03 0.  1.
    9900012    2    1    2    0    0 -0.81297734255E+01  0.57727208440E+01 -0.42239863353E+02  0.47787267541E+02  0.19999984028E+02 0.  0.
         12    1    1    2    0    0  0.81297734255E+01 -0.57727208440E+01  0.42239863353E+02  0.43400732459E+02  0.00000000000E+00 0. -1.
         11    1    3    3    0    0 -0.46593626454E+00 -0.20466541963E+01 -0.27819986737E+02  0.27899060061E+02  0.51100000000E-03 0. -1.
        -11    1    3    3    0    0 -0.52332698878E+01  0.35567654487E+00 -0.87623252874E+01  0.10212343719E+02  0.51100000000E-03 0.  1.
         12    1    3    3    0    0 -0.24305672732E+01  0.74636984955E+01 -0.56575513286E+01  0.96758637618E+01  0.00000000000E+00 0. -1.
</event>
<event>
 7    1  0.6707788E-010  0.4778727E+02  0.7816164E-02  0.1312668E+00
        -11   -1    0    0    0    0  0.00000000000E+00  0.00000000000E+00  0.45593999997E+02  0.45594000000E+02  0.51100000000E-03 0. -1.
         11   -1    0    0    0    0 -0.00000000000E+00 -0.00000000000E+00 -0.45593999997E+02  0.45594000000E+02  0.51100000000E-03 0.  1.
    9900012    2    1    2    0    0 -0.71978363929E+01  0.63625521229E+01 -0.42324133199E+02  0.47787272250E+02  0.20000005495E+02 0.  0.
         12    1    1    2    0    0  0.71978363929E+01 -0.63625521229E+01  0.42324133199E+02  0.43400727750E+02  0.00000000000E+00 0. -1.
         11    1    3    3    0    0 -0.93029392591E+01  0.32185830447E+00 -0.13817817379E+02  0.16660742751E+02  0.51100000000E-03 0. -1.
        -11    1    3    3    0    0  0.13151856994E+01  0.59479070551E+01 -0.29345056757E+02  0.29970646774E+02  0.51100000000E-03 0.  1.
         12    1    3    3    0    0  0.78991716682E+00  0.92786763328E-01  0.83874093695E+00  0.11558827247E+01  0.00000000000E+00 0. -1.
</event>
<event>
 7    1  0.5559916E-010  0.4778726E+02  0.7816164E-02  0.1312668E+00
        -11   -1    0    0    0    0  0.00000000000E+00  0.00000000000E+00  0.45593999997E+02  0.45594000000E+02  0.51100000000E-03 0.  1.
         11   -1    0    0    0    0 -0.00000000000E+00 -0.00000000000E+00 -0.45593999997E+02  0.45594000000E+02  0.51100000000E-03 0. -1.
    9900012    2    1    2    0    0 -0.15500065356E+02 -0.31754567551E+02  0.25199588640E+02  0.47787264361E+02  0.19999969527E+02 0.  0.
         12    1    1    2    0    0  0.15500065356E+02  0.31754567551E+02 -0.25199588640E+02  0.43400735639E+02  0.00000000000E+00 0. -1.
         11    1    3    3    0    0 -0.16156140589E+01 -0.83276937734E-01  0.83343110525E+01  0.84898695406E+01  0.51100000000E-03 0.  1.
        -11    1    3    3    0    0 -0.14139167760E+02 -0.30840052512E+02  0.14719669057E+02  0.36982341209E+02  0.51100000000E-03 0. -1.
        -12    1    3    3    0    0  0.25471646284E+00 -0.83123810169E+00  0.21456085307E+01  0.23150536117E+01  0.00000000000E+00 0.  1.
</event>
<event>
 7    1  0.5559916E-010  0.4778728E+02  0.7816164E-02  0.1312668E+00
        -11   -1    0    0    0    0  0.00000000000E+00  0.00000000000E+00  0.45593999997E+02  0.45594000000E+02  0.51100000000E-03 0.  1.
         11   -1    0    0    0    0 -0.00000000000E+00 -0.00000000000E+00 -0.45593999997E+02  0.45594000000E+02  0.51100000000E-03 0. -1.
    9900012    2    1    2    0    0  0.23164165494E+02  0.10489178581E+02  0.35171305275E+02  0.47787284049E+02  0.20000059291E+02 0.  0.
         12    1    1    2    0    0 -0.23164165494E+02 -0.10489178581E+02 -0.35171305275E+02  0.43400715951E+02  0.00000000000E+00 0. -1.
         11    1    3    3    0    0 -0.12560529085E+01  0.13071280071E+01  0.10979340274E+02  0.11127990189E+02  0.51100000000E-03 0. -1.
        -11    1    3    3    0    0  0.11916225798E+02  0.12614997968E+01  0.15144026946E+02  0.19311379325E+02  0.51100000000E-03 0.  1.
         12    1    3    3    0    0  0.12503992605E+02  0.79205507773E+01  0.90479380550E+01  0.17347914535E+02  0.00000000000E+00 0. -1.
</event>
<event>
 7    1  0.5559916E-010  0.4778723E+02  0.7816164E-02  0.1312668E+00
        -11   -1    0    0    0    0  0.00000000000E+00  0.00000000000E+00  0.45593999997E+02  0.45594000000E+02  0.51100000000E-03 0.  1.
         11   -1    0    0    0    0 -0.00000000000E+00 -0.00000000000E+00 -0.45593999997E+02  0.45594000000E+02  0.51100000000E-03 0. -1.
    9900012    2    1    2    0    0 -0.57145153915E+01  0.15957520949E+01  0.42993308941E+02  0.47787231290E+02  0.19999818743E+02 0.  0.
         12    1    1    2    0    0  0.57145153915E+01 -0.15957520949E+01 -0.42993308941E+02  0.43400768710E+02  0.00000000000E+00 0. -1.
         11    1    3    3    0    0 -0.42895665083E+01  0.35163538181E+01  0.82839786069E+01  0.99694245985E+01  0.51100000000E-03 0. -1.
        -11    1    3    3    0    0  0.61159119420E+01  0.14829216778E+01  0.10587413545E+02  0.12316523918E+02  0.51100000000E-03 0.  1.
        -12    1    3    3    0    0 -0.75408608252E+01 -0.34035234010E+01  0.24121916790E+02  0.25501282774E+02  0.00000000000E+00 0.  1.
</event>
<event>
 7    1  0.5559916E-010  0.4778727E+02  0.7816164E-02  0.1312668E+00
        -11   -1    0    0    0    0  0.00000000000E+00  0.00000000000E+00  0.45593999997E+02  0.45594000000E+02  0.51100000000E-03 0. -1.
         11   -1    0    0    0    0 -0.00000000000E+00 -0.00000000000E+00 -0.45593999997E+02  0.45594000000E+02  0.51100000000E-03 0.  1.
    9900012    2    1    2    0    0  0.34618543718E+02  0.53742126601E+01 -0.25618304318E+02  0.47787271354E+02  0.20000001409E+02 0.  0.
         12    1    1    2    0    0 -0.34618543718E+02 -0.53742126601E+01  0.25618304318E+02  0.43400728646E+02  0.00000000000E+00 0. -1.
         11    1    3    3    0    0  0.41571087076E+00  0.11118205749E+01  0.25675120792E+01  0.28286178704E+01  0.51100000000E-03 0. -1.
        -11    1    3    3    0    0  0.17869869032E+02 -0.65197324689E+00 -0.12830006305E+02  0.22008324570E+02  0.51100000000E-03 0.  1.
         12    1    3    3    0    0  0.16332963816E+02  0.49143653321E+01 -0.15355810092E+02  0.22950328913E+02  0.00000000000E+00 0. -1.
</event>
<event>
 7    1  0.5559916E-010  0.4778727E+02  0.7816164E-02  0.1312668E+00
        -11   -1    0    0    0    0  0.00000000000E+00  0.00000000000E+00  0.45593999997E+02  0.45594000000E+02  0.51100000000E-03 0. -1.
         11   -1    0    0    0    0 -0.00000000000E+00 -0.00000000000E+00 -0.45593999997E+02  0.45594000000E+02  0.51100000000E-03 0.  1.
    9900012    2    1    2    0    0 -0.38423089348E+02 -0.13630868250E+02  0.14882506315E+02  0.47787270069E+02  0.19999995554E+02 0.  0.
         12    1    1    2    0    0  0.38423089348E+02  0.13630868250E+02 -0.14882506315E+02  0.43400729931E+02  0.00000000000E+00 0. -1.
         11    1    3    3    0    0 -0.46014962477E+01  0.13605338749E+01 -0.42094579002E+00  0.48168470769E+01  0.51100000000E-03 0. -1.
        -11    1    3    3    0    0 -0.25712641787E+02 -0.18125085816E+02  0.12097697078E+02  0.33704791326E+02  0.51100000000E-03 0.  1.
        -12    1    3    3    0    0 -0.81089513131E+01  0.31336836907E+01  0.32057550276E+01  0.92656316659E+01  0.00000000000E+00 0.  1.
</event>
<event>
 7    1  0.5559916E-010  0.4778727E+02  0.7816164E-02  0.1312668E+00
        -11   -1    0    0    0    0  0.00000000000E+00  0.00000000000E+00  0.45593999997E+02  0.45594000000E+02  0.51100000000E-03 0.  1.
         11   -1    0    0    0    0 -0.00000000000E+00 -0.00000000000E+00 -0.45593999997E+02  0.45594000000E+02  0.51100000000E-03 0. -1.
    9900012    2    1    2    0    0 -0.11496386050E+02 -0.15517959561E+02  0.38867072137E+02  0.47787271232E+02  0.20000000854E+02 0.  0.
         12    1    1    2    0    0  0.11496386050E+02  0.15517959561E+02 -0.38867072137E+02  0.43400728768E+02  0.00000000000E+00 0. -1.
         11    1    3    3    0    0  0.16254833086E+01  0.19448713848E+01  0.20937616027E+01  0.32876372367E+01  0.51100000000E-03 0. -1.
        -11    1    3    3    0    0 -0.14692031271E+02 -0.13884463001E+02  0.34479725137E+02  0.39968556910E+02  0.51100000000E-03 0.  1.
        -12    1    3    3    0    0  0.15701619122E+01 -0.35783679445E+01  0.22935853969E+01  0.45310770849E+01  0.00000000000E+00 0.  1.
</event>
<event>
 7    1  0.5559916E-010  0.4778727E+02  0.7816164E-02  0.1312668E+00
        -11   -1    0    0    0    0  0.00000000000E+00  0.00000000000E+00  0.45593999997E+02  0.45594000000E+02  0.51100000000E-03 0.  1.
         11   -1    0    0    0    0 -0.00000000000E+00 -0.00000000000E+00 -0.45593999997E+02  0.45594000000E+02  0.51100000000E-03 0. -1.
    9900012    2    1    2    0    0 -0.28167580594E+02 -0.64773043913E+01  0.32376771621E+02  0.47787269484E+02  0.19999992886E+02 0.  0.
         12    1    1    2    0    0  0.28167580594E+02  0.64773043913E+01 -0.32376771621E+02  0.43400730516E+02  0.00000000000E+00 0. -1.
         11    1    3    3    0    0 -0.15779222146E+02  0.20011296371E+00  0.65790957304E+01  0.17097028912E+02  0.51100000000E-03 0. -1.
        -11    1    3    3    0    0 -0.40764894702E+01 -0.62483587742E+01  0.17075741442E+02  0.18634395613E+02  0.51100000000E-03 0.  1.
        -12    1    3    3    0    0 -0.83118689781E+01 -0.42905858075E+00  0.87219344484E+01  0.12055844960E+02  0.00000000000E+00 0.  1.
</event>
<event>
 7    1  0.5559916E-010  0.4778727E+02  0.7816164E-02  0.1312668E+00
        -11   -1    0    0    0    0  0.00000000000E+00  0.00000000000E+00  0.45593999997E+02  0.45594000000E+02  0.51100000000E-03 0.  1.
         11   -1    0    0    0    0 -0.00000000000E+00 -0.00000000000E+00 -0.45593999997E+02  0.45594000000E+02  0.51100000000E-03 0. -1.
    9900012    2    1    2    0    0  0.31095176039E+02 -0.10696483939E+02  0.28324879069E+02  0.47787268256E+02  0.19999987288E+02 0.  0.
         12    1    1    2    0    0 -0.31095176039E+02  0.10696483939E+02 -0.28324879069E+02  0.43400731744E+02  0.00000000000E+00 0. -1.
         11    1    3    3    0    0  0.10301681045E+02 -0.31129066839E+01  0.26291185310E+01  0.11078225711E+02  0.51100000000E-03 0. -1.
        -11    1    3    3    0    0  0.15927287211E+02 -0.67436243144E+01  0.26560568341E+02  0.31695721126E+02  0.51100000000E-03 0.  1.
        -12    1    3    3    0    0  0.48662077824E+01 -0.83995294120E+00 -0.86480780277E+00  0.50133214200E+01  0.00000000000E+00 0.  1.
</event>
<event>
 7    1  0.5559916E-010  0.4778727E+02  0.7816164E-02  0.1312668E+00
        -11   -1    0    0    0    0  0.00000000000E+00  0.00000000000E+00  0.45593999997E+02  0.45594000000E+02  0.51100000000E-03 0. -1.
         11   -1    0    0    0    0 -0.00000000000E+00 -0.00000000000E+00 -0.45593999997E+02  0.45594000000E+02  0.51100000000E-03 0.  1.
    9900012    2    1    2    0    0 -0.16293441414E+02 -0.28427153099E+02 -0.28461272612E+02  0.47787270685E+02  0.19999998360E+02 0.  0.
         12    1    1    2    0    0  0.16293441414E+02  0.28427153099E+02  0.28461272612E+02  0.43400729315E+02  0.00000000000E+00 0. -1.
         11    1    3    3    0    0 -0.15031461330E+02 -0.19674544658E+02 -0.12903201245E+02  0.27919977433E+02  0.51100000000E-03 0. -1.
        -11    1    3    3    0    0 -0.10823536964E+01 -0.10430741797E+02 -0.14426882355E+02  0.17835548735E+02  0.51100000000E-03 0.  1.
         12    1    3    3    0    0 -0.17962638680E+00  0.16781333558E+01 -0.11311890127E+01  0.20317445167E+01  0.00000000000E+00 0. -1.
</event>
<event>
 7    1  0.5559916E-010  0.4778729E+02  0.7816164E-02  0.1312668E+00
        -11   -1    0    0    0    0  0.00000000000E+00  0.00000000000E+00  0.45593999997E+02  0.45594000000E+02  0.51100000000E-03 0. -1.
         11   -1    0    0    0    0 -0.00000000000E+00 -0.00000000000E+00 -0.45593999997E+02  0.45594000000E+02  0.51100000000E-03 0.  1.
    9900012    2    1    2    0    0  0.28938317973E+02  0.11238941282E+02 -0.30329547040E+02  0.47787291804E+02  0.20000094653E+02 0.  0.
         12    1    1    2    0    0 -0.28938317973E+02 -0.11238941282E+02  0.30329547040E+02  0.43400708196E+02  0.00000000000E+00 0. -1.
         11    1    3    3    0    0 -0.27020522491E+01  0.28445344690E+00 -0.10714159683E+01  0.29206048275E+01  0.51100000000E-03 0. -1.
        -11    1    3    3    0    0  0.21116281831E+02  0.64119568099E+01 -0.22706766626E+02  0.31663982684E+02  0.51100000000E-03 0.  1.
         12    1    3    3    0    0  0.10524088390E+02  0.45425310248E+01 -0.65513644458E+01  0.13202704293E+02  0.00000000000E+00 0. -1.
</event>
<event>
 7    1  0.5559916E-010  0.4778727E+02  0.7816164E-02  0.1312668E+00
        -11   -1    0    0    0    0  0.00000000000E+00  0.00000000000E+00  0.45593999997E+02  0.45594000000E+02  0.51100000000E-03 0.  1.
         11   -1    0    0    0    0 -0.00000000000E+00 -0.00000000000E+00 -0.45593999997E+02  0.45594000000E+02  0.51100000000E-03 0. -1.
    9900012    2    1    2    0    0  0.41856196757E+02 -0.55545965929E+01  0.10041324062E+02  0.47787274900E+02  0.20000017581E+02 0.  0.
         12    1    1    2    0    0 -0.41856196757E+02  0.55545965929E+01 -0.10041324062E+02  0.43400725100E+02  0.00000000000E+00 0. -1.
         11    1    3    3    0    0 -0.53494760776E+00 -0.73152992291E+00  0.42265838531E+01  0.43226515358E+01  0.51100000000E-03 0.  1.
        -11    1    3    3    0    0  0.26877728258E+02 -0.57559647504E+01  0.27552011831E+01  0.27624889870E+02  0.51100000000E-03 0. -1.
        -12    1    3    3    0    0  0.15513416106E+02  0.93289808039E+00  0.30595390254E+01  0.15839733494E+02  0.00000000000E+00 0.  1.
</event>
<event>
 7    1  0.5559916E-010  0.4778727E+02  0.7816164E-02  0.1312668E+00
        -11   -1    0    0    0    0  0.00000000000E+00  0.00000000000E+00  0.45593999997E+02  0.45594000000E+02  0.51100000000E-03 0.  1.
         11   -1    0    0    0    0 -0.00000000000E+00 -0.00000000000E+00 -0.45593999997E+02  0.45594000000E+02  0.51100000000E-03 0. -1.
    9900012    2    1    2    0    0  0.87038764624E+01  0.15695579774E+02  0.39516002580E+02  0.47787272474E+02  0.20000006516E+02 0.  0.
         12    1    1    2    0    0 -0.87038764624E+01 -0.15695579774E+02 -0.39516002580E+02  0.43400727526E+02  0.00000000000E+00 0. -1.
         11    1    3    3    0    0 -0.94684838942E+00  0.57900063865E+00 -0.14221420228E+01  0.18039544912E+01  0.51100000000E-03 0. -1.
        -11    1    3    3    0    0  0.11666706579E+02  0.14218695423E+02  0.33406363611E+02  0.38134872124E+02  0.51100000000E-03 0.  1.
        -12    1    3    3    0    0 -0.20159817271E+01  0.89788371269E+00  0.75317809914E+01  0.78484458581E+01  0.00000000000E+00 0.  1.
</event>
<event>
 7    1  0.5559916E-010  0.4778727E+02  0.7816164E-02  0.1312668E+00
        -11   -1    0    0    0    0  0.00000000000E+00  0.00000000000E+00  0.45593999997E+02  0.45594000000E+02  0.51100000000E-03 0.  1.
         11   -1    0    0    0    0 -0.00000000000E+00 -0.00000000000E+00 -0.45593999997E+02  0.45594000000E+02  0.51100000000E-03 0. -1.
    9900012    2    1    2    0    0  0.47165303306E+01  0.10548494326E+02  0.41834276071E+02  0.47787273677E+02  0.20000012005E+02 0.  0.
         12    1    1    2    0    0 -0.47165303306E+01 -0.10548494326E+02 -0.41834276071E+02  0.43400726323E+02  0.00000000000E+00 0. -1.
         11    1    3    3    0    0 -0.57258238097E+01 -0.25480008672E+00  0.20292499400E+02  0.21086382182E+02  0.51100000000E-03 0. -1.
        -11    1    3    3    0    0  0.39762902266E+01  0.74410548201E+01  0.10478564166E+02  0.13452898871E+02  0.51100000000E-03 0.  1.
         12    1    3    3    0    0  0.64660639136E+01  0.33622395926E+01  0.11063212506E+02  0.13247992624E+02  0.00000000000E+00 0. -1.
</event>
<event>
 7    1  0.5559916E-010  0.4778727E+02  0.7816164E-02  0.1312668E+00
        -11   -1    0    0    0    0  0.00000000000E+00  0.00000000000E+00  0.45593999997E+02  0.45594000000E+02  0.51100000000E-03 0. -1.
         11   -1    0    0    0    0 -0.00000000000E+00 -0.00000000000E+00 -0.45593999997E+02  0.45594000000E+02  0.51100000000E-03 0.  1.
    9900012    2    1    2    0    0 -0.19379868430E+02 -0.27492679015E+02 -0.27426206644E+02  0.47787268317E+02  0.19999987562E+02 0.  0.
         12    1    1    2    0    0  0.19379868430E+02  0.27492679015E+02  0.27426206644E+02  0.43400731683E+02  0.00000000000E+00 0. -1.
         11    1    3    3    0    0 -0.10136152322E+02 -0.23550065476E+02 -0.16686520069E+02  0.30590637785E+02  0.51100000000E-03 0.  1.
        -11    1    3    3    0    0 -0.29219185438E+01 -0.58580976831E+01 -0.36041305355E+01  0.74729293867E+01  0.51100000000E-03 0. -1.
         12    1    3    3    0    0 -0.63217975642E+01  0.19154841448E+01 -0.71355560397E+01  0.97237011445E+01  0.00000000000E+00 0. -1.
</event>
<event>
 7    1  0.5559916E-010  0.4778728E+02  0.7816164E-02  0.1312668E+00
        -11   -1    0    0    0    0  0.00000000000E+00  0.00000000000E+00  0.45593999997E+02  0.45594000000E+02  0.51100000000E-03 0.  1.
         11   -1    0    0    0    0 -0.00000000000E+00 -0.00000000000E+00 -0.45593999997E+02  0.45594000000E+02  0.51100000000E-03 0. -1.
    9900012    2    1    2    0    0 -0.44309836728E+01 -0.27109006662E+02  0.33601945722E+02  0.47787278637E+02  0.20000034617E+02 0.  0.
         12    1    1    2    0    0  0.44309836728E+01  0.27109006662E+02 -0.33601945722E+02  0.43400721363E+02  0.00000000000E+00 0. -1.
         11    1    3    3    0    0  0.10779294069E+01  0.30420341734E+00 -0.12154591211E+01  0.16528196095E+01  0.51100000000E-03 0. -1.
        -11    1    3    3    0    0 -0.76957740424E+01 -0.22636341453E+02  0.32610641776E+02  0.40436157703E+02  0.51100000000E-03 0.  1.
         12    1    3    3    0    0  0.21868609627E+01 -0.47768686265E+01  0.22067630672E+01  0.56983013240E+01  0.00000000000E+00 0. -1.
</event>
<event>
 7    1  0.5559916E-010  0.4778728E+02  0.7816164E-02  0.1312668E+00
        -11   -1    0    0    0    0  0.00000000000E+00  0.00000000000E+00  0.45593999997E+02  0.45594000000E+02  0.51100000000E-03 0.  1.
         11   -1    0    0    0    0 -0.00000000000E+00 -0.00000000000E+00 -0.45593999997E+02  0.45594000000E+02  0.51100000000E-03 0. -1.
    9900012    2    1    2    0    0 -0.30689615437E+02 -0.29738362762E+02  0.75762575918E+01  0.47787281175E+02  0.20000046187E+02 0.  0.
         12    1    1    2    0    0  0.30689615437E+02  0.29738362762E+02 -0.75762575918E+01  0.43400718825E+02  0.00000000000E+00 0. -1.
         11    1    3    3    0    0 -0.65104728646E+01 -0.67093879244E+01  0.96335291622E+01  0.13424121112E+02  0.51100000000E-03 0. -1.
        -11    1    3    3    0    0 -0.73924352868E+01 -0.71035286866E+01 -0.42963812635E+01  0.11116074464E+02  0.51100000000E-03 0.  1.
        -12    1    3    3    0    0 -0.16786707286E+02 -0.15925446151E+02  0.22391096931E+01  0.23247085599E+02  0.00000000000E+00 0.  1.
</event>
<event>
 7    1  0.5559916E-010  0.4778727E+02  0.7816164E-02  0.1312668E+00
        -11   -1    0    0    0    0  0.00000000000E+00  0.00000000000E+00  0.45593999997E+02  0.45594000000E+02  0.51100000000E-03 0.  1.
         11   -1    0    0    0    0 -0.00000000000E+00 -0.00000000000E+00 -0.45593999997E+02  0.45594000000E+02  0.51100000000E-03 0. -1.
    9900012    2    1    2    0    0 -0.11230308803E+02 -0.39939771587E+01  0.41731900508E+02  0.47787271788E+02  0.20000003389E+02 0.  0.
         12    1    1    2    0    0  0.11230308803E+02  0.39939771587E+01 -0.41731900508E+02  0.43400728212E+02  0.00000000000E+00 0. -1.
         11    1    3    3    0    0 -0.45967217273E+01 -0.63941561873E+01  0.55744982239E+01  0.96483218590E+01  0.51100000000E-03 0. -1.
        -11    1    3    3    0    0 -0.90897989402E+01  0.25724434004E+01  0.31278464105E+02  0.32673907432E+02  0.51100000000E-03 0.  1.
        -12    1    3    3    0    0  0.24562118649E+01 -0.17226437181E+00  0.48789381788E+01  0.54650424967E+01  0.00000000000E+00 0.  1.
</event>
<event>
 7    1  0.5559916E-010  0.4778726E+02  0.7816164E-02  0.1312668E+00
        -11   -1    0    0    0    0  0.00000000000E+00  0.00000000000E+00  0.45593999997E+02  0.45594000000E+02  0.51100000000E-03 0.  1.
         11   -1    0    0    0    0 -0.00000000000E+00 -0.00000000000E+00 -0.45593999997E+02  0.45594000000E+02  0.51100000000E-03 0. -1.
    9900012    2    1    2    0    0 -0.41430107471E+02  0.12873883826E+02  0.11972886211E+01  0.47787260491E+02  0.19999951883E+02 0.  0.
         12    1    1    2    0    0  0.41430107471E+02 -0.12873883826E+02 -0.11972886211E+01  0.43400739509E+02  0.00000000000E+00 0. -1.
         11    1    3    3    0    0 -0.37074950261E+00  0.34824613908E+01 -0.12456679922E+01  0.37170797059E+01  0.51100000000E-03 0. -1.
        -11    1    3    3    0    0 -0.38576225690E+02  0.75440657397E+01 -0.11553814057E+01  0.39323949736E+02  0.51100000000E-03 0.  1.
         12    1    3    3    0    0 -0.24831322790E+01  0.18473566960E+01  0.35983380190E+01  0.47462310496E+01  0.00000000000E+00 0. -1.
</event>
<event>
 7    1  0.5559916E-010  0.4778727E+02  0.7816164E-02  0.1312668E+00
        -11   -1    0    0    0    0  0.00000000000E+00  0.00000000000E+00  0.45593999997E+02  0.45594000000E+02  0.51100000000E-03 0.  1.
         11   -1    0    0    0    0 -0.00000000000E+00 -0.00000000000E+00 -0.45593999997E+02  0.45594000000E+02  0.51100000000E-03 0. -1.
    9900012    2    1    2    0    0  0.37906652099E+02 -0.45673365159E+01 -0.20636095501E+02  0.47787271046E+02  0.20000000008E+02 0.  0.
         12    1    1    2    0    0 -0.37906652099E+02  0.45673365159E+01  0.20636095501E+02  0.43400728954E+02  0.00000000000E+00 0. -1.
         11    1    3    3    0    0  0.21720501751E+02 -0.37244057123E+01 -0.13940146911E+02  0.26076408694E+02  0.51100000000E-03 0. -1.
        -11    1    3    3    0    0 -0.42888804462E+00 -0.36579232597E+01 -0.21168687731E+01  0.42479973154E+01  0.51100000000E-03 0.  1.
        -12    1    3    3    0    0  0.16615038393E+02  0.28149924560E+01 -0.45790798163E+01  0.17462865037E+02  0.00000000000E+00 0.  1.
</event>
<event>
 7    1  0.5559916E-010  0.4778728E+02  0.7816164E-02  0.1312668E+00
        -11   -1    0    0    0    0  0.00000000000E+00  0.00000000000E+00  0.45593999997E+02  0.45594000000E+02  0.51100000000E-03 0.  1.
         11   -1    0    0    0    0 -0.00000000000E+00 -0.00000000000E+00 -0.45593999997E+02  0.45594000000E+02  0.51100000000E-03 0. -1.
    9900012    2    1    2    0    0 -0.20228998339E+02 -0.33533899702E+02  0.18705279907E+02  0.47787282271E+02  0.20000051186E+02 0.  0.
         12    1    1    2    0    0  0.20228998339E+02  0.33533899702E+02 -0.18705279907E+02  0.43400717729E+02  0.00000000000E+00 0. -1.
         11    1    3    3    0    0 -0.29936539184E+01 -0.21196607277E+02  0.83055190874E+01  0.22961702276E+02  0.51100000000E-03 0.  1.
        -11    1    3    3    0    0 -0.11401372963E+02 -0.11820531744E+02  0.92770490160E+01  0.18862129118E+02  0.51100000000E-03 0. -1.
         12    1    3    3    0    0 -0.58339714576E+01 -0.51676068093E+00  0.11227118034E+01  0.59634508770E+01  0.00000000000E+00 0. -1.
</event>
<event>
 7    1  0.5559916E-010  0.4778727E+02  0.7816164E-02  0.1312668E+00
        -11   -1    0    0    0    0  0.00000000000E+00  0.00000000000E+00  0.45593999997E+02  0.45594000000E+02  0.51100000000E-03 0.  1.
         11   -1    0    0    0    0 -0.00000000000E+00 -0.00000000000E+00 -0.45593999997E+02  0.45594000000E+02  0.51100000000E-03 0. -1.
    9900012    2    1    2    0    0  0.28965404163E+02 -0.18601973702E+02  0.26430953479E+02  0.47787269986E+02  0.19999995172E+02 0.  0.
         12    1    1    2    0    0 -0.28965404163E+02  0.18601973702E+02 -0.26430953479E+02  0.43400730014E+02  0.00000000000E+00 0. -1.
         11    1    3    3    0    0  0.49314266635E+01 -0.21316335502E+00  0.87051447355E+01  0.10007195046E+02  0.51100000000E-03 0. -1.
        -11    1    3    3    0    0  0.22350902292E+02 -0.11297960667E+02  0.17380128237E+02  0.30484022148E+02  0.51100000000E-03 0.  1.
        -12    1    3    3    0    0  0.16830752077E+01 -0.70908496798E+01  0.34568050695E+00  0.72960527923E+01  0.00000000000E+00 0.  1.
</event>
<event>
 7    1  0.5559916E-010  0.4778727E+02  0.7816164E-02  0.1312668E+00
        -11   -1    0    0    0    0  0.00000000000E+00  0.00000000000E+00  0.45593999997E+02  0.45594000000E+02  0.51100000000E-03 0.  1.
         11   -1    0    0    0    0 -0.00000000000E+00 -0.00000000000E+00 -0.45593999997E+02  0.45594000000E+02  0.51100000000E-03 0. -1.
    9900012    2    1    2    0    0  0.17236546117E+02  0.14479087256E+02  0.37106343288E+02  0.47787271872E+02  0.20000003774E+02 0.  0.
         12    1    1    2    0    0 -0.17236546117E+02 -0.14479087256E+02 -0.37106343288E+02  0.43400728128E+02  0.00000000000E+00 0. -1.
         11    1    3    3    0    0  0.12397258353E+02 -0.24542592784E+00  0.15052055166E+02  0.19501707965E+02  0.51100000000E-03 0. -1.
        -11    1    3    3    0    0  0.52128360570E+01  0.94674148286E+01  0.19791173268E+02  0.22549859044E+02  0.51100000000E-03 0.  1.
         12    1    3    3    0    0 -0.37354829314E+00  0.52570983550E+01  0.22631148538E+01  0.57357048637E+01  0.00000000000E+00 0. -1.
</event>
<event>
 7    1  0.5559916E-010  0.4778727E+02  0.7816164E-02  0.1312668E+00
        -11   -1    0    0    0    0  0.00000000000E+00  0.00000000000E+00  0.45593999997E+02  0.45594000000E+02  0.51100000000E-03 0.  1.
         11   -1    0    0    0    0 -0.00000000000E+00 -0.00000000000E+00 -0.45593999997E+02  0.45594000000E+02  0.51100000000E-03 0. -1.
    9900012    2    1    2    0    0  0.11085864055E+02  0.29893682136E+02  0.29446472996E+02  0.47787269760E+02  0.19999994144E+02 0.  0.
         12    1    1    2    0    0 -0.11085864055E+02 -0.29893682136E+02 -0.29446472996E+02  0.43400730240E+02  0.00000000000E+00 0. -1.
         11    1    3    3    0    0 -0.29918111200E+01  0.11881333734E+02  0.77755144680E+01  0.14511224986E+02  0.51100000000E-03 0. -1.
        -11    1    3    3    0    0  0.77822100595E+01  0.10844416279E+02  0.19265109309E+02  0.23437333355E+02  0.51100000000E-03 0.  1.
         12    1    3    3    0    0  0.62954651159E+01  0.71679321221E+01  0.24058492190E+01  0.98387114195E+01  0.00000000000E+00 0. -1.
</event>
<event>
 7    1  0.5559916E-010  0.4778727E+02  0.7816164E-02  0.1312668E+00
        -11   -1    0    0    0    0  0.00000000000E+00  0.00000000000E+00  0.45593999997E+02  0.45594000000E+02  0.51100000000E-03 0.  1.
         11   -1    0    0    0    0 -0.00000000000E+00 -0.00000000000E+00 -0.45593999997E+02  0.45594000000E+02  0.51100000000E-03 0. -1.
    9900012    2    1    2    0    0  0.21052187887E+02 -0.26902562965E+02  0.26770897915E+02  0.47787268622E+02  0.19999988957E+02 0.  0.
         12    1    1    2    0    0 -0.21052187887E+02  0.26902562965E+02 -0.26770897915E+02  0.43400731378E+02  0.00000000000E+00 0. -1.
         11    1    3    3    0    0  0.77505129506E+01 -0.74693895225E+01 -0.77799885047E-01  0.10764213112E+02  0.51100000000E-03 0. -1.
        -11    1    3    3    0    0  0.41735321624E+01 -0.12276155438E+02  0.19056525221E+02  0.23049371289E+02  0.51100000000E-03 0.  1.
        -12    1    3    3    0    0  0.91281427737E+01 -0.71570180048E+01  0.77921725792E+01  0.13973684221E+02  0.00000000000E+00 0.  1.
</event>
<event>
 7    1  0.5559916E-010  0.4778728E+02  0.7816164E-02  0.1312668E+00
        -11   -1    0    0    0    0  0.00000000000E+00  0.00000000000E+00  0.45593999997E+02  0.45594000000E+02  0.51100000000E-03 0. -1.
         11   -1    0    0    0    0 -0.00000000000E+00 -0.00000000000E+00 -0.45593999997E+02  0.45594000000E+02  0.51100000000E-03 0.  1.
    9900012    2    1    2    0    0  0.27268053711E+02  0.21236555552E+02  0.26250416851E+02  0.47787280769E+02  0.20000044340E+02 0.  0.
         12    1    1    2    0    0 -0.27268053711E+02 -0.21236555552E+02 -0.26250416851E+02  0.43400719231E+02  0.00000000000E+00 0. -1.
         11    1    3    3    0    0  0.14637126454E+02  0.88472354495E+01  0.23702217314E+02  0.29228652925E+02  0.51100000000E-03 0. -1.
        -11    1    3    3    0    0  0.10222957319E+02  0.10790600250E+02  0.39005941121E+01  0.15367515895E+02  0.51100000000E-03 0.  1.
         12    1    3    3    0    0  0.24079699368E+01  0.15987198529E+01 -0.13523945753E+01  0.31911119491E+01  0.00000000000E+00 0. -1.
</event>
<event>
 7    1  0.5559916E-010  0.4778727E+02  0.7816164E-02  0.1312668E+00
        -11   -1    0    0    0    0  0.00000000000E+00  0.00000000000E+00  0.45593999997E+02  0.45594000000E+02  0.51100000000E-03 0.  1.
         11   -1    0    0    0    0 -0.00000000000E+00 -0.00000000000E+00 -0.45593999997E+02  0.45594000000E+02  0.51100000000E-03 0. -1.
    9900012    2    1    2    0    0 -0.21037571746E+02 -0.72489371241E+00  0.37954158271E+02  0.47787273901E+02  0.20000013026E+02 0.  0.
         12    1    1    2    0    0  0.21037571746E+02  0.72489371241E+00 -0.37954158271E+02  0.43400726099E+02  0.00000000000E+00 0. -1.
         11    1    3    3    0    0 -0.96132652618E+01  0.33245024027E+01  0.31602314479E+02  0.33198997965E+02  0.51100000000E-03 0.  1.
        -11    1    3    3    0    0 -0.39418049074E+01 -0.40398776403E+01  0.25129554796E+01  0.61784611984E+01  0.51100000000E-03 0. -1.
        -12    1    3    3    0    0 -0.74825015767E+01 -0.95184748459E-02  0.38388883121E+01  0.84098147375E+01  0.00000000000E+00 0.  1.
</event>
<event>
 7    1  0.5559916E-010  0.4778727E+02  0.7816164E-02  0.1312668E+00
        -11   -1    0    0    0    0  0.00000000000E+00  0.00000000000E+00  0.45593999997E+02  0.45594000000E+02  0.51100000000E-03 0. -1.
         11   -1    0    0    0    0 -0.00000000000E+00 -0.00000000000E+00 -0.45593999997E+02  0.45594000000E+02  0.51100000000E-03 0.  1.
    9900012    2    1    2    0    0  0.59668491529E+01  0.42970056127E+02 -0.12626847038E+01  0.47787269764E+02  0.19999994161E+02 0.  0.
         12    1    1    2    0    0 -0.59668491529E+01 -0.42970056127E+02  0.12626847038E+01  0.43400730236E+02  0.00000000000E+00 0. -1.
         11    1    3    3    0    0  0.32038499456E+01  0.20162624113E+01  0.15378885750E+01  0.40859601216E+01  0.51100000000E-03 0. -1.
        -11    1    3    3    0    0  0.61299737650E+01  0.37588052875E+02 -0.50819028247E+01  0.38422181535E+02  0.51100000000E-03 0.  1.
        -12    1    3    3    0    0 -0.33669745576E+01  0.33657408405E+01  0.22813295459E+01  0.52791281073E+01  0.00000000000E+00 0.  1.
</event>
<event>
 7    1  0.5559916E-010  0.4778727E+02  0.7816164E-02  0.1312668E+00
        -11   -1    0    0    0    0  0.00000000000E+00  0.00000000000E+00  0.45593999997E+02  0.45594000000E+02  0.51100000000E-03 0.  1.
         11   -1    0    0    0    0 -0.00000000000E+00 -0.00000000000E+00 -0.45593999997E+02  0.45594000000E+02  0.51100000000E-03 0. -1.
    9900012    2    1    2    0    0 -0.16341217402E+02  0.70783820105E+01  0.39578841206E+02  0.47787267872E+02  0.19999985535E+02 0.  0.
         12    1    1    2    0    0  0.16341217402E+02 -0.70783820105E+01 -0.39578841206E+02  0.43400732128E+02  0.00000000000E+00 0. -1.
         11    1    3    3    0    0 -0.82254614325E+01  0.13066954188E+02  0.17820689523E+02  0.23579238386E+02  0.51100000000E-03 0. -1.
        -11    1    3    3    0    0 -0.13463913976E+01 -0.28405600742E+01  0.67044372832E+01  0.74047978282E+01  0.51100000000E-03 0.  1.
         12    1    3    3    0    0 -0.67693645719E+01 -0.31480121035E+01  0.15053714399E+02  0.16803231657E+02  0.00000000000E+00 0. -1.
</event>
<event>
 7    1  0.5559916E-010  0.4778727E+02  0.7816164E-02  0.1312668E+00
        -11   -1    0    0    0    0  0.00000000000E+00  0.00000000000E+00  0.45593999997E+02  0.45594000000E+02  0.51100000000E-03 0.  1.
         11   -1    0    0    0    0 -0.00000000000E+00 -0.00000000000E+00 -0.45593999997E+02  0.45594000000E+02  0.51100000000E-03 0. -1.
    9900012    2    1    2    0    0  0.30390915783E+02 -0.26785421438E+02  0.15574241769E+02  0.47787267628E+02  0.19999984422E+02 0.  0.
         12    1    1    2    0    0 -0.30390915783E+02  0.26785421438E+02 -0.15574241769E+02  0.43400732372E+02  0.00000000000E+00 0. -1.
         11    1    3    3    0    0 -0.27201550489E+01 -0.70884593673E+00  0.19000338111E+01  0.33929094884E+01  0.51100000000E-03 0. -1.
        -11    1    3    3    0    0  0.18436392947E+02 -0.15745042331E+02  0.88621431364E+01  0.25813649958E+02  0.51100000000E-03 0.  1.
         12    1    3    3    0    0  0.14674677885E+02 -0.10331533170E+02  0.48120648211E+01  0.18580708181E+02  0.00000000000E+00 0. -1.
</event>
<event>
 7    1  0.5559916E-010  0.4778727E+02  0.7816164E-02  0.1312668E+00
        -11   -1    0    0    0    0  0.00000000000E+00  0.00000000000E+00  0.45593999997E+02  0.45594000000E+02  0.51100000000E-03 0. -1.
         11   -1    0    0    0    0 -0.00000000000E+00 -0.00000000000E+00 -0.45593999997E+02  0.45594000000E+02  0.51100000000E-03 0.  1.
    9900012    2    1    2    0    0 -0.34743785866E+02 -0.69924303565E+00 -0.26000066595E+02  0.47787273507E+02  0.20000011230E+02 0.  0.
         12    1    1    2    0    0  0.34743785866E+02  0.69924303565E+00  0.26000066595E+02  0.43400726493E+02  0.00000000000E+00 0. -1.
         11    1    3    3    0    0 -0.13095044358E+02  0.26396211902E+01 -0.13727699306E+01  0.13428785660E+02  0.51100000000E-03 0. -1.
        -11    1    3    3    0    0 -0.20325585445E+02 -0.42842300747E+01 -0.25178810077E+02  0.32641331594E+02  0.51100000000E-03 0.  1.
        -12    1    3    3    0    0 -0.13231560628E+01  0.94536584884E+00  0.55151341288E+00  0.17171562536E+01  0.00000000000E+00 0.  1.
</event>
<event>
 7    1  0.5559916E-010  0.4778728E+02  0.7816164E-02  0.1312668E+00
        -11   -1    0    0    0    0  0.00000000000E+00  0.00000000000E+00  0.45593999997E+02  0.45594000000E+02  0.51100000000E-03 0.  1.
         11   -1    0    0    0    0 -0.00000000000E+00 -0.00000000000E+00 -0.45593999997E+02  0.45594000000E+02  0.51100000000E-03 0. -1.
    9900012    2    1    2    0    0 -0.11835292497E+02 -0.45606722800E+01  0.41506006655E+02  0.47787280322E+02  0.20000042298E+02 0.  0.
         12    1    1    2    0    0  0.11835292497E+02  0.45606722800E+01 -0.41506006655E+02  0.43400719678E+02  0.00000000000E+00 0. -1.
         11    1    3    3    0    0 -0.58185674789E+00 -0.18674151750E+01  0.28166790261E+02  0.28234621843E+02  0.51100000000E-03 0. -1.
        -11    1    3    3    0    0 -0.10210416837E+02 -0.97592591279E+00  0.14072482107E+02  0.17413781792E+02  0.51100000000E-03 0.  1.
         12    1    3    3    0    0 -0.10430189121E+01 -0.17173311922E+01 -0.73326571357E+00  0.21388766869E+01  0.00000000000E+00 0. -1.
</event>
<event>
 7    1  0.5559916E-010  0.4778727E+02  0.7816164E-02  0.1312668E+00
        -11   -1    0    0    0    0  0.00000000000E+00  0.00000000000E+00  0.45593999997E+02  0.45594000000E+02  0.51100000000E-03 0.  1.
         11   -1    0    0    0    0 -0.00000000000E+00 -0.00000000000E+00 -0.45593999997E+02  0.45594000000E+02  0.51100000000E-03 0. -1.
    9900012    2    1    2    0    0 -0.23179909448E+02 -0.30682212510E+01  0.36563658806E+02  0.47787270410E+02  0.19999997109E+02 0.  0.
         12    1    1    2    0    0  0.23179909448E+02  0.30682212510E+01 -0.36563658806E+02  0.43400729590E+02  0.00000000000E+00 0. -1.
         11    1    3    3    0    0 -0.45082537549E+01 -0.25188347955E+00  0.18624811355E+02  0.19164326116E+02  0.51100000000E-03 0. -1.
        -11    1    3    3    0    0 -0.86567928919E+01 -0.48654847809E+01  0.27315637267E+01  0.10299244923E+02  0.51100000000E-03 0.  1.
        -12    1    3    3    0    0 -0.10014862801E+02  0.20491470095E+01  0.15207283723E+02  0.18323699371E+02  0.00000000000E+00 0.  1.
</event>
<event>
 7    1  0.5559916E-010  0.4778727E+02  0.7816164E-02  0.1312668E+00
        -11   -1    0    0    0    0  0.00000000000E+00  0.00000000000E+00  0.45593999997E+02  0.45594000000E+02  0.51100000000E-03 0. -1.
         11   -1    0    0    0    0 -0.00000000000E+00 -0.00000000000E+00 -0.45593999997E+02  0.45594000000E+02  0.51100000000E-03 0.  1.
    9900012    2    1    2    0    0 -0.16589158010E+02  0.36647243829E+02 -0.16291193310E+02  0.47787267020E+02  0.19999981652E+02 0.  0.
         12    1    1    2    0    0  0.16589158010E+02 -0.36647243829E+02  0.16291193310E+02  0.43400732980E+02  0.00000000000E+00 0. -1.
         11    1    3    3    0    0 -0.12715171361E+02  0.30720411278E+02 -0.58422998346E+01  0.33757246918E+02  0.51100000000E-03 0. -1.
        -11    1    3    3    0    0 -0.32813425491E+01  0.70659804725E+01 -0.99849355637E+01  0.12664684261E+02  0.51100000000E-03 0.  1.
         12    1    3    3    0    0 -0.59264409982E+00 -0.11391479216E+01 -0.46395791143E+00  0.13653358415E+01  0.00000000000E+00 0. -1.
</event>
<event>
 7    1  0.5559916E-010  0.4778727E+02  0.7816164E-02  0.1312668E+00
        -11   -1    0    0    0    0  0.00000000000E+00  0.00000000000E+00  0.45593999997E+02  0.45594000000E+02  0.51100000000E-03 0.  1.
         11   -1    0    0    0    0 -0.00000000000E+00 -0.00000000000E+00 -0.45593999997E+02  0.45594000000E+02  0.51100000000E-03 0. -1.
    9900012    2    1    2    0    0  0.23088107503E+02  0.58169089164E+01  0.36286719942E+02  0.47787272108E+02  0.20000004847E+02 0.  0.
         12    1    1    2    0    0 -0.23088107503E+02 -0.58169089164E+01 -0.36286719942E+02  0.43400727892E+02  0.00000000000E+00 0. -1.
         11    1    3    3    0    0 -0.15729412378E+01  0.31870273905E+01 -0.29062596060E+00  0.35659152311E+01  0.51100000000E-03 0. -1.
        -11    1    3    3    0    0  0.15231703216E+02  0.86037181483E+00  0.22738903876E+02  0.27382526770E+02  0.51100000000E-03 0.  1.
         12    1    3    3    0    0  0.94293455246E+01  0.17695097110E+01  0.13838442027E+02  0.16838830107E+02  0.00000000000E+00 0. -1.
</event>
<event>
 7    1  0.5559916E-010  0.4778727E+02  0.7816164E-02  0.1312668E+00
        -11   -1    0    0    0    0  0.00000000000E+00  0.00000000000E+00  0.45593999997E+02  0.45594000000E+02  0.51100000000E-03 0. -1.
         11   -1    0    0    0    0 -0.00000000000E+00 -0.00000000000E+00 -0.45593999997E+02  0.45594000000E+02  0.51100000000E-03 0.  1.
    9900012    2    1    2    0    0  0.94889845954E+01 -0.42103959914E+02  0.45649855149E+01  0.47787270031E+02  0.19999995378E+02 0.  0.
         12    1    1    2    0    0 -0.94889845954E+01  0.42103959914E+02 -0.45649855149E+01  0.43400729969E+02  0.00000000000E+00 0. -1.
         11    1    3    3    0    0  0.14972528410E+01  0.10229476562E+01  0.23824813554E+01  0.29940617306E+01  0.51100000000E-03 0. -1.
        -11    1    3    3    0    0  0.37828044343E+00 -0.22756544752E+02  0.34013228762E+01  0.23012440608E+02  0.51100000000E-03 0.  1.
         12    1    3    3    0    0  0.76134513110E+01 -0.20370362818E+02 -0.12188187167E+01  0.21780767692E+02  0.00000000000E+00 0. -1.
</event>
<event>
 7    1  0.5559916E-010  0.4778729E+02  0.7816164E-02  0.1312668E+00
        -11   -1    0    0    0    0  0.00000000000E+00  0.00000000000E+00  0.45593999997E+02  0.45594000000E+02  0.51100000000E-03 0.  1.
         11   -1    0    0    0    0 -0.00000000000E+00 -0.00000000000E+00 -0.45593999997E+02  0.45594000000E+02  0.51100000000E-03 0. -1.
    9900012    2    1    2    0    0  0.26897111622E+02  0.68012840599E+01  0.33375280955E+02  0.47787291973E+02  0.20000095419E+02 0.  0.
         12    1    1    2    0    0 -0.26897111622E+02 -0.68012840599E+01 -0.33375280955E+02  0.43400708027E+02  0.00000000000E+00 0. -1.
         11    1    3    3    0    0  0.10205066441E+02  0.99361416342E+01  0.59651547480E+01  0.15441935211E+02  0.51100000000E-03 0. -1.
        -11    1    3    3    0    0  0.14325891486E+01  0.43990216477E+00  0.22671981117E+01  0.27177220465E+01  0.51100000000E-03 0.  1.
         12    1    3    3    0    0  0.15259456032E+02 -0.35747597390E+01  0.25142928095E+02  0.29627634715E+02  0.00000000000E+00 0. -1.
</event>
<event>
 7    1  0.5559916E-010  0.4778727E+02  0.7816164E-02  0.1312668E+00
        -11   -1    0    0    0    0  0.00000000000E+00  0.00000000000E+00  0.45593999997E+02  0.45594000000E+02  0.51100000000E-03 0.  1.
         11   -1    0    0    0    0 -0.00000000000E+00 -0.00000000000E+00 -0.45593999997E+02  0.45594000000E+02  0.51100000000E-03 0. -1.
    9900012    2    1    2    0    0 -0.24723332199E+02 -0.18326818899E+02  0.30602416235E+02  0.47787270451E+02  0.19999997294E+02 0.  0.
         12    1    1    2    0    0  0.24723332199E+02  0.18326818899E+02 -0.30602416235E+02  0.43400729549E+02  0.00000000000E+00 0. -1.
         11    1    3    3    0    0 -0.65146729623E+01 -0.11138440865E+02  0.14689884861E+02  0.19552456270E+02  0.51100000000E-03 0. -1.
        -11    1    3    3    0    0 -0.17123450863E+02 -0.11543260545E+01  0.12350825743E+02  0.21144453999E+02  0.51100000000E-03 0.  1.
         12    1    3    3    0    0 -0.10852083730E+01 -0.60340519796E+01  0.35617056311E+01  0.70903601818E+01  0.00000000000E+00 0. -1.
</event>
<event>
 7    1  0.5559916E-010  0.4778727E+02  0.7816164E-02  0.1312668E+00
        -11   -1    0    0    0    0  0.00000000000E+00  0.00000000000E+00  0.45593999997E+02  0.45594000000E+02  0.51100000000E-03 0.  1.
         11   -1    0    0    0    0 -0.00000000000E+00 -0.00000000000E+00 -0.45593999997E+02  0.45594000000E+02  0.51100000000E-03 0. -1.
    9900012    2    1    2    0    0 -0.16236836542E+02 -0.13634815033E+02  0.37869250254E+02  0.47787272394E+02  0.20000006155E+02 0.  0.
         12    1    1    2    0    0  0.16236836542E+02  0.13634815033E+02 -0.37869250254E+02  0.43400727606E+02  0.00000000000E+00 0. -1.
         11    1    3    3    0    0  0.79431826431E+00  0.93783386439E+00  0.12315753745E+01  0.17399000047E+01  0.51100000000E-03 0. -1.
        -11    1    3    3    0    0  0.29661393769E+01 -0.28310168371E+01  0.95263582581E+01  0.10371313372E+02  0.51100000000E-03 0.  1.
        -12    1    3    3    0    0 -0.19997294183E+02 -0.11741632060E+02  0.27111316622E+02  0.35676059018E+02  0.00000000000E+00 0.  1.
</event>
<event>
 7    1  0.5559916E-010  0.4778727E+02  0.7816164E-02  0.1312668E+00
        -11   -1    0    0    0    0  0.00000000000E+00  0.00000000000E+00  0.45593999997E+02  0.45594000000E+02  0.51100000000E-03 0.  1.
         11   -1    0    0    0    0 -0.00000000000E+00 -0.00000000000E+00 -0.45593999997E+02  0.45594000000E+02  0.51100000000E-03 0. -1.
    9900012    2    1    2    0    0 -0.29130752558E+02  0.31418180586E+02 -0.69224583006E+01  0.47787271379E+02  0.20000001524E+02 0.  0.
         12    1    1    2    0    0  0.29130752558E+02 -0.31418180586E+02  0.69224583006E+01  0.43400728621E+02  0.00000000000E+00 0. -1.
         11    1    3    3    0    0 -0.10403480843E+02  0.16364256572E+02 -0.11883596873E+02  0.22742936963E+02  0.51100000000E-03 0. -1.
        -11    1    3    3    0    0 -0.90134534007E+01  0.72821909878E+01 -0.16654980884E+00  0.11588804377E+02  0.51100000000E-03 0.  1.
         12    1    3    3    0    0 -0.97138183150E+01  0.77717330264E+01  0.51276883815E+01  0.13455530039E+02  0.00000000000E+00 0. -1.
</event>
<event>
 7    1  0.5559916E-010  0.4778727E+02  0.7816164E-02  0.1312668E+00
        -11   -1    0    0    0    0  0.00000000000E+00  0.00000000000E+00  0.45593999997E+02  0.45594000000E+02  0.51100000000E-03 0.  1.
         11   -1    0    0    0    0 -0.00000000000E+00 -0.00000000000E+00 -0.45593999997E+02  0.45594000000E+02  0.51100000000E-03 0. -1.
    9900012    2    1    2    0    0 -0.20766632571E+02  0.33349403970E+02  0.18444177900E+02  0.47787268763E+02  0.19999989598E+02 0.  0.
         12    1    1    2    0    0  0.20766632571E+02 -0.33349403970E+02 -0.18444177900E+02  0.43400731237E+02  0.00000000000E+00 0. -1.
         11    1    3    3    0    0 -0.21957849100E+02  0.29638184604E+02  0.16145190952E+02  0.40264578910E+02  0.51100000000E-03 0. -1.
        -11    1    3    3    0    0 -0.16507146364E+01  0.37357804258E+01  0.22863355595E+01  0.46806243977E+01  0.51100000000E-03 0.  1.
         12    1    3    3    0    0  0.28419311649E+01 -0.24561059214E-01  0.12651387889E-01  0.28420654548E+01  0.00000000000E+00 0. -1.
</event>
<event>
 7    1  0.5559916E-010  0.4778727E+02  0.7816164E-02  0.1312668E+00
        -11   -1    0    0    0    0  0.00000000000E+00  0.00000000000E+00  0.45593999997E+02  0.45594000000E+02  0.51100000000E-03 0.  1.
         11   -1    0    0    0    0 -0.00000000000E+00 -0.00000000000E+00 -0.45593999997E+02  0.45594000000E+02  0.51100000000E-03 0. -1.
    9900012    2    1    2    0    0 -0.14112276301E+01  0.23847832312E+02  0.36234137653E+02  0.47787269581E+02  0.19999993328E+02 0.  0.
         12    1    1    2    0    0  0.14112276301E+01 -0.23847832312E+02 -0.36234137653E+02  0.43400730419E+02  0.00000000000E+00 0. -1.
         11    1    3    3    0    0 -0.30120895284E+01  0.41790028172E+01  0.19565188226E+02  0.20231988000E+02  0.51100000000E-03 0. -1.
        -11    1    3    3    0    0 -0.27515368270E+01  0.11082481633E+02  0.12872181148E+02  0.17207132295E+02  0.51100000000E-03 0.  1.
         12    1    3    3    0    0  0.43523987253E+01  0.85863478620E+01  0.37967682799E+01  0.10348149286E+02  0.00000000000E+00 0. -1.
</event>
<event>
 7    1  0.5559916E-010  0.4778727E+02  0.7816164E-02  0.1312668E+00
        -11   -1    0    0    0    0  0.00000000000E+00  0.00000000000E+00  0.45593999997E+02  0.45594000000E+02  0.51100000000E-03 0.  1.
         11   -1    0    0    0    0 -0.00000000000E+00 -0.00000000000E+00 -0.45593999997E+02  0.45594000000E+02  0.51100000000E-03 0. -1.
    9900012    2    1    2    0    0 -0.10264628591E+02 -0.17436397762E+02  0.38395740333E+02  0.47787269099E+02  0.19999991128E+02 0.  0.
         12    1    1    2    0    0  0.10264628591E+02  0.17436397762E+02 -0.38395740333E+02  0.43400730901E+02  0.00000000000E+00 0. -1.
         11    1    3    3    0    0  0.15585355034E+01  0.21214504661E+01  0.37302095118E+01  0.45655282562E+01  0.51100000000E-03 0. -1.
        -11    1    3    3    0    0 -0.13366354331E+02 -0.14774223075E+02  0.31531233872E+02  0.37298201100E+02  0.51100000000E-03 0.  1.
        -12    1    3    3    0    0  0.15431902361E+01 -0.47836251529E+01  0.31342969495E+01  0.59235397421E+01  0.00000000000E+00 0.  1.
</event>
<event>
 7    1  0.5559916E-010  0.4778727E+02  0.7816164E-02  0.1312668E+00
        -11   -1    0    0    0    0  0.00000000000E+00  0.00000000000E+00  0.45593999997E+02  0.45594000000E+02  0.51100000000E-03 0.  1.
         11   -1    0    0    0    0 -0.00000000000E+00 -0.00000000000E+00 -0.45593999997E+02  0.45594000000E+02  0.51100000000E-03 0. -1.
    9900012    2    1    2    0    0  0.24866616046E+02 -0.31083712853E+02  0.17293853320E+02  0.47787272345E+02  0.20000005930E+02 0.  0.
         12    1    1    2    0    0 -0.24866616046E+02  0.31083712853E+02 -0.17293853320E+02  0.43400727655E+02  0.00000000000E+00 0. -1.
         11    1    3    3    0    0  0.61671397402E+01 -0.10501503932E+02 -0.15796853239E+01  0.12280496871E+02  0.51100000000E-03 0.  1.
        -11    1    3    3    0    0  0.39458241599E+01 -0.12770988289E+01  0.77378798122E+01  0.87792536111E+01  0.51100000000E-03 0. -1.
         12    1    3    3    0    0  0.14753652146E+02 -0.19305110092E+02  0.11135658832E+02  0.26727521863E+02  0.00000000000E+00 0. -1.
</event>
<event>
 7    1  0.5559916E-010  0.4778727E+02  0.7816164E-02  0.1312668E+00
        -11   -1    0    0    0    0  0.00000000000E+00  0.00000000000E+00  0.45593999997E+02  0.45594000000E+02  0.51100000000E-03 0. -1.
         11   -1    0    0    0    0 -0.00000000000E+00 -0.00000000000E+00 -0.45593999997E+02  0.45594000000E+02  0.51100000000E-03 0.  1.
    9900012    2    1    2    0    0  0.24781202233E+02 -0.57806188598E+01 -0.35158216699E+02  0.47787265675E+02  0.19999975518E+02 0.  0.
         12    1    1    2    0    0 -0.24781202233E+02  0.57806188598E+01  0.35158216699E+02  0.43400734325E+02  0.00000000000E+00 0. -1.
         11    1    3    3    0    0 -0.31883725157E+01  0.10123534459E+01 -0.23151893240E+01  0.40682527780E+01  0.51100000000E-03 0. -1.
        -11    1    3    3    0    0  0.19059862804E+02 -0.50148489313E+01 -0.21118360627E+02  0.28886194553E+02  0.51100000000E-03 0.  1.
         12    1    3    3    0    0  0.89097119447E+01 -0.17781233744E+01 -0.11724666748E+02  0.14832818344E+02  0.00000000000E+00 0. -1.
</event>
<event>
 7    1  0.5559916E-010  0.4778727E+02  0.7816164E-02  0.1312668E+00
        -11   -1    0    0    0    0  0.00000000000E+00  0.00000000000E+00  0.45593999997E+02  0.45594000000E+02  0.51100000000E-03 0. -1.
         11   -1    0    0    0    0 -0.00000000000E+00 -0.00000000000E+00 -0.45593999997E+02  0.45594000000E+02  0.51100000000E-03 0.  1.
    9900012    2    1    2    0    0 -0.34786143865E+02 -0.25202461011E+02 -0.61954308100E+01  0.47787271792E+02  0.20000003410E+02 0.  0.
         12    1    1    2    0    0  0.34786143865E+02  0.25202461011E+02  0.61954308100E+01  0.43400728208E+02  0.00000000000E+00 0. -1.
         11    1    3    3    0    0 -0.74835150827E+01 -0.78457729521E+01  0.54240344208E+01  0.12123502005E+02  0.51100000000E-03 0. -1.
        -11    1    3    3    0    0 -0.12107707628E+02 -0.10612444329E+02 -0.10017537937E+02  0.18962373934E+02  0.51100000000E-03 0.  1.
         12    1    3    3    0    0 -0.15194921155E+02 -0.67442437305E+01 -0.16019272938E+01  0.16701395853E+02  0.00000000000E+00 0. -1.
</event>
<event>
 7    1  0.5559916E-010  0.4778727E+02  0.7816164E-02  0.1312668E+00
        -11   -1    0    0    0    0  0.00000000000E+00  0.00000000000E+00  0.45593999997E+02  0.45594000000E+02  0.51100000000E-03 0.  1.
         11   -1    0    0    0    0 -0.00000000000E+00 -0.00000000000E+00 -0.45593999997E+02  0.45594000000E+02  0.51100000000E-03 0. -1.
    9900012    2    1    2    0    0  0.12790561642E+01  0.22243159171E+02  0.37245527027E+02  0.47787269613E+02  0.19999993476E+02 0.  0.
         12    1    1    2    0    0 -0.12790561642E+01 -0.22243159171E+02 -0.37245527027E+02  0.43400730387E+02  0.00000000000E+00 0. -1.
         11    1    3    3    0    0  0.30186382636E+01  0.90101908989E+01  0.66123122917E+01  0.11576631250E+02  0.51100000000E-03 0. -1.
        -11    1    3    3    0    0 -0.17319097474E-01 -0.26336300281E+01  0.86693129385E+01  0.90605349822E+01  0.51100000000E-03 0.  1.
        -12    1    3    3    0    0 -0.17222630019E+01  0.15866598301E+02  0.21963901796E+02  0.27150103381E+02  0.00000000000E+00 0.  1.
</event>
<event>
 7    1  0.5559916E-010  0.4778727E+02  0.7816164E-02  0.1312668E+00
        -11   -1    0    0    0    0  0.00000000000E+00  0.00000000000E+00  0.45593999997E+02  0.45594000000E+02  0.51100000000E-03 0.  1.
         11   -1    0    0    0    0 -0.00000000000E+00 -0.00000000000E+00 -0.45593999997E+02  0.45594000000E+02  0.51100000000E-03 0. -1.
    9900012    2    1    2    0    0  0.14886186241E+02 -0.16600926721E+02  0.37234855623E+02  0.47787265190E+02  0.19999973306E+02 0.  0.
         12    1    1    2    0    0 -0.14886186241E+02  0.16600926721E+02 -0.37234855623E+02  0.43400734810E+02  0.00000000000E+00 0. -1.
         11    1    3    3    0    0  0.91060089100E+01 -0.20849822646E+01  0.31217227885E+01  0.98494519006E+01  0.51100000000E-03 0. -1.
        -11    1    3    3    0    0  0.62782616779E+01 -0.85806595830E+01  0.21166328969E+02  0.23686658077E+02  0.51100000000E-03 0.  1.
         12    1    3    3    0    0 -0.49808434722E+00 -0.59352848736E+01  0.12946803866E+02  0.14251155213E+02  0.00000000000E+00 0. -1.
</event>
<event>
 7    1  0.5559916E-010  0.4778726E+02  0.7816164E-02  0.1312668E+00
        -11   -1    0    0    0    0  0.00000000000E+00  0.00000000000E+00  0.45593999997E+02  0.45594000000E+02  0.51100000000E-03 0.  1.
         11   -1    0    0    0    0 -0.00000000000E+00 -0.00000000000E+00 -0.45593999997E+02  0.45594000000E+02  0.51100000000E-03 0. -1.
    9900012    2    1    2    0    0  0.14313519531E+02 -0.40639324004E+02  0.52146292859E+01  0.47787264344E+02  0.19999969450E+02 0.  0.
         12    1    1    2    0    0 -0.14313519531E+02  0.40639324004E+02 -0.52146292859E+01  0.43400735656E+02  0.00000000000E+00 0. -1.
         11    1    3    3    0    0  0.18262919656E+01 -0.25626662696E+02  0.82825772025E+01  0.26993744992E+02  0.51100000000E-03 0. -1.
        -11    1    3    3    0    0  0.10727783919E+02 -0.15395761793E+02 -0.28424146355E+01  0.18978781579E+02  0.51100000000E-03 0.  1.
         12    1    3    3    0    0  0.17594436465E+01  0.38310048483E+00 -0.22553328109E+00  0.18147377738E+01  0.00000000000E+00 0. -1.
</event>
<event>
 7    1  0.5559916E-010  0.4778727E+02  0.7816164E-02  0.1312668E+00
        -11   -1    0    0    0    0  0.00000000000E+00  0.00000000000E+00  0.45593999997E+02  0.45594000000E+02  0.51100000000E-03 0.  1.
         11   -1    0    0    0    0 -0.00000000000E+00 -0.00000000000E+00 -0.45593999997E+02  0.45594000000E+02  0.51100000000E-03 0. -1.
    9900012    2    1    2    0    0 -0.31988320322E+02  0.10774557075E+02  0.27281485191E+02  0.47787272456E+02  0.20000006434E+02 0.  0.
         12    1    1    2    0    0  0.31988320322E+02 -0.10774557075E+02 -0.27281485191E+02  0.43400727544E+02  0.00000000000E+00 0. -1.
         11    1    3    3    0    0 -0.16852628242E+01  0.20868706972E+01 -0.15012664234E+01  0.30739130158E+01  0.51100000000E-03 0. -1.
        -11    1    3    3    0    0 -0.23995886984E+02  0.10553672451E+02  0.27536433093E+02  0.38018912953E+02  0.51100000000E-03 0.  1.
        -12    1    3    3    0    0 -0.63071705138E+01 -0.18659860729E+01  0.12463185208E+01  0.66944464872E+01  0.00000000000E+00 0.  1.
</event>
<event>
 7    1  0.5559916E-010  0.4778727E+02  0.7816164E-02  0.1312668E+00
        -11   -1    0    0    0    0  0.00000000000E+00  0.00000000000E+00  0.45593999997E+02  0.45594000000E+02  0.51100000000E-03 0. -1.
         11   -1    0    0    0    0 -0.00000000000E+00 -0.00000000000E+00 -0.45593999997E+02  0.45594000000E+02  0.51100000000E-03 0.  1.
    9900012    2    1    2    0    0  0.42353754403E+02 -0.56744094263E+01 -0.75883927584E+01  0.47787272598E+02  0.20000007082E+02 0.  0.
         12    1    1    2    0    0 -0.42353754403E+02  0.56744094263E+01  0.75883927584E+01  0.43400727402E+02  0.00000000000E+00 0. -1.
         11    1    3    3    0    0  0.52043442618E+00  0.88575396839E+00  0.12775943202E+01  0.16394083056E+01  0.51100000000E-03 0. -1.
        -11    1    3    3    0    0  0.18554717640E+02 -0.44827932189E+01  0.39507030042E+01  0.19493102273E+02  0.51100000000E-03 0.  1.
        -12    1    3    3    0    0  0.23278602337E+02 -0.20773701758E+01 -0.12816690083E+02  0.26654762019E+02  0.00000000000E+00 0.  1.
</event>
<event>
 7    1  0.5559916E-010  0.4778727E+02  0.7816164E-02  0.1312668E+00
        -11   -1    0    0    0    0  0.00000000000E+00  0.00000000000E+00  0.45593999997E+02  0.45594000000E+02  0.51100000000E-03 0.  1.
         11   -1    0    0    0    0 -0.00000000000E+00 -0.00000000000E+00 -0.45593999997E+02  0.45594000000E+02  0.51100000000E-03 0. -1.
    9900012    2    1    2    0    0 -0.23554980204E+01 -0.27617577926E+02  0.33396769415E+02  0.47787272025E+02  0.20000004469E+02 0.  0.
         12    1    1    2    0    0  0.23554980204E+01  0.27617577926E+02 -0.33396769415E+02  0.43400727975E+02  0.00000000000E+00 0. -1.
         11    1    3    3    0    0  0.24196411830E+01 -0.23073204428E+01  0.16625502899E+02  0.16958353044E+02  0.51100000000E-03 0. -1.
        -11    1    3    3    0    0 -0.18279376342E+01 -0.14656392038E+02  0.10476887973E+02  0.18108461155E+02  0.51100000000E-03 0.  1.
         12    1    3    3    0    0 -0.29472015692E+01 -0.10653865446E+02  0.62943785432E+01  0.12720457825E+02  0.00000000000E+00 0. -1.
</event>
<event>
 7    1  0.5559916E-010  0.4778728E+02  0.7816164E-02  0.1312668E+00
        -11   -1    0    0    0    0  0.00000000000E+00  0.00000000000E+00  0.45593999997E+02  0.45594000000E+02  0.51100000000E-03 0.  1.
         11   -1    0    0    0    0 -0.00000000000E+00 -0.00000000000E+00 -0.45593999997E+02  0.45594000000E+02  0.51100000000E-03 0. -1.
    9900012    2    1    2    0    0  0.30875965943E+02 -0.14408941462E+01  0.30466719559E+02  0.47787280541E+02  0.20000043299E+02 0.  0.
         12    1    1    2    0    0 -0.30875965943E+02  0.14408941462E+01 -0.30466719559E+02  0.43400719459E+02  0.00000000000E+00 0. -1.
         11    1    3    3    0    0  0.29431086738E+01  0.15791337159E+01 -0.21438230818E+01  0.39688196767E+01  0.51100000000E-03 0. -1.
        -11    1    3    3    0    0  0.24163260704E+02  0.31834789468E-01  0.29137338223E+02  0.37852987468E+02  0.51100000000E-03 0.  1.
        -12    1    3    3    0    0  0.37695965655E+01 -0.30518626516E+01  0.34732044180E+01  0.59654733961E+01  0.00000000000E+00 0.  1.
</event>
<event>
 7    1  0.5559916E-010  0.4778727E+02  0.7816164E-02  0.1312668E+00
        -11   -1    0    0    0    0  0.00000000000E+00  0.00000000000E+00  0.45593999997E+02  0.45594000000E+02  0.51100000000E-03 0. -1.
         11   -1    0    0    0    0 -0.00000000000E+00 -0.00000000000E+00 -0.45593999997E+02  0.45594000000E+02  0.51100000000E-03 0.  1.
    9900012    2    1    2    0    0  0.25474927483E+02  0.35128528891E+02 -0.79850248214E+00  0.47787273294E+02  0.20000010259E+02 0.  0.
         12    1    1    2    0    0 -0.25474927483E+02 -0.35128528891E+02  0.79850248214E+00  0.43400726706E+02  0.00000000000E+00 0. -1.
         11    1    3    3    0    0  0.18068726514E+02  0.31965958781E+02  0.23511176491E+01  0.36794417418E+02  0.51100000000E-03 0. -1.
        -11    1    3    3    0    0  0.55649843186E+01  0.40246942393E+01 -0.47960720702E+01  0.83767250014E+01  0.51100000000E-03 0.  1.
         12    1    3    3    0    0  0.18412166502E+01 -0.86212412935E+00  0.16464519390E+01  0.26161308750E+01  0.00000000000E+00 0. -1.
</event>
<event>
 7    1  0.5559916E-010  0.4778727E+02  0.7816164E-02  0.1312668E+00
        -11   -1    0    0    0    0  0.00000000000E+00  0.00000000000E+00  0.45593999997E+02  0.45594000000E+02  0.51100000000E-03 0.  1.
         11   -1    0    0    0    0 -0.00000000000E+00 -0.00000000000E+00 -0.45593999997E+02  0.45594000000E+02  0.51100000000E-03 0. -1.
    9900012    2    1    2    0    0  0.38303963708E+02  0.54605560931E+01  0.19662457237E+02  0.47787268057E+02  0.19999986378E+02 0.  0.
         12    1    1    2    0    0 -0.38303963708E+02 -0.54605560931E+01 -0.19662457237E+02  0.43400731943E+02  0.00000000000E+00 0. -1.
         11    1    3    3    0    0  0.15834133220E+02  0.90539717778E+01  0.43079955994E+01  0.18741745013E+02  0.51100000000E-03 0. -1.
        -11    1    3    3    0    0  0.20870357724E+02 -0.10133468673E+01  0.15484533679E+02  0.26007104547E+02  0.51100000000E-03 0.  1.
        -12    1    3    3    0    0  0.15994727638E+01 -0.25800688174E+01 -0.13007204163E+00  0.30384184966E+01  0.00000000000E+00 0.  1.
</event>
<event>
 7    1  0.5559916E-010  0.4778727E+02  0.7816164E-02  0.1312668E+00
        -11   -1    0    0    0    0  0.00000000000E+00  0.00000000000E+00  0.45593999997E+02  0.45594000000E+02  0.51100000000E-03 0.  1.
         11   -1    0    0    0    0 -0.00000000000E+00 -0.00000000000E+00 -0.45593999997E+02  0.45594000000E+02  0.51100000000E-03 0. -1.
    9900012    2    1    2    0    0 -0.53410611271E+01  0.40942244965E+02  0.13372704045E+02  0.47787267631E+02  0.19999984437E+02 0.  0.
         12    1    1    2    0    0  0.53410611271E+01 -0.40942244965E+02 -0.13372704045E+02  0.43400732369E+02  0.00000000000E+00 0. -1.
         11    1    3    3    0    0  0.19535743554E+01 -0.58805232716E+00  0.33333030595E+01  0.39080900513E+01  0.51100000000E-03 0. -1.
        -11    1    3    3    0    0 -0.30707527373E+01  0.31239483365E+02  0.55174395931E+01  0.31871256379E+02  0.51100000000E-03 0.  1.
        -12    1    3    3    0    0 -0.42238827453E+01  0.10290813927E+02  0.45219613920E+01  0.12007921200E+02  0.00000000000E+00 0.  1.
</event>
<event>
 7    1  0.5559916E-010  0.4778726E+02  0.7816164E-02  0.1312668E+00
        -11   -1    0    0    0    0  0.00000000000E+00  0.00000000000E+00  0.45593999997E+02  0.45594000000E+02  0.51100000000E-03 0.  1.
         11   -1    0    0    0    0 -0.00000000000E+00 -0.00000000000E+00 -0.45593999997E+02  0.45594000000E+02  0.51100000000E-03 0. -1.
    9900012    2    1    2    0    0 -0.36483596417E+00 -0.16368020363E+02  0.40194271083E+02  0.47787255492E+02  0.19999929092E+02 0.  0.
         12    1    1    2    0    0  0.36483596417E+00  0.16368020363E+02 -0.40194271083E+02  0.43400744508E+02  0.00000000000E+00 0. -1.
         11    1    3    3    0    0 -0.14277977694E+01  0.41803609896E+01  0.63174166866E+01  0.77086820097E+01  0.51100000000E-03 0. -1.
        -11    1    3    3    0    0  0.33546340528E+01 -0.15237206624E+02  0.25627542177E+02  0.30003282381E+02  0.51100000000E-03 0.  1.
         12    1    3    3    0    0 -0.22916722475E+01 -0.53111747292E+01  0.82493122196E+01  0.10075291102E+02  0.00000000000E+00 0. -1.
</event>
<event>
 7    1  0.5559916E-010  0.4778726E+02  0.7816164E-02  0.1312668E+00
        -11   -1    0    0    0    0  0.00000000000E+00  0.00000000000E+00  0.45593999997E+02  0.45594000000E+02  0.51100000000E-03 0.  1.
         11   -1    0    0    0    0 -0.00000000000E+00 -0.00000000000E+00 -0.45593999997E+02  0.45594000000E+02  0.51100000000E-03 0. -1.
    9900012    2    1    2    0    0 -0.10456745729E+02 -0.17738658077E+02  0.38204978164E+02  0.47787264083E+02  0.19999968259E+02 0.  0.
         12    1    1    2    0    0  0.10456745729E+02  0.17738658077E+02 -0.38204978164E+02  0.43400735917E+02  0.00000000000E+00 0. -1.
         11    1    3    3    0    0 -0.83098505713E+01 -0.16634013278E+02  0.26915516054E+02  0.32713743579E+02  0.51100000000E-03 0. -1.
        -11    1    3    3    0    0 -0.50718302496E+01 -0.20948045842E+01  0.10559852439E+02  0.11900510582E+02  0.51100000000E-03 0.  1.
         12    1    3    3    0    0  0.29249350916E+01  0.99015978461E+00  0.72960967151E+00  0.31730099215E+01  0.00000000000E+00 0. -1.
</event>
<event>
 7    1  0.5559916E-010  0.4778727E+02  0.7816164E-02  0.1312668E+00
        -11   -1    0    0    0    0  0.00000000000E+00  0.00000000000E+00  0.45593999997E+02  0.45594000000E+02  0.51100000000E-03 0. -1.
         11   -1    0    0    0    0 -0.00000000000E+00 -0.00000000000E+00 -0.45593999997E+02  0.45594000000E+02  0.51100000000E-03 0.  1.
    9900012    2    1    2    0    0  0.13084317136E+02  0.29250402974E+02 -0.29271793663E+02  0.47787270360E+02  0.19999996877E+02 0.  0.
         12    1    1    2    0    0 -0.13084317136E+02 -0.29250402974E+02  0.29271793663E+02  0.43400729640E+02  0.00000000000E+00 0. -1.
         11    1    3    3    0    0  0.23340599831E+00  0.82543526727E+00  0.24637880381E+01  0.26088452423E+01  0.51100000000E-03 0. -1.
        -11    1    3    3    0    0  0.21958570012E+01  0.96296497225E+01 -0.14480901111E+02  0.17528503615E+02  0.51100000000E-03 0.  1.
         12    1    3    3    0    0  0.10655054137E+02  0.18795317984E+02 -0.17254680590E+02  0.27649921502E+02  0.00000000000E+00 0. -1.
</event>
<event>
 7    1  0.5559916E-010  0.4778727E+02  0.7816164E-02  0.1312668E+00
        -11   -1    0    0    0    0  0.00000000000E+00  0.00000000000E+00  0.45593999997E+02  0.45594000000E+02  0.51100000000E-03 0.  1.
         11   -1    0    0    0    0 -0.00000000000E+00 -0.00000000000E+00 -0.45593999997E+02  0.45594000000E+02  0.51100000000E-03 0. -1.
    9900012    2    1    2    0    0 -0.26427603389E+02  0.73981532038E+01  0.33622493800E+02  0.47787274418E+02  0.20000015382E+02 0.  0.
         12    1    1    2    0    0  0.26427603389E+02 -0.73981532038E+01 -0.33622493800E+02  0.43400725582E+02  0.00000000000E+00 0. -1.
         11    1    3    3    0    0 -0.70148689667E+01 -0.12511446159E+00  0.76391392077E+00  0.70574503178E+01  0.51100000000E-03 0. -1.
        -11    1    3    3    0    0 -0.13484342822E+02  0.96779009866E+01  0.28764944831E+02  0.33210108706E+02  0.51100000000E-03 0.  1.
         12    1    3    3    0    0 -0.59283916000E+01 -0.21546333211E+01  0.40936350477E+01  0.75197153945E+01  0.00000000000E+00 0. -1.
</event>
<event>
 7    1  0.5559916E-010  0.4778727E+02  0.7816164E-02  0.1312668E+00
        -11   -1    0    0    0    0  0.00000000000E+00  0.00000000000E+00  0.45593999997E+02  0.45594000000E+02  0.51100000000E-03 0.  1.
         11   -1    0    0    0    0 -0.00000000000E+00 -0.00000000000E+00 -0.45593999997E+02  0.45594000000E+02  0.51100000000E-03 0. -1.
    9900012    2    1    2    0    0  0.27595068870E+02  0.26364383735E+02  0.20665306090E+02  0.47787269229E+02  0.19999991723E+02 0.  0.
         12    1    1    2    0    0 -0.27595068870E+02 -0.26364383735E+02 -0.20665306090E+02  0.43400730771E+02  0.00000000000E+00 0. -1.
         11    1    3    3    0    0  0.10858677503E+02  0.19812120703E+02  0.11208818669E+02  0.25220400871E+02  0.51100000000E-03 0.  1.
        -11    1    3    3    0    0  0.18048160448E+02  0.61064716833E+01  0.91991303449E+01  0.21157719426E+02  0.51100000000E-03 0. -1.
        -12    1    3    3    0    0 -0.13117690809E+01  0.44579134847E+00  0.25735707642E+00  0.14091489320E+01  0.00000000000E+00 0.  1.
</event>
<event>
 7    1  0.5559916E-010  0.4778727E+02  0.7816164E-02  0.1312668E+00
        -11   -1    0    0    0    0  0.00000000000E+00  0.00000000000E+00  0.45593999997E+02  0.45594000000E+02  0.51100000000E-03 0.  1.
         11   -1    0    0    0    0 -0.00000000000E+00 -0.00000000000E+00 -0.45593999997E+02  0.45594000000E+02  0.51100000000E-03 0. -1.
    9900012    2    1    2    0    0 -0.14535749396E+02 -0.13066173610E+01  0.40873315789E+02  0.47787271861E+02  0.20000003724E+02 0.  0.
         12    1    1    2    0    0  0.14535749396E+02  0.13066173610E+01 -0.40873315789E+02  0.43400728139E+02  0.00000000000E+00 0. -1.
         11    1    3    3    0    0  0.69383365018E+00 -0.16767172026E+01  0.25690903412E+01  0.31453157479E+01  0.51100000000E-03 0. -1.
        -11    1    3    3    0    0  0.27350500574E+01 -0.35231749123E+00  0.14773655138E+02  0.15028822736E+02  0.51100000000E-03 0.  1.
        -12    1    3    3    0    0 -0.17964633103E+02  0.72241733286E+00  0.23530570309E+02  0.29613133377E+02  0.00000000000E+00 0.  1.
</event>
<event>
 7    1  0.5559916E-010  0.4778727E+02  0.7816164E-02  0.1312668E+00
        -11   -1    0    0    0    0  0.00000000000E+00  0.00000000000E+00  0.45593999997E+02  0.45594000000E+02  0.51100000000E-03 0. -1.
         11   -1    0    0    0    0 -0.00000000000E+00 -0.00000000000E+00 -0.45593999997E+02  0.45594000000E+02  0.51100000000E-03 0.  1.
    9900012    2    1    2    0    0  0.16897350040E+02 -0.38508451662E+02  0.10733209035E+02  0.47787273462E+02  0.20000011024E+02 0.  0.
         12    1    1    2    0    0 -0.16897350040E+02  0.38508451662E+02 -0.10733209035E+02  0.43400726538E+02  0.00000000000E+00 0. -1.
         11    1    3    3    0    0  0.17290383048E+01  0.81705053788E+00 -0.14211859452E+01  0.23826277076E+01  0.51100000000E-03 0. -1.
        -11    1    3    3    0    0  0.13079903824E+01 -0.19495223417E+02  0.60133593359E+01  0.20443460218E+02  0.51100000000E-03 0.  1.
        -12    1    3    3    0    0  0.13860321353E+02 -0.19830278783E+02  0.61410356448E+01  0.24961185537E+02  0.00000000000E+00 0.  1.
</event>
<event>
 7    1  0.5559916E-010  0.4778728E+02  0.7816164E-02  0.1312668E+00
        -11   -1    0    0    0    0  0.00000000000E+00  0.00000000000E+00  0.45593999997E+02  0.45594000000E+02  0.51100000000E-03 0. -1.
         11   -1    0    0    0    0 -0.00000000000E+00 -0.00000000000E+00 -0.45593999997E+02  0.45594000000E+02  0.51100000000E-03 0.  1.
    9900012    2    1    2    0    0  0.17837542828E+02  0.15779311113E+02 -0.36283028725E+02  0.47787276886E+02  0.20000026635E+02 0.  0.
         12    1    1    2    0    0 -0.17837542828E+02 -0.15779311113E+02  0.36283028725E+02  0.43400723114E+02  0.00000000000E+00 0. -1.
         11    1    3    3    0    0  0.14736661172E+02  0.12397300254E+02 -0.20710879529E+02  0.28280784417E+02  0.51100000000E-03 0.  1.
        -11    1    3    3    0    0 -0.44587110706E+00 -0.22823817493E+01 -0.11384782708E+02  0.11619868548E+02  0.51100000000E-03 0. -1.
         12    1    3    3    0    0  0.35467527630E+01  0.56643926080E+01 -0.41873664877E+01  0.78866239217E+01  0.00000000000E+00 0. -1.
</event>
<event>
 7    1  0.5559916E-010  0.4778727E+02  0.7816164E-02  0.1312668E+00
        -11   -1    0    0    0    0  0.00000000000E+00  0.00000000000E+00  0.45593999997E+02  0.45594000000E+02  0.51100000000E-03 0.  1.
         11   -1    0    0    0    0 -0.00000000000E+00 -0.00000000000E+00 -0.45593999997E+02  0.45594000000E+02  0.51100000000E-03 0. -1.
    9900012    2    1    2    0    0  0.15429599620E+02 -0.22820579515E+02  0.33537620531E+02  0.47787269767E+02  0.19999994178E+02 0.  0.
         12    1    1    2    0    0 -0.15429599620E+02  0.22820579515E+02 -0.33537620531E+02  0.43400730233E+02  0.00000000000E+00 0. -1.
         11    1    3    3    0    0 -0.13339331954E+01 -0.22330887911E+01 -0.12468853908E+01  0.28845773967E+01  0.51100000000E-03 0. -1.
        -11    1    3    3    0    0  0.11886742339E+02 -0.10996057298E+02  0.27484885714E+02  0.31900264302E+02  0.51100000000E-03 0.  1.
         12    1    3    3    0    0  0.48767904758E+01 -0.95914334260E+01  0.72996202074E+01  0.13002428069E+02  0.00000000000E+00 0. -1.
</event>
<event>
 7    1  0.5559916E-010  0.4778727E+02  0.7816164E-02  0.1312668E+00
        -11   -1    0    0    0    0  0.00000000000E+00  0.00000000000E+00  0.45593999997E+02  0.45594000000E+02  0.51100000000E-03 0. -1.
         11   -1    0    0    0    0 -0.00000000000E+00 -0.00000000000E+00 -0.45593999997E+02  0.45594000000E+02  0.51100000000E-03 0.  1.
    9900012    2    1    2    0    0  0.23813521945E+02  0.19626922454E+02 -0.30517593746E+02  0.47787269124E+02  0.19999991246E+02 0.  0.
         12    1    1    2    0    0 -0.23813521945E+02 -0.19626922454E+02  0.30517593746E+02  0.43400730876E+02  0.00000000000E+00 0. -1.
         11    1    3    3    0    0 -0.11224385729E+00 -0.20773130328E+01  0.50802826438E+00  0.21414763828E+01  0.51100000000E-03 0. -1.
        -11    1    3    3    0    0  0.46868545376E+01  0.87392925515E+01 -0.63438175385E+01  0.11772249614E+02  0.51100000000E-03 0.  1.
         12    1    3    3    0    0  0.19238911265E+02  0.12964942936E+02 -0.24681804472E+02  0.33873543127E+02  0.00000000000E+00 0. -1.
</event>
<event>
 7    1  0.5559916E-010  0.4778728E+02  0.7816164E-02  0.1312668E+00
        -11   -1    0    0    0    0  0.00000000000E+00  0.00000000000E+00  0.45593999997E+02  0.45594000000E+02  0.51100000000E-03 0. -1.
         11   -1    0    0    0    0 -0.00000000000E+00 -0.00000000000E+00 -0.45593999997E+02  0.45594000000E+02  0.51100000000E-03 0.  1.
    9900012    2    1    2    0    0 -0.35873840444E+01 -0.43073149709E+02 -0.39314879453E+01  0.47787284020E+02  0.20000059160E+02 0.  0.
         12    1    1    2    0    0  0.35873840444E+01  0.43073149709E+02  0.39314879453E+01  0.43400715980E+02  0.00000000000E+00 0. -1.
         11    1    3    3    0    0 -0.86784175834E+00 -0.66303179383E+00  0.41164934817E+00  0.11671400619E+01  0.51100000000E-03 0. -1.
        -11    1    3    3    0    0 -0.40559656806E+01 -0.86825788680E+01 -0.82442800730E+01  0.12641447211E+02  0.51100000000E-03 0.  1.
        -12    1    3    3    0    0  0.13364233945E+01 -0.33727539047E+02  0.39011427795E+01  0.33978696747E+02  0.00000000000E+00 0.  1.
</event>
<event>
 7    1  0.5559916E-010  0.4778727E+02  0.7816164E-02  0.1312668E+00
        -11   -1    0    0    0    0  0.00000000000E+00  0.00000000000E+00  0.45593999997E+02  0.45594000000E+02  0.51100000000E-03 0. -1.
         11   -1    0    0    0    0 -0.00000000000E+00 -0.00000000000E+00 -0.45593999997E+02  0.45594000000E+02  0.51100000000E-03 0.  1.
    9900012    2    1    2    0    0  0.14796918812E+02  0.30690030165E+02 -0.26884877565E+02  0.47787269596E+02  0.19999993398E+02 0.  0.
         12    1    1    2    0    0 -0.14796918812E+02 -0.30690030165E+02  0.26884877565E+02  0.43400730404E+02  0.00000000000E+00 0. -1.
         11    1    3    3    0    0  0.31100506602E+00  0.31304157992E+01  0.12261524566E+01  0.33763408204E+01  0.51100000000E-03 0. -1.
        -11    1    3    3    0    0  0.84378261687E+01  0.26586645769E+02 -0.25349386938E+02  0.37691352617E+02  0.51100000000E-03 0.  1.
        -12    1    3    3    0    0  0.60480875772E+01  0.97296859678E+00 -0.27616430836E+01  0.67195761587E+01  0.00000000000E+00 0.  1.
</event>
<event>
 7    1  0.5559916E-010  0.4778727E+02  0.7816164E-02  0.1312668E+00
        -11   -1    0    0    0    0  0.00000000000E+00  0.00000000000E+00  0.45593999997E+02  0.45594000000E+02  0.51100000000E-03 0.  1.
         11   -1    0    0    0    0 -0.00000000000E+00 -0.00000000000E+00 -0.45593999997E+02  0.45594000000E+02  0.51100000000E-03 0. -1.
    9900012    2    1    2    0    0  0.25723588521E+02  0.33848051117E+02  0.87309605332E+01  0.47787271405E+02  0.20000001642E+02 0.  0.
         12    1    1    2    0    0 -0.25723588521E+02 -0.33848051117E+02 -0.87309605332E+01  0.43400728595E+02  0.00000000000E+00 0. -1.
         11    1    3    3    0    0 -0.11469307189E+01  0.96111038886E+00  0.37664386969E+01  0.40528069251E+01  0.51100000000E-03 0. -1.
        -11    1    3    3    0    0  0.26556970905E+01  0.22289902160E+01  0.30538512032E+01  0.46202956455E+01  0.51100000000E-03 0.  1.
         12    1    3    3    0    0  0.24214822149E+02  0.30657950512E+02  0.19106706330E+01  0.39114168834E+02  0.00000000000E+00 0. -1.
</event>
<event>
 7    1  0.5559916E-010  0.4778724E+02  0.7816164E-02  0.1312668E+00
        -11   -1    0    0    0    0  0.00000000000E+00  0.00000000000E+00  0.45593999997E+02  0.45594000000E+02  0.51100000000E-03 0. -1.
         11   -1    0    0    0    0 -0.00000000000E+00 -0.00000000000E+00 -0.45593999997E+02  0.45594000000E+02  0.51100000000E-03 0.  1.
    9900012    2    1    2    0    0  0.28741664645E+02  0.20486098670E+02 -0.25255932854E+02  0.47787243444E+02  0.19999874159E+02 0.  0.
         12    1    1    2    0    0 -0.28741664645E+02 -0.20486098670E+02  0.25255932854E+02  0.43400756556E+02  0.00000000000E+00 0. -1.
         11    1    3    3    0    0  0.51878395227E+00  0.45308397842E+01 -0.84148848216E+01  0.95712033079E+01  0.51100000000E-03 0. -1.
        -11    1    3    3    0    0  0.26888133220E+02  0.11474357681E+02 -0.16399444052E+02  0.33519760705E+02  0.51100000000E-03 0.  1.
        -12    1    3    3    0    0  0.13347474723E+01  0.44809012044E+01 -0.44160398123E+00  0.46962794310E+01  0.00000000000E+00 0.  1.
</event>
<event>
 7    1  0.5559916E-010  0.4778726E+02  0.7816164E-02  0.1312668E+00
        -11   -1    0    0    0    0  0.00000000000E+00  0.00000000000E+00  0.45593999997E+02  0.45594000000E+02  0.51100000000E-03 0.  1.
         11   -1    0    0    0    0 -0.00000000000E+00 -0.00000000000E+00 -0.45593999997E+02  0.45594000000E+02  0.51100000000E-03 0. -1.
    9900012    2    1    2    0    0  0.31863387099E+02 -0.28598559625E+02 -0.71042789940E+01  0.47787264637E+02  0.19999970784E+02 0.  0.
         12    1    1    2    0    0 -0.31863387099E+02  0.28598559625E+02  0.71042789940E+01  0.43400735363E+02  0.00000000000E+00 0. -1.
         11    1    3    3    0    0  0.14958303902E+02 -0.16597308834E+02 -0.10490626929E+02  0.24683491847E+02  0.51100000000E-03 0. -1.
        -11    1    3    3    0    0  0.17398546683E+02 -0.12969105369E+02  0.35988518387E+01  0.21996791938E+02  0.51100000000E-03 0.  1.
        -12    1    3    3    0    0 -0.49346348602E+00  0.96785457767E+00 -0.21250390337E+00  0.11069808510E+01  0.00000000000E+00 0.  1.
</event>
<event>
 7    1  0.5559916E-010  0.4778727E+02  0.7816164E-02  0.1312668E+00
        -11   -1    0    0    0    0  0.00000000000E+00  0.00000000000E+00  0.45593999997E+02  0.45594000000E+02  0.51100000000E-03 0.  1.
         11   -1    0    0    0    0 -0.00000000000E+00 -0.00000000000E+00 -0.45593999997E+02  0.45594000000E+02  0.51100000000E-03 0. -1.
    9900012    2    1    2    0    0 -0.34568299484E+01 -0.33019654775E+02  0.27953106814E+02  0.47787268954E+02  0.19999990468E+02 0.  0.
         12    1    1    2    0    0  0.34568299484E+01  0.33019654775E+02 -0.27953106814E+02  0.43400731046E+02  0.00000000000E+00 0. -1.
         11    1    3    3    0    0 -0.90494146145E+01 -0.12996461365E+02  0.59911480388E+01  0.16932033781E+02  0.51100000000E-03 0. -1.
        -11    1    3    3    0    0  0.14903346115E+01 -0.14348026335E+02  0.12525143110E+02  0.19104087708E+02  0.51100000000E-03 0.  1.
         12    1    3    3    0    0  0.41022500546E+01 -0.56751670755E+01  0.94368156655E+01  0.11751147465E+02  0.00000000000E+00 0. -1.
</event>
<event>
 7    1  0.5559916E-010  0.4778725E+02  0.7816164E-02  0.1312668E+00
        -11   -1    0    0    0    0  0.00000000000E+00  0.00000000000E+00  0.45593999997E+02  0.45594000000E+02  0.51100000000E-03 0.  1.
         11   -1    0    0    0    0 -0.00000000000E+00 -0.00000000000E+00 -0.45593999997E+02  0.45594000000E+02  0.51100000000E-03 0. -1.
    9900012    2    1    2    0    0 -0.30558786140E+01 -0.94996890300E+01  0.42237924130E+02  0.47787254377E+02  0.19999924008E+02 0.  0.
         12    1    1    2    0    0  0.30558786140E+01  0.94996890300E+01 -0.42237924130E+02  0.43400745623E+02  0.00000000000E+00 0. -1.
         11    1    3    3    0    0  0.49160286565E+01 -0.70305698298E+01  0.24543421235E+02  0.25999534151E+02  0.51100000000E-03 0. -1.
        -11    1    3    3    0    0 -0.90671775195E+01 -0.34636287159E+01  0.17831434702E+02  0.20301982559E+02  0.51100000000E-03 0.  1.
         12    1    3    3    0    0  0.10952702489E+01  0.99450951569E+00 -0.13693180677E+00  0.14857376669E+01  0.00000000000E+00 0. -1.
</event>
<event>
 7    1  0.5559916E-010  0.4778728E+02  0.7816164E-02  0.1312668E+00
        -11   -1    0    0    0    0  0.00000000000E+00  0.00000000000E+00  0.45593999997E+02  0.45594000000E+02  0.51100000000E-03 0. -1.
         11   -1    0    0    0    0 -0.00000000000E+00 -0.00000000000E+00 -0.45593999997E+02  0.45594000000E+02  0.51100000000E-03 0.  1.
    9900012    2    1    2    0    0  0.34891924065E+02  0.18520549931E+02 -0.17976796316E+02  0.47787281798E+02  0.20000049030E+02 0.  0.
         12    1    1    2    0    0 -0.34891924065E+02 -0.18520549931E+02  0.17976796316E+02  0.43400718202E+02  0.00000000000E+00 0. -1.
         11    1    3    3    0    0  0.78115210119E+01 -0.21820856855E+01 -0.37273727431E+00  0.81191312217E+01  0.51100000000E-03 0. -1.
        -11    1    3    3    0    0  0.26764861116E+02  0.18559653144E+02 -0.18342046058E+02  0.37379796271E+02  0.51100000000E-03 0.  1.
        -12    1    3    3    0    0  0.31554193660E+00  0.21429824722E+01  0.73798701698E+00  0.22883543054E+01  0.00000000000E+00 0.  1.
</event>
<event>
 7    1  0.5559916E-010  0.4778727E+02  0.7816164E-02  0.1312668E+00
        -11   -1    0    0    0    0  0.00000000000E+00  0.00000000000E+00  0.45593999997E+02  0.45594000000E+02  0.51100000000E-03 0.  1.
         11   -1    0    0    0    0 -0.00000000000E+00 -0.00000000000E+00 -0.45593999997E+02  0.45594000000E+02  0.51100000000E-03 0. -1.
    9900012    2    1    2    0    0 -0.23904957135E+02 -0.24742060189E+02  0.26457641211E+02  0.47787270784E+02  0.19999998811E+02 0.  0.
         12    1    1    2    0    0  0.23904957135E+02  0.24742060189E+02 -0.26457641211E+02  0.43400729216E+02  0.00000000000E+00 0. -1.
         11    1    3    3    0    0 -0.80943600455E+00 -0.31885724089E+01  0.17435908568E+01  0.37232096354E+01  0.51100000000E-03 0.  1.
        -11    1    3    3    0    0  0.10925193395E+01 -0.91136588505E+01  0.48348385992E+01  0.10374393510E+02  0.51100000000E-03 0. -1.
        -12    1    3    3    0    0 -0.24188040470E+02 -0.12439828930E+02  0.19879211755E+02  0.33689667639E+02  0.00000000000E+00 0.  1.
</event>
<event>
 7    1  0.5559916E-010  0.4778727E+02  0.7816164E-02  0.1312668E+00
        -11   -1    0    0    0    0  0.00000000000E+00  0.00000000000E+00  0.45593999997E+02  0.45594000000E+02  0.51100000000E-03 0. -1.
         11   -1    0    0    0    0 -0.00000000000E+00 -0.00000000000E+00 -0.45593999997E+02  0.45594000000E+02  0.51100000000E-03 0.  1.
    9900012    2    1    2    0    0 -0.12391339357E+02  0.20252460332E+02 -0.36330652007E+02  0.47787265953E+02  0.19999976784E+02 0.  0.
         12    1    1    2    0    0  0.12391339357E+02 -0.20252460332E+02  0.36330652007E+02  0.43400734047E+02  0.00000000000E+00 0. -1.
         11    1    3    3    0    0 -0.94651404038E+01  0.90916116722E+01 -0.56878501062E+01  0.14303773095E+02  0.51100000000E-03 0. -1.
        -11    1    3    3    0    0 -0.38388523465E+01  0.63689010142E+01 -0.24699311388E+02  0.25794489155E+02  0.51100000000E-03 0.  1.
        -12    1    3    3    0    0  0.91265339298E+00  0.47919476459E+01 -0.59434905130E+01  0.76890037023E+01  0.00000000000E+00 0.  1.
</event>
<event>
 7    1  0.5559916E-010  0.4778727E+02  0.7816164E-02  0.1312668E+00
        -11   -1    0    0    0    0  0.00000000000E+00  0.00000000000E+00  0.45593999997E+02  0.45594000000E+02  0.51100000000E-03 0.  1.
         11   -1    0    0    0    0 -0.00000000000E+00 -0.00000000000E+00 -0.45593999997E+02  0.45594000000E+02  0.51100000000E-03 0. -1.
    9900012    2    1    2    0    0 -0.31298396231E+02 -0.65941032727E+01  0.29335157603E+02  0.47787271018E+02  0.19999999878E+02 0.  0.
         12    1    1    2    0    0  0.31298396231E+02  0.65941032727E+01 -0.29335157603E+02  0.43400728982E+02  0.00000000000E+00 0. -1.
         11    1    3    3    0    0 -0.13744944307E+02  0.40610523489E+01  0.80249252587E+01  0.16426048394E+02  0.51100000000E-03 0. -1.
        -11    1    3    3    0    0 -0.11445649374E+02 -0.11592370091E+02  0.12197788945E+02  0.20351215918E+02  0.51100000000E-03 0.  1.
        -12    1    3    3    0    0 -0.61078025500E+01  0.93721446966E+00  0.91124433991E+01  0.11010006705E+02  0.00000000000E+00 0.  1.
</event>
<event>
 7    1  0.5559916E-010  0.4778727E+02  0.7816164E-02  0.1312668E+00
        -11   -1    0    0    0    0  0.00000000000E+00  0.00000000000E+00  0.45593999997E+02  0.45594000000E+02  0.51100000000E-03 0.  1.
         11   -1    0    0    0    0 -0.00000000000E+00 -0.00000000000E+00 -0.45593999997E+02  0.45594000000E+02  0.51100000000E-03 0. -1.
    9900012    2    1    2    0    0 -0.27330148820E+02 -0.30570256394E+02 -0.14217787908E+02  0.47787273007E+02  0.20000008949E+02 0.  0.
         12    1    1    2    0    0  0.27330148820E+02  0.30570256394E+02  0.14217787908E+02  0.43400726993E+02  0.00000000000E+00 0. -1.
         11    1    3    3    0    0 -0.38075469384E+01 -0.10997624342E+02  0.13081891330E+01  0.11711383945E+02  0.51100000000E-03 0. -1.
        -11    1    3    3    0    0 -0.22906054165E+02 -0.18020079828E+02 -0.17091450261E+02  0.33786510129E+02  0.51100000000E-03 0.  1.
        -12    1    3    3    0    0 -0.61654771703E+00 -0.15525522247E+01  0.15654732200E+01  0.22893789333E+01  0.00000000000E+00 0.  1.
</event>
<event>
 7    1  0.5559916E-010  0.4778728E+02  0.7816164E-02  0.1312668E+00
        -11   -1    0    0    0    0  0.00000000000E+00  0.00000000000E+00  0.45593999997E+02  0.45594000000E+02  0.51100000000E-03 0. -1.
         11   -1    0    0    0    0 -0.00000000000E+00 -0.00000000000E+00 -0.45593999997E+02  0.45594000000E+02  0.51100000000E-03 0.  1.
    9900012    2    1    2    0    0  0.37884220399E+02  0.21166550015E+02 -0.62118152779E+00  0.47787275798E+02  0.20000021671E+02 0.  0.
         12    1    1    2    0    0 -0.37884220399E+02 -0.21166550015E+02  0.62118152779E+00  0.43400724202E+02  0.00000000000E+00 0. -1.
         11    1    3    3    0    0  0.22301160557E+02  0.17722014768E+02  0.70381627029E+01  0.29341903553E+02  0.51100000000E-03 0.  1.
        -11    1    3    3    0    0  0.34300784332E+01 -0.63859755160E+00 -0.35617399135E+01  0.49859037660E+01  0.51100000000E-03 0. -1.
        -12    1    3    3    0    0  0.12152981409E+02  0.40831327984E+01 -0.40976043172E+01  0.13459468478E+02  0.00000000000E+00 0.  1.
</event>
<event>
 7    1  0.5559916E-010  0.4778726E+02  0.7816164E-02  0.1312668E+00
        -11   -1    0    0    0    0  0.00000000000E+00  0.00000000000E+00  0.45593999997E+02  0.45594000000E+02  0.51100000000E-03 0.  1.
         11   -1    0    0    0    0 -0.00000000000E+00 -0.00000000000E+00 -0.45593999997E+02  0.45594000000E+02  0.51100000000E-03 0. -1.
    9900012    2    1    2    0    0 -0.35090268091E+01 -0.35636799172E+02  0.24522012467E+02  0.47787264755E+02  0.19999971326E+02 0.  0.
         12    1    1    2    0    0  0.35090268091E+01  0.35636799172E+02 -0.24522012467E+02  0.43400735245E+02  0.00000000000E+00 0. -1.
         11    1    3    3    0    0  0.23587497036E+01 -0.11013791752E+02  0.16099642955E+02  0.19648557517E+02  0.51100000000E-03 0. -1.
        -11    1    3    3    0    0 -0.61037631016E+01 -0.72641950046E+01  0.30169386673E+01  0.99562227902E+01  0.51100000000E-03 0.  1.
         12    1    3    3    0    0  0.23598658886E+00 -0.17358812415E+02  0.54054308441E+01  0.18182484449E+02  0.00000000000E+00 0. -1.
</event>
<event>
 7    1  0.5559916E-010  0.4778727E+02  0.7816164E-02  0.1312668E+00
        -11   -1    0    0    0    0  0.00000000000E+00  0.00000000000E+00  0.45593999997E+02  0.45594000000E+02  0.51100000000E-03 0. -1.
         11   -1    0    0    0    0 -0.00000000000E+00 -0.00000000000E+00 -0.45593999997E+02  0.45594000000E+02  0.51100000000E-03 0.  1.
    9900012    2    1    2    0    0 -0.51863409830E+01  0.28189021059E+02 -0.32589937411E+02  0.47787273491E+02  0.20000011156E+02 0.  0.
         12    1    1    2    0    0  0.51863409830E+01 -0.28189021059E+02  0.32589937411E+02  0.43400726509E+02  0.00000000000E+00 0. -1.
         11    1    3    3    0    0  0.43918799838E+01  0.58525275687E+01 -0.90904899220E+01  0.11669519957E+02  0.51100000000E-03 0. -1.
        -11    1    3    3    0    0 -0.10879049847E+02  0.21033570079E+02 -0.24456778989E+02  0.34042603229E+02  0.51100000000E-03 0.  1.
        -12    1    3    3    0    0  0.13008288799E+01  0.13029234113E+01  0.95733149997E+00  0.20751503057E+01  0.00000000000E+00 0.  1.
</event>
<event>
 7    1  0.5559916E-010  0.4778733E+02  0.7816164E-02  0.1312667E+00
        -11   -1    0    0    0    0  0.00000000000E+00  0.00000000000E+00  0.45593999997E+02  0.45594000000E+02  0.51100000000E-03 0.  1.
         11   -1    0    0    0    0 -0.00000000000E+00 -0.00000000000E+00 -0.45593999997E+02  0.45594000000E+02  0.51100000000E-03 0. -1.
    9900012    2    1    2    0    0 -0.38195135210E+02  0.36090371579E+01  0.20290990156E+02  0.47787334286E+02  0.20000288340E+02 0.  0.
         12    1    1    2    0    0  0.38195135210E+02 -0.36090371579E+01 -0.20290990156E+02  0.43400665714E+02  0.00000000000E+00 0. -1.
         11    1    3    3    0    0 -0.11400634256E-01  0.33531168872E+01 -0.94421903151E+00  0.34835431208E+01  0.51100000000E-03 0. -1.
        -11    1    3    3    0    0 -0.32841676901E+02 -0.22646185301E+01  0.17124082164E+02  0.37107121001E+02  0.51100000000E-03 0.  1.
        -12    1    3    3    0    0 -0.53420576749E+01  0.25205388008E+01  0.41111270230E+01  0.71966701638E+01  0.00000000000E+00 0.  1.
</event>
<event>
 7    1  0.5559916E-010  0.4778730E+02  0.7816164E-02  0.1312668E+00
        -11   -1    0    0    0    0  0.00000000000E+00  0.00000000000E+00  0.45593999997E+02  0.45594000000E+02  0.51100000000E-03 0.  1.
         11   -1    0    0    0    0 -0.00000000000E+00 -0.00000000000E+00 -0.45593999997E+02  0.45594000000E+02  0.51100000000E-03 0. -1.
    9900012    2    1    2    0    0 -0.28113632744E+02 -0.25479343741E+02  0.21072438200E+02  0.47787297757E+02  0.20000121791E+02 0.  0.
         12    1    1    2    0    0  0.28113632744E+02  0.25479343741E+02 -0.21072438200E+02  0.43400702243E+02  0.00000000000E+00 0. -1.
         11    1    3    3    0    0 -0.27395561283E+01 -0.17163075957E+00  0.65192435216E+00  0.28212817158E+01  0.51100000000E-03 0. -1.
        -11    1    3    3    0    0 -0.11743435543E+02 -0.11564421038E+02  0.19577158617E+02  0.25591194815E+02  0.51100000000E-03 0.  1.
        -12    1    3    3    0    0 -0.13630641073E+02 -0.13743291944E+02  0.84335523151E+00  0.19374821226E+02  0.00000000000E+00 0.  1.
</event>
<event>
 7    1  0.5559916E-010  0.4778727E+02  0.7816164E-02  0.1312668E+00
        -11   -1    0    0    0    0  0.00000000000E+00  0.00000000000E+00  0.45593999997E+02  0.45594000000E+02  0.51100000000E-03 0.  1.
         11   -1    0    0    0    0 -0.00000000000E+00 -0.00000000000E+00 -0.45593999997E+02  0.45594000000E+02  0.51100000000E-03 0. -1.
    9900012    2    1    2    0    0 -0.10406963543E+02 -0.12235323137E+02  0.40318915785E+02  0.47787274286E+02  0.20000014779E+02 0.  0.
         12    1    1    2    0    0  0.10406963543E+02  0.12235323137E+02 -0.40318915785E+02  0.43400725714E+02  0.00000000000E+00 0. -1.
         11    1    3    3    0    0 -0.10022511992E+01 -0.13918003063E+02  0.17055441794E+02  0.22036411046E+02  0.51100000000E-03 0. -1.
        -11    1    3    3    0    0 -0.73355980282E+01  0.16562928462E+01  0.11068377442E+02  0.13381452981E+02  0.51100000000E-03 0.  1.
         12    1    3    3    0    0 -0.20691143157E+01  0.26387079001E-01  0.12195096548E+02  0.12369410259E+02  0.00000000000E+00 0. -1.
</event>
<event>
 7    1  0.5559916E-010  0.4778727E+02  0.7816164E-02  0.1312668E+00
        -11   -1    0    0    0    0  0.00000000000E+00  0.00000000000E+00  0.45593999997E+02  0.45594000000E+02  0.51100000000E-03 0. -1.
         11   -1    0    0    0    0 -0.00000000000E+00 -0.00000000000E+00 -0.45593999997E+02  0.45594000000E+02  0.51100000000E-03 0.  1.
    9900012    2    1    2    0    0 -0.35025818488E+02 -0.14643016676E+02 -0.21033245400E+02  0.47787270626E+02  0.19999998093E+02 0.  0.
         12    1    1    2    0    0  0.35025818488E+02  0.14643016676E+02  0.21033245400E+02  0.43400729374E+02  0.00000000000E+00 0. -1.
         11    1    3    3    0    0 -0.16683813954E+02 -0.91253961108E+01 -0.71612849698E-01  0.19016509430E+02  0.51100000000E-03 0. -1.
        -11    1    3    3    0    0 -0.14075001442E+02 -0.59956045129E+01 -0.15014917471E+02  0.21435967111E+02  0.51100000000E-03 0.  1.
         12    1    3    3    0    0 -0.42670030917E+01  0.47798394810E+00 -0.59467150789E+01  0.73347940850E+01  0.00000000000E+00 0. -1.
</event>
<event>
 7    1  0.5559916E-010  0.4778727E+02  0.7816164E-02  0.1312668E+00
        -11   -1    0    0    0    0  0.00000000000E+00  0.00000000000E+00  0.45593999997E+02  0.45594000000E+02  0.51100000000E-03 0. -1.
         11   -1    0    0    0    0 -0.00000000000E+00 -0.00000000000E+00 -0.45593999997E+02  0.45594000000E+02  0.51100000000E-03 0.  1.
    9900012    2    1    2    0    0  0.19607549833E+02 -0.20312540186E+02 -0.32963127878E+02  0.47787273062E+02  0.20000009200E+02 0.  0.
         12    1    1    2    0    0 -0.19607549833E+02  0.20312540186E+02  0.32963127878E+02  0.43400726938E+02  0.00000000000E+00 0. -1.
         11    1    3    3    0    0  0.60719078106E+00  0.75304873563E+00 -0.41959740643E+01  0.43060378136E+01  0.51100000000E-03 0. -1.
        -11    1    3    3    0    0  0.14306452232E+01 -0.91638328209E+01 -0.22977905046E+01  0.95552299391E+01  0.51100000000E-03 0.  1.
        -12    1    3    3    0    0  0.17569713828E+02 -0.11901756101E+02 -0.26469363309E+02  0.33926005310E+02  0.00000000000E+00 0.  1.
</event>
<event>
 7    1  0.5559916E-010  0.4778728E+02  0.7816164E-02  0.1312668E+00
        -11   -1    0    0    0    0  0.00000000000E+00  0.00000000000E+00  0.45593999997E+02  0.45594000000E+02  0.51100000000E-03 0.  1.
         11   -1    0    0    0    0 -0.00000000000E+00 -0.00000000000E+00 -0.45593999997E+02  0.45594000000E+02  0.51100000000E-03 0. -1.
    9900012    2    1    2    0    0 -0.40442234582E+01  0.37103705427E+01  0.43052288728E+02  0.47787283904E+02  0.20000058632E+02 0.  0.
         12    1    1    2    0    0  0.40442234582E+01 -0.37103705427E+01 -0.43052288728E+02  0.43400716096E+02  0.00000000000E+00 0. -1.
         11    1    3    3    0    0  0.34684645048E+01  0.58263306152E+01  0.24907515328E+02  0.25813963170E+02  0.51100000000E-03 0. -1.
        -11    1    3    3    0    0 -0.19625814175E+01 -0.38572144340E+01  0.14445409108E+02  0.15079776973E+02  0.51100000000E-03 0.  1.
         12    1    3    3    0    0 -0.55501065455E+01  0.17412543615E+01  0.36993642920E+01  0.68935437609E+01  0.00000000000E+00 0. -1.
</event>
<event>
 7    1  0.5559916E-010  0.4778727E+02  0.7816164E-02  0.1312668E+00
        -11   -1    0    0    0    0  0.00000000000E+00  0.00000000000E+00  0.45593999997E+02  0.45594000000E+02  0.51100000000E-03 0.  1.
         11   -1    0    0    0    0 -0.00000000000E+00 -0.00000000000E+00 -0.45593999997E+02  0.45594000000E+02  0.51100000000E-03 0. -1.
    9900012    2    1    2    0    0  0.29135515344E+02  0.29241845431E+02 -0.13403718560E+02  0.47787269017E+02  0.19999990758E+02 0.  0.
         12    1    1    2    0    0 -0.29135515344E+02 -0.29241845431E+02  0.13403718560E+02  0.43400730983E+02  0.00000000000E+00 0. -1.
         11    1    3    3    0    0  0.21624698348E+01  0.11249398886E+02  0.19080977031E+01  0.11613185962E+02  0.51100000000E-03 0. -1.
        -11    1    3    3    0    0  0.90469077004E+01  0.41606818937E+01 -0.64236821473E+01  0.11849958032E+02  0.51100000000E-03 0.  1.
         12    1    3    3    0    0  0.17926137809E+02  0.13831764652E+02 -0.88881341155E+01  0.24324125024E+02  0.00000000000E+00 0. -1.
</event>
<event>
 7    1  0.5559916E-010  0.4778727E+02  0.7816164E-02  0.1312668E+00
        -11   -1    0    0    0    0  0.00000000000E+00  0.00000000000E+00  0.45593999997E+02  0.45594000000E+02  0.51100000000E-03 0.  1.
         11   -1    0    0    0    0 -0.00000000000E+00 -0.00000000000E+00 -0.45593999997E+02  0.45594000000E+02  0.51100000000E-03 0. -1.
    9900012    2    1    2    0    0 -0.22114985867E+02 -0.29715555170E+02  0.22617169957E+02  0.47787271944E+02  0.20000004101E+02 0.  0.
         12    1    1    2    0    0  0.22114985867E+02  0.29715555170E+02 -0.22617169957E+02  0.43400728056E+02  0.00000000000E+00 0. -1.
         11    1    3    3    0    0 -0.58448141873E+01 -0.65045378967E+01  0.14792852311E+02  0.17184276124E+02  0.51100000000E-03 0. -1.
        -11    1    3    3    0    0 -0.13925627722E+02 -0.20849684272E+02  0.95802708771E+01  0.26840529653E+02  0.51100000000E-03 0.  1.
         12    1    3    3    0    0 -0.23445439574E+01 -0.23613330012E+01 -0.17559532313E+01  0.37624661674E+01  0.00000000000E+00 0. -1.
</event>
<event>
 7    1  0.5559916E-010  0.4778727E+02  0.7816164E-02  0.1312668E+00
        -11   -1    0    0    0    0  0.00000000000E+00  0.00000000000E+00  0.45593999997E+02  0.45594000000E+02  0.51100000000E-03 0. -1.
         11   -1    0    0    0    0 -0.00000000000E+00 -0.00000000000E+00 -0.45593999997E+02  0.45594000000E+02  0.51100000000E-03 0.  1.
    9900012    2    1    2    0    0 -0.20681478861E+01  0.43307720465E+02 -0.19461067088E+01  0.47787271679E+02  0.20000002891E+02 0.  0.
         12    1    1    2    0    0  0.20681478861E+01 -0.43307720465E+02  0.19461067088E+01  0.43400728321E+02  0.00000000000E+00 0. -1.
         11    1    3    3    0    0 -0.52484531993E+01  0.37470134324E+01  0.17019969183E+01  0.66695700326E+01  0.51100000000E-03 0. -1.
        -11    1    3    3    0    0  0.21792925837E+00  0.18553483058E+02 -0.66097547846E+01  0.19696905476E+02  0.51100000000E-03 0.  1.
         12    1    3    3    0    0  0.29623760549E+01  0.21007223974E+02  0.29616511575E+01  0.21420796170E+02  0.00000000000E+00 0. -1.
</event>
<event>
 7    1  0.5559916E-010  0.4778726E+02  0.7816164E-02  0.1312668E+00
        -11   -1    0    0    0    0  0.00000000000E+00  0.00000000000E+00  0.45593999997E+02  0.45594000000E+02  0.51100000000E-03 0.  1.
         11   -1    0    0    0    0 -0.00000000000E+00 -0.00000000000E+00 -0.45593999997E+02  0.45594000000E+02  0.51100000000E-03 0. -1.
    9900012    2    1    2    0    0  0.16916097587E+02 -0.67124742802E+01  0.39400662898E+02  0.47787263769E+02  0.19999966830E+02 0.  0.
         12    1    1    2    0    0 -0.16916097587E+02  0.67124742802E+01 -0.39400662898E+02  0.43400736231E+02  0.00000000000E+00 0. -1.
         11    1    3    3    0    0  0.46941798657E+01 -0.95595176684E+01  0.13596917718E+02  0.17271244146E+02  0.51100000000E-03 0. -1.
        -11    1    3    3    0    0  0.76379896555E+01 -0.30438201930E+01  0.93662833050E+01  0.12463185410E+02  0.51100000000E-03 0.  1.
         12    1    3    3    0    0  0.45839280657E+01  0.58908635812E+01  0.16437461876E+02  0.18052834214E+02  0.00000000000E+00 0. -1.
</event>
<event>
 7    1  0.5559916E-010  0.4778728E+02  0.7816164E-02  0.1312668E+00
        -11   -1    0    0    0    0  0.00000000000E+00  0.00000000000E+00  0.45593999997E+02  0.45594000000E+02  0.51100000000E-03 0. -1.
         11   -1    0    0    0    0 -0.00000000000E+00 -0.00000000000E+00 -0.45593999997E+02  0.45594000000E+02  0.51100000000E-03 0.  1.
    9900012    2    1    2    0    0  0.38381139572E+02 -0.12418774136E+02 -0.16008904574E+02  0.47787275909E+02  0.20000022181E+02 0.  0.
         12    1    1    2    0    0 -0.38381139572E+02  0.12418774136E+02  0.16008904574E+02  0.43400724091E+02  0.00000000000E+00 0. -1.
         11    1    3    3    0    0  0.12329485337E+01 -0.31423228932E+01  0.17621883945E+01  0.38078423616E+01  0.51100000000E-03 0. -1.
        -11    1    3    3    0    0  0.34016188879E+02 -0.50177573114E+01 -0.12702086375E+02  0.36655449702E+02  0.51100000000E-03 0.  1.
         12    1    3    3    0    0  0.31320021595E+01 -0.42586939319E+01 -0.50690065934E+01  0.73239838460E+01  0.00000000000E+00 0. -1.
</event>
<event>
 7    1  0.5559916E-010  0.4778727E+02  0.7816164E-02  0.1312668E+00
        -11   -1    0    0    0    0  0.00000000000E+00  0.00000000000E+00  0.45593999997E+02  0.45594000000E+02  0.51100000000E-03 0.  1.
         11   -1    0    0    0    0 -0.00000000000E+00 -0.00000000000E+00 -0.45593999997E+02  0.45594000000E+02  0.51100000000E-03 0. -1.
    9900012    2    1    2    0    0  0.38976425188E+02 -0.11889002273E+01  0.19053816624E+02  0.47787272677E+02  0.20000007444E+02 0.  0.
         12    1    1    2    0    0 -0.38976425188E+02  0.11889002273E+01 -0.19053816624E+02  0.43400727323E+02  0.00000000000E+00 0. -1.
         11    1    3    3    0    0  0.21793821607E+02 -0.79929176652E+01  0.12433096692E+02  0.26333235400E+02  0.51100000000E-03 0. -1.
        -11    1    3    3    0    0  0.14654401726E+02  0.44207890882E+01  0.84953328514E+01  0.17506157392E+02  0.51100000000E-03 0.  1.
         12    1    3    3    0    0  0.25282018549E+01  0.23832283497E+01 -0.18746129193E+01  0.39478798846E+01  0.00000000000E+00 0. -1.
</event>
<event>
 7    1  0.5559916E-010  0.4778727E+02  0.7816164E-02  0.1312668E+00
        -11   -1    0    0    0    0  0.00000000000E+00  0.00000000000E+00  0.45593999997E+02  0.45594000000E+02  0.51100000000E-03 0.  1.
         11   -1    0    0    0    0 -0.00000000000E+00 -0.00000000000E+00 -0.45593999997E+02  0.45594000000E+02  0.51100000000E-03 0. -1.
    9900012    2    1    2    0    0 -0.14052356342E+02  0.76684357209E+01  0.40340425019E+02  0.47787268256E+02  0.19999987288E+02 0.  0.
         12    1    1    2    0    0  0.14052356342E+02 -0.76684357209E+01 -0.40340425019E+02  0.43400731744E+02  0.00000000000E+00 0. -1.
         11    1    3    3    0    0  0.18739529366E+01  0.49769741853E-01  0.16239894014E+02  0.16347731784E+02  0.51100000000E-03 0. -1.
        -11    1    3    3    0    0 -0.12245520972E+02  0.89759003351E+01  0.22627034260E+02  0.27248894480E+02  0.51100000000E-03 0.  1.
         12    1    3    3    0    0 -0.36807883063E+01 -0.13572343561E+01  0.14734967454E+01  0.41906419928E+01  0.00000000000E+00 0. -1.
</event>
<event>
 7    1  0.5559916E-010  0.4778727E+02  0.7816164E-02  0.1312668E+00
        -11   -1    0    0    0    0  0.00000000000E+00  0.00000000000E+00  0.45593999997E+02  0.45594000000E+02  0.51100000000E-03 0. -1.
         11   -1    0    0    0    0 -0.00000000000E+00 -0.00000000000E+00 -0.45593999997E+02  0.45594000000E+02  0.51100000000E-03 0.  1.
    9900012    2    1    2    0    0  0.41045352285E+02 -0.16492556743E+01  0.14006507187E+02  0.47787271526E+02  0.20000002196E+02 0.  0.
         12    1    1    2    0    0 -0.41045352285E+02  0.16492556743E+01 -0.14006507187E+02  0.43400728474E+02  0.00000000000E+00 0. -1.
         11    1    3    3    0    0  0.27610179715E+02  0.37132462850E+00  0.10835257827E+02  0.29662479976E+02  0.51100000000E-03 0. -1.
        -11    1    3    3    0    0 -0.75370534252E+00  0.17853861950E+01 -0.17709760849E+01  0.26252680174E+01  0.51100000000E-03 0.  1.
         12    1    3    3    0    0  0.14188877912E+02 -0.38059664978E+01  0.49422254448E+01  0.15499523533E+02  0.00000000000E+00 0. -1.
</event>
<event>
 7    1  0.5559916E-010  0.4778727E+02  0.7816164E-02  0.1312668E+00
        -11   -1    0    0    0    0  0.00000000000E+00  0.00000000000E+00  0.45593999997E+02  0.45594000000E+02  0.51100000000E-03 0.  1.
         11   -1    0    0    0    0 -0.00000000000E+00 -0.00000000000E+00 -0.45593999997E+02  0.45594000000E+02  0.51100000000E-03 0. -1.
    9900012    2    1    2    0    0  0.20531196533E+02  0.11670556449E+02  0.36412789627E+02  0.47787272272E+02  0.20000005596E+02 0.  0.
         12    1    1    2    0    0 -0.20531196533E+02 -0.11670556449E+02 -0.36412789627E+02  0.43400727728E+02  0.00000000000E+00 0. -1.
         11    1    3    3    0    0  0.14075430123E+01 -0.19306304196E+01  0.30822068927E+01  0.38998090644E+01  0.51100000000E-03 0. -1.
        -11    1    3    3    0    0  0.20177284919E+02  0.66780041601E+01  0.27622999244E+02  0.34853244522E+02  0.51100000000E-03 0.  1.
        -12    1    3    3    0    0 -0.10536313981E+01  0.69231827089E+01  0.57075834909E+01  0.90342186851E+01  0.00000000000E+00 0.  1.
</event>
<event>
 7    1  0.5559916E-010  0.4778727E+02  0.7816164E-02  0.1312668E+00
        -11   -1    0    0    0    0  0.00000000000E+00  0.00000000000E+00  0.45593999997E+02  0.45594000000E+02  0.51100000000E-03 0. -1.
         11   -1    0    0    0    0 -0.00000000000E+00 -0.00000000000E+00 -0.45593999997E+02  0.45594000000E+02  0.51100000000E-03 0.  1.
    9900012    2    1    2    0    0  0.11233037443E+02  0.36550121812E+02  0.20531210851E+02  0.47787272429E+02  0.20000006312E+02 0.  0.
         12    1    1    2    0    0 -0.11233037443E+02 -0.36550121812E+02 -0.20531210851E+02  0.43400727571E+02  0.00000000000E+00 0. -1.
         11    1    3    3    0    0  0.11401013087E+01  0.22513049114E+02  0.11002767770E+02  0.25083821683E+02  0.51100000000E-03 0. -1.
        -11    1    3    3    0    0  0.37270900916E+01 -0.71703631194E+00 -0.39734595380E+00  0.38161794627E+01  0.51100000000E-03 0.  1.
        -12    1    3    3    0    0  0.63658460431E+01  0.14754109010E+02  0.99257890354E+01  0.18887271283E+02  0.00000000000E+00 0.  1.
</event>
<event>
 7    1  0.5559916E-010  0.4778725E+02  0.7816164E-02  0.1312668E+00
        -11   -1    0    0    0    0  0.00000000000E+00  0.00000000000E+00  0.45593999997E+02  0.45594000000E+02  0.51100000000E-03 0.  1.
         11   -1    0    0    0    0 -0.00000000000E+00 -0.00000000000E+00 -0.45593999997E+02  0.45594000000E+02  0.51100000000E-03 0. -1.
    9900012    2    1    2    0    0  0.16219237453E+02 -0.31150563247E+01  0.40135493920E+02  0.47787249872E+02  0.19999903467E+02 0.  0.
         12    1    1    2    0    0 -0.16219237453E+02  0.31150563247E+01 -0.40135493920E+02  0.43400750128E+02  0.00000000000E+00 0. -1.
         11    1    3    3    0    0 -0.12684811697E+01 -0.15684570291E+00  0.11559628868E+02  0.11630075876E+02  0.51100000000E-03 0. -1.
        -11    1    3    3    0    0  0.14056649034E+02  0.55741056014E+00  0.10857272698E+02  0.17770212698E+02  0.51100000000E-03 0.  1.
        -12    1    3    3    0    0  0.34310695887E+01 -0.35156211820E+01  0.17718592353E+02  0.18386961299E+02  0.00000000000E+00 0.  1.
</event>
<event>
 7    1  0.5559916E-010  0.4778727E+02  0.7816164E-02  0.1312668E+00
        -11   -1    0    0    0    0  0.00000000000E+00  0.00000000000E+00  0.45593999997E+02  0.45594000000E+02  0.51100000000E-03 0.  1.
         11   -1    0    0    0    0 -0.00000000000E+00 -0.00000000000E+00 -0.45593999997E+02  0.45594000000E+02  0.51100000000E-03 0. -1.
    9900012    2    1    2    0    0 -0.38657044740E+02 -0.19334220217E+02 -0.39299466059E+01  0.47787266599E+02  0.19999979730E+02 0.  0.
         12    1    1    2    0    0  0.38657044740E+02  0.19334220217E+02  0.39299466059E+01  0.43400733401E+02  0.00000000000E+00 0. -1.
         11    1    3    3    0    0  0.35271408209E+00 -0.45562652858E+00 -0.85292670895E+00  0.10293138439E+01  0.51100000000E-03 0. -1.
        -11    1    3    3    0    0 -0.21704221355E+02 -0.15825072608E+02 -0.88177352626E+01  0.28271162040E+02  0.51100000000E-03 0.  1.
        -12    1    3    3    0    0 -0.17305537468E+02 -0.30535210801E+01  0.57407153657E+01  0.18486790715E+02  0.00000000000E+00 0.  1.
</event>
<event>
 7    1  0.5559916E-010  0.4778727E+02  0.7816164E-02  0.1312668E+00
        -11   -1    0    0    0    0  0.00000000000E+00  0.00000000000E+00  0.45593999997E+02  0.45594000000E+02  0.51100000000E-03 0.  1.
         11   -1    0    0    0    0 -0.00000000000E+00 -0.00000000000E+00 -0.45593999997E+02  0.45594000000E+02  0.51100000000E-03 0. -1.
    9900012    2    1    2    0    0  0.27345998883E+02  0.19262974632E+02  0.27654247896E+02  0.47787271051E+02  0.20000000029E+02 0.  0.
         12    1    1    2    0    0 -0.27345998883E+02 -0.19262974632E+02 -0.27654247896E+02  0.43400728949E+02  0.00000000000E+00 0. -1.
         11    1    3    3    0    0  0.11104045424E+02  0.66358514544E+01  0.12018061432E+02  0.17656957556E+02  0.51100000000E-03 0. -1.
        -11    1    3    3    0    0 -0.15882639768E+01  0.26577944963E+01 -0.15242153659E+01  0.34510414062E+01  0.51100000000E-03 0.  1.
        -12    1    3    3    0    0  0.17830217436E+02  0.99693286817E+01  0.17160401830E+02  0.26679272088E+02  0.00000000000E+00 0.  1.
</event>
<event>
 7    1  0.5559916E-010  0.4778727E+02  0.7816164E-02  0.1312668E+00
        -11   -1    0    0    0    0  0.00000000000E+00  0.00000000000E+00  0.45593999997E+02  0.45594000000E+02  0.51100000000E-03 0.  1.
         11   -1    0    0    0    0 -0.00000000000E+00 -0.00000000000E+00 -0.45593999997E+02  0.45594000000E+02  0.51100000000E-03 0. -1.
    9900012    2    1    2    0    0  0.12743117536E+02 -0.37705895635E+02 -0.17306120106E+02  0.47787269553E+02  0.19999993202E+02 0.  0.
         12    1    1    2    0    0 -0.12743117536E+02  0.37705895635E+02  0.17306120106E+02  0.43400730447E+02  0.00000000000E+00 0. -1.
         11    1    3    3    0    0 -0.38601844860E+01 -0.69872915239E+01  0.77882275019E-01  0.79830653897E+01  0.51100000000E-03 0.  1.
        -11    1    3    3    0    0  0.46279140902E+01 -0.16715879993E+02 -0.75188781327E+01  0.18904278918E+02  0.51100000000E-03 0. -1.
         12    1    3    3    0    0  0.11975387932E+02 -0.14002724118E+02 -0.98651242480E+01  0.20899925246E+02  0.00000000000E+00 0. -1.
</event>
<event>
 7    1  0.5559916E-010  0.4778727E+02  0.7816164E-02  0.1312668E+00
        -11   -1    0    0    0    0  0.00000000000E+00  0.00000000000E+00  0.45593999997E+02  0.45594000000E+02  0.51100000000E-03 0.  1.
         11   -1    0    0    0    0 -0.00000000000E+00 -0.00000000000E+00 -0.45593999997E+02  0.45594000000E+02  0.51100000000E-03 0. -1.
    9900012    2    1    2    0    0  0.25842879960E+02  0.26428000115E+02  0.22744880766E+02  0.47787271484E+02  0.20000002003E+02 0.  0.
         12    1    1    2    0    0 -0.25842879960E+02 -0.26428000115E+02 -0.22744880766E+02  0.43400728516E+02  0.00000000000E+00 0. -1.
         11    1    3    3    0    0  0.14776918127E+02  0.23272140700E+02  0.83356585761E+01  0.28799879274E+02  0.51100000000E-03 0. -1.
        -11    1    3    3    0    0  0.10116939216E+02  0.37501985878E+01  0.11039749833E+02  0.15436726505E+02  0.51100000000E-03 0.  1.
         12    1    3    3    0    0  0.94902261717E+00 -0.59433917273E+00  0.33694723573E+01  0.35506657047E+01  0.00000000000E+00 0. -1.
</event>
<event>
 7    1  0.5559916E-010  0.4778727E+02  0.7816164E-02  0.1312668E+00
        -11   -1    0    0    0    0  0.00000000000E+00  0.00000000000E+00  0.45593999997E+02  0.45594000000E+02  0.51100000000E-03 0.  1.
         11   -1    0    0    0    0 -0.00000000000E+00 -0.00000000000E+00 -0.45593999997E+02  0.45594000000E+02  0.51100000000E-03 0. -1.
    9900012    2    1    2    0    0 -0.22098365794E+01 -0.20854623501E+02  0.37997691515E+02  0.47787271209E+02  0.20000000751E+02 0.  0.
         12    1    1    2    0    0  0.22098365794E+01  0.20854623501E+02 -0.37997691515E+02  0.43400728791E+02  0.00000000000E+00 0. -1.
         11    1    3    3    0    0 -0.89413573003E+01 -0.13077064933E+02  0.12346040968E+02  0.20084377647E+02  0.51100000000E-03 0. -1.
        -11    1    3    3    0    0  0.29408080351E+01 -0.41284516398E+01  0.14777338717E+02  0.15622490347E+02  0.51100000000E-03 0.  1.
         12    1    3    3    0    0  0.37907126858E+01 -0.36491069287E+01  0.10874311831E+02  0.12080403215E+02  0.00000000000E+00 0. -1.
</event>
<event>
 7    1  0.5559916E-010  0.4778727E+02  0.7816164E-02  0.1312668E+00
        -11   -1    0    0    0    0  0.00000000000E+00  0.00000000000E+00  0.45593999997E+02  0.45594000000E+02  0.51100000000E-03 0.  1.
         11   -1    0    0    0    0 -0.00000000000E+00 -0.00000000000E+00 -0.45593999997E+02  0.45594000000E+02  0.51100000000E-03 0. -1.
    9900012    2    1    2    0    0 -0.12349847047E+02  0.13270211183E+02  0.39433565244E+02  0.47787270803E+02  0.19999998900E+02 0.  0.
         12    1    1    2    0    0  0.12349847047E+02 -0.13270211183E+02 -0.39433565244E+02  0.43400729197E+02  0.00000000000E+00 0. -1.
         11    1    3    3    0    0 -0.47623655825E+01 -0.16193268164E+01  0.10380795222E+02  0.11535304720E+02  0.51100000000E-03 0. -1.
        -11    1    3    3    0    0 -0.13169843051E+01  0.12671182113E+02  0.25958665275E+02  0.28916182440E+02  0.51100000000E-03 0.  1.
        -12    1    3    3    0    0 -0.62704971597E+01  0.22183558871E+01  0.30941047475E+01  0.73357836432E+01  0.00000000000E+00 0.  1.
</event>
<event>
 7    1  0.5559916E-010  0.4778727E+02  0.7816164E-02  0.1312668E+00
        -11   -1    0    0    0    0  0.00000000000E+00  0.00000000000E+00  0.45593999997E+02  0.45594000000E+02  0.51100000000E-03 0. -1.
         11   -1    0    0    0    0 -0.00000000000E+00 -0.00000000000E+00 -0.45593999997E+02  0.45594000000E+02  0.51100000000E-03 0.  1.
    9900012    2    1    2    0    0  0.17117684453E+02 -0.28483080201E+02 -0.27916344559E+02  0.47787271063E+02  0.20000000083E+02 0.  0.
         12    1    1    2    0    0 -0.17117684453E+02  0.28483080201E+02  0.27916344559E+02  0.43400728937E+02  0.00000000000E+00 0. -1.
         11    1    3    3    0    0  0.59509759336E+01 -0.65842555706E+01 -0.13008510695E+01  0.89698801412E+01  0.51100000000E-03 0. -1.
        -11    1    3    3    0    0  0.11597859826E+02 -0.23578829607E+02 -0.23502995632E+02  0.35254253107E+02  0.51100000000E-03 0.  1.
        -12    1    3    3    0    0 -0.43115130649E+00  0.16800049771E+01 -0.31124978574E+01  0.35631378144E+01  0.00000000000E+00 0.  1.
</event>
<event>
 7    1  0.5559916E-010  0.4778727E+02  0.7816164E-02  0.1312668E+00
        -11   -1    0    0    0    0  0.00000000000E+00  0.00000000000E+00  0.45593999997E+02  0.45594000000E+02  0.51100000000E-03 0.  1.
         11   -1    0    0    0    0 -0.00000000000E+00 -0.00000000000E+00 -0.45593999997E+02  0.45594000000E+02  0.51100000000E-03 0. -1.
    9900012    2    1    2    0    0  0.36136603178E+02 -0.35877982156E+01  0.23767566445E+02  0.47787267287E+02  0.19999982869E+02 0.  0.
         12    1    1    2    0    0 -0.36136603178E+02  0.35877982156E+01 -0.23767566445E+02  0.43400732713E+02  0.00000000000E+00 0. -1.
         11    1    3    3    0    0  0.44936533391E+01  0.54751632915E+01  0.88890447594E+01  0.11365977758E+02  0.51100000000E-03 0. -1.
        -11    1    3    3    0    0  0.14148096046E+02 -0.61399721187E+01  0.82080571676E+01  0.17471121374E+02  0.51100000000E-03 0.  1.
         12    1    3    3    0    0  0.17494853793E+02 -0.29229893884E+01  0.66704645178E+01  0.18950168155E+02  0.00000000000E+00 0. -1.
</event>
<event>
 7    1  0.5559916E-010  0.4778726E+02  0.7816164E-02  0.1312668E+00
        -11   -1    0    0    0    0  0.00000000000E+00  0.00000000000E+00  0.45593999997E+02  0.45594000000E+02  0.51100000000E-03 0.  1.
         11   -1    0    0    0    0 -0.00000000000E+00 -0.00000000000E+00 -0.45593999997E+02  0.45594000000E+02  0.51100000000E-03 0. -1.
    9900012    2    1    2    0    0  0.30768400386E+01  0.81577370053E+01  0.42515984874E+02  0.47787255911E+02  0.19999930999E+02 0.  0.
         12    1    1    2    0    0 -0.30768400386E+01 -0.81577370053E+01 -0.42515984874E+02  0.43400744089E+02  0.00000000000E+00 0. -1.
         11    1    3    3    0    0 -0.20300595666E+01  0.65377969598E+01  0.33719903350E+02  0.34407787100E+02  0.51100000000E-03 0.  1.
        -11    1    3    3    0    0  0.46250016861E+01 -0.29163698522E+01  0.41148360768E+01  0.68430789789E+01  0.51100000000E-03 0. -1.
         12    1    3    3    0    0  0.48189791917E+00  0.45363098978E+01  0.46812454476E+01  0.65363898318E+01  0.00000000000E+00 0. -1.
</event>
<event>
 7    1  0.5559916E-010  0.4778727E+02  0.7816164E-02  0.1312668E+00
        -11   -1    0    0    0    0  0.00000000000E+00  0.00000000000E+00  0.45593999997E+02  0.45594000000E+02  0.51100000000E-03 0. -1.
         11   -1    0    0    0    0 -0.00000000000E+00 -0.00000000000E+00 -0.45593999997E+02  0.45594000000E+02  0.51100000000E-03 0.  1.
    9900012    2    1    2    0    0  0.27930715767E+01  0.87146600207E+01 -0.42424950292E+02  0.47787274714E+02  0.20000016729E+02 0.  0.
         12    1    1    2    0    0 -0.27930715767E+01 -0.87146600207E+01  0.42424950292E+02  0.43400725286E+02  0.00000000000E+00 0. -1.
         11    1    3    3    0    0 -0.42740030470E+01 -0.22730690827E+01 -0.13021874542E+02  0.13892557790E+02  0.51100000000E-03 0. -1.
        -11    1    3    3    0    0  0.47573492109E+01  0.59781479487E+01 -0.26661574617E+02  0.27734638735E+02  0.51100000000E-03 0.  1.
        -12    1    3    3    0    0  0.23097254128E+01  0.50095811547E+01 -0.27415011323E+01  0.61600781884E+01  0.00000000000E+00 0.  1.
</event>
<event>
 7    1  0.5559916E-010  0.4778727E+02  0.7816164E-02  0.1312668E+00
        -11   -1    0    0    0    0  0.00000000000E+00  0.00000000000E+00  0.45593999997E+02  0.45594000000E+02  0.51100000000E-03 0.  1.
         11   -1    0    0    0    0 -0.00000000000E+00 -0.00000000000E+00 -0.45593999997E+02  0.45594000000E+02  0.51100000000E-03 0. -1.
    9900012    2    1    2    0    0  0.26649480108E+02 -0.34248521400E+02  0.68335674886E+00  0.47787274377E+02  0.20000015195E+02 0.  0.
         12    1    1    2    0    0 -0.26649480108E+02  0.34248521400E+02 -0.68335674886E+00  0.43400725623E+02  0.00000000000E+00 0. -1.
         11    1    3    3    0    0  0.19708765364E+02 -0.12362998294E+02 -0.46502002250E+01  0.23725587904E+02  0.51100000000E-03 0. -1.
        -11    1    3    3    0    0  0.66556974972E+01 -0.17224874823E+02  0.25922266671E+01  0.18647097930E+02  0.51100000000E-03 0.  1.
         12    1    3    3    0    0  0.28501724739E+00 -0.46606482828E+01  0.27413303068E+01  0.54145885437E+01  0.00000000000E+00 0. -1.
</event>
<event>
 7    1  0.5559916E-010  0.4778727E+02  0.7816164E-02  0.1312668E+00
        -11   -1    0    0    0    0  0.00000000000E+00  0.00000000000E+00  0.45593999997E+02  0.45594000000E+02  0.51100000000E-03 0. -1.
         11   -1    0    0    0    0 -0.00000000000E+00 -0.00000000000E+00 -0.45593999997E+02  0.45594000000E+02  0.51100000000E-03 0.  1.
    9900012    2    1    2    0    0 -0.18224432053E+02 -0.39361768746E+02  0.14643542026E+01  0.47787273097E+02  0.20000009360E+02 0.  0.
         12    1    1    2    0    0  0.18224432053E+02  0.39361768746E+02 -0.14643542026E+01  0.43400726903E+02  0.00000000000E+00 0. -1.
         11    1    3    3    0    0 -0.10599452441E+02 -0.77255802172E+01  0.37158908455E+01  0.13632344874E+02  0.51100000000E-03 0. -1.
        -11    1    3    3    0    0 -0.69125584468E+00  0.43515276267E+00 -0.10371206102E+01  0.13201560479E+01  0.51100000000E-03 0.  1.
         12    1    3    3    0    0 -0.69337237678E+01 -0.32071341291E+02 -0.12144160327E+01  0.32834772175E+02  0.00000000000E+00 0. -1.
</event>
<event>
 7    1  0.5559916E-010  0.4778727E+02  0.7816164E-02  0.1312668E+00
        -11   -1    0    0    0    0  0.00000000000E+00  0.00000000000E+00  0.45593999997E+02  0.45594000000E+02  0.51100000000E-03 0.  1.
         11   -1    0    0    0    0 -0.00000000000E+00 -0.00000000000E+00 -0.45593999997E+02  0.45594000000E+02  0.51100000000E-03 0. -1.
    9900012    2    1    2    0    0 -0.32052338584E+02  0.25761778047E+02 -0.13878104751E+02  0.47787269496E+02  0.19999992939E+02 0.  0.
         12    1    1    2    0    0  0.32052338584E+02 -0.25761778047E+02  0.13878104751E+02  0.43400730504E+02  0.00000000000E+00 0. -1.
         11    1    3    3    0    0 -0.10252770223E+02  0.12977389663E+02 -0.14912199771E+02  0.22268938950E+02  0.51100000000E-03 0. -1.
        -11    1    3    3    0    0 -0.13442272129E+02  0.92050403174E+01  0.18179543818E+01  0.16393059679E+02  0.51100000000E-03 0.  1.
         12    1    3    3    0    0 -0.83572962326E+01  0.35793480664E+01 -0.78385936182E+00  0.91252708671E+01  0.00000000000E+00 0. -1.
</event>
<event>
 7    1  0.5559916E-010  0.4778724E+02  0.7816164E-02  0.1312668E+00
        -11   -1    0    0    0    0  0.00000000000E+00  0.00000000000E+00  0.45593999997E+02  0.45594000000E+02  0.51100000000E-03 0.  1.
         11   -1    0    0    0    0 -0.00000000000E+00 -0.00000000000E+00 -0.45593999997E+02  0.45594000000E+02  0.51100000000E-03 0. -1.
    9900012    2    1    2    0    0 -0.24882575507E+02  0.25725065446E+02  0.24550039519E+02  0.47787239679E+02  0.19999856993E+02 0.  0.
         12    1    1    2    0    0  0.24882575507E+02 -0.25725065446E+02 -0.24550039519E+02  0.43400760321E+02  0.00000000000E+00 0. -1.
         11    1    3    3    0    0 -0.18268454286E+02  0.17961125819E+02  0.79610415225E+01  0.26827535203E+02  0.51100000000E-03 0. -1.
        -11    1    3    3    0    0 -0.58610185902E+01  0.24106809317E+01  0.13024097514E+02  0.14484130549E+02  0.51100000000E-03 0.  1.
        -12    1    3    3    0    0 -0.75310263046E+00  0.53532586957E+01  0.35649004827E+01  0.64755739272E+01  0.00000000000E+00 0.  1.
</event>
<event>
 7    1  0.5559916E-010  0.4778728E+02  0.7816164E-02  0.1312668E+00
        -11   -1    0    0    0    0  0.00000000000E+00  0.00000000000E+00  0.45593999997E+02  0.45594000000E+02  0.51100000000E-03 0.  1.
         11   -1    0    0    0    0 -0.00000000000E+00 -0.00000000000E+00 -0.45593999997E+02  0.45594000000E+02  0.51100000000E-03 0. -1.
    9900012    2    1    2    0    0  0.34172671189E+02  0.26513442347E+02  0.35900932266E+01  0.47787275920E+02  0.20000022230E+02 0.  0.
         12    1    1    2    0    0 -0.34172671189E+02 -0.26513442347E+02 -0.35900932266E+01  0.43400724080E+02  0.00000000000E+00 0. -1.
         11    1    3    3    0    0  0.16412102646E+02  0.20594375217E+02 -0.30891776032E+01  0.26514683146E+02  0.51100000000E-03 0. -1.
        -11    1    3    3    0    0  0.16611620801E+02  0.30233785041E+01  0.66783617604E+01  0.18157292730E+02  0.51100000000E-03 0.  1.
        -12    1    3    3    0    0  0.11489477414E+01  0.28956886266E+01  0.90906934515E-03  0.31153000435E+01  0.00000000000E+00 0.  1.
</event>
<event>
 7    1  0.5559916E-010  0.4778727E+02  0.7816164E-02  0.1312668E+00
        -11   -1    0    0    0    0  0.00000000000E+00  0.00000000000E+00  0.45593999997E+02  0.45594000000E+02  0.51100000000E-03 0.  1.
         11   -1    0    0    0    0 -0.00000000000E+00 -0.00000000000E+00 -0.45593999997E+02  0.45594000000E+02  0.51100000000E-03 0. -1.
    9900012    2    1    2    0    0  0.86996910186E+01 -0.24670479373E+01  0.42448227857E+02  0.47787274228E+02  0.20000014516E+02 0.  0.
         12    1    1    2    0    0 -0.86996910186E+01  0.24670479373E+01 -0.42448227857E+02  0.43400725772E+02  0.00000000000E+00 0. -1.
         11    1    3    3    0    0  0.15110361338E+01 -0.49313909538E+01  0.52997881190E+01  0.73952418016E+01  0.51100000000E-03 0. -1.
        -11    1    3    3    0    0  0.16820142211E+01  0.78743778495E+01  0.16843550735E+02  0.18669231371E+02  0.51100000000E-03 0.  1.
        -12    1    3    3    0    0  0.55066406637E+01 -0.54100348330E+01  0.20304889002E+02  0.21722801055E+02  0.00000000000E+00 0.  1.
</event>
<event>
 7    1  0.5559916E-010  0.4778726E+02  0.7816164E-02  0.1312668E+00
        -11   -1    0    0    0    0  0.00000000000E+00  0.00000000000E+00  0.45593999997E+02  0.45594000000E+02  0.51100000000E-03 0. -1.
         11   -1    0    0    0    0 -0.00000000000E+00 -0.00000000000E+00 -0.45593999997E+02  0.45594000000E+02  0.51100000000E-03 0.  1.
    9900012    2    1    2    0    0 -0.41214001113E+02 -0.11504753568E+02 -0.72574530835E+01  0.47787264204E+02  0.19999968811E+02 0.  0.
         12    1    1    2    0    0  0.41214001113E+02  0.11504753568E+02  0.72574530835E+01  0.43400735796E+02  0.00000000000E+00 0. -1.
         11    1    3    3    0    0 -0.32103206547E+01 -0.79573510466E+01 -0.28865435403E+01  0.90530507706E+01  0.51100000000E-03 0. -1.
        -11    1    3    3    0    0 -0.26828061666E+02 -0.33295018987E+01 -0.51859424829E+01  0.27526795588E+02  0.51100000000E-03 0.  1.
         12    1    3    3    0    0 -0.11175618792E+02 -0.21790062256E+00  0.81503293965E+00  0.11207417845E+02  0.00000000000E+00 0. -1.
</event>
<event>
 7    1  0.5559916E-010  0.4778728E+02  0.7816164E-02  0.1312668E+00
        -11   -1    0    0    0    0  0.00000000000E+00  0.00000000000E+00  0.45593999997E+02  0.45594000000E+02  0.51100000000E-03 0.  1.
         11   -1    0    0    0    0 -0.00000000000E+00 -0.00000000000E+00 -0.45593999997E+02  0.45594000000E+02  0.51100000000E-03 0. -1.
    9900012    2    1    2    0    0  0.41766849621E+02  0.10894119168E+02  0.45245120053E+01  0.47787276866E+02  0.20000026541E+02 0.  0.
         12    1    1    2    0    0 -0.41766849621E+02 -0.10894119168E+02 -0.45245120053E+01  0.43400723134E+02  0.00000000000E+00 0. -1.
         11    1    3    3    0    0  0.11897104534E+02 -0.31094230537E+01 -0.25613572966E+01  0.12560659198E+02  0.51100000000E-03 0. -1.
        -11    1    3    3    0    0  0.72727267070E+01 -0.10568325414E+01  0.13690653367E+01  0.74755460625E+01  0.51100000000E-03 0.  1.
         12    1    3    3    0    0  0.22597018380E+02  0.15060374763E+02  0.57168039652E+01  0.27751071605E+02  0.00000000000E+00 0. -1.
</event>
<event>
 7    1  0.5559916E-010  0.4778727E+02  0.7816164E-02  0.1312668E+00
        -11   -1    0    0    0    0  0.00000000000E+00  0.00000000000E+00  0.45593999997E+02  0.45594000000E+02  0.51100000000E-03 0. -1.
         11   -1    0    0    0    0 -0.00000000000E+00 -0.00000000000E+00 -0.45593999997E+02  0.45594000000E+02  0.51100000000E-03 0.  1.
    9900012    2    1    2    0    0  0.10274928110E+02 -0.20686812883E+02 -0.36743774269E+02  0.47787270485E+02  0.19999997447E+02 0.  0.
         12    1    1    2    0    0 -0.10274928110E+02  0.20686812883E+02  0.36743774269E+02  0.43400729515E+02  0.00000000000E+00 0. -1.
         11    1    3    3    0    0  0.85247912606E+01 -0.26279778853E+01 -0.66956575812E+01  0.11153930451E+02  0.51100000000E-03 0. -1.
        -11    1    3    3    0    0 -0.41091055140E+01 -0.10459620805E+02 -0.14231596001E+02  0.18133580466E+02  0.51100000000E-03 0.  1.
         12    1    3    3    0    0  0.58592423637E+01 -0.75992141921E+01 -0.15816520687E+02  0.18499759567E+02  0.00000000000E+00 0. -1.
</event>
<event>
 7    1  0.5559916E-010  0.4778727E+02  0.7816164E-02  0.1312668E+00
        -11   -1    0    0    0    0  0.00000000000E+00  0.00000000000E+00  0.45593999997E+02  0.45594000000E+02  0.51100000000E-03 0.  1.
         11   -1    0    0    0    0 -0.00000000000E+00 -0.00000000000E+00 -0.45593999997E+02  0.45594000000E+02  0.51100000000E-03 0. -1.
    9900012    2    1    2    0    0 -0.43172045659E+02 -0.20360214857E+01  0.39562939160E+01  0.47787272225E+02  0.20000005382E+02 0.  0.
         12    1    1    2    0    0  0.43172045659E+02  0.20360214857E+01 -0.39562939160E+01  0.43400727775E+02  0.00000000000E+00 0. -1.
         11    1    3    3    0    0 -0.62357253517E+01 -0.90841291532E+00 -0.23136390272E+01  0.67128541244E+01  0.51100000000E-03 0. -1.
        -11    1    3    3    0    0  0.18600069973E+00 -0.27716606387E+01  0.24783708563E+01  0.37227706509E+01  0.51100000000E-03 0.  1.
        -12    1    3    3    0    0 -0.37122321007E+02  0.16440520684E+01  0.37915620869E+01  0.37351647450E+02  0.00000000000E+00 0.  1.
</event>
<event>
 7    1  0.5559916E-010  0.4778728E+02  0.7816164E-02  0.1312668E+00
        -11   -1    0    0    0    0  0.00000000000E+00  0.00000000000E+00  0.45593999997E+02  0.45594000000E+02  0.51100000000E-03 0.  1.
         11   -1    0    0    0    0 -0.00000000000E+00 -0.00000000000E+00 -0.45593999997E+02  0.45594000000E+02  0.51100000000E-03 0. -1.
    9900012    2    1    2    0    0  0.18302143389E+01 -0.37886377529E+02  0.21092546840E+02  0.47787276285E+02  0.20000023894E+02 0.  0.
         12    1    1    2    0    0 -0.18302143389E+01  0.37886377529E+02 -0.21092546840E+02  0.43400723715E+02  0.00000000000E+00 0. -1.
         11    1    3    3    0    0 -0.42225998154E+01 -0.23468163540E+01 -0.10906258137E+01  0.49525105883E+01  0.51100000000E-03 0. -1.
        -11    1    3    3    0    0  0.38592920962E+01 -0.24012679458E+02  0.18431184492E+02  0.30515757771E+02  0.51100000000E-03 0.  1.
        -12    1    3    3    0    0  0.21935220580E+01 -0.11526881716E+02  0.37519881618E+01  0.12319007926E+02  0.00000000000E+00 0.  1.
</event>
<event>
 7    1  0.5559916E-010  0.4778727E+02  0.7816164E-02  0.1312668E+00
        -11   -1    0    0    0    0  0.00000000000E+00  0.00000000000E+00  0.45593999997E+02  0.45594000000E+02  0.51100000000E-03 0.  1.
         11   -1    0    0    0    0 -0.00000000000E+00 -0.00000000000E+00 -0.45593999997E+02  0.45594000000E+02  0.51100000000E-03 0. -1.
    9900012    2    1    2    0    0 -0.11482958080E+01 -0.41155945027E+02  0.13729270295E+02  0.47787271237E+02  0.20000000878E+02 0.  0.
         12    1    1    2    0    0  0.11482958080E+01  0.41155945027E+02 -0.13729270295E+02  0.43400728763E+02  0.00000000000E+00 0. -1.
         11    1    3    3    0    0 -0.27251312196E+01 -0.40697636355E+01 -0.17159205634E+01  0.51897687669E+01  0.51100000000E-03 0. -1.
        -11    1    3    3    0    0  0.46228105316E+01 -0.29283521839E+02  0.16856485337E+02  0.34103315480E+02  0.51100000000E-03 0.  1.
        -12    1    3    3    0    0 -0.30459751200E+01 -0.78026595525E+01 -0.14112944789E+01  0.84941869905E+01  0.00000000000E+00 0.  1.
</event>
<event>
 7    1  0.5559916E-010  0.4778728E+02  0.7816164E-02  0.1312668E+00
        -11   -1    0    0    0    0  0.00000000000E+00  0.00000000000E+00  0.45593999997E+02  0.45594000000E+02  0.51100000000E-03 0.  1.
         11   -1    0    0    0    0 -0.00000000000E+00 -0.00000000000E+00 -0.45593999997E+02  0.45594000000E+02  0.51100000000E-03 0. -1.
    9900012    2    1    2    0    0 -0.24046910742E+02 -0.58121755659E+01  0.35659327138E+02  0.47787275202E+02  0.20000018957E+02 0.  0.
         12    1    1    2    0    0  0.24046910742E+02  0.58121755659E+01 -0.35659327138E+02  0.43400724798E+02  0.00000000000E+00 0. -1.
         11    1    3    3    0    0 -0.14394491309E+01 -0.46679948444E+01  0.32147701028E+01  0.58478146981E+01  0.51100000000E-03 0. -1.
        -11    1    3    3    0    0 -0.24307235797E+02  0.27101471232E+00  0.30433039394E+02  0.38949775970E+02  0.51100000000E-03 0.  1.
        -12    1    3    3    0    0  0.16997741853E+01 -0.14151954338E+01  0.20115176407E+01  0.29896845344E+01  0.00000000000E+00 0.  1.
</event>
<event>
 7    1  0.5559916E-010  0.4778726E+02  0.7816164E-02  0.1312668E+00
        -11   -1    0    0    0    0  0.00000000000E+00  0.00000000000E+00  0.45593999997E+02  0.45594000000E+02  0.51100000000E-03 0.  1.
         11   -1    0    0    0    0 -0.00000000000E+00 -0.00000000000E+00 -0.45593999997E+02  0.45594000000E+02  0.51100000000E-03 0. -1.
    9900012    2    1    2    0    0  0.10484695195E+02  0.10355288156E+02  0.40822335610E+02  0.47787263707E+02  0.19999966546E+02 0.  0.
         12    1    1    2    0    0 -0.10484695195E+02 -0.10355288156E+02 -0.40822335610E+02  0.43400736293E+02  0.00000000000E+00 0. -1.
         11    1    3    3    0    0  0.10953910658E+02  0.81724798266E+01  0.32975146402E+02  0.35695067806E+02  0.51100000000E-03 0. -1.
        -11    1    3    3    0    0  0.18199884546E+01  0.36460712014E+01  0.83847976443E+01  0.93226082711E+01  0.51100000000E-03 0.  1.
         12    1    3    3    0    0 -0.22892039171E+01 -0.14632628725E+01 -0.53760843596E+00  0.27695876297E+01  0.00000000000E+00 0. -1.
</event>
<event>
 7    1  0.5559916E-010  0.4778727E+02  0.7816164E-02  0.1312668E+00
        -11   -1    0    0    0    0  0.00000000000E+00  0.00000000000E+00  0.45593999997E+02  0.45594000000E+02  0.51100000000E-03 0. -1.
         11   -1    0    0    0    0 -0.00000000000E+00 -0.00000000000E+00 -0.45593999997E+02  0.45594000000E+02  0.51100000000E-03 0.  1.
    9900012    2    1    2    0    0 -0.29291615581E+02  0.12509168071E+02 -0.29481267520E+02  0.47787272313E+02  0.20000005784E+02 0.  0.
         12    1    1    2    0    0  0.29291615581E+02 -0.12509168071E+02  0.29481267520E+02  0.43400727687E+02  0.00000000000E+00 0. -1.
         11    1    3    3    0    0 -0.11836160365E+02  0.43576352964E+01 -0.41685165242E+01  0.13283832573E+02  0.51100000000E-03 0. -1.
        -11    1    3    3    0    0 -0.59139553117E+00  0.32585835565E+01 -0.12053336623E+02  0.12500041579E+02  0.51100000000E-03 0.  1.
        -12    1    3    3    0    0 -0.16864059685E+02  0.48929492180E+01 -0.13259414373E+02  0.22003398161E+02  0.00000000000E+00 0.  1.
</event>
<event>
 7    1  0.5559916E-010  0.4778727E+02  0.7816164E-02  0.1312668E+00
        -11   -1    0    0    0    0  0.00000000000E+00  0.00000000000E+00  0.45593999997E+02  0.45594000000E+02  0.51100000000E-03 0.  1.
         11   -1    0    0    0    0 -0.00000000000E+00 -0.00000000000E+00 -0.45593999997E+02  0.45594000000E+02  0.51100000000E-03 0. -1.
    9900012    2    1    2    0    0 -0.31792923680E+02  0.11415478274E+02  0.27249217634E+02  0.47787274177E+02  0.20000014282E+02 0.  0.
         12    1    1    2    0    0  0.31792923680E+02 -0.11415478274E+02 -0.27249217634E+02  0.43400725823E+02  0.00000000000E+00 0. -1.
         11    1    3    3    0    0 -0.11537636750E+01  0.29634982737E+01  0.69879630731E+01  0.76775725857E+01  0.51100000000E-03 0. -1.
        -11    1    3    3    0    0 -0.25722736285E+02  0.48824388298E+01  0.96913725742E+01  0.27918095808E+02  0.51100000000E-03 0.  1.
        -12    1    3    3    0    0 -0.49164237195E+01  0.35695411708E+01  0.10569881987E+02  0.12191605783E+02  0.00000000000E+00 0.  1.
</event>
<event>
 7    1  0.5559916E-010  0.4778728E+02  0.7816164E-02  0.1312668E+00
        -11   -1    0    0    0    0  0.00000000000E+00  0.00000000000E+00  0.45593999997E+02  0.45594000000E+02  0.51100000000E-03 0. -1.
         11   -1    0    0    0    0 -0.00000000000E+00 -0.00000000000E+00 -0.45593999997E+02  0.45594000000E+02  0.51100000000E-03 0.  1.
    9900012    2    1    2    0    0 -0.26296060313E+02 -0.19367966258E+02 -0.28583594660E+02  0.47787276635E+02  0.20000025490E+02 0.  0.
         12    1    1    2    0    0  0.26296060313E+02  0.19367966258E+02  0.28583594660E+02  0.43400723365E+02  0.00000000000E+00 0. -1.
         11    1    3    3    0    0 -0.19288543163E+02 -0.83569532220E+01 -0.16111460182E+02  0.26485198017E+02  0.51100000000E-03 0. -1.
        -11    1    3    3    0    0  0.16709147936E+01  0.67784020677E+00  0.42507164904E+00  0.18525954122E+01  0.51100000000E-03 0.  1.
        -12    1    3    3    0    0 -0.86784319431E+01 -0.11688853242E+02 -0.12897206127E+02  0.19449483206E+02  0.00000000000E+00 0.  1.
</event>
<event>
 7    1  0.5559916E-010  0.4778727E+02  0.7816164E-02  0.1312668E+00
        -11   -1    0    0    0    0  0.00000000000E+00  0.00000000000E+00  0.45593999997E+02  0.45594000000E+02  0.51100000000E-03 0. -1.
         11   -1    0    0    0    0 -0.00000000000E+00 -0.00000000000E+00 -0.45593999997E+02  0.45594000000E+02  0.51100000000E-03 0.  1.
    9900012    2    1    2    0    0  0.16671503423E+02  0.17668821157E+02 -0.35965220336E+02  0.47787270268E+02  0.19999996458E+02 0.  0.
         12    1    1    2    0    0 -0.16671503423E+02 -0.17668821157E+02  0.35965220336E+02  0.43400729732E+02  0.00000000000E+00 0. -1.
         11    1    3    3    0    0  0.83638543116E+01  0.17958004159E+02 -0.21941547860E+02  0.29561385202E+02  0.51100000000E-03 0. -1.
        -11    1    3    3    0    0  0.29685274354E+01  0.33749106576E+00 -0.12182589329E+02  0.12543585547E+02  0.51100000000E-03 0.  1.
         12    1    3    3    0    0  0.53391216765E+01 -0.62667406750E+00 -0.18410831466E+01  0.56822995183E+01  0.00000000000E+00 0. -1.
</event>
<event>
 7    1  0.5559916E-010  0.4778727E+02  0.7816164E-02  0.1312668E+00
        -11   -1    0    0    0    0  0.00000000000E+00  0.00000000000E+00  0.45593999997E+02  0.45594000000E+02  0.51100000000E-03 0.  1.
         11   -1    0    0    0    0 -0.00000000000E+00 -0.00000000000E+00 -0.45593999997E+02  0.45594000000E+02  0.51100000000E-03 0. -1.
    9900012    2    1    2    0    0 -0.33835079933E+01  0.30774446964E+02  0.30415593459E+02  0.47787273765E+02  0.20000012405E+02 0.  0.
         12    1    1    2    0    0  0.33835079933E+01 -0.30774446964E+02 -0.30415593459E+02  0.43400726235E+02  0.00000000000E+00 0. -1.
         11    1    3    3    0    0  0.34774240075E+01  0.56217190673E+01  0.19671814764E+00  0.66132368240E+01  0.51100000000E-03 0. -1.
        -11    1    3    3    0    0 -0.63963308563E+01  0.87396364064E+01  0.16703806073E+02  0.19907572190E+02  0.51100000000E-03 0.  1.
        -12    1    3    3    0    0 -0.46460114448E+00  0.16413091490E+02  0.13515069238E+02  0.21266464751E+02  0.00000000000E+00 0.  1.
</event>
<event>
 7    1  0.5559916E-010  0.4778726E+02  0.7816164E-02  0.1312668E+00
        -11   -1    0    0    0    0  0.00000000000E+00  0.00000000000E+00  0.45593999997E+02  0.45594000000E+02  0.51100000000E-03 0. -1.
         11   -1    0    0    0    0 -0.00000000000E+00 -0.00000000000E+00 -0.45593999997E+02  0.45594000000E+02  0.51100000000E-03 0.  1.
    9900012    2    1    2    0    0 -0.41600860399E+02  0.12281348597E+02  0.14699982278E+01  0.47787262632E+02  0.19999961642E+02 0.  0.
         12    1    1    2    0    0  0.41600860399E+02 -0.12281348597E+02 -0.14699982278E+01  0.43400737368E+02  0.00000000000E+00 0. -1.
         11    1    3    3    0    0 -0.12111328264E+02  0.51202271675E+01  0.81602530287E+01  0.15475487983E+02  0.51100000000E-03 0. -1.
        -11    1    3    3    0    0 -0.27197848825E+02  0.55322973652E+01 -0.84283871455E+01  0.29006326982E+02  0.51100000000E-03 0.  1.
        -12    1    3    3    0    0 -0.22916833102E+01  0.16288240644E+01  0.17381323446E+01  0.33054476662E+01  0.00000000000E+00 0.  1.
</event>
<event>
 7    1  0.5559916E-010  0.4778728E+02  0.7816164E-02  0.1312668E+00
        -11   -1    0    0    0    0  0.00000000000E+00  0.00000000000E+00  0.45593999997E+02  0.45594000000E+02  0.51100000000E-03 0. -1.
         11   -1    0    0    0    0 -0.00000000000E+00 -0.00000000000E+00 -0.45593999997E+02  0.45594000000E+02  0.51100000000E-03 0.  1.
    9900012    2    1    2    0    0 -0.34903111843E+02  0.14212876517E+02  0.21526473838E+02  0.47787283979E+02  0.20000058974E+02 0.  0.
         12    1    1    2    0    0  0.34903111843E+02 -0.14212876517E+02 -0.21526473838E+02  0.43400716021E+02  0.00000000000E+00 0. -1.
         11    1    3    3    0    0 -0.30886043515E+01  0.98948931090E+01  0.68647531693E+01  0.12432747999E+02  0.51100000000E-03 0. -1.
        -11    1    3    3    0    0 -0.21337005278E+02  0.27940566741E+01  0.87674881475E+01  0.23236682113E+02  0.51100000000E-03 0.  1.
         12    1    3    3    0    0 -0.10477502214E+02  0.15239267336E+01  0.58942325216E+01  0.12117853867E+02  0.00000000000E+00 0. -1.
</event>
<event>
 7    1  0.5559916E-010  0.4778728E+02  0.7816164E-02  0.1312668E+00
        -11   -1    0    0    0    0  0.00000000000E+00  0.00000000000E+00  0.45593999997E+02  0.45594000000E+02  0.51100000000E-03 0.  1.
         11   -1    0    0    0    0 -0.00000000000E+00 -0.00000000000E+00 -0.45593999997E+02  0.45594000000E+02  0.51100000000E-03 0. -1.
    9900012    2    1    2    0    0 -0.15628892756E+02 -0.41931270291E+01  0.40271304160E+02  0.47787279478E+02  0.20000038451E+02 0.  0.
         12    1    1    2    0    0  0.15628892756E+02  0.41931270291E+01 -0.40271304160E+02  0.43400720522E+02  0.00000000000E+00 0. -1.
         11    1    3    3    0    0 -0.70318814391E+01 -0.99337859074E+00  0.11142687798E+02  0.13213389014E+02  0.51100000000E-03 0. -1.
        -11    1    3    3    0    0 -0.44336305721E+01  0.65617695373E+01  0.14177378357E+02  0.16239210475E+02  0.51100000000E-03 0.  1.
        -12    1    3    3    0    0 -0.41633807451E+01 -0.97615179757E+01  0.14951238005E+02  0.18334679989E+02  0.00000000000E+00 0.  1.
</event>
<event>
 7    1  0.5559916E-010  0.4778727E+02  0.7816164E-02  0.1312668E+00
        -11   -1    0    0    0    0  0.00000000000E+00  0.00000000000E+00  0.45593999997E+02  0.45594000000E+02  0.51100000000E-03 0.  1.
         11   -1    0    0    0    0 -0.00000000000E+00 -0.00000000000E+00 -0.45593999997E+02  0.45594000000E+02  0.51100000000E-03 0. -1.
    9900012    2    1    2    0    0 -0.79329138760E+01  0.29355744982E+02  0.30966637945E+02  0.47787267845E+02  0.19999985412E+02 0.  0.
         12    1    1    2    0    0  0.79329138760E+01 -0.29355744982E+02 -0.30966637945E+02  0.43400732155E+02  0.00000000000E+00 0. -1.
         11    1    3    3    0    0  0.70644506110E+00 -0.82008805315E+00 -0.12614100393E+01  0.16621566075E+01  0.51100000000E-03 0. -1.
        -11    1    3    3    0    0 -0.50001283558E+01  0.85807485440E+01  0.48104334531E+01  0.11034980717E+02  0.51100000000E-03 0.  1.
         12    1    3    3    0    0 -0.36392305813E+01  0.21595084491E+02  0.27417614531E+02  0.35090130521E+02  0.00000000000E+00 0. -1.
</event>
<event>
 7    1  0.5559916E-010  0.4778727E+02  0.7816164E-02  0.1312668E+00
        -11   -1    0    0    0    0  0.00000000000E+00  0.00000000000E+00  0.45593999997E+02  0.45594000000E+02  0.51100000000E-03 0. -1.
         11   -1    0    0    0    0 -0.00000000000E+00 -0.00000000000E+00 -0.45593999997E+02  0.45594000000E+02  0.51100000000E-03 0.  1.
    9900012    2    1    2    0    0  0.15737002562E+01  0.41837289746E+02 -0.11436253866E+02  0.47787271339E+02  0.20000001344E+02 0.  0.
         12    1    1    2    0    0 -0.15737002562E+01 -0.41837289746E+02  0.11436253866E+02  0.43400728661E+02  0.00000000000E+00 0. -1.
         11    1    3    3    0    0 -0.94587734019E+00 -0.15786280433E+01 -0.16007982222E-01  0.18403822860E+01  0.51100000000E-03 0. -1.
        -11    1    3    3    0    0  0.24832457200E+01  0.23930980574E+01 -0.41544098550E+00  0.34736175800E+01  0.51100000000E-03 0.  1.
         12    1    3    3    0    0  0.36331876407E-01  0.41022819732E+02 -0.11004804899E+02  0.42473271473E+02  0.00000000000E+00 0. -1.
</event>
<event>
 7    1  0.5559916E-010  0.4778727E+02  0.7816164E-02  0.1312668E+00
        -11   -1    0    0    0    0  0.00000000000E+00  0.00000000000E+00  0.45593999997E+02  0.45594000000E+02  0.51100000000E-03 0.  1.
         11   -1    0    0    0    0 -0.00000000000E+00 -0.00000000000E+00 -0.45593999997E+02  0.45594000000E+02  0.51100000000E-03 0. -1.
    9900012    2    1    2    0    0 -0.34276403462E+02 -0.22199077954E+02  0.14695314682E+02  0.47787272242E+02  0.20000005461E+02 0.  0.
         12    1    1    2    0    0  0.34276403462E+02  0.22199077954E+02 -0.14695314682E+02  0.43400727758E+02  0.00000000000E+00 0. -1.
         11    1    3    3    0    0 -0.15600901359E+02 -0.12742692007E+02  0.68841557599E+00  0.20155352616E+02  0.51100000000E-03 0. -1.
        -11    1    3    3    0    0 -0.19288978668E+02 -0.61075872555E+01  0.10709656659E+02  0.22892445613E+02  0.51100000000E-03 0.  1.
         12    1    3    3    0    0  0.61347656447E+00 -0.33487986911E+01  0.32972424473E+01  0.47394740135E+01  0.00000000000E+00 0. -1.
</event>
<event>
 7    1  0.5559916E-010  0.4778728E+02  0.7816164E-02  0.1312668E+00
        -11   -1    0    0    0    0  0.00000000000E+00  0.00000000000E+00  0.45593999997E+02  0.45594000000E+02  0.51100000000E-03 0.  1.
         11   -1    0    0    0    0 -0.00000000000E+00 -0.00000000000E+00 -0.45593999997E+02  0.45594000000E+02  0.51100000000E-03 0. -1.
    9900012    2    1    2    0    0  0.42239827751E+02 -0.36505639999E+01  0.92786439337E+01  0.47787275361E+02  0.20000019683E+02 0.  0.
         12    1    1    2    0    0 -0.42239827751E+02  0.36505639999E+01 -0.92786439337E+01  0.43400724639E+02  0.00000000000E+00 0. -1.
         11    1    3    3    0    0  0.29185280391E+02 -0.90284619356E+01  0.12307516444E+02  0.32935826659E+02  0.51100000000E-03 0. -1.
        -11    1    3    3    0    0  0.76882515820E+01  0.43358933775E+01 -0.31823232916E+01  0.93827696104E+01  0.51100000000E-03 0.  1.
         12    1    3    3    0    0  0.53662957772E+01  0.10420045583E+01  0.15345078145E+00  0.54686790919E+01  0.00000000000E+00 0. -1.
</event>
<event>
 7    1  0.5559916E-010  0.4778727E+02  0.7816164E-02  0.1312668E+00
        -11   -1    0    0    0    0  0.00000000000E+00  0.00000000000E+00  0.45593999997E+02  0.45594000000E+02  0.51100000000E-03 0. -1.
         11   -1    0    0    0    0 -0.00000000000E+00 -0.00000000000E+00 -0.45593999997E+02  0.45594000000E+02  0.51100000000E-03 0.  1.
    9900012    2    1    2    0    0  0.30458392819E+02  0.29095433032E+02 -0.10457790253E+02  0.47787270820E+02  0.19999998975E+02 0.  0.
         12    1    1    2    0    0 -0.30458392819E+02 -0.29095433032E+02  0.10457790253E+02  0.43400729180E+02  0.00000000000E+00 0. -1.
         11    1    3    3    0    0 -0.16731130279E+01  0.95640462707E+00 -0.23091902697E+01  0.30077195643E+01  0.51100000000E-03 0. -1.
        -11    1    3    3    0    0  0.24290651693E+02  0.25852893285E+02 -0.89126925970E+01  0.36576549051E+02  0.51100000000E-03 0.  1.
        -12    1    3    3    0    0  0.78408541536E+01  0.22861351194E+01  0.76409261324E+00  0.82030022043E+01  0.00000000000E+00 0.  1.
</event>
<event>
 7    1  0.5559916E-010  0.4778727E+02  0.7816164E-02  0.1312668E+00
        -11   -1    0    0    0    0  0.00000000000E+00  0.00000000000E+00  0.45593999997E+02  0.45594000000E+02  0.51100000000E-03 0.  1.
         11   -1    0    0    0    0 -0.00000000000E+00 -0.00000000000E+00 -0.45593999997E+02  0.45594000000E+02  0.51100000000E-03 0. -1.
    9900012    2    1    2    0    0  0.37903847371E+01 -0.23193600628E+02  0.36487163444E+02  0.47787271633E+02  0.20000002685E+02 0.  0.
         12    1    1    2    0    0 -0.37903847371E+01  0.23193600628E+02 -0.36487163444E+02  0.43400728367E+02  0.00000000000E+00 0. -1.
         11    1    3    3    0    0  0.88728253452E-01 -0.87550033462E+01  0.19661098096E+01  0.89734912013E+01  0.51100000000E-03 0. -1.
        -11    1    3    3    0    0  0.60707610114E+01 -0.10630124185E+02  0.18551926515E+02  0.22226732939E+02  0.51100000000E-03 0.  1.
         12    1    3    3    0    0 -0.23691045278E+01 -0.38084730968E+01  0.15969127119E+02  0.16587047493E+02  0.00000000000E+00 0. -1.
</event>
<event>
 7    1  0.5559916E-010  0.4778728E+02  0.7816164E-02  0.1312668E+00
        -11   -1    0    0    0    0  0.00000000000E+00  0.00000000000E+00  0.45593999997E+02  0.45594000000E+02  0.51100000000E-03 0. -1.
         11   -1    0    0    0    0 -0.00000000000E+00 -0.00000000000E+00 -0.45593999997E+02  0.45594000000E+02  0.51100000000E-03 0.  1.
    9900012    2    1    2    0    0  0.30284899127E+02 -0.25296498397E+02 -0.18070278925E+02  0.47787275044E+02  0.20000018236E+02 0.  0.
         12    1    1    2    0    0 -0.30284899127E+02  0.25296498397E+02  0.18070278925E+02  0.43400724956E+02  0.00000000000E+00 0. -1.
         11    1    3    3    0    0  0.55894369494E-01 -0.32780004524E+01  0.30094739252E+01  0.44503196193E+01  0.51100000000E-03 0. -1.
        -11    1    3    3    0    0  0.28452661337E+02 -0.21185835857E+02 -0.18248324268E+02  0.39892291448E+02  0.51100000000E-03 0.  1.
        -12    1    3    3    0    0  0.17763434205E+01 -0.83266208806E+00 -0.28314285820E+01  0.34446639772E+01  0.00000000000E+00 0.  1.
</event>
<event>
 7    1  0.5559916E-010  0.4778727E+02  0.7816164E-02  0.1312668E+00
        -11   -1    0    0    0    0  0.00000000000E+00  0.00000000000E+00  0.45593999997E+02  0.45594000000E+02  0.51100000000E-03 0. -1.
         11   -1    0    0    0    0 -0.00000000000E+00 -0.00000000000E+00 -0.45593999997E+02  0.45594000000E+02  0.51100000000E-03 0.  1.
    9900012    2    1    2    0    0 -0.27140265934E+02  0.16116569756E+02 -0.29787335912E+02  0.47787271476E+02  0.20000001966E+02 0.  0.
         12    1    1    2    0    0  0.27140265934E+02 -0.16116569756E+02  0.29787335912E+02  0.43400728524E+02  0.00000000000E+00 0. -1.
         11    1    3    3    0    0 -0.24556925895E+01  0.21344916344E+01 -0.67480400498E+00  0.33229266223E+01  0.51100000000E-03 0. -1.
        -11    1    3    3    0    0 -0.16257744866E+02  0.22865890203E+01 -0.65205878501E+01  0.17665243379E+02  0.51100000000E-03 0.  1.
        -12    1    3    3    0    0 -0.84268284791E+01  0.11695489102E+02 -0.22591944057E+02  0.26799101474E+02  0.00000000000E+00 0.  1.
</event>
<event>
 7    1  0.5559916E-010  0.4778727E+02  0.7816164E-02  0.1312668E+00
        -11   -1    0    0    0    0  0.00000000000E+00  0.00000000000E+00  0.45593999997E+02  0.45594000000E+02  0.51100000000E-03 0.  1.
         11   -1    0    0    0    0 -0.00000000000E+00 -0.00000000000E+00 -0.45593999997E+02  0.45594000000E+02  0.51100000000E-03 0. -1.
    9900012    2    1    2    0    0 -0.39195054081E+02  0.17862981896E+02  0.53183613206E+01  0.47787270124E+02  0.19999995802E+02 0.  0.
         12    1    1    2    0    0  0.39195054081E+02 -0.17862981896E+02 -0.53183613206E+01  0.43400729876E+02  0.00000000000E+00 0. -1.
         11    1    3    3    0    0 -0.12091443418E+01  0.12965166631E+01  0.34281571389E+01  0.38594361152E+01  0.51100000000E-03 0. -1.
        -11    1    3    3    0    0 -0.32959228420E+02  0.94111935708E+01 -0.20475951940E+01  0.34337646233E+02  0.51100000000E-03 0.  1.
        -12    1    3    3    0    0 -0.50266813191E+01  0.71552716620E+01  0.39377993757E+01  0.95901877752E+01  0.00000000000E+00 0.  1.
</event>
<event>
 7    1  0.5559916E-010  0.4778727E+02  0.7816164E-02  0.1312668E+00
        -11   -1    0    0    0    0  0.00000000000E+00  0.00000000000E+00  0.45593999997E+02  0.45594000000E+02  0.51100000000E-03 0.  1.
         11   -1    0    0    0    0 -0.00000000000E+00 -0.00000000000E+00 -0.45593999997E+02  0.45594000000E+02  0.51100000000E-03 0. -1.
    9900012    2    1    2    0    0  0.24995599764E+02  0.29333356261E+02  0.19959888908E+02  0.47787274634E+02  0.20000016366E+02 0.  0.
         12    1    1    2    0    0 -0.24995599764E+02 -0.29333356261E+02 -0.19959888908E+02  0.43400725366E+02  0.00000000000E+00 0. -1.
         11    1    3    3    0    0  0.18315870177E+01  0.33148893229E+01  0.10604942859E+02  0.11260906515E+02  0.51100000000E-03 0. -1.
        -11    1    3    3    0    0  0.22833813465E+02  0.26088114885E+02  0.97426310293E+01  0.36012381693E+02  0.51100000000E-03 0.  1.
        -12    1    3    3    0    0  0.33019928132E+00 -0.69647946320E-01 -0.38768498075E+00  0.51398642599E+00  0.00000000000E+00 0.  1.
</event>
<event>
 7    1  0.5559916E-010  0.4778727E+02  0.7816164E-02  0.1312668E+00
        -11   -1    0    0    0    0  0.00000000000E+00  0.00000000000E+00  0.45593999997E+02  0.45594000000E+02  0.51100000000E-03 0.  1.
         11   -1    0    0    0    0 -0.00000000000E+00 -0.00000000000E+00 -0.45593999997E+02  0.45594000000E+02  0.51100000000E-03 0. -1.
    9900012    2    1    2    0    0  0.40242348775E+02  0.75863934264E+01 -0.14374411745E+02  0.47787265983E+02  0.19999976925E+02 0.  0.
         12    1    1    2    0    0 -0.40242348775E+02 -0.75863934264E+01  0.14374411745E+02  0.43400734017E+02  0.00000000000E+00 0. -1.
         11    1    3    3    0    0  0.67735027132E+01 -0.27440259780E+01 -0.67569707152E+01  0.99532241550E+01  0.51100000000E-03 0. -1.
        -11    1    3    3    0    0  0.30782705171E+02  0.68081748108E+01 -0.96357839515E+01  0.32966263278E+02  0.51100000000E-03 0.  1.
        -12    1    3    3    0    0  0.26861408914E+01  0.35222445937E+01  0.20183429221E+01  0.48677785505E+01  0.00000000000E+00 0.  1.
</event>
<event>
 7    1  0.5559916E-010  0.4778727E+02  0.7816164E-02  0.1312668E+00
        -11   -1    0    0    0    0  0.00000000000E+00  0.00000000000E+00  0.45593999997E+02  0.45594000000E+02  0.51100000000E-03 0.  1.
         11   -1    0    0    0    0 -0.00000000000E+00 -0.00000000000E+00 -0.45593999997E+02  0.45594000000E+02  0.51100000000E-03 0. -1.
    9900012    2    1    2    0    0  0.21710745195E+02 -0.36893139953E+02  0.71528325415E+01  0.47787271367E+02  0.20000001469E+02 0.  0.
         12    1    1    2    0    0 -0.21710745195E+02  0.36893139953E+02 -0.71528325415E+01  0.43400728633E+02  0.00000000000E+00 0. -1.
         11    1    3    3    0    0  0.39357836827E+01  0.79466140234E+00 -0.19825118983E+01  0.44779720443E+01  0.51100000000E-03 0. -1.
        -11    1    3    3    0    0  0.16363078974E+02 -0.28663600717E+02  0.88482627143E+01  0.34170807905E+02  0.51100000000E-03 0.  1.
        -12    1    3    3    0    0  0.14118825389E+01 -0.90242006388E+01  0.28708172551E+00  0.91384914176E+01  0.00000000000E+00 0.  1.
</event>
<event>
 7    1  0.5559916E-010  0.4778727E+02  0.7816164E-02  0.1312668E+00
        -11   -1    0    0    0    0  0.00000000000E+00  0.00000000000E+00  0.45593999997E+02  0.45594000000E+02  0.51100000000E-03 0. -1.
         11   -1    0    0    0    0 -0.00000000000E+00 -0.00000000000E+00 -0.45593999997E+02  0.45594000000E+02  0.51100000000E-03 0.  1.
    9900012    2    1    2    0    0  0.97788434798E+01  0.64073270663E+01 -0.41796456224E+02  0.47787269905E+02  0.19999994803E+02 0.  0.
         12    1    1    2    0    0 -0.97788434798E+01 -0.64073270663E+01  0.41796456224E+02  0.43400730095E+02  0.00000000000E+00 0. -1.
         11    1    3    3    0    0  0.99051805424E+01  0.84269869719E+01 -0.14268572151E+02  0.19305928170E+02  0.51100000000E-03 0. -1.
        -11    1    3    3    0    0  0.11092846965E+01 -0.41232454078E+01 -0.11465859358E+02  0.12235096907E+02  0.51100000000E-03 0.  1.
        -12    1    3    3    0    0 -0.12356217592E+01  0.21035855022E+01 -0.16062024714E+02  0.16246244828E+02  0.00000000000E+00 0.  1.
</event>
<event>
 7    1  0.5559916E-010  0.4778727E+02  0.7816164E-02  0.1312668E+00
        -11   -1    0    0    0    0  0.00000000000E+00  0.00000000000E+00  0.45593999997E+02  0.45594000000E+02  0.51100000000E-03 0.  1.
         11   -1    0    0    0    0 -0.00000000000E+00 -0.00000000000E+00 -0.45593999997E+02  0.45594000000E+02  0.51100000000E-03 0. -1.
    9900012    2    1    2    0    0  0.11342075369E+02 -0.32726517143E+01  0.41764467378E+02  0.47787266616E+02  0.19999979809E+02 0.  0.
         12    1    1    2    0    0 -0.11342075369E+02  0.32726517143E+01 -0.41764467378E+02  0.43400733384E+02  0.00000000000E+00 0. -1.
         11    1    3    3    0    0  0.60947294099E+01  0.20529027153E+01  0.79332951757E+01  0.10212605385E+02  0.51100000000E-03 0. -1.
        -11    1    3    3    0    0  0.75779529621E+01 -0.55225857616E+01  0.33961415470E+02  0.35232116961E+02  0.51100000000E-03 0.  1.
        -12    1    3    3    0    0 -0.23306070034E+01  0.19703133199E+00 -0.13024326746E+00  0.23425442704E+01  0.00000000000E+00 0.  1.
</event>
<event>
 7    1  0.5559916E-010  0.4778727E+02  0.7816164E-02  0.1312668E+00
        -11   -1    0    0    0    0  0.00000000000E+00  0.00000000000E+00  0.45593999997E+02  0.45594000000E+02  0.51100000000E-03 0.  1.
         11   -1    0    0    0    0 -0.00000000000E+00 -0.00000000000E+00 -0.45593999997E+02  0.45594000000E+02  0.51100000000E-03 0. -1.
    9900012    2    1    2    0    0  0.34356060905E+02 -0.19051669646E+02 -0.18447713604E+02  0.47787272190E+02  0.20000005224E+02 0.  0.
         12    1    1    2    0    0 -0.34356060905E+02  0.19051669646E+02  0.18447713604E+02  0.43400727810E+02  0.00000000000E+00 0. -1.
         11    1    3    3    0    0  0.14168347578E+02  0.21829052272E+01 -0.36409232567E+01  0.14790654845E+02  0.51100000000E-03 0.  1.
        -11    1    3    3    0    0  0.18401797033E+02 -0.19670779284E+02 -0.14533871602E+02  0.30607174251E+02  0.51100000000E-03 0. -1.
         12    1    3    3    0    0  0.17859162943E+01 -0.15637955892E+01 -0.27291874535E+00  0.23894430934E+01  0.00000000000E+00 0. -1.
</event>
<event>
 7    1  0.5559916E-010  0.4778727E+02  0.7816164E-02  0.1312668E+00
        -11   -1    0    0    0    0  0.00000000000E+00  0.00000000000E+00  0.45593999997E+02  0.45594000000E+02  0.51100000000E-03 0. -1.
         11   -1    0    0    0    0 -0.00000000000E+00 -0.00000000000E+00 -0.45593999997E+02  0.45594000000E+02  0.51100000000E-03 0.  1.
    9900012    2    1    2    0    0  0.38172946069E+02  0.18968696281E+02 -0.81631972143E+01  0.47787273751E+02  0.20000012341E+02 0.  0.
         12    1    1    2    0    0 -0.38172946069E+02 -0.18968696281E+02  0.81631972143E+01  0.43400726249E+02  0.00000000000E+00 0. -1.
         11    1    3    3    0    0  0.81257774570E+01  0.24841245317E+01 -0.10022431710E+02  0.13139568928E+02  0.51100000000E-03 0. -1.
        -11    1    3    3    0    0  0.21095458937E+02  0.91655178050E+01  0.19644379542E+01  0.23084282989E+02  0.51100000000E-03 0.  1.
        -12    1    3    3    0    0  0.89517096752E+01  0.73190539440E+01 -0.10520345856E+00  0.11563421834E+02  0.00000000000E+00 0.  1.
</event>
<event>
 7    1  0.5559916E-010  0.4778727E+02  0.7816164E-02  0.1312668E+00
        -11   -1    0    0    0    0  0.00000000000E+00  0.00000000000E+00  0.45593999997E+02  0.45594000000E+02  0.51100000000E-03 0. -1.
         11   -1    0    0    0    0 -0.00000000000E+00 -0.00000000000E+00 -0.45593999997E+02  0.45594000000E+02  0.51100000000E-03 0.  1.
    9900012    2    1    2    0    0 -0.40579735740E+01 -0.22522470847E+02 -0.36876748234E+02  0.47787269558E+02  0.19999993224E+02 0.  0.
         12    1    1    2    0    0  0.40579735740E+01  0.22522470847E+02  0.36876748234E+02  0.43400730442E+02  0.00000000000E+00 0. -1.
         11    1    3    3    0    0  0.48146651290E+01 -0.11277020983E+02 -0.21890102571E+02  0.25090412380E+02  0.51100000000E-03 0. -1.
        -11    1    3    3    0    0 -0.95469373945E+01 -0.72254892579E+01 -0.73738134778E+01  0.14061466285E+02  0.51100000000E-03 0.  1.
        -12    1    3    3    0    0  0.67429869144E+00 -0.40199606058E+01 -0.76128321853E+01  0.86353908933E+01  0.00000000000E+00 0.  1.
</event>
<event>
 7    1  0.5559916E-010  0.4778727E+02  0.7816164E-02  0.1312668E+00
        -11   -1    0    0    0    0  0.00000000000E+00  0.00000000000E+00  0.45593999997E+02  0.45594000000E+02  0.51100000000E-03 0.  1.
         11   -1    0    0    0    0 -0.00000000000E+00 -0.00000000000E+00 -0.45593999997E+02  0.45594000000E+02  0.51100000000E-03 0. -1.
    9900012    2    1    2    0    0 -0.22399346370E+02  0.10458421064E+02  0.35672316204E+02  0.47787269219E+02  0.19999991678E+02 0.  0.
         12    1    1    2    0    0  0.22399346370E+02 -0.10458421064E+02 -0.35672316204E+02  0.43400730781E+02  0.00000000000E+00 0. -1.
         11    1    3    3    0    0 -0.11109571375E+02 -0.11079081736E+01  0.24301760962E+02  0.26743702488E+02  0.51100000000E-03 0.  1.
        -11    1    3    3    0    0 -0.12091487615E+02  0.93738776772E+01  0.91797434015E+01  0.17842122762E+02  0.51100000000E-03 0. -1.
         12    1    3    3    0    0  0.80171262015E+00  0.21924515603E+01  0.21908118407E+01  0.32014439696E+01  0.00000000000E+00 0. -1.
</event>
<event>
 7    1  0.6337909E-010  0.4778727E+02  0.7816164E-02  0.1312668E+00
        -11   -1    0    0    0    0  0.00000000000E+00  0.00000000000E+00  0.45593999997E+02  0.45594000000E+02  0.51100000000E-03 0.  1.
         11   -1    0    0    0    0 -0.00000000000E+00 -0.00000000000E+00 -0.45593999997E+02  0.45594000000E+02  0.51100000000E-03 0. -1.
    9900012    2    1    2    0    0 -0.39487401804E+02  0.29388388897E+01  0.17768838041E+02  0.47787270967E+02  0.19999999648E+02 0.  0.
         12    1    1    2    0    0  0.39487401804E+02 -0.29388388897E+01 -0.17768838041E+02  0.43400729033E+02  0.00000000000E+00 0. -1.
         11    1    3    3    0    0 -0.93578564709E+01 -0.60453348223E+01  0.68137792089E+01  0.13059216600E+02  0.51100000000E-03 0. -1.
        -11    1    3    3    0    0 -0.23244000799E+02  0.54883305135E+01  0.12339947398E+02  0.26882701632E+02  0.51100000000E-03 0.  1.
         12    1    3    3    0    0 -0.68855445343E+01  0.34958431985E+01 -0.13848885659E+01  0.78453527353E+01  0.00000000000E+00 0. -1.
</event>
<event>
 7    1  0.5559916E-010  0.4778727E+02  0.7816164E-02  0.1312668E+00
        -11   -1    0    0    0    0  0.00000000000E+00  0.00000000000E+00  0.45593999997E+02  0.45594000000E+02  0.51100000000E-03 0.  1.
         11   -1    0    0    0    0 -0.00000000000E+00 -0.00000000000E+00 -0.45593999997E+02  0.45594000000E+02  0.51100000000E-03 0. -1.
    9900012    2    1    2    0    0  0.98521115927E+01 -0.14597397426E+02  0.39667051940E+02  0.47787272771E+02  0.20000007872E+02 0.  0.
         12    1    1    2    0    0 -0.98521115927E+01  0.14597397426E+02 -0.39667051940E+02  0.43400727229E+02  0.00000000000E+00 0. -1.
         11    1    3    3    0    0 -0.31440634336E+01 -0.28898499940E+01  0.33546859748E+01  0.54304959362E+01  0.51100000000E-03 0. -1.
        -11    1    3    3    0    0  0.14154770101E+02 -0.58326760944E+01  0.29847755629E+02  0.33544986859E+02  0.51100000000E-03 0.  1.
        -12    1    3    3    0    0 -0.11585950750E+01 -0.58748713371E+01  0.64646103357E+01  0.88117899752E+01  0.00000000000E+00 0.  1.
</event>
<event>
 7    1  0.5559916E-010  0.4778727E+02  0.7816164E-02  0.1312668E+00
        -11   -1    0    0    0    0  0.00000000000E+00  0.00000000000E+00  0.45593999997E+02  0.45594000000E+02  0.51100000000E-03 0.  1.
         11   -1    0    0    0    0 -0.00000000000E+00 -0.00000000000E+00 -0.45593999997E+02  0.45594000000E+02  0.51100000000E-03 0. -1.
    9900012    2    1    2    0    0 -0.22392728158E+02  0.63164750466E+01  0.36637290419E+02  0.47787272118E+02  0.20000004897E+02 0.  0.
         12    1    1    2    0    0  0.22392728158E+02 -0.63164750466E+01 -0.36637290419E+02  0.43400727882E+02  0.00000000000E+00 0. -1.
         11    1    3    3    0    0 -0.17818590879E+01 -0.29182093153E+00  0.14681733517E-01  0.18056569662E+01  0.51100000000E-03 0. -1.
        -11    1    3    3    0    0 -0.89514626774E+01 -0.17530928244E+01  0.32976835804E+01  0.96993162529E+01  0.51100000000E-03 0.  1.
        -12    1    3    3    0    0 -0.11659406393E+02  0.83613888026E+01  0.33324925106E+02  0.36282298899E+02  0.00000000000E+00 0.  1.
</event>
<event>
 7    1  0.5559916E-010  0.4778727E+02  0.7816164E-02  0.1312668E+00
        -11   -1    0    0    0    0  0.00000000000E+00  0.00000000000E+00  0.45593999997E+02  0.45594000000E+02  0.51100000000E-03 0. -1.
         11   -1    0    0    0    0 -0.00000000000E+00 -0.00000000000E+00 -0.45593999997E+02  0.45594000000E+02  0.51100000000E-03 0.  1.
    9900012    2    1    2    0    0 -0.29538449207E+02  0.30942163168E+02  0.73270719244E+01  0.47787269291E+02  0.19999992006E+02 0.  0.
         12    1    1    2    0    0  0.29538449207E+02 -0.30942163168E+02 -0.73270719244E+01  0.43400730709E+02  0.00000000000E+00 0. -1.
         11    1    3    3    0    0 -0.18226626751E+02  0.17677098303E+02  0.77591278418E+01  0.26549836012E+02  0.51100000000E-03 0. -1.
        -11    1    3    3    0    0 -0.24585122092E+01 -0.22483893956E+01  0.40370016917E+00  0.33559665143E+01  0.51100000000E-03 0.  1.
        -12    1    3    3    0    0 -0.88533102471E+01  0.15513454261E+02 -0.83575608658E+00  0.17881466765E+02  0.00000000000E+00 0.  1.
</event>
<event>
 7    1  0.5559916E-010  0.4778727E+02  0.7816164E-02  0.1312668E+00
        -11   -1    0    0    0    0  0.00000000000E+00  0.00000000000E+00  0.45593999997E+02  0.45594000000E+02  0.51100000000E-03 0.  1.
         11   -1    0    0    0    0 -0.00000000000E+00 -0.00000000000E+00 -0.45593999997E+02  0.45594000000E+02  0.51100000000E-03 0. -1.
    9900012    2    1    2    0    0 -0.38070667625E+02  0.16547098034E+02  0.12666536662E+02  0.47787270308E+02  0.19999996642E+02 0.  0.
         12    1    1    2    0    0  0.38070667625E+02 -0.16547098034E+02 -0.12666536662E+02  0.43400729692E+02  0.00000000000E+00 0. -1.
         11    1    3    3    0    0 -0.11887018043E+02  0.20800957331E+01 -0.15924910690E+01  0.12172264551E+02  0.51100000000E-03 0. -1.
        -11    1    3    3    0    0 -0.21248505161E+02  0.13642919938E+02  0.16466854272E+02  0.30146069825E+02  0.51100000000E-03 0.  1.
        -12    1    3    3    0    0 -0.49351444210E+01  0.82408236352E+00 -0.22078265412E+01  0.54689359326E+01  0.00000000000E+00 0.  1.
</event>
<event>
 7    1  0.5559916E-010  0.4778726E+02  0.7816164E-02  0.1312668E+00
        -11   -1    0    0    0    0  0.00000000000E+00  0.00000000000E+00  0.45593999997E+02  0.45594000000E+02  0.51100000000E-03 0.  1.
         11   -1    0    0    0    0 -0.00000000000E+00 -0.00000000000E+00 -0.45593999997E+02  0.45594000000E+02  0.51100000000E-03 0. -1.
    9900012    2    1    2    0    0  0.28980035416E+02 -0.15159073847E+02  0.28530403539E+02  0.47787263846E+02  0.19999967179E+02 0.  0.
         12    1    1    2    0    0 -0.28980035416E+02  0.15159073847E+02 -0.28530403539E+02  0.43400736154E+02  0.00000000000E+00 0. -1.
         11    1    3    3    0    0  0.16247321698E+02 -0.85792570382E-01  0.11289549369E+02  0.19784760498E+02  0.51100000000E-03 0. -1.
        -11    1    3    3    0    0  0.13250786274E+02 -0.14950979354E+02  0.13241176802E+02  0.23967558989E+02  0.51100000000E-03 0.  1.
         12    1    3    3    0    0 -0.51807255637E+00 -0.12230192328E+00  0.39996773684E+01  0.40349443596E+01  0.00000000000E+00 0. -1.
</event>
<event>
 7    1  0.5559916E-010  0.4778727E+02  0.7816164E-02  0.1312668E+00
        -11   -1    0    0    0    0  0.00000000000E+00  0.00000000000E+00  0.45593999997E+02  0.45594000000E+02  0.51100000000E-03 0.  1.
         11   -1    0    0    0    0 -0.00000000000E+00 -0.00000000000E+00 -0.45593999997E+02  0.45594000000E+02  0.51100000000E-03 0. -1.
    9900012    2    1    2    0    0 -0.30803078404E+02  0.30075750041E+02 -0.54994005179E+01  0.47787265148E+02  0.19999973115E+02 0.  0.
         12    1    1    2    0    0  0.30803078404E+02 -0.30075750041E+02  0.54994005179E+01  0.43400734852E+02  0.00000000000E+00 0. -1.
         11    1    3    3    0    0 -0.25866993373E+01  0.14153907487E+02  0.39582300051E+00  0.14393775972E+02  0.51100000000E-03 0. -1.
        -11    1    3    3    0    0 -0.17754855701E+02  0.12876512502E+02 -0.47179503598E+01  0.22434315926E+02  0.51100000000E-03 0.  1.
         12    1    3    3    0    0 -0.10461523365E+02  0.30453300513E+01 -0.11772731586E+01  0.10959173250E+02  0.00000000000E+00 0. -1.
</event>
<event>
 7    1  0.5559916E-010  0.4778727E+02  0.7816164E-02  0.1312668E+00
        -11   -1    0    0    0    0  0.00000000000E+00  0.00000000000E+00  0.45593999997E+02  0.45594000000E+02  0.51100000000E-03 0.  1.
         11   -1    0    0    0    0 -0.00000000000E+00 -0.00000000000E+00 -0.45593999997E+02  0.45594000000E+02  0.51100000000E-03 0. -1.
    9900012    2    1    2    0    0 -0.39060046240E+00 -0.24790406394E+02  0.35621718037E+02  0.47787267129E+02  0.19999982147E+02 0.  0.
         12    1    1    2    0    0  0.39060046240E+00  0.24790406394E+02 -0.35621718037E+02  0.43400732871E+02  0.00000000000E+00 0. -1.
         11    1    3    3    0    0 -0.26902474987E+01 -0.13304874343E+01 -0.22578994738E+00  0.30097524447E+01  0.51100000000E-03 0. -1.
        -11    1    3    3    0    0  0.71860295897E+01 -0.16488844160E+02  0.27461928129E+02  0.32828013949E+02  0.51100000000E-03 0.  1.
        -12    1    3    3    0    0 -0.48863825534E+01 -0.69710747992E+01  0.83855798548E+01  0.11949500735E+02  0.00000000000E+00 0.  1.
</event>
<event>
 7    1  0.5559916E-010  0.4778727E+02  0.7816164E-02  0.1312668E+00
        -11   -1    0    0    0    0  0.00000000000E+00  0.00000000000E+00  0.45593999997E+02  0.45594000000E+02  0.51100000000E-03 0. -1.
         11   -1    0    0    0    0 -0.00000000000E+00 -0.00000000000E+00 -0.45593999997E+02  0.45594000000E+02  0.51100000000E-03 0.  1.
    9900012    2    1    2    0    0  0.29029373324E+02 -0.65070538519E+01 -0.31600274424E+02  0.47787267182E+02  0.19999982391E+02 0.  0.
         12    1    1    2    0    0 -0.29029373324E+02  0.65070538519E+01  0.31600274424E+02  0.43400732818E+02  0.00000000000E+00 0. -1.
         11    1    3    3    0    0  0.46889599610E+01 -0.30008021441E-01 -0.11928304857E+02  0.12816852305E+02  0.51100000000E-03 0. -1.
        -11    1    3    3    0    0  0.13080579121E+02 -0.92611946878E+01 -0.61784379918E+01  0.17176855750E+02  0.51100000000E-03 0.  1.
        -12    1    3    3    0    0  0.11259834243E+02  0.27841488574E+01 -0.13493531575E+02  0.17793559127E+02  0.00000000000E+00 0.  1.
</event>
<event>
 7    1  0.5559916E-010  0.4778727E+02  0.7816164E-02  0.1312668E+00
        -11   -1    0    0    0    0  0.00000000000E+00  0.00000000000E+00  0.45593999997E+02  0.45594000000E+02  0.51100000000E-03 0. -1.
         11   -1    0    0    0    0 -0.00000000000E+00 -0.00000000000E+00 -0.45593999997E+02  0.45594000000E+02  0.51100000000E-03 0.  1.
    9900012    2    1    2    0    0  0.74156335771E+01 -0.34332129208E+02 -0.25493851353E+02  0.47787272194E+02  0.20000005240E+02 0.  0.
         12    1    1    2    0    0 -0.74156335771E+01  0.34332129208E+02  0.25493851353E+02  0.43400727806E+02  0.00000000000E+00 0. -1.
         11    1    3    3    0    0  0.86432912280E+01 -0.77066078325E+01 -0.10411492244E+02  0.15572329901E+02  0.51100000000E-03 0.  1.
        -11    1    3    3    0    0 -0.38628268915E+01 -0.17908082533E+02 -0.58123129611E+01  0.19219881213E+02  0.51100000000E-03 0. -1.
         12    1    3    3    0    0  0.26351692406E+01 -0.87174388423E+01 -0.92700461479E+01  0.12995061080E+02  0.00000000000E+00 0. -1.
</event>
<event>
 7    1  0.5559916E-010  0.4778727E+02  0.7816164E-02  0.1312668E+00
        -11   -1    0    0    0    0  0.00000000000E+00  0.00000000000E+00  0.45593999997E+02  0.45594000000E+02  0.51100000000E-03 0. -1.
         11   -1    0    0    0    0 -0.00000000000E+00 -0.00000000000E+00 -0.45593999997E+02  0.45594000000E+02  0.51100000000E-03 0.  1.
    9900012    2    1    2    0    0  0.30348305206E+02 -0.30375361337E+02 -0.63198916457E+01  0.47787271485E+02  0.20000002008E+02 0.  0.
         12    1    1    2    0    0 -0.30348305206E+02  0.30375361337E+02  0.63198916457E+01  0.43400728515E+02  0.00000000000E+00 0. -1.
         11    1    3    3    0    0  0.64892024560E+01 -0.94321858441E+01 -0.66713053127E+01  0.13250743117E+02  0.51100000000E-03 0. -1.
        -11    1    3    3    0    0  0.53866140259E+00 -0.62439524211E+01 -0.26555517237E+01  0.68065448769E+01  0.51100000000E-03 0.  1.
        -12    1    3    3    0    0  0.23320441348E+02 -0.14699223072E+02  0.30069653907E+01  0.27729983491E+02  0.00000000000E+00 0.  1.
</event>
<event>
 7    1  0.5559916E-010  0.4778727E+02  0.7816164E-02  0.1312668E+00
        -11   -1    0    0    0    0  0.00000000000E+00  0.00000000000E+00  0.45593999997E+02  0.45594000000E+02  0.51100000000E-03 0.  1.
         11   -1    0    0    0    0 -0.00000000000E+00 -0.00000000000E+00 -0.45593999997E+02  0.45594000000E+02  0.51100000000E-03 0. -1.
    9900012    2    1    2    0    0  0.13628212633E+02  0.24332558383E+02  0.33253902745E+02  0.47787267001E+02  0.19999981566E+02 0.  0.
         12    1    1    2    0    0 -0.13628212633E+02 -0.24332558383E+02 -0.33253902745E+02  0.43400732999E+02  0.00000000000E+00 0. -1.
         11    1    3    3    0    0  0.16290949546E+02  0.12583448385E+02  0.16346855724E+02  0.26286078116E+02  0.51100000000E-03 0. -1.
        -11    1    3    3    0    0 -0.60588091699E+00  0.41220927353E+01  0.10610805936E+02  0.11399471175E+02  0.51100000000E-03 0.  1.
         12    1    3    3    0    0 -0.20568559953E+01  0.76270172622E+01  0.62962410853E+01  0.10101717711E+02  0.00000000000E+00 0. -1.
</event>
<event>
 7    1  0.5559916E-010  0.4778727E+02  0.7816164E-02  0.1312668E+00
        -11   -1    0    0    0    0  0.00000000000E+00  0.00000000000E+00  0.45593999997E+02  0.45594000000E+02  0.51100000000E-03 0.  1.
         11   -1    0    0    0    0 -0.00000000000E+00 -0.00000000000E+00 -0.45593999997E+02  0.45594000000E+02  0.51100000000E-03 0. -1.
    9900012    2    1    2    0    0 -0.16395600790E+02  0.28930837458E+02  0.27889324819E+02  0.47787268207E+02  0.19999987062E+02 0.  0.
         12    1    1    2    0    0  0.16395600790E+02 -0.28930837458E+02 -0.27889324819E+02  0.43400731793E+02  0.00000000000E+00 0. -1.
         11    1    3    3    0    0 -0.59382974252E+01  0.48115321272E+01  0.10230880288E+01  0.77110911742E+01  0.51100000000E-03 0. -1.
        -11    1    3    3    0    0 -0.63524095533E+01  0.21476252484E+02  0.27138523908E+02  0.35186389529E+02  0.51100000000E-03 0.  1.
        -12    1    3    3    0    0 -0.41048938117E+01  0.26430528472E+01 -0.27228711764E+00  0.48897875039E+01  0.00000000000E+00 0.  1.
</event>
<event>
 7    1  0.5559916E-010  0.4778727E+02  0.7816164E-02  0.1312668E+00
        -11   -1    0    0    0    0  0.00000000000E+00  0.00000000000E+00  0.45593999997E+02  0.45594000000E+02  0.51100000000E-03 0.  1.
         11   -1    0    0    0    0 -0.00000000000E+00 -0.00000000000E+00 -0.45593999997E+02  0.45594000000E+02  0.51100000000E-03 0. -1.
    9900012    2    1    2    0    0  0.39682375520E+02 -0.71560945139E+01  0.16053744366E+02  0.47787270470E+02  0.19999997380E+02 0.  0.
         12    1    1    2    0    0 -0.39682375520E+02  0.71560945139E+01 -0.16053744366E+02  0.43400729530E+02  0.00000000000E+00 0. -1.
         11    1    3    3    0    0  0.16576170121E+01 -0.27567975067E+01  0.49265845491E+01  0.58837795873E+01  0.51100000000E-03 0.  1.
        -11    1    3    3    0    0  0.19653269732E+02 -0.57454138353E+01  0.18252990291E+00  0.20476672306E+02  0.51100000000E-03 0. -1.
        -12    1    3    3    0    0  0.18371488775E+02  0.13461168281E+01  0.10944629914E+02  0.21426818576E+02  0.00000000000E+00 0.  1.
</event>
<event>
 7    1  0.5559916E-010  0.4778727E+02  0.7816164E-02  0.1312668E+00
        -11   -1    0    0    0    0  0.00000000000E+00  0.00000000000E+00  0.45593999997E+02  0.45594000000E+02  0.51100000000E-03 0. -1.
         11   -1    0    0    0    0 -0.00000000000E+00 -0.00000000000E+00 -0.45593999997E+02  0.45594000000E+02  0.51100000000E-03 0.  1.
    9900012    2    1    2    0    0 -0.64985552243E+00  0.61692987119E+01 -0.42955100988E+02  0.47787271208E+02  0.20000000745E+02 0.  0.
         12    1    1    2    0    0  0.64985552243E+00 -0.61692987119E+01  0.42955100988E+02  0.43400728792E+02  0.00000000000E+00 0. -1.
         11    1    3    3    0    0  0.41920309831E+01  0.66908840305E+00 -0.13589634997E+02  0.14237239292E+02  0.51100000000E-03 0. -1.
        -11    1    3    3    0    0 -0.10153533897E+01  0.37349555691E+01  0.13340432650E-01  0.38705314671E+01  0.51100000000E-03 0.  1.
        -12    1    3    3    0    0 -0.38265331158E+01  0.17652547397E+01 -0.29378806424E+02  0.29679500448E+02  0.00000000000E+00 0.  1.
</event>
<event>
 7    1  0.5559916E-010  0.4778728E+02  0.7816164E-02  0.1312668E+00
        -11   -1    0    0    0    0  0.00000000000E+00  0.00000000000E+00  0.45593999997E+02  0.45594000000E+02  0.51100000000E-03 0. -1.
         11   -1    0    0    0    0 -0.00000000000E+00 -0.00000000000E+00 -0.45593999997E+02  0.45594000000E+02  0.51100000000E-03 0.  1.
    9900012    2    1    2    0    0  0.25207999704E+02 -0.10800619271E+02 -0.33638157990E+02  0.47787282279E+02  0.20000051222E+02 0.  0.
         12    1    1    2    0    0 -0.25207999704E+02  0.10800619271E+02  0.33638157990E+02  0.43400717721E+02  0.00000000000E+00 0. -1.
         11    1    3    3    0    0  0.75565965532E+00 -0.14003174278E+01  0.88189247234E+00  0.18192429764E+01  0.51100000000E-03 0. -1.
        -11    1    3    3    0    0  0.20775484331E+02 -0.98798262356E+01 -0.18489666027E+02  0.29514394212E+02  0.51100000000E-03 0.  1.
        -12    1    3    3    0    0  0.36768557174E+01  0.47952439257E+00 -0.16030384435E+02  0.16453645090E+02  0.00000000000E+00 0.  1.
</event>
<event>
 7    1  0.5559916E-010  0.4778727E+02  0.7816164E-02  0.1312668E+00
        -11   -1    0    0    0    0  0.00000000000E+00  0.00000000000E+00  0.45593999997E+02  0.45594000000E+02  0.51100000000E-03 0.  1.
         11   -1    0    0    0    0 -0.00000000000E+00 -0.00000000000E+00 -0.45593999997E+02  0.45594000000E+02  0.51100000000E-03 0. -1.
    9900012    2    1    2    0    0 -0.98629289541E+01 -0.35079490744E+02  0.23574888828E+02  0.47787269342E+02  0.19999992238E+02 0.  0.
         12    1    1    2    0    0  0.98629289541E+01  0.35079490744E+02 -0.23574888828E+02  0.43400730658E+02  0.00000000000E+00 0. -1.
         11    1    3    3    0    0 -0.84997331343E+01 -0.18772745929E+02  0.20075603479E+02  0.28769624752E+02  0.51100000000E-03 0. -1.
        -11    1    3    3    0    0 -0.23994859635E+01 -0.17042147500E+02  0.24786873503E+01  0.17387818021E+02  0.51100000000E-03 0.  1.
         12    1    3    3    0    0  0.10362901437E+01  0.73540268472E+00  0.10205979980E+01  0.16298265687E+01  0.00000000000E+00 0. -1.
</event>
<event>
 7    1  0.5559916E-010  0.4778727E+02  0.7816164E-02  0.1312668E+00
        -11   -1    0    0    0    0  0.00000000000E+00  0.00000000000E+00  0.45593999997E+02  0.45594000000E+02  0.51100000000E-03 0.  1.
         11   -1    0    0    0    0 -0.00000000000E+00 -0.00000000000E+00 -0.45593999997E+02  0.45594000000E+02  0.51100000000E-03 0. -1.
    9900012    2    1    2    0    0 -0.32440626070E+02 -0.17221295534E+02  0.23122632049E+02  0.47787270138E+02  0.19999995868E+02 0.  0.
         12    1    1    2    0    0  0.32440626070E+02  0.17221295534E+02 -0.23122632049E+02  0.43400729862E+02  0.00000000000E+00 0. -1.
         11    1    3    3    0    0  0.49098450955E+00 -0.20945787933E+01 -0.93440873151E+00  0.23455161583E+01  0.51100000000E-03 0. -1.
        -11    1    3    3    0    0 -0.21203453607E+02 -0.95560745871E+01  0.22508756854E+02  0.32365863834E+02  0.51100000000E-03 0.  1.
        -12    1    3    3    0    0 -0.11728156973E+02 -0.55706421537E+01  0.15482839264E+01  0.13075890145E+02  0.00000000000E+00 0.  1.
</event>
<event>
 7    1  0.5559916E-010  0.4778727E+02  0.7816164E-02  0.1312668E+00
        -11   -1    0    0    0    0  0.00000000000E+00  0.00000000000E+00  0.45593999997E+02  0.45594000000E+02  0.51100000000E-03 0. -1.
         11   -1    0    0    0    0 -0.00000000000E+00 -0.00000000000E+00 -0.45593999997E+02  0.45594000000E+02  0.51100000000E-03 0.  1.
    9900012    2    1    2    0    0  0.19988273165E+02  0.37119803394E+02 -0.10305939639E+02  0.47787271205E+02  0.20000000732E+02 0.  0.
         12    1    1    2    0    0 -0.19988273165E+02 -0.37119803394E+02  0.10305939639E+02  0.43400728795E+02  0.00000000000E+00 0. -1.
         11    1    3    3    0    0  0.34637435581E+00  0.17484083406E+01  0.17212517769E+01  0.24778246226E+01  0.51100000000E-03 0. -1.
        -11    1    3    3    0    0  0.18839242391E+02  0.24176659731E+02 -0.27959714932E+01  0.30777351843E+02  0.51100000000E-03 0.  1.
        -12    1    3    3    0    0  0.80265641781E+00  0.11194735322E+02 -0.92312199222E+01  0.14532094740E+02  0.00000000000E+00 0.  1.
</event>
<event>
 7    1  0.5559916E-010  0.4778726E+02  0.7816164E-02  0.1312668E+00
        -11   -1    0    0    0    0  0.00000000000E+00  0.00000000000E+00  0.45593999997E+02  0.45594000000E+02  0.51100000000E-03 0. -1.
         11   -1    0    0    0    0 -0.00000000000E+00 -0.00000000000E+00 -0.45593999997E+02  0.45594000000E+02  0.51100000000E-03 0.  1.
    9900012    2    1    2    0    0  0.35660949406E+02 -0.10860781249E+02 -0.22225304071E+02  0.47787262415E+02  0.19999960653E+02 0.  0.
         12    1    1    2    0    0 -0.35660949406E+02  0.10860781249E+02  0.22225304071E+02  0.43400737585E+02  0.00000000000E+00 0. -1.
         11    1    3    3    0    0  0.22492649873E+02 -0.48678993946E+01 -0.16569960305E+02  0.28358055780E+02  0.51100000000E-03 0.  1.
        -11    1    3    3    0    0 -0.69032966101E+00  0.22402398066E+01  0.60701943135E-02  0.23441984857E+01  0.51100000000E-03 0. -1.
        -12    1    3    3    0    0  0.13858629194E+02 -0.82331216606E+01 -0.56614139606E+01  0.17085008149E+02  0.00000000000E+00 0.  1.
</event>
<event>
 7    1  0.5559916E-010  0.4778727E+02  0.7816164E-02  0.1312668E+00
        -11   -1    0    0    0    0  0.00000000000E+00  0.00000000000E+00  0.45593999997E+02  0.45594000000E+02  0.51100000000E-03 0.  1.
         11   -1    0    0    0    0 -0.00000000000E+00 -0.00000000000E+00 -0.45593999997E+02  0.45594000000E+02  0.51100000000E-03 0. -1.
    9900012    2    1    2    0    0  0.24784461226E+02 -0.79148832675E+01  0.34737713327E+02  0.47787267027E+02  0.19999981683E+02 0.  0.
         12    1    1    2    0    0 -0.24784461226E+02  0.79148832675E+01 -0.34737713327E+02  0.43400732973E+02  0.00000000000E+00 0. -1.
         11    1    3    3    0    0  0.31990707659E+01  0.16066184380E+01  0.14006965354E+01  0.38441159733E+01  0.51100000000E-03 0. -1.
        -11    1    3    3    0    0  0.12685612633E+02  0.72081001731E+00  0.74856219409E+01  0.14747164848E+02  0.51100000000E-03 0.  1.
        -12    1    3    3    0    0  0.88997778276E+01 -0.10242311723E+02  0.25851394850E+02  0.29195986206E+02  0.00000000000E+00 0.  1.
</event>
<event>
 7    1  0.5559916E-010  0.4778728E+02  0.7816164E-02  0.1312668E+00
        -11   -1    0    0    0    0  0.00000000000E+00  0.00000000000E+00  0.45593999997E+02  0.45594000000E+02  0.51100000000E-03 0.  1.
         11   -1    0    0    0    0 -0.00000000000E+00 -0.00000000000E+00 -0.45593999997E+02  0.45594000000E+02  0.51100000000E-03 0. -1.
    9900012    2    1    2    0    0  0.24306413610E+02 -0.75887896747E+00  0.35947805715E+02  0.47787281394E+02  0.20000047186E+02 0.  0.
         12    1    1    2    0    0 -0.24306413610E+02  0.75887896747E+00 -0.35947805715E+02  0.43400718606E+02  0.00000000000E+00 0. -1.
         11    1    3    3    0    0  0.46950365497E+01 -0.14209071903E+01  0.17002810431E+01  0.51916568967E+01  0.51100000000E-03 0. -1.
        -11    1    3    3    0    0  0.12090953791E+02  0.32521215821E+01  0.72881741353E+01  0.14487406284E+02  0.51100000000E-03 0.  1.
        -12    1    3    3    0    0  0.75204232694E+01 -0.25900933592E+01  0.26959350536E+02  0.28108218213E+02  0.00000000000E+00 0.  1.
</event>
<event>
 7    1  0.5559916E-010  0.4778727E+02  0.7816164E-02  0.1312668E+00
        -11   -1    0    0    0    0  0.00000000000E+00  0.00000000000E+00  0.45593999997E+02  0.45594000000E+02  0.51100000000E-03 0.  1.
         11   -1    0    0    0    0 -0.00000000000E+00 -0.00000000000E+00 -0.45593999997E+02  0.45594000000E+02  0.51100000000E-03 0. -1.
    9900012    2    1    2    0    0  0.31606730069E+02 -0.24467670264E+02  0.16910675605E+02  0.47787271628E+02  0.20000002659E+02 0.  0.
         12    1    1    2    0    0 -0.31606730069E+02  0.24467670264E+02 -0.16910675605E+02  0.43400728372E+02  0.00000000000E+00 0. -1.
         11    1    3    3    0    0  0.10876103761E+02 -0.12232078418E+02  0.10095812426E+02  0.19231193521E+02  0.51100000000E-03 0. -1.
        -11    1    3    3    0    0  0.16227355794E+02 -0.87284713357E+01  0.11016962575E+02  0.21468273162E+02  0.51100000000E-03 0.  1.
         12    1    3    3    0    0  0.45032705142E+01 -0.35071205110E+01 -0.42020993960E+01  0.70878049449E+01  0.00000000000E+00 0. -1.
</event>
<event>
 7    1  0.5559916E-010  0.4778728E+02  0.7816164E-02  0.1312668E+00
        -11   -1    0    0    0    0  0.00000000000E+00  0.00000000000E+00  0.45593999997E+02  0.45594000000E+02  0.51100000000E-03 0.  1.
         11   -1    0    0    0    0 -0.00000000000E+00 -0.00000000000E+00 -0.45593999997E+02  0.45594000000E+02  0.51100000000E-03 0. -1.
    9900012    2    1    2    0    0  0.17662555675E+02 -0.35669414669E+02  0.17301723470E+02  0.47787278223E+02  0.20000032729E+02 0.  0.
         12    1    1    2    0    0 -0.17662555675E+02  0.35669414669E+02 -0.17301723470E+02  0.43400721777E+02  0.00000000000E+00 0. -1.
         11    1    3    3    0    0  0.11452891915E+00  0.14775629304E+01  0.29467549546E+01  0.32984351002E+01  0.51100000000E-03 0. -1.
        -11    1    3    3    0    0  0.70658508531E+01 -0.13773895090E+02  0.78465682124E+00  0.15500390989E+02  0.51100000000E-03 0.  1.
         12    1    3    3    0    0  0.10482175902E+02 -0.23373082509E+02  0.13570311694E+02  0.28988452134E+02  0.00000000000E+00 0. -1.
</event>
<event>
 7    1  0.5559916E-010  0.4778727E+02  0.7816164E-02  0.1312668E+00
        -11   -1    0    0    0    0  0.00000000000E+00  0.00000000000E+00  0.45593999997E+02  0.45594000000E+02  0.51100000000E-03 0.  1.
         11   -1    0    0    0    0 -0.00000000000E+00 -0.00000000000E+00 -0.45593999997E+02  0.45594000000E+02  0.51100000000E-03 0. -1.
    9900012    2    1    2    0    0  0.28516013245E+02 -0.16005759827E+02  0.28535519552E+02  0.47787271491E+02  0.20000002037E+02 0.  0.
         12    1    1    2    0    0 -0.28516013245E+02  0.16005759827E+02 -0.28535519552E+02  0.43400728509E+02  0.00000000000E+00 0. -1.
         11    1    3    3    0    0  0.19533370310E+02 -0.44835049938E+01  0.14274848470E+02  0.24605399241E+02  0.51100000000E-03 0.  1.
        -11    1    3    3    0    0 -0.98415927635E+00 -0.69274795437E+01  0.76610529120E+01  0.10375465016E+02  0.51100000000E-03 0. -1.
         12    1    3    3    0    0  0.99668022106E+01 -0.45947752894E+01  0.65996181693E+01  0.12806407234E+02  0.00000000000E+00 0. -1.
</event>
<event>
 7    1  0.5559916E-010  0.4778727E+02  0.7816164E-02  0.1312668E+00
        -11   -1    0    0    0    0  0.00000000000E+00  0.00000000000E+00  0.45593999997E+02  0.45594000000E+02  0.51100000000E-03 0.  1.
         11   -1    0    0    0    0 -0.00000000000E+00 -0.00000000000E+00 -0.45593999997E+02  0.45594000000E+02  0.51100000000E-03 0. -1.
    9900012    2    1    2    0    0  0.27368018066E+02 -0.75565187999E+00  0.33675566398E+02  0.47787271955E+02  0.20000004150E+02 0.  0.
         12    1    1    2    0    0 -0.27368018066E+02  0.75565187999E+00 -0.33675566398E+02  0.43400728045E+02  0.00000000000E+00 0. -1.
         11    1    3    3    0    0  0.10870282316E+02  0.10382663062E+01  0.54447533551E+01  0.12201900422E+02  0.51100000000E-03 0. -1.
        -11    1    3    3    0    0  0.49163617506E+01 -0.23338583715E+01  0.21502528960E+02  0.22180537859E+02  0.51100000000E-03 0.  1.
        -12    1    3    3    0    0  0.11581374000E+02  0.53994018525E+00  0.67282840828E+01  0.13404833674E+02  0.00000000000E+00 0.  1.
</event>
<event>
 7    1  0.5559916E-010  0.4778727E+02  0.7816164E-02  0.1312668E+00
        -11   -1    0    0    0    0  0.00000000000E+00  0.00000000000E+00  0.45593999997E+02  0.45594000000E+02  0.51100000000E-03 0.  1.
         11   -1    0    0    0    0 -0.00000000000E+00 -0.00000000000E+00 -0.45593999997E+02  0.45594000000E+02  0.51100000000E-03 0. -1.
    9900012    2    1    2    0    0  0.24202571623E+01 -0.43198779714E+02 -0.34103877432E+01  0.47787274682E+02  0.20000016587E+02 0.  0.
         12    1    1    2    0    0 -0.24202571623E+01  0.43198779714E+02  0.34103877432E+01  0.43400725318E+02  0.00000000000E+00 0. -1.
         11    1    3    3    0    0 -0.50386541210E+01 -0.13826997907E+02 -0.73554516829E+01  0.16452251402E+02  0.51100000000E-03 0. -1.
        -11    1    3    3    0    0  0.38002534225E+01 -0.73001064712E+01  0.35384714042E+01  0.89584742398E+01  0.51100000000E-03 0.  1.
        -12    1    3    3    0    0  0.36586578608E+01 -0.22071675336E+02  0.40659253542E+00  0.22376549041E+02  0.00000000000E+00 0.  1.
</event>
<event>
 7    1  0.5559916E-010  0.4778727E+02  0.7816164E-02  0.1312668E+00
        -11   -1    0    0    0    0  0.00000000000E+00  0.00000000000E+00  0.45593999997E+02  0.45594000000E+02  0.51100000000E-03 0.  1.
         11   -1    0    0    0    0 -0.00000000000E+00 -0.00000000000E+00 -0.45593999997E+02  0.45594000000E+02  0.51100000000E-03 0. -1.
    9900012    2    1    2    0    0 -0.21727891882E+01  0.43346115638E+02 -0.12768087863E+00  0.47787273552E+02  0.20000011434E+02 0.  0.
         12    1    1    2    0    0  0.21727891882E+01 -0.43346115638E+02  0.12768087863E+00  0.43400726448E+02  0.00000000000E+00 0. -1.
         11    1    3    3    0    0 -0.12946122557E+01  0.70284408545E+00 -0.15708438241E+01  0.21534997752E+01  0.51100000000E-03 0. -1.
        -11    1    3    3    0    0  0.58269440300E+01  0.75530183506E+01  0.26084150721E+01  0.98896507715E+01  0.51100000000E-03 0.  1.
        -12    1    3    3    0    0 -0.67051209625E+01  0.35090253202E+02 -0.11652521266E+01  0.35744123006E+02  0.00000000000E+00 0.  1.
</event>
<event>
 7    1  0.5559916E-010  0.4778727E+02  0.7816164E-02  0.1312668E+00
        -11   -1    0    0    0    0  0.00000000000E+00  0.00000000000E+00  0.45593999997E+02  0.45594000000E+02  0.51100000000E-03 0.  1.
         11   -1    0    0    0    0 -0.00000000000E+00 -0.00000000000E+00 -0.45593999997E+02  0.45594000000E+02  0.51100000000E-03 0. -1.
    9900012    2    1    2    0    0 -0.41461601947E+02  0.10516897341E+02  0.73453196463E+01  0.47787270900E+02  0.19999999343E+02 0.  0.
         12    1    1    2    0    0  0.41461601947E+02 -0.10516897341E+02 -0.73453196463E+01  0.43400729100E+02  0.00000000000E+00 0. -1.
         11    1    3    3    0    0 -0.26432985439E+00  0.35164641852E+01  0.18761712986E+00  0.35313724083E+01  0.51100000000E-03 0. -1.
        -11    1    3    3    0    0 -0.41402243217E+02  0.78033326324E+01  0.82026463716E+01  0.42922268711E+02  0.51100000000E-03 0.  1.
        -12    1    3    3    0    0  0.20497112438E+00 -0.80289947671E+00 -0.10449438552E+01  0.13336297807E+01  0.00000000000E+00 0.  1.
</event>
<event>
 7    1  0.5559916E-010  0.4778727E+02  0.7816164E-02  0.1312668E+00
        -11   -1    0    0    0    0  0.00000000000E+00  0.00000000000E+00  0.45593999997E+02  0.45594000000E+02  0.51100000000E-03 0.  1.
         11   -1    0    0    0    0 -0.00000000000E+00 -0.00000000000E+00 -0.45593999997E+02  0.45594000000E+02  0.51100000000E-03 0. -1.
    9900012    2    1    2    0    0  0.37275742895E+02  0.62013430459E+01  0.21346794822E+02  0.47787270592E+02  0.19999997939E+02 0.  0.
         12    1    1    2    0    0 -0.37275742895E+02 -0.62013430459E+01 -0.21346794822E+02  0.43400729408E+02  0.00000000000E+00 0. -1.
         11    1    3    3    0    0  0.18795897392E+02  0.10966475110E+02  0.99525224877E+01  0.23929104438E+02  0.51100000000E-03 0. -1.
        -11    1    3    3    0    0  0.69279450180E+01  0.22038423234E+00  0.84632873036E+01  0.10939480044E+02  0.51100000000E-03 0.  1.
         12    1    3    3    0    0  0.11551900485E+02 -0.49855162963E+01  0.29309850304E+01  0.12918686110E+02  0.00000000000E+00 0. -1.
</event>
<event>
 7    1  0.5559916E-010  0.4778723E+02  0.7816164E-02  0.1312668E+00
        -11   -1    0    0    0    0  0.00000000000E+00  0.00000000000E+00  0.45593999997E+02  0.45594000000E+02  0.51100000000E-03 0.  1.
         11   -1    0    0    0    0 -0.00000000000E+00 -0.00000000000E+00 -0.45593999997E+02  0.45594000000E+02  0.51100000000E-03 0. -1.
    9900012    2    1    2    0    0 -0.45789540217E+01  0.11549092011E+02  0.41584589598E+02  0.47787234589E+02  0.19999833786E+02 0.  0.
         12    1    1    2    0    0  0.45789540217E+01 -0.11549092011E+02 -0.41584589598E+02  0.43400765411E+02  0.00000000000E+00 0. -1.
         11    1    3    3    0    0 -0.29268344001E+01 -0.60979853433E-01  0.57208995377E+00  0.29828451727E+01  0.51100000000E-03 0. -1.
        -11    1    3    3    0    0  0.46307856772E+01  0.16806448464E+01  0.21241189901E+02  0.21804974014E+02  0.51100000000E-03 0.  1.
        -12    1    3    3    0    0 -0.62829052988E+01  0.99294270177E+01  0.19771309743E+02  0.22999415402E+02  0.00000000000E+00 0.  1.
</event>
<event>
 7    1  0.5559916E-010  0.4778727E+02  0.7816164E-02  0.1312668E+00
        -11   -1    0    0    0    0  0.00000000000E+00  0.00000000000E+00  0.45593999997E+02  0.45594000000E+02  0.51100000000E-03 0.  1.
         11   -1    0    0    0    0 -0.00000000000E+00 -0.00000000000E+00 -0.45593999997E+02  0.45594000000E+02  0.51100000000E-03 0. -1.
    9900012    2    1    2    0    0 -0.69543034383E+01 -0.13227908832E+01  0.42819517216E+02  0.47787272280E+02  0.20000005633E+02 0.  0.
         12    1    1    2    0    0  0.69543034383E+01  0.13227908832E+01 -0.42819517216E+02  0.43400727720E+02  0.00000000000E+00 0. -1.
         11    1    3    3    0    0 -0.25444616266E+00 -0.76732211299E+01  0.10145340530E+02  0.12722853457E+02  0.51100000000E-03 0. -1.
        -11    1    3    3    0    0 -0.86157149949E+00  0.68079129458E+01  0.17089061885E+02  0.18415374568E+02  0.51100000000E-03 0.  1.
        -12    1    3    3    0    0 -0.58382857761E+01 -0.45748269907E+00  0.15585114802E+02  0.16649044255E+02  0.00000000000E+00 0.  1.
</event>
<event>
 7    1  0.5559916E-010  0.4778727E+02  0.7816164E-02  0.1312668E+00
        -11   -1    0    0    0    0  0.00000000000E+00  0.00000000000E+00  0.45593999997E+02  0.45594000000E+02  0.51100000000E-03 0.  1.
         11   -1    0    0    0    0 -0.00000000000E+00 -0.00000000000E+00 -0.45593999997E+02  0.45594000000E+02  0.51100000000E-03 0. -1.
    9900012    2    1    2    0    0  0.71925603136E+01  0.42188035215E+02  0.72152756058E+01  0.47787269116E+02  0.19999991209E+02 0.  0.
         12    1    1    2    0    0 -0.71925603136E+01 -0.42188035215E+02 -0.72152756058E+01  0.43400730884E+02  0.00000000000E+00 0. -1.
         11    1    3    3    0    0  0.25534747417E+01  0.17798047603E+01  0.42631948355E+01  0.52785195565E+01  0.51100000000E-03 0. -1.
        -11    1    3    3    0    0  0.76249245113E+01  0.34117819675E+02  0.48433608323E+01  0.35293388015E+02  0.51100000000E-03 0.  1.
        -12    1    3    3    0    0 -0.29858389394E+01  0.62904107801E+01 -0.18912800621E+01  0.72153615451E+01  0.00000000000E+00 0.  1.
</event>
<event>
 7    1  0.5559916E-010  0.4778727E+02  0.7816164E-02  0.1312668E+00
        -11   -1    0    0    0    0  0.00000000000E+00  0.00000000000E+00  0.45593999997E+02  0.45594000000E+02  0.51100000000E-03 0.  1.
         11   -1    0    0    0    0 -0.00000000000E+00 -0.00000000000E+00 -0.45593999997E+02  0.45594000000E+02  0.51100000000E-03 0. -1.
    9900012    2    1    2    0    0  0.16114244934E+02 -0.10145701937E+02  0.39000246134E+02  0.47787270097E+02  0.19999995680E+02 0.  0.
         12    1    1    2    0    0 -0.16114244934E+02  0.10145701937E+02 -0.39000246134E+02  0.43400729903E+02  0.00000000000E+00 0. -1.
         11    1    3    3    0    0  0.47111919613E+01  0.36654521705E+01  0.97300506112E+01  0.11415110795E+02  0.51100000000E-03 0. -1.
        -11    1    3    3    0    0  0.10489173112E+02 -0.12934415757E+02  0.16173265332E+02  0.23214141709E+02  0.51100000000E-03 0.  1.
        -12    1    3    3    0    0  0.91387986050E+00 -0.87673835106E+00  0.13096930191E+02  0.13158017593E+02  0.00000000000E+00 0.  1.
</event>
<event>
 7    1  0.5559916E-010  0.4778726E+02  0.7816164E-02  0.1312668E+00
        -11   -1    0    0    0    0  0.00000000000E+00  0.00000000000E+00  0.45593999997E+02  0.45594000000E+02  0.51100000000E-03 0.  1.
         11   -1    0    0    0    0 -0.00000000000E+00 -0.00000000000E+00 -0.45593999997E+02  0.45594000000E+02  0.51100000000E-03 0. -1.
    9900012    2    1    2    0    0 -0.28320295523E+02  0.32384775057E+02  0.57281583546E+01  0.47787255857E+02  0.19999930755E+02 0.  0.
         12    1    1    2    0    0  0.28320295523E+02 -0.32384775057E+02 -0.57281583546E+01  0.43400744143E+02  0.00000000000E+00 0. -1.
         11    1    3    3    0    0 -0.22118621896E+02  0.24712056869E+02  0.64981381821E+01  0.33795635656E+02  0.51100000000E-03 0. -1.
        -11    1    3    3    0    0 -0.37726558847E+01  0.76030428421E+01 -0.44486737897E+01  0.95827914321E+01  0.51100000000E-03 0.  1.
         12    1    3    3    0    0 -0.24290177430E+01  0.69675345583E-01  0.36786939622E+01  0.44088287693E+01  0.00000000000E+00 0. -1.
</event>
<event>
 7    1  0.5559916E-010  0.4778727E+02  0.7816164E-02  0.1312668E+00
        -11   -1    0    0    0    0  0.00000000000E+00  0.00000000000E+00  0.45593999997E+02  0.45594000000E+02  0.51100000000E-03 0. -1.
         11   -1    0    0    0    0 -0.00000000000E+00 -0.00000000000E+00 -0.45593999997E+02  0.45594000000E+02  0.51100000000E-03 0.  1.
    9900012    2    1    2    0    0  0.20489145282E+02 -0.28496694245E+02 -0.25529521476E+02  0.47787272770E+02  0.20000007867E+02 0.  0.
         12    1    1    2    0    0 -0.20489145282E+02  0.28496694245E+02  0.25529521476E+02  0.43400727230E+02  0.00000000000E+00 0. -1.
         11    1    3    3    0    0  0.30587443032E+01 -0.12708411758E+02 -0.16496964630E+02  0.21047790582E+02  0.51100000000E-03 0. -1.
        -11    1    3    3    0    0  0.34661393662E+01 -0.82459751361E+01 -0.11488700245E+01  0.90183219418E+01  0.51100000000E-03 0.  1.
         12    1    3    3    0    0  0.13964261612E+02 -0.75423073519E+01 -0.78836868217E+01  0.17721160246E+02  0.00000000000E+00 0. -1.
</event>
<event>
 7    1  0.5559916E-010  0.4778727E+02  0.7816164E-02  0.1312668E+00
        -11   -1    0    0    0    0  0.00000000000E+00  0.00000000000E+00  0.45593999997E+02  0.45594000000E+02  0.51100000000E-03 0.  1.
         11   -1    0    0    0    0 -0.00000000000E+00 -0.00000000000E+00 -0.45593999997E+02  0.45594000000E+02  0.51100000000E-03 0. -1.
    9900012    2    1    2    0    0 -0.10505931189E+02 -0.20867938151E+02  0.36575646222E+02  0.47787270405E+02  0.19999997086E+02 0.  0.
         12    1    1    2    0    0  0.10505931189E+02  0.20867938151E+02 -0.36575646222E+02  0.43400729595E+02  0.00000000000E+00 0. -1.
         11    1    3    3    0    0 -0.73640965013E+01 -0.14479504424E+02  0.11784055477E+02  0.20068630481E+02  0.51100000000E-03 0. -1.
        -11    1    3    3    0    0  0.35161794279E+00 -0.84462395782E+00  0.18853308361E+02  0.18875493668E+02  0.51100000000E-03 0.  1.
        -12    1    3    3    0    0 -0.34934526305E+01 -0.55438097692E+01  0.59382823838E+01  0.88431462562E+01  0.00000000000E+00 0.  1.
</event>
<event>
 7    1  0.5559916E-010  0.4778728E+02  0.7816164E-02  0.1312668E+00
        -11   -1    0    0    0    0  0.00000000000E+00  0.00000000000E+00  0.45593999997E+02  0.45594000000E+02  0.51100000000E-03 0.  1.
         11   -1    0    0    0    0 -0.00000000000E+00 -0.00000000000E+00 -0.45593999997E+02  0.45594000000E+02  0.51100000000E-03 0. -1.
    9900012    2    1    2    0    0  0.12695006999E+01  0.78392848766E+01  0.42667981745E+02  0.47787277821E+02  0.20000030899E+02 0.  0.
         12    1    1    2    0    0 -0.12695006999E+01 -0.78392848766E+01 -0.42667981745E+02  0.43400722179E+02  0.00000000000E+00 0. -1.
         11    1    3    3    0    0  0.10061273101E+02  0.14181476951E+01  0.17842559372E+02  0.20532834302E+02  0.51100000000E-03 0. -1.
        -11    1    3    3    0    0 -0.38835024851E+01  0.28395165659E+01  0.76609052654E+01  0.90462100145E+01  0.51100000000E-03 0.  1.
         12    1    3    3    0    0 -0.49082699156E+01  0.35816206156E+01  0.17164517108E+02  0.18208233504E+02  0.00000000000E+00 0. -1.
</event>
<event>
 7    1  0.5559916E-010  0.4778729E+02  0.7816164E-02  0.1312668E+00
        -11   -1    0    0    0    0  0.00000000000E+00  0.00000000000E+00  0.45593999997E+02  0.45594000000E+02  0.51100000000E-03 0.  1.
         11   -1    0    0    0    0 -0.00000000000E+00 -0.00000000000E+00 -0.45593999997E+02  0.45594000000E+02  0.51100000000E-03 0. -1.
    9900012    2    1    2    0    0 -0.11866812728E+02  0.41514791128E+02  0.43957831217E+01  0.47787285306E+02  0.20000065025E+02 0.  0.
         12    1    1    2    0    0  0.11866812728E+02 -0.41514791128E+02 -0.43957831217E+01  0.43400714694E+02  0.00000000000E+00 0. -1.
         11    1    3    3    0    0 -0.11794788822E+01  0.91182284230E+00 -0.44960059389E+01  0.47367352674E+01  0.51100000000E-03 0. -1.
        -11    1    3    3    0    0 -0.14309520690E+01  0.47313061315E+01  0.21730726339E+01  0.53995487281E+01  0.51100000000E-03 0.  1.
         12    1    3    3    0    0 -0.92563817770E+01  0.35871662154E+02  0.67187164267E+01  0.37651001311E+02  0.00000000000E+00 0. -1.
</event>
<event>
 7    1  0.5559916E-010  0.4778728E+02  0.7816164E-02  0.1312668E+00
        -11   -1    0    0    0    0  0.00000000000E+00  0.00000000000E+00  0.45593999997E+02  0.45594000000E+02  0.51100000000E-03 0.  1.
         11   -1    0    0    0    0 -0.00000000000E+00 -0.00000000000E+00 -0.45593999997E+02  0.45594000000E+02  0.51100000000E-03 0. -1.
    9900012    2    1    2    0    0 -0.12693533622E+02  0.34578370494E+02  0.22952835798E+02  0.47787283727E+02  0.20000057826E+02 0.  0.
         12    1    1    2    0    0  0.12693533622E+02 -0.34578370494E+02 -0.22952835798E+02  0.43400716273E+02  0.00000000000E+00 0. -1.
         11    1    3    3    0    0  0.20156935896E+01 -0.86708727389E-01 -0.58736228946E+00  0.21013171514E+01  0.51100000000E-03 0. -1.
        -11    1    3    3    0    0 -0.14948998897E+01  0.37246775665E+00 -0.66749411967E+00  0.16789897471E+01  0.51100000000E-03 0.  1.
        -12    1    3    3    0    0 -0.13214327322E+02  0.34292611464E+02  0.24207692207E+02  0.44006976829E+02  0.00000000000E+00 0.  1.
</event>
<event>
 7    1  0.5559916E-010  0.4778726E+02  0.7816164E-02  0.1312668E+00
        -11   -1    0    0    0    0  0.00000000000E+00  0.00000000000E+00  0.45593999997E+02  0.45594000000E+02  0.51100000000E-03 0. -1.
         11   -1    0    0    0    0 -0.00000000000E+00 -0.00000000000E+00 -0.45593999997E+02  0.45594000000E+02  0.51100000000E-03 0.  1.
    9900012    2    1    2    0    0 -0.37757868185E+02  0.10734268956E+02 -0.18513318246E+02  0.47787261615E+02  0.19999957008E+02 0.  0.
         12    1    1    2    0    0  0.37757868185E+02 -0.10734268956E+02  0.18513318246E+02  0.43400738385E+02  0.00000000000E+00 0. -1.
         11    1    3    3    0    0 -0.61593153995E+01 -0.26315866570E+01 -0.28359633594E+01  0.72735894138E+01  0.51100000000E-03 0. -1.
        -11    1    3    3    0    0 -0.15798569057E+02  0.12882812592E+02 -0.37883281745E+01  0.20734345303E+02  0.51100000000E-03 0.  1.
        -12    1    3    3    0    0 -0.15799983728E+02  0.48304302033E+00 -0.11889026712E+02  0.19779326898E+02  0.00000000000E+00 0.  1.
</event>
<event>
 7    1  0.5559916E-010  0.4778727E+02  0.7816164E-02  0.1312668E+00
        -11   -1    0    0    0    0  0.00000000000E+00  0.00000000000E+00  0.45593999997E+02  0.45594000000E+02  0.51100000000E-03 0.  1.
         11   -1    0    0    0    0 -0.00000000000E+00 -0.00000000000E+00 -0.45593999997E+02  0.45594000000E+02  0.51100000000E-03 0. -1.
    9900012    2    1    2    0    0 -0.38717047735E+02  0.13546103635E+02  0.14181558470E+02  0.47787270633E+02  0.19999998122E+02 0.  0.
         12    1    1    2    0    0  0.38717047735E+02 -0.13546103635E+02 -0.14181558470E+02  0.43400729367E+02  0.00000000000E+00 0. -1.
         11    1    3    3    0    0 -0.82919422104E+01  0.11705686851E+02  0.53665098529E+01  0.15315966784E+02  0.51100000000E-03 0. -1.
        -11    1    3    3    0    0 -0.18267879449E+02 -0.20696532968E+01  0.39420702668E+01  0.18802627545E+02  0.51100000000E-03 0.  1.
        -12    1    3    3    0    0 -0.12157226075E+02  0.39100700807E+01  0.48729783502E+01  0.13668676303E+02  0.00000000000E+00 0.  1.
</event>
<event>
 7    1  0.5559916E-010  0.4778727E+02  0.7816164E-02  0.1312668E+00
        -11   -1    0    0    0    0  0.00000000000E+00  0.00000000000E+00  0.45593999997E+02  0.45594000000E+02  0.51100000000E-03 0. -1.
         11   -1    0    0    0    0 -0.00000000000E+00 -0.00000000000E+00 -0.45593999997E+02  0.45594000000E+02  0.51100000000E-03 0.  1.
    9900012    2    1    2    0    0 -0.22466676435E+02 -0.26922071784E+02  0.25574860487E+02  0.47787274337E+02  0.20000015011E+02 0.  0.
         12    1    1    2    0    0  0.22466676435E+02  0.26922071784E+02 -0.25574860487E+02  0.43400725663E+02  0.00000000000E+00 0. -1.
         11    1    3    3    0    0 -0.96563950236E+01 -0.50570378451E+01  0.90036957915E+01  0.14138109307E+02  0.51100000000E-03 0. -1.
        -11    1    3    3    0    0 -0.55168017786E+01 -0.18928895644E+02  0.16619762216E+02  0.25786715350E+02  0.51100000000E-03 0.  1.
        -12    1    3    3    0    0 -0.72934796324E+01 -0.29361382949E+01 -0.48597520673E-01  0.78624496790E+01  0.00000000000E+00 0.  1.
</event>
<event>
 7    1  0.5559916E-010  0.4778727E+02  0.7816164E-02  0.1312668E+00
        -11   -1    0    0    0    0  0.00000000000E+00  0.00000000000E+00  0.45593999997E+02  0.45594000000E+02  0.51100000000E-03 0.  1.
         11   -1    0    0    0    0 -0.00000000000E+00 -0.00000000000E+00 -0.45593999997E+02  0.45594000000E+02  0.51100000000E-03 0. -1.
    9900012    2    1    2    0    0  0.82352838365E+01 -0.13294232477E+02  0.40485388619E+02  0.47787271796E+02  0.20000003425E+02 0.  0.
         12    1    1    2    0    0 -0.82352838365E+01  0.13294232477E+02 -0.40485388619E+02  0.43400728204E+02  0.00000000000E+00 0. -1.
         11    1    3    3    0    0 -0.39628568726E+00 -0.10608238243E+02  0.14723580737E+02  0.18151462501E+02  0.51100000000E-03 0. -1.
        -11    1    3    3    0    0  0.44496868360E+01  0.45035763993E+01  0.10944673583E+02  0.12643883637E+02  0.51100000000E-03 0.  1.
        -12    1    3    3    0    0  0.41818826877E+01 -0.71895706334E+01  0.14817134299E+02  0.16991925658E+02  0.00000000000E+00 0.  1.
</event>
<event>
 7    1  0.5559916E-010  0.4778726E+02  0.7816164E-02  0.1312668E+00
        -11   -1    0    0    0    0  0.00000000000E+00  0.00000000000E+00  0.45593999997E+02  0.45594000000E+02  0.51100000000E-03 0. -1.
         11   -1    0    0    0    0 -0.00000000000E+00 -0.00000000000E+00 -0.45593999997E+02  0.45594000000E+02  0.51100000000E-03 0.  1.
    9900012    2    1    2    0    0 -0.39945666736E+02 -0.15606168759E+02  0.66644771933E+01  0.47787262096E+02  0.19999959203E+02 0.  0.
         12    1    1    2    0    0  0.39945666736E+02  0.15606168759E+02 -0.66644771933E+01  0.43400737904E+02  0.00000000000E+00 0. -1.
         11    1    3    3    0    0 -0.10137543757E+02 -0.11795518621E+02 -0.15461599406E+01  0.15629928464E+02  0.51100000000E-03 0. -1.
        -11    1    3    3    0    0 -0.22511144065E+01 -0.40675217327E+00 -0.15071992757E+01  0.27394549311E+01  0.51100000000E-03 0.  1.
         12    1    3    3    0    0 -0.27557008572E+02 -0.34038979645E+01  0.97178364097E+01  0.29417878701E+02  0.00000000000E+00 0. -1.
</event>
<event>
 7    1  0.5559916E-010  0.4778726E+02  0.7816164E-02  0.1312668E+00
        -11   -1    0    0    0    0  0.00000000000E+00  0.00000000000E+00  0.45593999997E+02  0.45594000000E+02  0.51100000000E-03 0.  1.
         11   -1    0    0    0    0 -0.00000000000E+00 -0.00000000000E+00 -0.45593999997E+02  0.45594000000E+02  0.51100000000E-03 0. -1.
    9900012    2    1    2    0    0  0.16165767322E+02 -0.39320972229E+02  0.87265769981E+01  0.47787262262E+02  0.19999959956E+02 0.  0.
         12    1    1    2    0    0 -0.16165767322E+02  0.39320972229E+02 -0.87265769981E+01  0.43400737738E+02  0.00000000000E+00 0. -1.
         11    1    3    3    0    0  0.93848227552E+01 -0.30321848720E+02  0.25353395560E+01  0.31842068947E+02  0.51100000000E-03 0. -1.
        -11    1    3    3    0    0  0.48445625647E+01 -0.15790045983E+01  0.65135686807E+01  0.82698016411E+01  0.51100000000E-03 0.  1.
        -12    1    3    3    0    0  0.19363820018E+01 -0.74201189111E+01 -0.32233123857E+00  0.76753916734E+01  0.00000000000E+00 0.  1.
</event>
<event>
 7    1  0.5559916E-010  0.4778727E+02  0.7816164E-02  0.1312668E+00
        -11   -1    0    0    0    0  0.00000000000E+00  0.00000000000E+00  0.45593999997E+02  0.45594000000E+02  0.51100000000E-03 0.  1.
         11   -1    0    0    0    0 -0.00000000000E+00 -0.00000000000E+00 -0.45593999997E+02  0.45594000000E+02  0.51100000000E-03 0. -1.
    9900012    2    1    2    0    0  0.40534012014E+02 -0.10020409882E+02  0.11840957684E+02  0.47787273935E+02  0.20000013177E+02 0.  0.
         12    1    1    2    0    0 -0.40534012014E+02  0.10020409882E+02 -0.11840957684E+02  0.43400726065E+02  0.00000000000E+00 0. -1.
         11    1    3    3    0    0  0.10285178668E+02 -0.80479609514E+01  0.10984685103E+02  0.17065107171E+02  0.51100000000E-03 0. -1.
        -11    1    3    3    0    0  0.19302616302E+02 -0.18118426157E+01  0.28465532926E+01  0.19595321780E+02  0.51100000000E-03 0.  1.
         12    1    3    3    0    0  0.10946217044E+02 -0.16060631478E+00 -0.19902807113E+01  0.11126844983E+02  0.00000000000E+00 0. -1.
</event>
<event>
 7    1  0.5559916E-010  0.4778727E+02  0.7816164E-02  0.1312668E+00
        -11   -1    0    0    0    0  0.00000000000E+00  0.00000000000E+00  0.45593999997E+02  0.45594000000E+02  0.51100000000E-03 0.  1.
         11   -1    0    0    0    0 -0.00000000000E+00 -0.00000000000E+00 -0.45593999997E+02  0.45594000000E+02  0.51100000000E-03 0. -1.
    9900012    2    1    2    0    0  0.17611482556E+01  0.34152138252E+02  0.26723638337E+02  0.47787273782E+02  0.20000012480E+02 0.  0.
         12    1    1    2    0    0 -0.17611482556E+01 -0.34152138252E+02 -0.26723638337E+02  0.43400726218E+02  0.00000000000E+00 0. -1.
         11    1    3    3    0    0  0.12080917329E+01  0.78145219130E+01  0.13223696529E+02  0.15407543234E+02  0.51100000000E-03 0. -1.
        -11    1    3    3    0    0 -0.16678645875E+01  0.26906776266E+02  0.13348080878E+02  0.30082015303E+02  0.51100000000E-03 0.  1.
        -12    1    3    3    0    0  0.22209211103E+01 -0.56915992728E+00  0.15186092929E+00  0.22977152441E+01  0.00000000000E+00 0.  1.
</event>
<event>
 7    1  0.5559916E-010  0.4778727E+02  0.7816164E-02  0.1312668E+00
        -11   -1    0    0    0    0  0.00000000000E+00  0.00000000000E+00  0.45593999997E+02  0.45594000000E+02  0.51100000000E-03 0.  1.
         11   -1    0    0    0    0 -0.00000000000E+00 -0.00000000000E+00 -0.45593999997E+02  0.45594000000E+02  0.51100000000E-03 0. -1.
    9900012    2    1    2    0    0  0.58219068212E+01 -0.42878796214E+02 -0.33373094768E+01  0.47787269610E+02  0.19999993461E+02 0.  0.
         12    1    1    2    0    0 -0.58219068212E+01  0.42878796214E+02  0.33373094768E+01  0.43400730390E+02  0.00000000000E+00 0. -1.
         11    1    3    3    0    0  0.11870136213E+01 -0.14572007599E+02 -0.79403401696E+01  0.16637349821E+02  0.51100000000E-03 0. -1.
        -11    1    3    3    0    0  0.66386084033E+01 -0.16916663124E+02  0.67529218705E+01  0.19386762670E+02  0.51100000000E-03 0.  1.
        -12    1    3    3    0    0 -0.20037152033E+01 -0.11390125491E+02 -0.21498911777E+01  0.11763157118E+02  0.00000000000E+00 0.  1.
</event>
<event>
 7    1  0.5559916E-010  0.4778727E+02  0.7816164E-02  0.1312668E+00
        -11   -1    0    0    0    0  0.00000000000E+00  0.00000000000E+00  0.45593999997E+02  0.45594000000E+02  0.51100000000E-03 0.  1.
         11   -1    0    0    0    0 -0.00000000000E+00 -0.00000000000E+00 -0.45593999997E+02  0.45594000000E+02  0.51100000000E-03 0. -1.
    9900012    2    1    2    0    0 -0.28378588351E+02 -0.82777190335E+01  0.31776694224E+02  0.47787271838E+02  0.20000003619E+02 0.  0.
         12    1    1    2    0    0  0.28378588351E+02  0.82777190335E+01 -0.31776694224E+02  0.43400728162E+02  0.00000000000E+00 0. -1.
         11    1    3    3    0    0 -0.39986202643E+01  0.39574561300E+01  0.13384151253E+02  0.14518468517E+02  0.51100000000E-03 0. -1.
        -11    1    3    3    0    0 -0.10819024839E+02 -0.81841593667E+01  0.92623987666E+01  0.16426314078E+02  0.51100000000E-03 0.  1.
         12    1    3    3    0    0 -0.13560943247E+02 -0.40510157967E+01  0.91301442040E+01  0.16842489244E+02  0.00000000000E+00 0. -1.
</event>
<event>
 7    1  0.5559916E-010  0.4778727E+02  0.7816164E-02  0.1312668E+00
        -11   -1    0    0    0    0  0.00000000000E+00  0.00000000000E+00  0.45593999997E+02  0.45594000000E+02  0.51100000000E-03 0. -1.
         11   -1    0    0    0    0 -0.00000000000E+00 -0.00000000000E+00 -0.45593999997E+02  0.45594000000E+02  0.51100000000E-03 0.  1.
    9900012    2    1    2    0    0 -0.18411379176E+02  0.13914139343E+02 -0.36756511840E+02  0.47787270520E+02  0.19999997607E+02 0.  0.
         12    1    1    2    0    0  0.18411379176E+02 -0.13914139343E+02  0.36756511840E+02  0.43400729480E+02  0.00000000000E+00 0. -1.
         11    1    3    3    0    0 -0.74251652363E+01  0.76825354258E+01 -0.80193627920E+01  0.13359064683E+02  0.51100000000E-03 0. -1.
        -11    1    3    3    0    0  0.32638395729E+01 -0.21886538376E+00 -0.59316912721E+01  0.67738845888E+01  0.51100000000E-03 0.  1.
        -12    1    3    3    0    0 -0.14250053512E+02  0.64504693005E+01 -0.22805457776E+02  0.27654321248E+02  0.00000000000E+00 0.  1.
</event>
<event>
 7    1  0.5559916E-010  0.4778727E+02  0.7816164E-02  0.1312668E+00
        -11   -1    0    0    0    0  0.00000000000E+00  0.00000000000E+00  0.45593999997E+02  0.45594000000E+02  0.51100000000E-03 0.  1.
         11   -1    0    0    0    0 -0.00000000000E+00 -0.00000000000E+00 -0.45593999997E+02  0.45594000000E+02  0.51100000000E-03 0. -1.
    9900012    2    1    2    0    0  0.34841636858E+01  0.23968506640E+01  0.43194200655E+02  0.47787271205E+02  0.20000000733E+02 0.  0.
         12    1    1    2    0    0 -0.34841636858E+01 -0.23968506640E+01 -0.43194200655E+02  0.43400728795E+02  0.00000000000E+00 0. -1.
         11    1    3    3    0    0  0.36399437632E+01 -0.51600759393E+01  0.40569388727E+01  0.75056197330E+01  0.51100000000E-03 0. -1.
        -11    1    3    3    0    0  0.13425398654E+01  0.73620063269E+01  0.25930687119E+02  0.26988925232E+02  0.51100000000E-03 0.  1.
         12    1    3    3    0    0 -0.14983199428E+01  0.19492027629E+00  0.13206574663E+02  0.13292726240E+02  0.00000000000E+00 0. -1.
</event>
<event>
 7    1  0.5559916E-010  0.4778728E+02  0.7816164E-02  0.1312668E+00
        -11   -1    0    0    0    0  0.00000000000E+00  0.00000000000E+00  0.45593999997E+02  0.45594000000E+02  0.51100000000E-03 0.  1.
         11   -1    0    0    0    0 -0.00000000000E+00 -0.00000000000E+00 -0.45593999997E+02  0.45594000000E+02  0.51100000000E-03 0. -1.
    9900012    2    1    2    0    0  0.11448334817E+02  0.16080085641E+02  0.38652148061E+02  0.47787284867E+02  0.20000063022E+02 0.  0.
         12    1    1    2    0    0 -0.11448334817E+02 -0.16080085641E+02 -0.38652148061E+02  0.43400715133E+02  0.00000000000E+00 0. -1.
         11    1    3    3    0    0  0.26806886497E+01 -0.15055138996E+00  0.25507973464E+01  0.37034206784E+01  0.51100000000E-03 0. -1.
        -11    1    3    3    0    0  0.13170250918E+02  0.15086661688E+02  0.24634835560E+02  0.31748039206E+02  0.51100000000E-03 0.  1.
        -12    1    3    3    0    0 -0.44026047512E+01  0.11439753432E+01  0.11466515155E+02  0.12335824982E+02  0.00000000000E+00 0.  1.
</event>
<event>
 7    1  0.5559916E-010  0.4778727E+02  0.7816164E-02  0.1312668E+00
        -11   -1    0    0    0    0  0.00000000000E+00  0.00000000000E+00  0.45593999997E+02  0.45594000000E+02  0.51100000000E-03 0. -1.
         11   -1    0    0    0    0 -0.00000000000E+00 -0.00000000000E+00 -0.45593999997E+02  0.45594000000E+02  0.51100000000E-03 0.  1.
    9900012    2    1    2    0    0 -0.24214439550E+02 -0.33896928855E+02 -0.12177130347E+02  0.47787269914E+02  0.19999994844E+02 0.  0.
         12    1    1    2    0    0  0.24214439550E+02  0.33896928855E+02  0.12177130347E+02  0.43400730086E+02  0.00000000000E+00 0. -1.
         11    1    3    3    0    0 -0.76276592213E+01 -0.83192034307E+00  0.44021322528E+00  0.76855100415E+01  0.51100000000E-03 0. -1.
        -11    1    3    3    0    0 -0.41802241692E+01 -0.15734482831E+02 -0.86023909612E+01  0.18413292877E+02  0.51100000000E-03 0.  1.
         12    1    3    3    0    0 -0.12406556160E+02 -0.17330525681E+02 -0.40149526108E+01  0.21688466995E+02  0.00000000000E+00 0. -1.
</event>
<event>
 7    1  0.5559916E-010  0.4778727E+02  0.7816164E-02  0.1312668E+00
        -11   -1    0    0    0    0  0.00000000000E+00  0.00000000000E+00  0.45593999997E+02  0.45594000000E+02  0.51100000000E-03 0.  1.
         11   -1    0    0    0    0 -0.00000000000E+00 -0.00000000000E+00 -0.45593999997E+02  0.45594000000E+02  0.51100000000E-03 0. -1.
    9900012    2    1    2    0    0 -0.22493013557E+02  0.12631764673E+02  0.34901667586E+02  0.47787268002E+02  0.19999986130E+02 0.  0.
         12    1    1    2    0    0  0.22493013557E+02 -0.12631764673E+02 -0.34901667586E+02  0.43400731998E+02  0.00000000000E+00 0. -1.
         11    1    3    3    0    0 -0.59137324200E+00  0.46529372883E+01 -0.20177303311E+00  0.46947055646E+01  0.51100000000E-03 0. -1.
        -11    1    3    3    0    0 -0.12894947276E+02  0.15572656434E+01  0.13005135332E+02  0.18380377766E+02  0.51100000000E-03 0.  1.
         12    1    3    3    0    0 -0.90066930385E+01  0.64215617414E+01  0.22098305287E+02  0.24712184672E+02  0.00000000000E+00 0. -1.
</event>
<event>
 7    1  0.5559916E-010  0.4778727E+02  0.7816164E-02  0.1312668E+00
        -11   -1    0    0    0    0  0.00000000000E+00  0.00000000000E+00  0.45593999997E+02  0.45594000000E+02  0.51100000000E-03 0.  1.
         11   -1    0    0    0    0 -0.00000000000E+00 -0.00000000000E+00 -0.45593999997E+02  0.45594000000E+02  0.51100000000E-03 0. -1.
    9900012    2    1    2    0    0  0.94526357414E+01 -0.95230727495E+01  0.41274473849E+02  0.47787269262E+02  0.19999991875E+02 0.  0.
         12    1    1    2    0    0 -0.94526357414E+01  0.95230727495E+01 -0.41274473849E+02  0.43400730738E+02  0.00000000000E+00 0. -1.
         11    1    3    3    0    0  0.62589014320E-01 -0.42066374411E+01  0.59304769395E+00  0.42486964794E+01  0.51100000000E-03 0. -1.
        -11    1    3    3    0    0  0.11723968553E+02 -0.58065974895E+01  0.35518991743E+02  0.37851905999E+02  0.51100000000E-03 0.  1.
         12    1    3    3    0    0 -0.23339218261E+01  0.49016218118E+00  0.51624344122E+01  0.56866667842E+01  0.00000000000E+00 0. -1.
</event>
<event>
 7    1  0.5559916E-010  0.4778728E+02  0.7816164E-02  0.1312668E+00
        -11   -1    0    0    0    0  0.00000000000E+00  0.00000000000E+00  0.45593999997E+02  0.45594000000E+02  0.51100000000E-03 0.  1.
         11   -1    0    0    0    0 -0.00000000000E+00 -0.00000000000E+00 -0.45593999997E+02  0.45594000000E+02  0.51100000000E-03 0. -1.
    9900012    2    1    2    0    0 -0.13544283740E+02 -0.33039199941E+02  0.24669543648E+02  0.47787277211E+02  0.20000028116E+02 0.  0.
         12    1    1    2    0    0  0.13544283740E+02  0.33039199941E+02 -0.24669543648E+02  0.43400722789E+02  0.00000000000E+00 0. -1.
         11    1    3    3    0    0  0.38493684632E+01 -0.11887436264E+01  0.26705039706E+01  0.48334605298E+01  0.51100000000E-03 0. -1.
        -11    1    3    3    0    0 -0.13100969264E+02 -0.22697487139E+02  0.19125586345E+02  0.32443787870E+02  0.51100000000E-03 0.  1.
         12    1    3    3    0    0 -0.42926829390E+01 -0.91529691761E+01  0.28734533327E+01  0.10510028811E+02  0.00000000000E+00 0. -1.
</event>
<event>
 7    1  0.5559916E-010  0.4778727E+02  0.7816164E-02  0.1312668E+00
        -11   -1    0    0    0    0  0.00000000000E+00  0.00000000000E+00  0.45593999997E+02  0.45594000000E+02  0.51100000000E-03 0.  1.
         11   -1    0    0    0    0 -0.00000000000E+00 -0.00000000000E+00 -0.45593999997E+02  0.45594000000E+02  0.51100000000E-03 0. -1.
    9900012    2    1    2    0    0 -0.13750601537E+02  0.40927052883E+02  0.44182364850E+01  0.47787268279E+02  0.19999987390E+02 0.  0.
         12    1    1    2    0    0  0.13750601537E+02 -0.40927052883E+02 -0.44182364850E+01  0.43400731721E+02  0.00000000000E+00 0. -1.
         11    1    3    3    0    0 -0.37066021119E+01  0.38879947261E+01 -0.23994611744E+01  0.58832657933E+01  0.51100000000E-03 0. -1.
        -11    1    3    3    0    0 -0.66530110746E+01  0.35839922071E+02  0.28722870650E+01  0.36565182943E+02  0.51100000000E-03 0.  1.
        -12    1    3    3    0    0 -0.33909883506E+01  0.11991360856E+01  0.39454105944E+01  0.53388195422E+01  0.00000000000E+00 0.  1.
</event>
<event>
 7    1  0.5561217E-010  0.4778728E+02  0.7816164E-02  0.1312668E+00
        -11   -1    0    0    0    0  0.00000000000E+00  0.00000000000E+00  0.45593999997E+02  0.45594000000E+02  0.51100000000E-03 0. -1.
         11   -1    0    0    0    0 -0.00000000000E+00 -0.00000000000E+00 -0.45593999997E+02  0.45594000000E+02  0.51100000000E-03 0.  1.
    9900012    2    1    2    0    0 -0.16138411181E+02  0.42957740929E+01 -0.40058967949E+02  0.47787275310E+02  0.20000019447E+02 0.  0.
         12    1    1    2    0    0  0.16138411181E+02 -0.42957740929E+01  0.40058967949E+02  0.43400724690E+02  0.00000000000E+00 0. -1.
         11    1    3    3    0    0  0.29380299935E+01 -0.32048424017E+01 -0.10479489435E+02  0.11345604177E+02  0.51100000000E-03 0. -1.
        -11    1    3    3    0    0 -0.10138213778E+02  0.62038776424E+01 -0.13398209723E+02  0.17910429935E+02  0.51100000000E-03 0.  1.
         12    1    3    3    0    0 -0.89382273965E+01  0.12967388522E+01 -0.16181268791E+02  0.18531241198E+02  0.00000000000E+00 0. -1.
</event>
<event>
 7    1  0.5559916E-010  0.4778726E+02  0.7816164E-02  0.1312668E+00
        -11   -1    0    0    0    0  0.00000000000E+00  0.00000000000E+00  0.45593999997E+02  0.45594000000E+02  0.51100000000E-03 0.  1.
         11   -1    0    0    0    0 -0.00000000000E+00 -0.00000000000E+00 -0.45593999997E+02  0.45594000000E+02  0.51100000000E-03 0. -1.
    9900012    2    1    2    0    0 -0.99044514215E+01  0.26464734850E+02  0.32941523202E+02  0.47787259229E+02  0.19999946127E+02 0.  0.
         12    1    1    2    0    0  0.99044514215E+01 -0.26464734850E+02 -0.32941523202E+02  0.43400740771E+02  0.00000000000E+00 0. -1.
         11    1    3    3    0    0 -0.10166714196E+01  0.79108759273E+01  0.20090706563E+02  0.21616014183E+02  0.51100000000E-03 0. -1.
        -11    1    3    3    0    0 -0.99988389738E+01  0.18938002791E+02  0.12889021380E+02  0.24995031565E+02  0.51100000000E-03 0.  1.
        -12    1    3    3    0    0  0.11110589719E+01 -0.38414386836E+00 -0.38204740659E-01  0.11762134809E+01  0.00000000000E+00 0.  1.
</event>
<event>
 7    1  0.5559916E-010  0.4778727E+02  0.7816164E-02  0.1312668E+00
        -11   -1    0    0    0    0  0.00000000000E+00  0.00000000000E+00  0.45593999997E+02  0.45594000000E+02  0.51100000000E-03 0. -1.
         11   -1    0    0    0    0 -0.00000000000E+00 -0.00000000000E+00 -0.45593999997E+02  0.45594000000E+02  0.51100000000E-03 0.  1.
    9900012    2    1    2    0    0 -0.78305100146E+01  0.68863941739E+01 -0.42129375939E+02  0.47787266955E+02  0.19999981356E+02 0.  0.
         12    1    1    2    0    0  0.78305100146E+01 -0.68863941739E+01  0.42129375939E+02  0.43400733045E+02  0.00000000000E+00 0. -1.
         11    1    3    3    0    0 -0.71483987653E+01  0.84650486487E+00 -0.11780790486E+02  0.13805911782E+02  0.51100000000E-03 0. -1.
        -11    1    3    3    0    0  0.26373690868E+01 -0.39555128021E+01 -0.92792556752E+01  0.10426235340E+02  0.51100000000E-03 0.  1.
        -12    1    3    3    0    0 -0.33194803361E+01  0.99954021111E+01 -0.21069329778E+02  0.23555119833E+02  0.00000000000E+00 0.  1.
</event>
<event>
 7    1  0.5559916E-010  0.4778727E+02  0.7816164E-02  0.1312668E+00
        -11   -1    0    0    0    0  0.00000000000E+00  0.00000000000E+00  0.45593999997E+02  0.45594000000E+02  0.51100000000E-03 0. -1.
         11   -1    0    0    0    0 -0.00000000000E+00 -0.00000000000E+00 -0.45593999997E+02  0.45594000000E+02  0.51100000000E-03 0.  1.
    9900012    2    1    2    0    0 -0.45654366369E+01  0.39547378959E+02 -0.17285385120E+02  0.47787274972E+02  0.20000017908E+02 0.  0.
         12    1    1    2    0    0  0.45654366369E+01 -0.39547378959E+02  0.17285385120E+02  0.43400725028E+02  0.00000000000E+00 0. -1.
         11    1    3    3    0    0 -0.26072910134E+01  0.24068403701E+01 -0.38650134236E+00  0.35693459547E+01  0.51100000000E-03 0. -1.
        -11    1    3    3    0    0 -0.51528090461E+01  0.15930031476E+02  0.26737671004E+00  0.16744815151E+02  0.51100000000E-03 0.  1.
        -12    1    3    3    0    0  0.31946634226E+01  0.21210507113E+02 -0.17166260488E+02  0.27473113866E+02  0.00000000000E+00 0.  1.
</event>
<event>
 7    1  0.5559916E-010  0.4778727E+02  0.7816164E-02  0.1312668E+00
        -11   -1    0    0    0    0  0.00000000000E+00  0.00000000000E+00  0.45593999997E+02  0.45594000000E+02  0.51100000000E-03 0. -1.
         11   -1    0    0    0    0 -0.00000000000E+00 -0.00000000000E+00 -0.45593999997E+02  0.45594000000E+02  0.51100000000E-03 0.  1.
    9900012    2    1    2    0    0  0.33210769312E+02 -0.16046469004E+02  0.22873097765E+02  0.47787274578E+02  0.20000016113E+02 0.  0.
         12    1    1    2    0    0 -0.33210769312E+02  0.16046469004E+02 -0.22873097765E+02  0.43400725422E+02  0.00000000000E+00 0. -1.
         11    1    3    3    0    0  0.23846644412E+02 -0.91271669387E+01  0.21282898591E+02  0.33240478317E+02  0.51100000000E-03 0.  1.
        -11    1    3    3    0    0  0.86965136996E+01 -0.22136075544E+01  0.32022196593E+01  0.95280438674E+01  0.51100000000E-03 0. -1.
         12    1    3    3    0    0  0.66761119963E+00 -0.47056945109E+01 -0.16120204859E+01  0.50187523938E+01  0.00000000000E+00 0. -1.
</event>
<event>
 7    1  0.5559916E-010  0.4778727E+02  0.7816164E-02  0.1312668E+00
        -11   -1    0    0    0    0  0.00000000000E+00  0.00000000000E+00  0.45593999997E+02  0.45594000000E+02  0.51100000000E-03 0.  1.
         11   -1    0    0    0    0 -0.00000000000E+00 -0.00000000000E+00 -0.45593999997E+02  0.45594000000E+02  0.51100000000E-03 0. -1.
    9900012    2    1    2    0    0 -0.42465197508E+02  0.77173208489E+01  0.45577470917E+01  0.47787273059E+02  0.20000009184E+02 0.  0.
         12    1    1    2    0    0  0.42465197508E+02 -0.77173208489E+01 -0.45577470917E+01  0.43400726941E+02  0.00000000000E+00 0. -1.
         11    1    3    3    0    0 -0.71327724157E+01  0.88823717385E+01  0.10085264954E+01  0.11436349767E+02  0.51100000000E-03 0. -1.
        -11    1    3    3    0    0 -0.11995557205E+02 -0.20642082162E+01  0.45008360714E+01  0.12977360048E+02  0.51100000000E-03 0.  1.
         12    1    3    3    0    0 -0.23336867888E+02  0.89915732655E+00 -0.95161547510E+00  0.23373563244E+02  0.00000000000E+00 0. -1.
</event>
<event>
 7    1  0.5559916E-010  0.4778727E+02  0.7816164E-02  0.1312668E+00
        -11   -1    0    0    0    0  0.00000000000E+00  0.00000000000E+00  0.45593999997E+02  0.45594000000E+02  0.51100000000E-03 0.  1.
         11   -1    0    0    0    0 -0.00000000000E+00 -0.00000000000E+00 -0.45593999997E+02  0.45594000000E+02  0.51100000000E-03 0. -1.
    9900012    2    1    2    0    0 -0.13198169060E+02  0.41126148572E+02 -0.42510721638E+01  0.47787269851E+02  0.19999994559E+02 0.  0.
         12    1    1    2    0    0  0.13198169060E+02 -0.41126148572E+02  0.42510721638E+01  0.43400730149E+02  0.00000000000E+00 0. -1.
         11    1    3    3    0    0 -0.22953955345E+01  0.31986279271E+02 -0.77570599966E+01  0.32993376340E+02  0.51100000000E-03 0. -1.
        -11    1    3    3    0    0 -0.27416252137E+01  0.34316243030E+01  0.70835722697E+00  0.44490812975E+01  0.51100000000E-03 0.  1.
         12    1    3    3    0    0 -0.81611483114E+01  0.57082449980E+01  0.27976306059E+01  0.10344812213E+02  0.00000000000E+00 0. -1.
</event>
<event>
 7    1  0.5559916E-010  0.4778728E+02  0.7816164E-02  0.1312668E+00
        -11   -1    0    0    0    0  0.00000000000E+00  0.00000000000E+00  0.45593999997E+02  0.45594000000E+02  0.51100000000E-03 0.  1.
         11   -1    0    0    0    0 -0.00000000000E+00 -0.00000000000E+00 -0.45593999997E+02  0.45594000000E+02  0.51100000000E-03 0. -1.
    9900012    2    1    2    0    0 -0.34288491630E+02 -0.12344378116E+02  0.23569861419E+02  0.47787277694E+02  0.20000030319E+02 0.  0.
         12    1    1    2    0    0  0.34288491630E+02  0.12344378116E+02 -0.23569861419E+02  0.43400722306E+02  0.00000000000E+00 0. -1.
         11    1    3    3    0    0 -0.22396017109E+02 -0.37964488790E+01  0.11391837480E+02  0.25411976859E+02  0.51100000000E-03 0.  1.
        -11    1    3    3    0    0 -0.64947076235E+00 -0.38703597342E+01 -0.13721120250E+01  0.41574256955E+01  0.51100000000E-03 0. -1.
        -12    1    3    3    0    0 -0.11243003759E+02 -0.46775695028E+01  0.13550135964E+02  0.18217875140E+02  0.00000000000E+00 0.  1.
</event>
<event>
 7    1  0.5559916E-010  0.4778727E+02  0.7816164E-02  0.1312668E+00
        -11   -1    0    0    0    0  0.00000000000E+00  0.00000000000E+00  0.45593999997E+02  0.45594000000E+02  0.51100000000E-03 0.  1.
         11   -1    0    0    0    0 -0.00000000000E+00 -0.00000000000E+00 -0.45593999997E+02  0.45594000000E+02  0.51100000000E-03 0. -1.
    9900012    2    1    2    0    0 -0.42739859812E+02 -0.41069007287E+01  0.63293860799E+01  0.47787269839E+02  0.19999994503E+02 0.  0.
         12    1    1    2    0    0  0.42739859812E+02  0.41069007287E+01 -0.63293860799E+01  0.43400730161E+02  0.00000000000E+00 0. -1.
         11    1    3    3    0    0 -0.86916443013E+01 -0.27521533758E+00 -0.58046268573E+01  0.10455339179E+02  0.51100000000E-03 0. -1.
        -11    1    3    3    0    0 -0.31227928979E+02 -0.19087605916E+01  0.86623825566E+01  0.32463268276E+02  0.51100000000E-03 0.  1.
         12    1    3    3    0    0 -0.28202865322E+01 -0.19229247995E+01  0.34716303806E+01  0.48686623838E+01  0.00000000000E+00 0. -1.
</event>
<event>
 7    1  0.5559916E-010  0.4778727E+02  0.7816164E-02  0.1312668E+00
        -11   -1    0    0    0    0  0.00000000000E+00  0.00000000000E+00  0.45593999997E+02  0.45594000000E+02  0.51100000000E-03 0.  1.
         11   -1    0    0    0    0 -0.00000000000E+00 -0.00000000000E+00 -0.45593999997E+02  0.45594000000E+02  0.51100000000E-03 0. -1.
    9900012    2    1    2    0    0  0.15324435132E+02 -0.23118949898E+02  0.33381125374E+02  0.47787266277E+02  0.19999978263E+02 0.  0.
         12    1    1    2    0    0 -0.15324435132E+02  0.23118949898E+02 -0.33381125374E+02  0.43400733723E+02  0.00000000000E+00 0. -1.
         11    1    3    3    0    0 -0.23189429306E+01 -0.20148324879E+01 -0.68366640827E+00  0.31471330268E+01  0.51100000000E-03 0. -1.
        -11    1    3    3    0    0  0.88112607892E+01 -0.13807703498E+02  0.25617407446E+02  0.30406291407E+02  0.51100000000E-03 0.  1.
        -12    1    3    3    0    0  0.88321172735E+01 -0.72964139121E+01  0.84473843354E+01  0.14233841843E+02  0.00000000000E+00 0.  1.
</event>
<event>
 7    1  0.5559916E-010  0.4778727E+02  0.7816164E-02  0.1312668E+00
        -11   -1    0    0    0    0  0.00000000000E+00  0.00000000000E+00  0.45593999997E+02  0.45594000000E+02  0.51100000000E-03 0.  1.
         11   -1    0    0    0    0 -0.00000000000E+00 -0.00000000000E+00 -0.45593999997E+02  0.45594000000E+02  0.51100000000E-03 0. -1.
    9900012    2    1    2    0    0  0.21432211546E+02  0.33881638503E+02 -0.16622828472E+02  0.47787267912E+02  0.19999985717E+02 0.  0.
         12    1    1    2    0    0 -0.21432211546E+02 -0.33881638503E+02  0.16622828472E+02  0.43400732088E+02  0.00000000000E+00 0. -1.
         11    1    3    3    0    0 -0.31896797144E+01  0.73129813130E+01 -0.42111348651E+01  0.90214970752E+01  0.51100000000E-03 0. -1.
        -11    1    3    3    0    0  0.22672307703E+02  0.23181725206E+02 -0.91949809470E+01  0.33704207378E+02  0.51100000000E-03 0.  1.
        -12    1    3    3    0    0  0.19495835582E+01  0.33869319837E+01 -0.32167126596E+01  0.50615634587E+01  0.00000000000E+00 0.  1.
</event>
<event>
 7    1  0.5559916E-010  0.4778727E+02  0.7816164E-02  0.1312668E+00
        -11   -1    0    0    0    0  0.00000000000E+00  0.00000000000E+00  0.45593999997E+02  0.45594000000E+02  0.51100000000E-03 0.  1.
         11   -1    0    0    0    0 -0.00000000000E+00 -0.00000000000E+00 -0.45593999997E+02  0.45594000000E+02  0.51100000000E-03 0. -1.
    9900012    2    1    2    0    0 -0.14203100921E+02  0.23550606914E+02  0.33574756546E+02  0.47787269143E+02  0.19999991333E+02 0.  0.
         12    1    1    2    0    0  0.14203100921E+02 -0.23550606914E+02 -0.33574756546E+02  0.43400730857E+02  0.00000000000E+00 0. -1.
         11    1    3    3    0    0 -0.68420466555E+01  0.41705398175E+01  0.17804198876E+02  0.19524254216E+02  0.51100000000E-03 0. -1.
        -11    1    3    3    0    0 -0.87729055981E+01  0.18032212403E+02  0.16704519224E+02  0.26099147870E+02  0.51100000000E-03 0.  1.
        -12    1    3    3    0    0  0.14118513322E+01  0.13478546938E+01 -0.93396155433E+00  0.21638670580E+01  0.00000000000E+00 0.  1.
</event>
<event>
 7    1  0.5559916E-010  0.4778725E+02  0.7816164E-02  0.1312668E+00
        -11   -1    0    0    0    0  0.00000000000E+00  0.00000000000E+00  0.45593999997E+02  0.45594000000E+02  0.51100000000E-03 0.  1.
         11   -1    0    0    0    0 -0.00000000000E+00 -0.00000000000E+00 -0.45593999997E+02  0.45594000000E+02  0.51100000000E-03 0. -1.
    9900012    2    1    2    0    0 -0.11442517044E+02  0.36863900114E+02  0.19843048570E+02  0.47787252259E+02  0.19999914349E+02 0.  0.
         12    1    1    2    0    0  0.11442517044E+02 -0.36863900114E+02 -0.19843048570E+02  0.43400747741E+02  0.00000000000E+00 0. -1.
         11    1    3    3    0    0 -0.14736336896E+01  0.19964278607E+02  0.38980180868E+01  0.20394571872E+02  0.51100000000E-03 0.  1.
        -11    1    3    3    0    0 -0.94754452477E+01  0.62604072159E+01  0.61121490261E+01  0.12897097624E+02  0.51100000000E-03 0. -1.
        -12    1    3    3    0    0 -0.49343810710E+00  0.10639214291E+02  0.98328814568E+01  0.14495582763E+02  0.00000000000E+00 0.  1.
</event>
<event>
 7    1  0.5559916E-010  0.4778728E+02  0.7816164E-02  0.1312668E+00
        -11   -1    0    0    0    0  0.00000000000E+00  0.00000000000E+00  0.45593999997E+02  0.45594000000E+02  0.51100000000E-03 0. -1.
         11   -1    0    0    0    0 -0.00000000000E+00 -0.00000000000E+00 -0.45593999997E+02  0.45594000000E+02  0.51100000000E-03 0.  1.
    9900012    2    1    2    0    0 -0.35089427208E+01  0.42494201845E+02 -0.80964621542E+01  0.47787279167E+02  0.20000037033E+02 0.  0.
         12    1    1    2    0    0  0.35089427208E+01 -0.42494201845E+02  0.80964621542E+01  0.43400720833E+02  0.00000000000E+00 0. -1.
         11    1    3    3    0    0  0.72239064743E+01  0.11601515625E+02  0.25483198510E+00  0.13669123203E+02  0.51100000000E-03 0. -1.
        -11    1    3    3    0    0 -0.74395462004E+01  0.21421509359E+02 -0.81248216092E+01  0.24088184600E+02  0.51100000000E-03 0.  1.
         12    1    3    3    0    0 -0.32933029947E+01  0.94711768609E+01 -0.22647253008E+00  0.10029971363E+02  0.00000000000E+00 0. -1.
</event>
<event>
 7    1  0.5559916E-010  0.4778727E+02  0.7816164E-02  0.1312668E+00
        -11   -1    0    0    0    0  0.00000000000E+00  0.00000000000E+00  0.45593999997E+02  0.45594000000E+02  0.51100000000E-03 0. -1.
         11   -1    0    0    0    0 -0.00000000000E+00 -0.00000000000E+00 -0.45593999997E+02  0.45594000000E+02  0.51100000000E-03 0.  1.
    9900012    2    1    2    0    0  0.23535479715E+02  0.22389895471E+02 -0.28781888645E+02  0.47787270299E+02  0.19999996599E+02 0.  0.
         12    1    1    2    0    0 -0.23535479715E+02 -0.22389895471E+02  0.28781888645E+02  0.43400729701E+02  0.00000000000E+00 0. -1.
         11    1    3    3    0    0  0.61662314354E+01 -0.23577549658E+01 -0.22787006070E+01  0.69838309910E+01  0.51100000000E-03 0. -1.
        -11    1    3    3    0    0  0.33011965214E+01  0.10435899854E+02 -0.88530274325E+01  0.14077712855E+02  0.51100000000E-03 0.  1.
         12    1    3    3    0    0  0.14068051758E+02  0.14311750583E+02 -0.17650160606E+02  0.26725726453E+02  0.00000000000E+00 0. -1.
</event>
<event>
 7    1  0.5559916E-010  0.4778728E+02  0.7816164E-02  0.1312668E+00
        -11   -1    0    0    0    0  0.00000000000E+00  0.00000000000E+00  0.45593999997E+02  0.45594000000E+02  0.51100000000E-03 0.  1.
         11   -1    0    0    0    0 -0.00000000000E+00 -0.00000000000E+00 -0.45593999997E+02  0.45594000000E+02  0.51100000000E-03 0. -1.
    9900012    2    1    2    0    0 -0.37832398463E+02 -0.18414664965E+02  0.10641080983E+02  0.47787275769E+02  0.20000021542E+02 0.  0.
         12    1    1    2    0    0  0.37832398463E+02  0.18414664965E+02 -0.10641080983E+02  0.43400724231E+02  0.00000000000E+00 0. -1.
         11    1    3    3    0    0 -0.23547346780E+02 -0.95122765728E+01 -0.28431659895E+01  0.25554736138E+02  0.51100000000E-03 0. -1.
        -11    1    3    3    0    0 -0.10376991863E+02 -0.39199187886E+01  0.10331737132E+02  0.15158908795E+02  0.51100000000E-03 0.  1.
         12    1    3    3    0    0 -0.39080598211E+01 -0.49824696036E+01  0.31525098406E+01  0.70736308365E+01  0.00000000000E+00 0. -1.
</event>
<event>
 7    1  0.5559916E-010  0.4778727E+02  0.7816164E-02  0.1312668E+00
        -11   -1    0    0    0    0  0.00000000000E+00  0.00000000000E+00  0.45593999997E+02  0.45594000000E+02  0.51100000000E-03 0. -1.
         11   -1    0    0    0    0 -0.00000000000E+00 -0.00000000000E+00 -0.45593999997E+02  0.45594000000E+02  0.51100000000E-03 0.  1.
    9900012    2    1    2    0    0  0.19764794844E+02  0.23464536230E+02 -0.30698397804E+02  0.47787271856E+02  0.20000003699E+02 0.  0.
         12    1    1    2    0    0 -0.19764794844E+02 -0.23464536230E+02  0.30698397804E+02  0.43400728144E+02  0.00000000000E+00 0. -1.
         11    1    3    3    0    0  0.46433151060E+01  0.66965210029E+01 -0.73888170788E-01  0.81491857531E+01  0.51100000000E-03 0. -1.
        -11    1    3    3    0    0  0.10940059431E+02  0.40234061007E+01 -0.15975688328E+02  0.19776129925E+02  0.51100000000E-03 0.  1.
        -12    1    3    3    0    0  0.41814203072E+01  0.12744609126E+02 -0.14648821305E+02  0.19861956178E+02  0.00000000000E+00 0.  1.
</event>
<event>
 7    1  0.5559916E-010  0.4778726E+02  0.7816164E-02  0.1312668E+00
        -11   -1    0    0    0    0  0.00000000000E+00  0.00000000000E+00  0.45593999997E+02  0.45594000000E+02  0.51100000000E-03 0.  1.
         11   -1    0    0    0    0 -0.00000000000E+00 -0.00000000000E+00 -0.45593999997E+02  0.45594000000E+02  0.51100000000E-03 0. -1.
    9900012    2    1    2    0    0  0.21522985701E+02 -0.51800678626E+01  0.37330309247E+02  0.47787262621E+02  0.19999961594E+02 0.  0.
         12    1    1    2    0    0 -0.21522985701E+02  0.51800678626E+01 -0.37330309247E+02  0.43400737379E+02  0.00000000000E+00 0. -1.
         11    1    3    3    0    0  0.61025397348E+01  0.60769193161E+01  0.69432317950E+01  0.11062477463E+02  0.51100000000E-03 0. -1.
        -11    1    3    3    0    0  0.11667355743E+02 -0.65020786380E+01  0.14461379873E+02  0.19685927074E+02  0.51100000000E-03 0.  1.
         12    1    3    3    0    0  0.37530902225E+01 -0.47549085407E+01  0.15925697579E+02  0.17038858085E+02  0.00000000000E+00 0. -1.
</event>
<event>
 7    1  0.5559916E-010  0.4778728E+02  0.7816164E-02  0.1312668E+00
        -11   -1    0    0    0    0  0.00000000000E+00  0.00000000000E+00  0.45593999997E+02  0.45594000000E+02  0.51100000000E-03 0.  1.
         11   -1    0    0    0    0 -0.00000000000E+00 -0.00000000000E+00 -0.45593999997E+02  0.45594000000E+02  0.51100000000E-03 0. -1.
    9900012    2    1    2    0    0  0.24913026597E+02  0.32878523754E+02 -0.13489496025E+02  0.47787277409E+02  0.20000029018E+02 0.  0.
         12    1    1    2    0    0 -0.24913026597E+02 -0.32878523754E+02  0.13489496025E+02  0.43400722591E+02  0.00000000000E+00 0. -1.
         11    1    3    3    0    0 -0.53862875299E+00  0.39463650666E+00 -0.13767195535E+01  0.15301032305E+01  0.51100000000E-03 0. -1.
        -11    1    3    3    0    0  0.22215547131E+02  0.30717199733E+02 -0.15775411817E+02  0.41060205942E+02  0.51100000000E-03 0.  1.
        -12    1    3    3    0    0  0.32361082190E+01  0.17666875140E+01  0.36626353455E+01  0.51969682365E+01  0.00000000000E+00 0.  1.
</event>
<event>
 7    1  0.5559916E-010  0.4778729E+02  0.7816164E-02  0.1312668E+00
        -11   -1    0    0    0    0  0.00000000000E+00  0.00000000000E+00  0.45593999997E+02  0.45594000000E+02  0.51100000000E-03 0. -1.
         11   -1    0    0    0    0 -0.00000000000E+00 -0.00000000000E+00 -0.45593999997E+02  0.45594000000E+02  0.51100000000E-03 0.  1.
    9900012    2    1    2    0    0 -0.15648226583E+02  0.39223587086E+02  0.10013233282E+02  0.47787290099E+02  0.20000086879E+02 0.  0.
         12    1    1    2    0    0  0.15648226583E+02 -0.39223587086E+02 -0.10013233282E+02  0.43400709901E+02  0.00000000000E+00 0. -1.
         11    1    3    3    0    0  0.13770667096E+01 -0.11088361608E+01 -0.32225894092E+00  0.17971314477E+01  0.51100000000E-03 0. -1.
        -11    1    3    3    0    0 -0.14461435572E+01  0.66424848714E+01 -0.16313676970E+01  0.69910869884E+01  0.51100000000E-03 0.  1.
         12    1    3    3    0    0 -0.15579149735E+02  0.33689938376E+02  0.11966859920E+02  0.38999071663E+02  0.00000000000E+00 0. -1.
</event>
<event>
 7    1  0.5559916E-010  0.4778727E+02  0.7816164E-02  0.1312668E+00
        -11   -1    0    0    0    0  0.00000000000E+00  0.00000000000E+00  0.45593999997E+02  0.45594000000E+02  0.51100000000E-03 0.  1.
         11   -1    0    0    0    0 -0.00000000000E+00 -0.00000000000E+00 -0.45593999997E+02  0.45594000000E+02  0.51100000000E-03 0. -1.
    9900012    2    1    2    0    0 -0.21309986075E+02  0.61540452259E+01  0.37304631945E+02  0.47787270240E+02  0.19999996333E+02 0.  0.
         12    1    1    2    0    0  0.21309986075E+02 -0.61540452259E+01 -0.37304631945E+02  0.43400729760E+02  0.00000000000E+00 0. -1.
         11    1    3    3    0    0 -0.24767683212E+01  0.58702396648E+00 -0.17016220972E+01  0.30617799524E+01  0.51100000000E-03 0. -1.
        -11    1    3    3    0    0 -0.98541941288E+01  0.40103961166E+01  0.30333930488E+02  0.32145540252E+02  0.51100000000E-03 0.  1.
         12    1    3    3    0    0 -0.89790236249E+01  0.15566251428E+01  0.86723235535E+01  0.12579950036E+02  0.00000000000E+00 0. -1.
</event>
<event>
 7    1  0.5559916E-010  0.4778727E+02  0.7816164E-02  0.1312668E+00
        -11   -1    0    0    0    0  0.00000000000E+00  0.00000000000E+00  0.45593999997E+02  0.45594000000E+02  0.51100000000E-03 0. -1.
         11   -1    0    0    0    0 -0.00000000000E+00 -0.00000000000E+00 -0.45593999997E+02  0.45594000000E+02  0.51100000000E-03 0.  1.
    9900012    2    1    2    0    0  0.26651630464E+02 -0.31374903080E+02 -0.13745157964E+02  0.47787270546E+02  0.19999997726E+02 0.  0.
         12    1    1    2    0    0 -0.26651630464E+02  0.31374903080E+02  0.13745157964E+02  0.43400729454E+02  0.00000000000E+00 0. -1.
         11    1    3    3    0    0  0.17393736400E+02 -0.95194669751E+01 -0.76571114379E+00  0.19843100344E+02  0.51100000000E-03 0.  1.
        -11    1    3    3    0    0  0.10237963256E+02 -0.20199548074E+02 -0.10973574890E+02  0.25164597754E+02  0.51100000000E-03 0. -1.
        -12    1    3    3    0    0 -0.98006919084E+00 -0.16558880312E+01 -0.20058719308E+01  0.27795724479E+01  0.00000000000E+00 0.  1.
</event>
<event>
 7    1  0.5559916E-010  0.4778727E+02  0.7816164E-02  0.1312668E+00
        -11   -1    0    0    0    0  0.00000000000E+00  0.00000000000E+00  0.45593999997E+02  0.45594000000E+02  0.51100000000E-03 0.  1.
         11   -1    0    0    0    0 -0.00000000000E+00 -0.00000000000E+00 -0.45593999997E+02  0.45594000000E+02  0.51100000000E-03 0. -1.
    9900012    2    1    2    0    0 -0.32187489781E+02  0.22431925017E+02  0.18557949923E+02  0.47787271161E+02  0.20000000533E+02 0.  0.
         12    1    1    2    0    0  0.32187489781E+02 -0.22431925017E+02 -0.18557949923E+02  0.43400728839E+02  0.00000000000E+00 0. -1.
         11    1    3    3    0    0 -0.60793020867E+01  0.45736015948E+01  0.80088807782E+01  0.11046172051E+02  0.51100000000E-03 0. -1.
        -11    1    3    3    0    0 -0.35518483051E+01 -0.28519793087E+01  0.98632783413E+00  0.46607140244E+01  0.51100000000E-03 0.  1.
        -12    1    3    3    0    0 -0.22556339389E+02  0.20710302731E+02  0.95627413109E+01  0.32080385085E+02  0.00000000000E+00 0.  1.
</event>
<event>
 7    1  0.5559916E-010  0.4778722E+02  0.7816164E-02  0.1312668E+00
        -11   -1    0    0    0    0  0.00000000000E+00  0.00000000000E+00  0.45593999997E+02  0.45594000000E+02  0.51100000000E-03 0. -1.
         11   -1    0    0    0    0 -0.00000000000E+00 -0.00000000000E+00 -0.45593999997E+02  0.45594000000E+02  0.51100000000E-03 0.  1.
    9900012    2    1    2    0    0 -0.42215333249E+02  0.54294895777E+01  0.84861007061E+01  0.47787220933E+02  0.19999771522E+02 0.  0.
         12    1    1    2    0    0  0.42215333249E+02 -0.54294895777E+01 -0.84861007061E+01  0.43400779067E+02  0.00000000000E+00 0. -1.
         11    1    3    3    0    0 -0.24704553153E+02  0.30149994978E+01  0.14725994772E+02  0.28918161953E+02  0.51100000000E-03 0. -1.
        -11    1    3    3    0    0 -0.13501757214E+02  0.10970801680E+01 -0.52969560063E+01  0.14545060191E+02  0.51100000000E-03 0.  1.
         12    1    3    3    0    0 -0.40090228821E+01  0.13174099119E+01 -0.94293805999E+00  0.43239987894E+01  0.00000000000E+00 0. -1.
</event>
<event>
 7    1  0.5559916E-010  0.4778730E+02  0.7816164E-02  0.1312668E+00
        -11   -1    0    0    0    0  0.00000000000E+00  0.00000000000E+00  0.45593999997E+02  0.45594000000E+02  0.51100000000E-03 0.  1.
         11   -1    0    0    0    0 -0.00000000000E+00 -0.00000000000E+00 -0.45593999997E+02  0.45594000000E+02  0.51100000000E-03 0. -1.
    9900012    2    1    2    0    0 -0.19574212625E+02  0.92877424828E+01  0.37605970909E+02  0.47787297145E+02  0.20000119000E+02 0.  0.
         12    1    1    2    0    0  0.19574212625E+02 -0.92877424828E+01 -0.37605970909E+02  0.43400702855E+02  0.00000000000E+00 0. -1.
         11    1    3    3    0    0  0.17145935008E+01  0.32501832298E+01  0.10381578915E+02  0.11012751832E+02  0.51100000000E-03 0. -1.
        -11    1    3    3    0    0 -0.22204468949E+02  0.52805400359E+01  0.23064510907E+02  0.32448331360E+02  0.51100000000E-03 0.  1.
        -12    1    3    3    0    0  0.91566282314E+00  0.75701921704E+00  0.41598810872E+01  0.43262139522E+01  0.00000000000E+00 0.  1.
</event>
<event>
 7    1  0.5559916E-010  0.4778728E+02  0.7816164E-02  0.1312668E+00
        -11   -1    0    0    0    0  0.00000000000E+00  0.00000000000E+00  0.45593999997E+02  0.45594000000E+02  0.51100000000E-03 0. -1.
         11   -1    0    0    0    0 -0.00000000000E+00 -0.00000000000E+00 -0.45593999997E+02  0.45594000000E+02  0.51100000000E-03 0.  1.
    9900012    2    1    2    0    0 -0.15773785839E+02 -0.29457360918E+02 -0.27696101649E+02  0.47787280207E+02  0.20000041777E+02 0.  0.
         12    1    1    2    0    0  0.15773785839E+02  0.29457360918E+02  0.27696101649E+02  0.43400719793E+02  0.00000000000E+00 0. -1.
         11    1    3    3    0    0 -0.47546290201E+01 -0.84872278042E+01 -0.18427293778E+01  0.99012718749E+01  0.51100000000E-03 0. -1.
        -11    1    3    3    0    0 -0.40503683538E+01 -0.16929836634E+02 -0.23951705769E+02  0.29609273239E+02  0.51100000000E-03 0.  1.
        -12    1    3    3    0    0 -0.69687884647E+01 -0.40402964804E+01 -0.19016665027E+01  0.82767350932E+01  0.00000000000E+00 0.  1.
</event>
<event>
 7    1  0.5559916E-010  0.4778728E+02  0.7816164E-02  0.1312668E+00
        -11   -1    0    0    0    0  0.00000000000E+00  0.00000000000E+00  0.45593999997E+02  0.45594000000E+02  0.51100000000E-03 0.  1.
         11   -1    0    0    0    0 -0.00000000000E+00 -0.00000000000E+00 -0.45593999997E+02  0.45594000000E+02  0.51100000000E-03 0. -1.
    9900012    2    1    2    0    0  0.87230711540E+01  0.25524686995E+02  0.34000312894E+02  0.47787275428E+02  0.20000019985E+02 0.  0.
         12    1    1    2    0    0 -0.87230711540E+01 -0.25524686995E+02 -0.34000312894E+02  0.43400724572E+02  0.00000000000E+00 0. -1.
         11    1    3    3    0    0  0.42374624334E+01  0.61006529944E+01 -0.90251467195E-01  0.74284722804E+01  0.51100000000E-03 0. -1.
        -11    1    3    3    0    0  0.27627559049E+01  0.86154457155E+01  0.23274092755E+02  0.24970825355E+02  0.51100000000E-03 0.  1.
        -12    1    3    3    0    0  0.17228528157E+01  0.10808588285E+02  0.10816471606E+02  0.15387977792E+02  0.00000000000E+00 0.  1.
</event>
<event>
 7    1  0.5559916E-010  0.4778727E+02  0.7816164E-02  0.1312668E+00
        -11   -1    0    0    0    0  0.00000000000E+00  0.00000000000E+00  0.45593999997E+02  0.45594000000E+02  0.51100000000E-03 0. -1.
         11   -1    0    0    0    0 -0.00000000000E+00 -0.00000000000E+00 -0.45593999997E+02  0.45594000000E+02  0.51100000000E-03 0.  1.
    9900012    2    1    2    0    0 -0.29637249155E+02  0.14369685159E+00 -0.31705454490E+02  0.47787273846E+02  0.20000012773E+02 0.  0.
         12    1    1    2    0    0  0.29637249155E+02 -0.14369685159E+00  0.31705454490E+02  0.43400726154E+02  0.00000000000E+00 0. -1.
         11    1    3    3    0    0 -0.23887523345E+01 -0.52413650241E+01 -0.16814260239E+01  0.60004365480E+01  0.51100000000E-03 0. -1.
        -11    1    3    3    0    0 -0.17308651930E+02  0.55374645577E+01 -0.24205765000E+02  0.30268333368E+02  0.51100000000E-03 0.  1.
        -12    1    3    3    0    0 -0.99398448905E+01 -0.15240268199E+00 -0.58182634659E+01  0.11518503930E+02  0.00000000000E+00 0.  1.
</event>
<event>
 7    1  0.5559916E-010  0.4778727E+02  0.7816164E-02  0.1312668E+00
        -11   -1    0    0    0    0  0.00000000000E+00  0.00000000000E+00  0.45593999997E+02  0.45594000000E+02  0.51100000000E-03 0.  1.
         11   -1    0    0    0    0 -0.00000000000E+00 -0.00000000000E+00 -0.45593999997E+02  0.45594000000E+02  0.51100000000E-03 0. -1.
    9900012    2    1    2    0    0  0.32514604147E+02 -0.27952654763E+02 -0.67136616494E+01  0.47787266782E+02  0.19999980566E+02 0.  0.
         12    1    1    2    0    0 -0.32514604147E+02  0.27952654763E+02  0.67136616494E+01  0.43400733218E+02  0.00000000000E+00 0. -1.
         11    1    3    3    0    0  0.11246433571E+02 -0.16506402990E+02 -0.65215925910E+01  0.21011301195E+02  0.51100000000E-03 0. -1.
        -11    1    3    3    0    0  0.20667567109E+02 -0.68505927350E+01  0.15409594457E+01  0.21827814991E+02  0.51100000000E-03 0.  1.
        -12    1    3    3    0    0  0.60060346696E+00 -0.45956590382E+01 -0.17330285041E+01  0.49481505955E+01  0.00000000000E+00 0.  1.
</event>
<event>
 7    1  0.5559916E-010  0.4778728E+02  0.7816164E-02  0.1312668E+00
        -11   -1    0    0    0    0  0.00000000000E+00  0.00000000000E+00  0.45593999997E+02  0.45594000000E+02  0.51100000000E-03 0. -1.
         11   -1    0    0    0    0 -0.00000000000E+00 -0.00000000000E+00 -0.45593999997E+02  0.45594000000E+02  0.51100000000E-03 0.  1.
    9900012    2    1    2    0    0  0.18135341087E+02  0.16710446449E+02 -0.35714044086E+02  0.47787279247E+02  0.20000037401E+02 0.  0.
         12    1    1    2    0    0 -0.18135341087E+02 -0.16710446449E+02  0.35714044086E+02  0.43400720753E+02  0.00000000000E+00 0. -1.
         11    1    3    3    0    0  0.11429025159E+02 -0.10430152005E+01 -0.94841736709E+01  0.14888251988E+02  0.51100000000E-03 0. -1.
        -11    1    3    3    0    0  0.57861316441E+01  0.12975310439E+02 -0.23081424368E+02  0.27103323624E+02  0.51100000000E-03 0.  1.
        -12    1    3    3    0    0  0.92018428416E+00  0.47781512104E+01 -0.31484460474E+01  0.57957036346E+01  0.00000000000E+00 0.  1.
</event>
<event>
 7    1  0.5559916E-010  0.4778727E+02  0.7816164E-02  0.1312668E+00
        -11   -1    0    0    0    0  0.00000000000E+00  0.00000000000E+00  0.45593999997E+02  0.45594000000E+02  0.51100000000E-03 0.  1.
         11   -1    0    0    0    0 -0.00000000000E+00 -0.00000000000E+00 -0.45593999997E+02  0.45594000000E+02  0.51100000000E-03 0. -1.
    9900012    2    1    2    0    0  0.42152355080E+02 -0.91302910072E+01 -0.48414766758E+01  0.47787272482E+02  0.20000006556E+02 0.  0.
         12    1    1    2    0    0 -0.42152355080E+02  0.91302910072E+01  0.48414766758E+01  0.43400727518E+02  0.00000000000E+00 0. -1.
         11    1    3    3    0    0  0.82104458544E+01  0.37562908524E+01  0.47524778627E+01  0.10203293007E+02  0.51100000000E-03 0. -1.
        -11    1    3    3    0    0  0.23513596644E+02 -0.86024892957E+01 -0.72831994613E+01  0.26075602464E+02  0.51100000000E-03 0.  1.
         12    1    3    3    0    0  0.10428312582E+02 -0.42840925638E+01 -0.23107550772E+01  0.11508377011E+02  0.00000000000E+00 0. -1.
</event>
<event>
 7    1  0.5559916E-010  0.4778727E+02  0.7816164E-02  0.1312668E+00
        -11   -1    0    0    0    0  0.00000000000E+00  0.00000000000E+00  0.45593999997E+02  0.45594000000E+02  0.51100000000E-03 0. -1.
         11   -1    0    0    0    0 -0.00000000000E+00 -0.00000000000E+00 -0.45593999997E+02  0.45594000000E+02  0.51100000000E-03 0.  1.
    9900012    2    1    2    0    0 -0.18204256411E+02 -0.31219536769E+02 -0.24032660853E+02  0.47787271720E+02  0.20000003082E+02 0.  0.
         12    1    1    2    0    0  0.18204256411E+02  0.31219536769E+02  0.24032660853E+02  0.43400728280E+02  0.00000000000E+00 0. -1.
         11    1    3    3    0    0 -0.88942796234E+01 -0.26271026509E+02 -0.13828388707E+02  0.30991924406E+02  0.51100000000E-03 0. -1.
        -11    1    3    3    0    0 -0.10335298600E+02 -0.25369726604E+01 -0.88743803922E+01  0.13856740419E+02  0.51100000000E-03 0.  1.
        -12    1    3    3    0    0  0.10253218126E+01 -0.24115375991E+01 -0.13298917537E+01  0.29386068958E+01  0.00000000000E+00 0.  1.
</event>
<event>
 7    1  0.5559916E-010  0.4778727E+02  0.7816164E-02  0.1312668E+00
        -11   -1    0    0    0    0  0.00000000000E+00  0.00000000000E+00  0.45593999997E+02  0.45594000000E+02  0.51100000000E-03 0.  1.
         11   -1    0    0    0    0 -0.00000000000E+00 -0.00000000000E+00 -0.45593999997E+02  0.45594000000E+02  0.51100000000E-03 0. -1.
    9900012    2    1    2    0    0 -0.33304236340E+02  0.16499648821E+02  0.22410103681E+02  0.47787270555E+02  0.19999997769E+02 0.  0.
         12    1    1    2    0    0  0.33304236340E+02 -0.16499648821E+02 -0.22410103681E+02  0.43400729445E+02  0.00000000000E+00 0. -1.
         11    1    3    3    0    0 -0.22078332691E+02  0.10769102046E+02  0.67408902925E+01  0.25472847023E+02  0.51100000000E-03 0. -1.
        -11    1    3    3    0    0  0.11348465350E+01  0.26158680694E+01  0.47002357077E+01  0.54975320266E+01  0.51100000000E-03 0.  1.
        -12    1    3    3    0    0 -0.12360750184E+02  0.31146787057E+01  0.10968977680E+02  0.16816891505E+02  0.00000000000E+00 0.  1.
</event>
<event>
 7    1  0.5559916E-010  0.4778728E+02  0.7816164E-02  0.1312668E+00
        -11   -1    0    0    0    0  0.00000000000E+00  0.00000000000E+00  0.45593999997E+02  0.45594000000E+02  0.51100000000E-03 0.  1.
         11   -1    0    0    0    0 -0.00000000000E+00 -0.00000000000E+00 -0.45593999997E+02  0.45594000000E+02  0.51100000000E-03 0. -1.
    9900012    2    1    2    0    0 -0.41446212722E+00 -0.40595806555E+02  0.15343779780E+02  0.47787275736E+02  0.20000021390E+02 0.  0.
         12    1    1    2    0    0  0.41446212722E+00  0.40595806555E+02 -0.15343779780E+02  0.43400724264E+02  0.00000000000E+00 0. -1.
         11    1    3    3    0    0 -0.92551116312E+00 -0.20648784635E+02  0.14370591755E+02  0.25174248458E+02  0.51100000000E-03 0.  1.
        -11    1    3    3    0    0 -0.33016386923E+00 -0.31186478162E+01 -0.39646201611E+01  0.50550158917E+01  0.51100000000E-03 0. -1.
         12    1    3    3    0    0  0.84121290512E+00 -0.16828374104E+02  0.49378081861E+01  0.17558011386E+02  0.00000000000E+00 0. -1.
</event>
<event>
 7    1  0.5559916E-010  0.4778727E+02  0.7816164E-02  0.1312668E+00
        -11   -1    0    0    0    0  0.00000000000E+00  0.00000000000E+00  0.45593999997E+02  0.45594000000E+02  0.51100000000E-03 0.  1.
         11   -1    0    0    0    0 -0.00000000000E+00 -0.00000000000E+00 -0.45593999997E+02  0.45594000000E+02  0.51100000000E-03 0. -1.
    9900012    2    1    2    0    0 -0.21913963365E+02 -0.18354856902E+02  0.32657326211E+02  0.47787268237E+02  0.19999987201E+02 0.  0.
         12    1    1    2    0    0  0.21913963365E+02  0.18354856902E+02 -0.32657326211E+02  0.43400731763E+02  0.00000000000E+00 0. -1.
         11    1    3    3    0    0 -0.25575785321E+01 -0.40799124039E+01 -0.19461262975E+01  0.51936789464E+01  0.51100000000E-03 0. -1.
        -11    1    3    3    0    0 -0.10216112228E+02 -0.98987343983E+01  0.16001071931E+02  0.21410002217E+02  0.51100000000E-03 0.  1.
         12    1    3    3    0    0 -0.91402726059E+01 -0.43762100999E+01  0.18602380578E+02  0.21183587074E+02  0.00000000000E+00 0. -1.
</event>
<event>
 7    1  0.5559916E-010  0.4778727E+02  0.7816164E-02  0.1312668E+00
        -11   -1    0    0    0    0  0.00000000000E+00  0.00000000000E+00  0.45593999997E+02  0.45594000000E+02  0.51100000000E-03 0. -1.
         11   -1    0    0    0    0 -0.00000000000E+00 -0.00000000000E+00 -0.45593999997E+02  0.45594000000E+02  0.51100000000E-03 0.  1.
    9900012    2    1    2    0    0 -0.13048585290E+02  0.37618948557E+02 -0.17267670854E+02  0.47787270451E+02  0.19999997296E+02 0.  0.
         12    1    1    2    0    0  0.13048585290E+02 -0.37618948557E+02  0.17267670854E+02  0.43400729549E+02  0.00000000000E+00 0. -1.
         11    1    3    3    0    0 -0.92880405867E+01  0.13545318681E+02 -0.25866865571E+01  0.16626313593E+02  0.51100000000E-03 0. -1.
        -11    1    3    3    0    0 -0.38962941588E+01  0.20420508113E+02 -0.16980325183E+02  0.26842311810E+02  0.51100000000E-03 0.  1.
        -12    1    3    3    0    0  0.13574945537E+00  0.36531217640E+01  0.22993408857E+01  0.43186450475E+01  0.00000000000E+00 0.  1.
</event>
<event>
 7    1  0.5559916E-010  0.4778726E+02  0.7816164E-02  0.1312668E+00
        -11   -1    0    0    0    0  0.00000000000E+00  0.00000000000E+00  0.45593999997E+02  0.45594000000E+02  0.51100000000E-03 0.  1.
         11   -1    0    0    0    0 -0.00000000000E+00 -0.00000000000E+00 -0.45593999997E+02  0.45594000000E+02  0.51100000000E-03 0. -1.
    9900012    2    1    2    0    0 -0.34184702900E+02 -0.11459933177E+02  0.24159882825E+02  0.47787263614E+02  0.19999966121E+02 0.  0.
         12    1    1    2    0    0  0.34184702900E+02  0.11459933177E+02 -0.24159882825E+02  0.43400736386E+02  0.00000000000E+00 0. -1.
         11    1    3    3    0    0 -0.60567202268E+01 -0.10468577950E+02  0.65382428049E+01  0.13748585507E+02  0.51100000000E-03 0. -1.
        -11    1    3    3    0    0 -0.10485250595E+02  0.30907720036E+01  0.54071136110E+01  0.12195500378E+02  0.51100000000E-03 0.  1.
         12    1    3    3    0    0 -0.17642732078E+02 -0.40821272313E+01  0.12214526409E+02  0.21843177729E+02  0.00000000000E+00 0. -1.
</event>
<event>
 7    1  0.5559916E-010  0.4778727E+02  0.7816164E-02  0.1312668E+00
        -11   -1    0    0    0    0  0.00000000000E+00  0.00000000000E+00  0.45593999997E+02  0.45594000000E+02  0.51100000000E-03 0. -1.
         11   -1    0    0    0    0 -0.00000000000E+00 -0.00000000000E+00 -0.45593999997E+02  0.45594000000E+02  0.51100000000E-03 0.  1.
    9900012    2    1    2    0    0 -0.20993676479E+02 -0.28832927508E+02 -0.24729556486E+02  0.47787272762E+02  0.20000007832E+02 0.  0.
         12    1    1    2    0    0  0.20993676479E+02  0.28832927508E+02  0.24729556486E+02  0.43400727238E+02  0.00000000000E+00 0. -1.
         11    1    3    3    0    0 -0.15015897661E+01 -0.27294813811E+01 -0.72240914897E+01  0.78671683945E+01  0.51100000000E-03 0. -1.
        -11    1    3    3    0    0 -0.22019643591E+02 -0.24158485821E+02 -0.15969957550E+02  0.36380443722E+02  0.51100000000E-03 0.  1.
        -12    1    3    3    0    0  0.25275568783E+01 -0.19449603066E+01 -0.15355074459E+01  0.35396606453E+01  0.00000000000E+00 0.  1.
</event>
<event>
 7    1  0.5559916E-010  0.4778727E+02  0.7816164E-02  0.1312668E+00
        -11   -1    0    0    0    0  0.00000000000E+00  0.00000000000E+00  0.45593999997E+02  0.45594000000E+02  0.51100000000E-03 0.  1.
         11   -1    0    0    0    0 -0.00000000000E+00 -0.00000000000E+00 -0.45593999997E+02  0.45594000000E+02  0.51100000000E-03 0. -1.
    9900012    2    1    2    0    0  0.16602339872E+02 -0.17414913077E+01  0.40061861014E+02  0.47787272021E+02  0.20000004452E+02 0.  0.
         12    1    1    2    0    0 -0.16602339872E+02  0.17414913077E+01 -0.40061861014E+02  0.43400727979E+02  0.00000000000E+00 0. -1.
         11    1    3    3    0    0  0.11095751669E+02 -0.34432566208E+01  0.95822444253E+01  0.15059585976E+02  0.51100000000E-03 0. -1.
        -11    1    3    3    0    0  0.14474098644E+01  0.55618777049E+01  0.10410655571E+02  0.11891645328E+02  0.51100000000E-03 0.  1.
         12    1    3    3    0    0  0.40591783376E+01 -0.38601123918E+01  0.20068961018E+02  0.20836040717E+02  0.00000000000E+00 0. -1.
</event>
<event>
 7    1  0.5559916E-010  0.4778726E+02  0.7816164E-02  0.1312668E+00
        -11   -1    0    0    0    0  0.00000000000E+00  0.00000000000E+00  0.45593999997E+02  0.45594000000E+02  0.51100000000E-03 0. -1.
         11   -1    0    0    0    0 -0.00000000000E+00 -0.00000000000E+00 -0.45593999997E+02  0.45594000000E+02  0.51100000000E-03 0.  1.
    9900012    2    1    2    0    0  0.40746932059E+02  0.95358290533E+01  0.11505642244E+02  0.47787259092E+02  0.19999945503E+02 0.  0.
         12    1    1    2    0    0 -0.40746932059E+02 -0.95358290533E+01 -0.11505642244E+02  0.43400740908E+02  0.00000000000E+00 0. -1.
         11    1    3    3    0    0 -0.88544413321E+00 -0.11559776899E+01  0.41959915341E+00  0.15153743574E+01  0.51100000000E-03 0. -1.
        -11    1    3    3    0    0  0.29961799024E+02  0.14032258860E+01  0.68622641462E+01  0.30769613470E+02  0.51100000000E-03 0.  1.
        -12    1    3    3    0    0  0.11670577168E+02  0.92885808572E+01  0.42237789440E+01  0.15502271264E+02  0.00000000000E+00 0.  1.
</event>
<event>
 7    1  0.5559916E-010  0.4778727E+02  0.7816164E-02  0.1312668E+00
        -11   -1    0    0    0    0  0.00000000000E+00  0.00000000000E+00  0.45593999997E+02  0.45594000000E+02  0.51100000000E-03 0.  1.
         11   -1    0    0    0    0 -0.00000000000E+00 -0.00000000000E+00 -0.45593999997E+02  0.45594000000E+02  0.51100000000E-03 0. -1.
    9900012    2    1    2    0    0  0.33387009728E+02  0.13155629744E+02  0.24410250448E+02  0.47787270289E+02  0.19999996557E+02 0.  0.
         12    1    1    2    0    0 -0.33387009728E+02 -0.13155629744E+02 -0.24410250448E+02  0.43400729711E+02  0.00000000000E+00 0. -1.
         11    1    3    3    0    0  0.64357020247E+01 -0.27776577191E+00  0.88647093718E+00  0.65024030449E+01  0.51100000000E-03 0. -1.
        -11    1    3    3    0    0 -0.20911299692E+01  0.99029222923E+00  0.12772117408E+01  0.26428721761E+01  0.51100000000E-03 0.  1.
        -12    1    3    3    0    0  0.29042437672E+02  0.12443103287E+02  0.22246567770E+02  0.38641995068E+02  0.00000000000E+00 0.  1.
</event>
<event>
 7    1  0.5559916E-010  0.4778727E+02  0.7816164E-02  0.1312668E+00
        -11   -1    0    0    0    0  0.00000000000E+00  0.00000000000E+00  0.45593999997E+02  0.45594000000E+02  0.51100000000E-03 0. -1.
         11   -1    0    0    0    0 -0.00000000000E+00 -0.00000000000E+00 -0.45593999997E+02  0.45594000000E+02  0.51100000000E-03 0.  1.
    9900012    2    1    2    0    0  0.35702079743E+02 -0.23753314463E+02 -0.66906610088E+01  0.47787269699E+02  0.19999993865E+02 0.  0.
         12    1    1    2    0    0 -0.35702079743E+02  0.23753314463E+02  0.66906610088E+01  0.43400730301E+02  0.00000000000E+00 0. -1.
         11    1    3    3    0    0  0.26260984377E+01 -0.86338644885E+01  0.31505176407E+01  0.95585443806E+01  0.51100000000E-03 0. -1.
        -11    1    3    3    0    0  0.11915873862E+02 -0.88728301725E+01 -0.45925416575E+01  0.15550131971E+02  0.51100000000E-03 0.  1.
         12    1    3    3    0    0  0.21160107443E+02 -0.62466198015E+01 -0.52486369921E+01  0.22678593347E+02  0.00000000000E+00 0. -1.
</event>
<event>
 7    1  0.5559916E-010  0.4778728E+02  0.7816164E-02  0.1312668E+00
        -11   -1    0    0    0    0  0.00000000000E+00  0.00000000000E+00  0.45593999997E+02  0.45594000000E+02  0.51100000000E-03 0. -1.
         11   -1    0    0    0    0 -0.00000000000E+00 -0.00000000000E+00 -0.45593999997E+02  0.45594000000E+02  0.51100000000E-03 0.  1.
    9900012    2    1    2    0    0 -0.19877986228E+02 -0.80689859491E+01 -0.37727706944E+02  0.47787277172E+02  0.20000027938E+02 0.  0.
         12    1    1    2    0    0  0.19877986228E+02  0.80689859491E+01  0.37727706944E+02  0.43400722828E+02  0.00000000000E+00 0. -1.
         11    1    3    3    0    0 -0.24538544326E+01 -0.67758656752E+01 -0.16239512908E+02  0.17766697414E+02  0.51100000000E-03 0. -1.
        -11    1    3    3    0    0 -0.13701531890E+02 -0.44869270860E+01 -0.10048649198E+02  0.17573839699E+02  0.51100000000E-03 0.  1.
        -12    1    3    3    0    0 -0.37225999055E+01  0.31938068121E+01 -0.11439544838E+02  0.12446740060E+02  0.00000000000E+00 0.  1.
</event>
<event>
 7    1  0.5559916E-010  0.4778727E+02  0.7816164E-02  0.1312668E+00
        -11   -1    0    0    0    0  0.00000000000E+00  0.00000000000E+00  0.45593999997E+02  0.45594000000E+02  0.51100000000E-03 0.  1.
         11   -1    0    0    0    0 -0.00000000000E+00 -0.00000000000E+00 -0.45593999997E+02  0.45594000000E+02  0.51100000000E-03 0. -1.
    9900012    2    1    2    0    0  0.37921795988E+02 -0.18328785168E+02  0.10469765500E+02  0.47787274588E+02  0.20000016155E+02 0.  0.
         12    1    1    2    0    0 -0.37921795988E+02  0.18328785168E+02 -0.10469765500E+02  0.43400725412E+02  0.00000000000E+00 0. -1.
         11    1    3    3    0    0  0.57852032942E+01  0.43525777436E+00  0.71267278907E+01  0.91895743739E+01  0.51100000000E-03 0. -1.
        -11    1    3    3    0    0  0.93610509971E+01 -0.10796022404E+02  0.20314596713E+01  0.14432955490E+02  0.51100000000E-03 0.  1.
         12    1    3    3    0    0  0.22775541697E+02 -0.79680205378E+01  0.13115779381E+01  0.24164744724E+02  0.00000000000E+00 0. -1.
</event>
<event>
 7    1  0.5559916E-010  0.4778727E+02  0.7816164E-02  0.1312668E+00
        -11   -1    0    0    0    0  0.00000000000E+00  0.00000000000E+00  0.45593999997E+02  0.45594000000E+02  0.51100000000E-03 0.  1.
         11   -1    0    0    0    0 -0.00000000000E+00 -0.00000000000E+00 -0.45593999997E+02  0.45594000000E+02  0.51100000000E-03 0. -1.
    9900012    2    1    2    0    0  0.76008711477E+00  0.29563319467E+02  0.31765637186E+02  0.47787270787E+02  0.19999998828E+02 0.  0.
         12    1    1    2    0    0 -0.76008711477E+00 -0.29563319467E+02 -0.31765637186E+02  0.43400729213E+02  0.00000000000E+00 0. -1.
         11    1    3    3    0    0 -0.15853704835E+01 -0.16069894890E+01  0.26010222927E+01  0.34439994216E+01  0.51100000000E-03 0. -1.
        -11    1    3    3    0    0  0.25517757593E+01  0.28201276121E+02  0.29998892460E+02  0.41252358520E+02  0.51100000000E-03 0.  1.
        -12    1    3    3    0    0 -0.20631816109E+00  0.29690328354E+01 -0.83427756666E+00  0.30909128457E+01  0.00000000000E+00 0.  1.
</event>
<event>
 7    1  0.5559916E-010  0.4778727E+02  0.7816164E-02  0.1312668E+00
        -11   -1    0    0    0    0  0.00000000000E+00  0.00000000000E+00  0.45593999997E+02  0.45594000000E+02  0.51100000000E-03 0.  1.
         11   -1    0    0    0    0 -0.00000000000E+00 -0.00000000000E+00 -0.45593999997E+02  0.45594000000E+02  0.51100000000E-03 0. -1.
    9900012    2    1    2    0    0  0.11456825013E+02  0.20276327456E+02  0.36622877296E+02  0.47787269177E+02  0.19999991487E+02 0.  0.
         12    1    1    2    0    0 -0.11456825013E+02 -0.20276327456E+02 -0.36622877296E+02  0.43400730823E+02  0.00000000000E+00 0. -1.
         11    1    3    3    0    0 -0.51688196271E+00  0.58624960584E+00 -0.21095077404E+01  0.22496396893E+01  0.51100000000E-03 0. -1.
        -11    1    3    3    0    0  0.83944271512E+01  0.17711139672E+02  0.34312248873E+02  0.39515582985E+02  0.51100000000E-03 0.  1.
        -12    1    3    3    0    0  0.35792798242E+01  0.19789381783E+01  0.44201361636E+01  0.60220465024E+01  0.00000000000E+00 0.  1.
</event>
<event>
 7    1  0.5559916E-010  0.4778727E+02  0.7816164E-02  0.1312668E+00
        -11   -1    0    0    0    0  0.00000000000E+00  0.00000000000E+00  0.45593999997E+02  0.45594000000E+02  0.51100000000E-03 0. -1.
         11   -1    0    0    0    0 -0.00000000000E+00 -0.00000000000E+00 -0.45593999997E+02  0.45594000000E+02  0.51100000000E-03 0.  1.
    9900012    2    1    2    0    0 -0.95632846554E+01 -0.42332989248E+02  0.29108731785E+00  0.47787272772E+02  0.20000007877E+02 0.  0.
         12    1    1    2    0    0  0.95632846554E+01  0.42332989248E+02 -0.29108731785E+00  0.43400727228E+02  0.00000000000E+00 0. -1.
         11    1    3    3    0    0 -0.13833067317E+00 -0.63380849915E+00  0.13622107797E+01  0.15087965596E+01  0.51100000000E-03 0. -1.
        -11    1    3    3    0    0  0.41452324043E+01 -0.18240469258E+02  0.27600188388E+01  0.18908076969E+02  0.51100000000E-03 0.  1.
        -12    1    3    3    0    0 -0.13570186386E+02 -0.23458711491E+02 -0.38311423006E+01  0.27370399243E+02  0.00000000000E+00 0.  1.
</event>
<event>
 7    1  0.5559916E-010  0.4778727E+02  0.7816164E-02  0.1312668E+00
        -11   -1    0    0    0    0  0.00000000000E+00  0.00000000000E+00  0.45593999997E+02  0.45594000000E+02  0.51100000000E-03 0.  1.
         11   -1    0    0    0    0 -0.00000000000E+00 -0.00000000000E+00 -0.45593999997E+02  0.45594000000E+02  0.51100000000E-03 0. -1.
    9900012    2    1    2    0    0  0.14847479433E+02 -0.38499030869E+02  0.13453641434E+02  0.47787268540E+02  0.19999988582E+02 0.  0.
         12    1    1    2    0    0 -0.14847479433E+02  0.38499030869E+02 -0.13453641434E+02  0.43400731460E+02  0.00000000000E+00 0. -1.
         11    1    3    3    0    0  0.89501011690E+01 -0.32499201145E+01  0.90072943850E+00  0.95643925823E+01  0.51100000000E-03 0. -1.
        -11    1    3    3    0    0  0.29624494927E+01 -0.20666060534E+02  0.99276733593E+01  0.23117544497E+02  0.51100000000E-03 0.  1.
         12    1    3    3    0    0  0.29349287717E+01 -0.14583050221E+02  0.26252386363E+01  0.15105331461E+02  0.00000000000E+00 0. -1.
</event>
<event>
 7    1  0.5559916E-010  0.4778728E+02  0.7816164E-02  0.1312668E+00
        -11   -1    0    0    0    0  0.00000000000E+00  0.00000000000E+00  0.45593999997E+02  0.45594000000E+02  0.51100000000E-03 0.  1.
         11   -1    0    0    0    0 -0.00000000000E+00 -0.00000000000E+00 -0.45593999997E+02  0.45594000000E+02  0.51100000000E-03 0. -1.
    9900012    2    1    2    0    0  0.38256240498E+02 -0.33537930169E+01  0.20219660731E+02  0.47787279445E+02  0.20000038302E+02 0.  0.
         12    1    1    2    0    0 -0.38256240498E+02  0.33537930169E+01 -0.20219660731E+02  0.43400720555E+02  0.00000000000E+00 0. -1.
         11    1    3    3    0    0  0.28366844721E+02 -0.21124258501E+01  0.66573841731E+01  0.29214054608E+02  0.51100000000E-03 0. -1.
        -11    1    3    3    0    0  0.72514374311E+01  0.28558575500E+01  0.88851809118E+01  0.11818870811E+02  0.51100000000E-03 0.  1.
         12    1    3    3    0    0  0.26379583461E+01 -0.40972247167E+01  0.46770956461E+01  0.67543540252E+01  0.00000000000E+00 0. -1.
</event>
<event>
 7    1  0.5559916E-010  0.4778727E+02  0.7816164E-02  0.1312668E+00
        -11   -1    0    0    0    0  0.00000000000E+00  0.00000000000E+00  0.45593999997E+02  0.45594000000E+02  0.51100000000E-03 0. -1.
         11   -1    0    0    0    0 -0.00000000000E+00 -0.00000000000E+00 -0.45593999997E+02  0.45594000000E+02  0.51100000000E-03 0.  1.
    9900012    2    1    2    0    0 -0.22433947775E+02 -0.14809449096E+02 -0.34073763239E+02  0.47787272626E+02  0.20000007213E+02 0.  0.
         12    1    1    2    0    0  0.22433947775E+02  0.14809449096E+02  0.34073763239E+02  0.43400727374E+02  0.00000000000E+00 0. -1.
         11    1    3    3    0    0 -0.14117534683E+02 -0.18547985160E+02 -0.19906335344E+02  0.30652809432E+02  0.51100000000E-03 0. -1.
        -11    1    3    3    0    0 -0.53096558642E+01  0.31278092151E+01 -0.11593869373E+02  0.13129868361E+02  0.51100000000E-03 0.  1.
         12    1    3    3    0    0 -0.30067572280E+01  0.61072684809E+00 -0.25735585215E+01  0.40045948328E+01  0.00000000000E+00 0. -1.
</event>
<event>
 7    1  0.5559916E-010  0.4778727E+02  0.7816164E-02  0.1312668E+00
        -11   -1    0    0    0    0  0.00000000000E+00  0.00000000000E+00  0.45593999997E+02  0.45594000000E+02  0.51100000000E-03 0. -1.
         11   -1    0    0    0    0 -0.00000000000E+00 -0.00000000000E+00 -0.45593999997E+02  0.45594000000E+02  0.51100000000E-03 0.  1.
    9900012    2    1    2    0    0  0.27935884435E+02  0.14913654583E+02 -0.29678157184E+02  0.47787265605E+02  0.19999975198E+02 0.  0.
         12    1    1    2    0    0 -0.27935884435E+02 -0.14913654583E+02  0.29678157184E+02  0.43400734395E+02  0.00000000000E+00 0. -1.
         11    1    3    3    0    0  0.10161468281E+02 -0.19828876455E+01 -0.38425938039E+01  0.11043224549E+02  0.51100000000E-03 0. -1.
        -11    1    3    3    0    0  0.17273687015E+02  0.17920882891E+02 -0.23958132153E+02  0.34547509363E+02  0.51100000000E-03 0.  1.
        -12    1    3    3    0    0  0.50072913968E+00 -0.10243406622E+01 -0.18774312277E+01  0.21965316929E+01  0.00000000000E+00 0.  1.
</event>
<event>
 7    1  0.5559916E-010  0.4778727E+02  0.7816164E-02  0.1312668E+00
        -11   -1    0    0    0    0  0.00000000000E+00  0.00000000000E+00  0.45593999997E+02  0.45594000000E+02  0.51100000000E-03 0.  1.
         11   -1    0    0    0    0 -0.00000000000E+00 -0.00000000000E+00 -0.45593999997E+02  0.45594000000E+02  0.51100000000E-03 0. -1.
    9900012    2    1    2    0    0 -0.19214289808E-01 -0.25777267830E+02  0.34916403276E+02  0.47787272775E+02  0.20000007889E+02 0.  0.
         12    1    1    2    0    0  0.19214289808E-01  0.25777267830E+02 -0.34916403276E+02  0.43400727225E+02  0.00000000000E+00 0. -1.
         11    1    3    3    0    0 -0.37889036698E+01 -0.99067047993E+01  0.23998846961E+02  0.26238202048E+02  0.51100000000E-03 0.  1.
        -11    1    3    3    0    0  0.62705646355E+01 -0.74681150716E+01  0.66144948555E+01  0.11783219680E+02  0.51100000000E-03 0. -1.
        -12    1    3    3    0    0 -0.25008752555E+01 -0.84024479586E+01  0.43030614593E+01  0.97658510465E+01  0.00000000000E+00 0.  1.
</event>
<event>
 7    1  0.5559916E-010  0.4778727E+02  0.7816164E-02  0.1312668E+00
        -11   -1    0    0    0    0  0.00000000000E+00  0.00000000000E+00  0.45593999997E+02  0.45594000000E+02  0.51100000000E-03 0.  1.
         11   -1    0    0    0    0 -0.00000000000E+00 -0.00000000000E+00 -0.45593999997E+02  0.45594000000E+02  0.51100000000E-03 0. -1.
    9900012    2    1    2    0    0  0.18102964429E+02 -0.32785105849E+02  0.21932691403E+02  0.47787269144E+02  0.19999991336E+02 0.  0.
         12    1    1    2    0    0 -0.18102964429E+02  0.32785105849E+02 -0.21932691403E+02  0.43400730856E+02  0.00000000000E+00 0. -1.
         11    1    3    3    0    0  0.46232849446E+00 -0.41457238584E+01  0.22021627523E+01  0.47170218354E+01  0.51100000000E-03 0. -1.
        -11    1    3    3    0    0  0.25978047652E+01 -0.23956176752E+01 -0.34666615456E+01  0.49502844541E+01  0.51100000000E-03 0.  1.
        -12    1    3    3    0    0  0.15042831169E+02 -0.26243764316E+02  0.23197190196E+02  0.38119962855E+02  0.00000000000E+00 0.  1.
</event>
<event>
 7    1  0.5559916E-010  0.4778728E+02  0.7816164E-02  0.1312668E+00
        -11   -1    0    0    0    0  0.00000000000E+00  0.00000000000E+00  0.45593999997E+02  0.45594000000E+02  0.51100000000E-03 0.  1.
         11   -1    0    0    0    0 -0.00000000000E+00 -0.00000000000E+00 -0.45593999997E+02  0.45594000000E+02  0.51100000000E-03 0. -1.
    9900012    2    1    2    0    0  0.18468667000E+02 -0.32057574924E+02  0.22690142054E+02  0.47787282066E+02  0.20000050252E+02 0.  0.
         12    1    1    2    0    0 -0.18468667000E+02  0.32057574924E+02 -0.22690142054E+02  0.43400717934E+02  0.00000000000E+00 0. -1.
         11    1    3    3    0    0  0.90306062544E+01 -0.22427943226E+02  0.19580046880E+02  0.31111777878E+02  0.51100000000E-03 0. -1.
        -11    1    3    3    0    0  0.53538113939E+01 -0.59089058410E+01  0.64182845082E+01  0.10235860539E+02  0.51100000000E-03 0.  1.
         12    1    3    3    0    0  0.40842493513E+01 -0.37207258563E+01 -0.33081893333E+01  0.64396436490E+01  0.00000000000E+00 0. -1.
</event>
<event>
 7    1  0.5559916E-010  0.4778727E+02  0.7816164E-02  0.1312668E+00
        -11   -1    0    0    0    0  0.00000000000E+00  0.00000000000E+00  0.45593999997E+02  0.45594000000E+02  0.51100000000E-03 0.  1.
         11   -1    0    0    0    0 -0.00000000000E+00 -0.00000000000E+00 -0.45593999997E+02  0.45594000000E+02  0.51100000000E-03 0. -1.
    9900012    2    1    2    0    0  0.15583267060E+02 -0.16749138588E+02  0.36881588071E+02  0.47787269656E+02  0.19999993671E+02 0.  0.
         12    1    1    2    0    0 -0.15583267060E+02  0.16749138588E+02 -0.36881588071E+02  0.43400730344E+02  0.00000000000E+00 0. -1.
         11    1    3    3    0    0  0.14546871353E+02 -0.12043319160E+02  0.23222409334E+02  0.29932144897E+02  0.51100000000E-03 0. -1.
        -11    1    3    3    0    0  0.56675137617E+01 -0.29935660850E+01  0.62565843843E+01  0.89569525266E+01  0.51100000000E-03 0.  1.
         12    1    3    3    0    0 -0.46311180543E+01 -0.17122533424E+01  0.74025943525E+01  0.88981722331E+01  0.00000000000E+00 0. -1.
</event>
<event>
 7    1  0.5559916E-010  0.4778727E+02  0.7816164E-02  0.1312668E+00
        -11   -1    0    0    0    0  0.00000000000E+00  0.00000000000E+00  0.45593999997E+02  0.45594000000E+02  0.51100000000E-03 0.  1.
         11   -1    0    0    0    0 -0.00000000000E+00 -0.00000000000E+00 -0.45593999997E+02  0.45594000000E+02  0.51100000000E-03 0. -1.
    9900012    2    1    2    0    0 -0.38585387785E+02 -0.19318510436E+02  0.46461207915E+01  0.47787269195E+02  0.19999991569E+02 0.  0.
         12    1    1    2    0    0  0.38585387785E+02  0.19318510436E+02 -0.46461207915E+01  0.43400730805E+02  0.00000000000E+00 0. -1.
         11    1    3    3    0    0 -0.26739577855E+02 -0.20813297400E+02  0.22164691203E+01  0.33957489721E+02  0.51100000000E-03 0. -1.
        -11    1    3    3    0    0 -0.83025684764E+01  0.18200280712E+01  0.45973123156E+01  0.96633548146E+01  0.51100000000E-03 0.  1.
         12    1    3    3    0    0 -0.35432414534E+01 -0.32524110730E+00 -0.21676606444E+01  0.41664246596E+01  0.00000000000E+00 0. -1.
</event>
<event>
 7    1  0.5559916E-010  0.4778727E+02  0.7816164E-02  0.1312668E+00
        -11   -1    0    0    0    0  0.00000000000E+00  0.00000000000E+00  0.45593999997E+02  0.45594000000E+02  0.51100000000E-03 0. -1.
         11   -1    0    0    0    0 -0.00000000000E+00 -0.00000000000E+00 -0.45593999997E+02  0.45594000000E+02  0.51100000000E-03 0.  1.
    9900012    2    1    2    0    0 -0.34937559969E+02  0.23474389791E+02 -0.10580319719E+02  0.47787271458E+02  0.20000001885E+02 0.  0.
         12    1    1    2    0    0  0.34937559969E+02 -0.23474389791E+02  0.10580319719E+02  0.43400728542E+02  0.00000000000E+00 0. -1.
         11    1    3    3    0    0 -0.99905719786E+01  0.34764004235E+00  0.19911853993E+01  0.10192997676E+02  0.51100000000E-03 0. -1.
        -11    1    3    3    0    0 -0.72588979599E+01  0.16918676498E+01 -0.42711611698E+01  0.85905083515E+01  0.51100000000E-03 0.  1.
         12    1    3    3    0    0 -0.17688090031E+02  0.21434882098E+02 -0.83003439482E+01  0.29003765431E+02  0.00000000000E+00 0. -1.
</event>
<event>
 7    1  0.5559916E-010  0.4778727E+02  0.7816164E-02  0.1312668E+00
        -11   -1    0    0    0    0  0.00000000000E+00  0.00000000000E+00  0.45593999997E+02  0.45594000000E+02  0.51100000000E-03 0.  1.
         11   -1    0    0    0    0 -0.00000000000E+00 -0.00000000000E+00 -0.45593999997E+02  0.45594000000E+02  0.51100000000E-03 0. -1.
    9900012    2    1    2    0    0 -0.35154281512E+02  0.41093399130E+01  0.25117980491E+02  0.47787272736E+02  0.20000007710E+02 0.  0.
         12    1    1    2    0    0  0.35154281512E+02 -0.41093399130E+01 -0.25117980491E+02  0.43400727264E+02  0.00000000000E+00 0. -1.
         11    1    3    3    0    0 -0.31967165711E+02  0.88944090452E+01  0.20461278847E+02  0.38982997937E+02  0.51100000000E-03 0. -1.
        -11    1    3    3    0    0 -0.16668376445E+01 -0.54261271560E+01  0.28298562865E+01  0.63426564238E+01  0.51100000000E-03 0.  1.
        -12    1    3    3    0    0 -0.15202781568E+01  0.64105802385E+00  0.18268453571E+01  0.24616183748E+01  0.00000000000E+00 0.  1.
</event>
<event>
 7    1  0.5559916E-010  0.4778727E+02  0.7816164E-02  0.1312668E+00
        -11   -1    0    0    0    0  0.00000000000E+00  0.00000000000E+00  0.45593999997E+02  0.45594000000E+02  0.51100000000E-03 0. -1.
         11   -1    0    0    0    0 -0.00000000000E+00 -0.00000000000E+00 -0.45593999997E+02  0.45594000000E+02  0.51100000000E-03 0.  1.
    9900012    2    1    2    0    0 -0.21236679228E+01  0.40728808059E+02  0.14841741146E+02  0.47787273605E+02  0.20000011676E+02 0.  0.
         12    1    1    2    0    0  0.21236679228E+01 -0.40728808059E+02 -0.14841741146E+02  0.43400726395E+02  0.00000000000E+00 0. -1.
         11    1    3    3    0    0 -0.16854807453E+01  0.39231225193E+01  0.24757795706E+01  0.49357087016E+01  0.51100000000E-03 0. -1.
        -11    1    3    3    0    0 -0.60217276410E+01  0.10766374821E+02  0.10422650375E+02  0.16149540912E+02  0.51100000000E-03 0.  1.
        -12    1    3    3    0    0  0.55835404635E+01  0.26039310719E+02  0.19433112000E+01  0.26702023992E+02  0.00000000000E+00 0.  1.
</event>
<event>
 7    1  0.5559916E-010  0.4778727E+02  0.7816164E-02  0.1312668E+00
        -11   -1    0    0    0    0  0.00000000000E+00  0.00000000000E+00  0.45593999997E+02  0.45594000000E+02  0.51100000000E-03 0.  1.
         11   -1    0    0    0    0 -0.00000000000E+00 -0.00000000000E+00 -0.45593999997E+02  0.45594000000E+02  0.51100000000E-03 0. -1.
    9900012    2    1    2    0    0  0.24649734599E+02  0.15193429052E+02  0.32329143770E+02  0.47787271446E+02  0.20000001829E+02 0.  0.
         12    1    1    2    0    0 -0.24649734599E+02 -0.15193429052E+02 -0.32329143770E+02  0.43400728554E+02  0.00000000000E+00 0. -1.
         11    1    3    3    0    0 -0.17166100728E+01  0.72266787056E+00 -0.22359454875E+00  0.18758981253E+01  0.51100000000E-03 0. -1.
        -11    1    3    3    0    0  0.20929573321E+02  0.14182366371E+02  0.20025688403E+02  0.32252360402E+02  0.51100000000E-03 0.  1.
        -12    1    3    3    0    0  0.54367713511E+01  0.28839481060E+00  0.12527049916E+02  0.13659012918E+02  0.00000000000E+00 0.  1.
</event>
<event>
 7    1  0.5559916E-010  0.4778727E+02  0.7816164E-02  0.1312668E+00
        -11   -1    0    0    0    0  0.00000000000E+00  0.00000000000E+00  0.45593999997E+02  0.45594000000E+02  0.51100000000E-03 0.  1.
         11   -1    0    0    0    0 -0.00000000000E+00 -0.00000000000E+00 -0.45593999997E+02  0.45594000000E+02  0.51100000000E-03 0. -1.
    9900012    2    1    2    0    0  0.42881177117E+02 -0.49102651973E+01 -0.45515949302E+01  0.47787273374E+02  0.20000010621E+02 0.  0.
         12    1    1    2    0    0 -0.42881177117E+02  0.49102651973E+01  0.45515949302E+01  0.43400726626E+02  0.00000000000E+00 0. -1.
         11    1    3    3    0    0  0.37751686793E+02 -0.10564662652E+02 -0.16242374798E+01  0.39235699310E+02  0.51100000000E-03 0.  1.
        -11    1    3    3    0    0  0.26253581810E+01  0.40797144504E+01 -0.27762050638E+01  0.55896234571E+01  0.51100000000E-03 0. -1.
        -12    1    3    3    0    0  0.25041321430E+01  0.15746830043E+01 -0.15115238652E+00  0.29619506069E+01  0.00000000000E+00 0.  1.
</event>
<event>
 7    1  0.5559916E-010  0.4778727E+02  0.7816164E-02  0.1312668E+00
        -11   -1    0    0    0    0  0.00000000000E+00  0.00000000000E+00  0.45593999997E+02  0.45594000000E+02  0.51100000000E-03 0.  1.
         11   -1    0    0    0    0 -0.00000000000E+00 -0.00000000000E+00 -0.45593999997E+02  0.45594000000E+02  0.51100000000E-03 0. -1.
    9900012    2    1    2    0    0 -0.17219521144E+02 -0.15591010899E+02  0.36661044888E+02  0.47787265657E+02  0.19999975434E+02 0.  0.
         12    1    1    2    0    0  0.17219521144E+02  0.15591010899E+02 -0.36661044888E+02  0.43400734343E+02  0.00000000000E+00 0. -1.
         11    1    3    3    0    0  0.37928465671E+01 -0.15965052348E+01  0.32943226895E+01  0.52713448274E+01  0.51100000000E-03 0. -1.
        -11    1    3    3    0    0 -0.59554799264E+00 -0.30546028834E+01  0.29922218285E+01  0.43172523575E+01  0.51100000000E-03 0.  1.
         12    1    3    3    0    0 -0.20416819719E+02 -0.10939902781E+02  0.30374500370E+02  0.38198668472E+02  0.00000000000E+00 0. -1.
</event>
<event>
 7    1  0.5559916E-010  0.4778727E+02  0.7816164E-02  0.1312668E+00
        -11   -1    0    0    0    0  0.00000000000E+00  0.00000000000E+00  0.45593999997E+02  0.45594000000E+02  0.51100000000E-03 0. -1.
         11   -1    0    0    0    0 -0.00000000000E+00 -0.00000000000E+00 -0.45593999997E+02  0.45594000000E+02  0.51100000000E-03 0.  1.
    9900012    2    1    2    0    0  0.41112864204E+01  0.22207670985E+02 -0.37061299713E+02  0.47787271169E+02  0.20000000569E+02 0.  0.
         12    1    1    2    0    0 -0.41112864204E+01 -0.22207670985E+02  0.37061299713E+02  0.43400728831E+02  0.00000000000E+00 0. -1.
         11    1    3    3    0    0 -0.68017773234E+01  0.12056310848E+02 -0.11796456749E+02  0.18187226235E+02  0.51100000000E-03 0. -1.
        -11    1    3    3    0    0  0.61475427595E+01  0.82314245814E+01 -0.17362639060E+02  0.20174485570E+02  0.51100000000E-03 0.  1.
         12    1    3    3    0    0  0.47655209843E+01  0.19199355552E+01 -0.79022039038E+01  0.94255593640E+01  0.00000000000E+00 0. -1.
</event>
<event>
 7    1  0.5559916E-010  0.4778728E+02  0.7816164E-02  0.1312668E+00
        -11   -1    0    0    0    0  0.00000000000E+00  0.00000000000E+00  0.45593999997E+02  0.45594000000E+02  0.51100000000E-03 0. -1.
         11   -1    0    0    0    0 -0.00000000000E+00 -0.00000000000E+00 -0.45593999997E+02  0.45594000000E+02  0.51100000000E-03 0.  1.
    9900012    2    1    2    0    0  0.25609568196E+02  0.21117139390E+02 -0.27961379494E+02  0.47787282236E+02  0.20000051028E+02 0.  0.
         12    1    1    2    0    0 -0.25609568196E+02 -0.21117139390E+02  0.27961379494E+02  0.43400717764E+02  0.00000000000E+00 0. -1.
         11    1    3    3    0    0  0.11195887817E+02  0.70838906509E+01 -0.10804652000E+01  0.13292735462E+02  0.51100000000E-03 0. -1.
        -11    1    3    3    0    0  0.56026348646E+01  0.62633885985E+01 -0.17669997972E+02  0.19566511768E+02  0.51100000000E-03 0.  1.
        -12    1    3    3    0    0  0.88110455146E+01  0.77698601406E+01 -0.92109163218E+01  0.14928035006E+02  0.00000000000E+00 0.  1.
</event>
<event>
 7    1  0.5559916E-010  0.4778725E+02  0.7816164E-02  0.1312668E+00
        -11   -1    0    0    0    0  0.00000000000E+00  0.00000000000E+00  0.45593999997E+02  0.45594000000E+02  0.51100000000E-03 0. -1.
         11   -1    0    0    0    0 -0.00000000000E+00 -0.00000000000E+00 -0.45593999997E+02  0.45594000000E+02  0.51100000000E-03 0.  1.
    9900012    2    1    2    0    0 -0.30023182350E+01  0.38031161978E+02 -0.20694015713E+02  0.47787245600E+02  0.19999883988E+02 0.  0.
         12    1    1    2    0    0  0.30023182350E+01 -0.38031161978E+02  0.20694015713E+02  0.43400754400E+02  0.00000000000E+00 0. -1.
         11    1    3    3    0    0  0.30241010005E+01  0.12338718032E+02  0.68758130169E+00  0.12722496526E+02  0.51100000000E-03 0. -1.
        -11    1    3    3    0    0 -0.35653137719E+01  0.67380402087E+01 -0.20822386952E+01  0.79024278795E+01  0.51100000000E-03 0.  1.
         12    1    3    3    0    0 -0.24611054636E+01  0.18954403737E+02 -0.19299358320E+02  0.27162321195E+02  0.00000000000E+00 0. -1.
</event>
<event>
 7    1  0.5559916E-010  0.4778727E+02  0.7816164E-02  0.1312668E+00
        -11   -1    0    0    0    0  0.00000000000E+00  0.00000000000E+00  0.45593999997E+02  0.45594000000E+02  0.51100000000E-03 0. -1.
         11   -1    0    0    0    0 -0.00000000000E+00 -0.00000000000E+00 -0.45593999997E+02  0.45594000000E+02  0.51100000000E-03 0.  1.
    9900012    2    1    2    0    0  0.71411660978E+01 -0.35652390817E+02 -0.23696712499E+02  0.47787269505E+02  0.19999992981E+02 0.  0.
         12    1    1    2    0    0 -0.71411660978E+01  0.35652390817E+02  0.23696712499E+02  0.43400730495E+02  0.00000000000E+00 0. -1.
         11    1    3    3    0    0 -0.11791119328E+01 -0.16594738130E+01 -0.27952838366E+01  0.34580009073E+01  0.51100000000E-03 0. -1.
        -11    1    3    3    0    0  0.14566763487E+01  0.55174249238E+00 -0.58048757932E+01  0.60102336891E+01  0.51100000000E-03 0.  1.
        -12    1    3    3    0    0  0.68636016819E+01 -0.34544659497E+02 -0.15096552870E+02  0.38319034909E+02  0.00000000000E+00 0.  1.
</event>
<event>
 7    1  0.5559916E-010  0.4778727E+02  0.7816164E-02  0.1312668E+00
        -11   -1    0    0    0    0  0.00000000000E+00  0.00000000000E+00  0.45593999997E+02  0.45594000000E+02  0.51100000000E-03 0.  1.
         11   -1    0    0    0    0 -0.00000000000E+00 -0.00000000000E+00 -0.45593999997E+02  0.45594000000E+02  0.51100000000E-03 0. -1.
    9900012    2    1    2    0    0  0.18973225452E+02 -0.83752299128E+01  0.38124739359E+02  0.47787268309E+02  0.19999987528E+02 0.  0.
         12    1    1    2    0    0 -0.18973225452E+02  0.83752299128E+01 -0.38124739359E+02  0.43400731691E+02  0.00000000000E+00 0. -1.
         11    1    3    3    0    0 -0.17541465427E+01 -0.23029281252E+01  0.45879233182E+00  0.29310405504E+01  0.51100000000E-03 0. -1.
        -11    1    3    3    0    0  0.14249928409E+02 -0.73480816414E+01  0.33249840527E+02  0.36913502391E+02  0.51100000000E-03 0.  1.
        -12    1    3    3    0    0  0.64774435859E+01  0.12757798538E+01  0.44161065002E+01  0.79427253676E+01  0.00000000000E+00 0.  1.
</event>
<event>
 7    1  0.5559916E-010  0.4778727E+02  0.7816164E-02  0.1312668E+00
        -11   -1    0    0    0    0  0.00000000000E+00  0.00000000000E+00  0.45593999997E+02  0.45594000000E+02  0.51100000000E-03 0. -1.
         11   -1    0    0    0    0 -0.00000000000E+00 -0.00000000000E+00 -0.45593999997E+02  0.45594000000E+02  0.51100000000E-03 0.  1.
    9900012    2    1    2    0    0 -0.24919352443E+02  0.59525828234E+01 -0.35031642203E+02  0.47787270468E+02  0.19999997372E+02 0.  0.
         12    1    1    2    0    0  0.24919352443E+02 -0.59525828234E+01  0.35031642203E+02  0.43400729532E+02  0.00000000000E+00 0. -1.
         11    1    3    3    0    0 -0.46607068673E+01 -0.52214451053E+01 -0.77757881728E+01  0.10461766555E+02  0.51100000000E-03 0. -1.
        -11    1    3    3    0    0 -0.75133701135E+01  0.93624797833E+01 -0.90760272593E+01  0.15049286668E+02  0.51100000000E-03 0.  1.
         12    1    3    3    0    0 -0.12745275462E+02  0.18115481454E+01 -0.18179826771E+02  0.22276217244E+02  0.00000000000E+00 0. -1.
</event>
<event>
 7    1  0.5559916E-010  0.4778727E+02  0.7816164E-02  0.1312668E+00
        -11   -1    0    0    0    0  0.00000000000E+00  0.00000000000E+00  0.45593999997E+02  0.45594000000E+02  0.51100000000E-03 0.  1.
         11   -1    0    0    0    0 -0.00000000000E+00 -0.00000000000E+00 -0.45593999997E+02  0.45594000000E+02  0.51100000000E-03 0. -1.
    9900012    2    1    2    0    0  0.17086220861E+02 -0.27667126871E+02  0.28743945218E+02  0.47787271442E+02  0.20000001814E+02 0.  0.
         12    1    1    2    0    0 -0.17086220861E+02  0.27667126871E+02 -0.28743945218E+02  0.43400728558E+02  0.00000000000E+00 0. -1.
         11    1    3    3    0    0 -0.24920162937E+00 -0.47487571013E+01 -0.18075174663E+01  0.50872305935E+01  0.51100000000E-03 0. -1.
        -11    1    3    3    0    0 -0.87808388791E+00 -0.11865385305E+01  0.15400163889E+01  0.21332031637E+01  0.51100000000E-03 0.  1.
         12    1    3    3    0    0  0.18213506379E+02 -0.21731831239E+02  0.29011446295E+02  0.40566837685E+02  0.00000000000E+00 0. -1.
</event>
<event>
 7    1  0.5559916E-010  0.4778728E+02  0.7816164E-02  0.1312668E+00
        -11   -1    0    0    0    0  0.00000000000E+00  0.00000000000E+00  0.45593999997E+02  0.45594000000E+02  0.51100000000E-03 0. -1.
         11   -1    0    0    0    0 -0.00000000000E+00 -0.00000000000E+00 -0.45593999997E+02  0.45594000000E+02  0.51100000000E-03 0.  1.
    9900012    2    1    2    0    0  0.31185723881E+01  0.24430132607E+02 -0.35736052961E+02  0.47787281640E+02  0.20000048310E+02 0.  0.
         12    1    1    2    0    0 -0.31185723881E+01 -0.24430132607E+02  0.35736052961E+02  0.43400718360E+02  0.00000000000E+00 0. -1.
         11    1    3    3    0    0  0.74054441443E+01  0.60455049778E+01 -0.16436702913E+02  0.19014571684E+02  0.51100000000E-03 0. -1.
        -11    1    3    3    0    0  0.19650096669E+00  0.11383687097E+01 -0.70620749985E+01  0.71559345647E+01  0.51100000000E-03 0.  1.
         12    1    3    3    0    0 -0.44833727229E+01  0.17246258919E+02 -0.12237275049E+02  0.21616775391E+02  0.00000000000E+00 0. -1.
</event>
<event>
 7    1  0.5559916E-010  0.4778727E+02  0.7816164E-02  0.1312668E+00
        -11   -1    0    0    0    0  0.00000000000E+00  0.00000000000E+00  0.45593999997E+02  0.45594000000E+02  0.51100000000E-03 0.  1.
         11   -1    0    0    0    0 -0.00000000000E+00 -0.00000000000E+00 -0.45593999997E+02  0.45594000000E+02  0.51100000000E-03 0. -1.
    9900012    2    1    2    0    0 -0.15435688057E+01  0.31071311127E+02  0.30262422457E+02  0.47787271979E+02  0.20000004259E+02 0.  0.
         12    1    1    2    0    0  0.15435688057E+01 -0.31071311127E+02 -0.30262422457E+02  0.43400728021E+02  0.00000000000E+00 0. -1.
         11    1    3    3    0    0 -0.20738753309E+01  0.29640991722E+02  0.27014861661E+02  0.40158337864E+02  0.51100000000E-03 0.  1.
        -11    1    3    3    0    0 -0.10218396449E+01 -0.22982148677E+01  0.24520695408E+01  0.35126333614E+01  0.51100000000E-03 0. -1.
         12    1    3    3    0    0  0.15521461701E+01  0.37285342723E+01  0.79549125526E+00  0.41163007531E+01  0.00000000000E+00 0. -1.
</event>
<event>
 7    1  0.5559916E-010  0.4778727E+02  0.7816164E-02  0.1312668E+00
        -11   -1    0    0    0    0  0.00000000000E+00  0.00000000000E+00  0.45593999997E+02  0.45594000000E+02  0.51100000000E-03 0. -1.
         11   -1    0    0    0    0 -0.00000000000E+00 -0.00000000000E+00 -0.45593999997E+02  0.45594000000E+02  0.51100000000E-03 0.  1.
    9900012    2    1    2    0    0 -0.20602549508E+02 -0.15377725411E+02 -0.34966891062E+02  0.47787274711E+02  0.20000016717E+02 0.  0.
         12    1    1    2    0    0  0.20602549508E+02  0.15377725411E+02  0.34966891062E+02  0.43400725289E+02  0.00000000000E+00 0. -1.
         11    1    3    3    0    0 -0.10665718804E+02  0.65976918656E+00 -0.16343809194E+02  0.19527236164E+02  0.51100000000E-03 0. -1.
        -11    1    3    3    0    0  0.18247056924E+01 -0.40942145645E+01 -0.35625162433E+01  0.57257022285E+01  0.51100000000E-03 0.  1.
         12    1    3    3    0    0 -0.11761536396E+02 -0.11943280034E+02 -0.15060565625E+02  0.22534336318E+02  0.00000000000E+00 0. -1.
</event>
<event>
 7    1  0.5559916E-010  0.4778726E+02  0.7816164E-02  0.1312668E+00
        -11   -1    0    0    0    0  0.00000000000E+00  0.00000000000E+00  0.45593999997E+02  0.45594000000E+02  0.51100000000E-03 0.  1.
         11   -1    0    0    0    0 -0.00000000000E+00 -0.00000000000E+00 -0.45593999997E+02  0.45594000000E+02  0.51100000000E-03 0. -1.
    9900012    2    1    2    0    0 -0.32013672553E+02  0.11089555880E+02  0.27125089125E+02  0.47787263371E+02  0.19999965013E+02 0.  0.
         12    1    1    2    0    0  0.32013672553E+02 -0.11089555880E+02 -0.27125089125E+02  0.43400736629E+02  0.00000000000E+00 0. -1.
         11    1    3    3    0    0 -0.30774252413E+00 -0.83138047270E+00  0.16057407824E+01  0.18342035527E+01  0.51100000000E-03 0. -1.
        -11    1    3    3    0    0 -0.33668287993E+02  0.12715966337E+02  0.24839559028E+02  0.43729316360E+02  0.51100000000E-03 0.  1.
        -12    1    3    3    0    0  0.19623579646E+01 -0.79502998489E+00  0.67978931405E+00  0.22237434586E+01  0.00000000000E+00 0.  1.
</event>
<event>
 7    1  0.5559916E-010  0.4778727E+02  0.7816164E-02  0.1312668E+00
        -11   -1    0    0    0    0  0.00000000000E+00  0.00000000000E+00  0.45593999997E+02  0.45594000000E+02  0.51100000000E-03 0.  1.
         11   -1    0    0    0    0 -0.00000000000E+00 -0.00000000000E+00 -0.45593999997E+02  0.45594000000E+02  0.51100000000E-03 0. -1.
    9900012    2    1    2    0    0 -0.96197773187E+01  0.14695029464E+02  0.39688024316E+02  0.47787270965E+02  0.19999999638E+02 0.  0.
         12    1    1    2    0    0  0.96197773187E+01 -0.14695029464E+02 -0.39688024316E+02  0.43400729035E+02  0.00000000000E+00 0. -1.
         11    1    3    3    0    0 -0.15340104001E+01 -0.11615345076E-01  0.65903970654E+01  0.67665838179E+01  0.51100000000E-03 0. -1.
        -11    1    3    3    0    0  0.45534436877E+01 -0.35929949613E+00  0.62269125257E+01  0.77225245490E+01  0.51100000000E-03 0.  1.
        -12    1    3    3    0    0 -0.12639210606E+02  0.15065944306E+02  0.26870714725E+02  0.33298162598E+02  0.00000000000E+00 0.  1.
</event>
<event>
 7    1  0.5559916E-010  0.4778727E+02  0.7816164E-02  0.1312668E+00
        -11   -1    0    0    0    0  0.00000000000E+00  0.00000000000E+00  0.45593999997E+02  0.45594000000E+02  0.51100000000E-03 0. -1.
         11   -1    0    0    0    0 -0.00000000000E+00 -0.00000000000E+00 -0.45593999997E+02  0.45594000000E+02  0.51100000000E-03 0.  1.
    9900012    2    1    2    0    0  0.42769340092E+02 -0.66895571812E+01  0.31074952169E+01  0.47787272429E+02  0.20000006312E+02 0.  0.
         12    1    1    2    0    0 -0.42769340092E+02  0.66895571812E+01 -0.31074952169E+01  0.43400727571E+02  0.00000000000E+00 0. -1.
         11    1    3    3    0    0  0.34812526047E+01  0.38507840449E+01 -0.36055356481E+01  0.63204070303E+01  0.51100000000E-03 0. -1.
        -11    1    3    3    0    0  0.14961097410E+01 -0.49515182180E+00 -0.59709887223E+00  0.16852439017E+01  0.51100000000E-03 0.  1.
         12    1    3    3    0    0  0.37791977746E+02 -0.10045189404E+02  0.73101297372E+01  0.39781621497E+02  0.00000000000E+00 0. -1.
</event>
<event>
 7    1  0.5559916E-010  0.4778727E+02  0.7816164E-02  0.1312668E+00
        -11   -1    0    0    0    0  0.00000000000E+00  0.00000000000E+00  0.45593999997E+02  0.45594000000E+02  0.51100000000E-03 0. -1.
         11   -1    0    0    0    0 -0.00000000000E+00 -0.00000000000E+00 -0.45593999997E+02  0.45594000000E+02  0.51100000000E-03 0.  1.
    9900012    2    1    2    0    0  0.34613152651E+02  0.22375792912E+02 -0.13596941618E+02  0.47787271132E+02  0.20000000399E+02 0.  0.
         12    1    1    2    0    0 -0.34613152651E+02 -0.22375792912E+02  0.13596941618E+02  0.43400728868E+02  0.00000000000E+00 0. -1.
         11    1    3    3    0    0  0.29156914329E+01 -0.24527124827E+01 -0.16074183056E+01  0.41353172702E+01  0.51100000000E-03 0. -1.
        -11    1    3    3    0    0  0.32742183635E+02  0.24372813836E+02 -0.11465169666E+02  0.42397343775E+02  0.51100000000E-03 0.  1.
        -12    1    3    3    0    0 -0.10447224162E+01  0.45569155905E+00 -0.52435364633E+00  0.12546100870E+01  0.00000000000E+00 0.  1.
</event>
<event>
 7    1  0.5559916E-010  0.4778728E+02  0.7816164E-02  0.1312668E+00
        -11   -1    0    0    0    0  0.00000000000E+00  0.00000000000E+00  0.45593999997E+02  0.45594000000E+02  0.51100000000E-03 0. -1.
         11   -1    0    0    0    0 -0.00000000000E+00 -0.00000000000E+00 -0.45593999997E+02  0.45594000000E+02  0.51100000000E-03 0.  1.
    9900012    2    1    2    0    0 -0.74850013748E+01  0.42686564338E+02 -0.23355274012E+01  0.47787277554E+02  0.20000029680E+02 0.  0.
         12    1    1    2    0    0  0.74850013748E+01 -0.42686564338E+02  0.23355274012E+01  0.43400722446E+02  0.00000000000E+00 0. -1.
         11    1    3    3    0    0 -0.13183542367E+01  0.23500064589E+02 -0.55339581716E+01  0.24178829312E+02  0.51100000000E-03 0. -1.
        -11    1    3    3    0    0 -0.46735041488E+01  0.17541650520E+02  0.67929510987E+01  0.19382861731E+02  0.51100000000E-03 0.  1.
        -12    1    3    3    0    0 -0.14931429893E+01  0.16448492292E+01 -0.35945203283E+01  0.42255865112E+01  0.00000000000E+00 0.  1.
</event>
<event>
 7    1  0.5559916E-010  0.4778726E+02  0.7816164E-02  0.1312668E+00
        -11   -1    0    0    0    0  0.00000000000E+00  0.00000000000E+00  0.45593999997E+02  0.45594000000E+02  0.51100000000E-03 0.  1.
         11   -1    0    0    0    0 -0.00000000000E+00 -0.00000000000E+00 -0.45593999997E+02  0.45594000000E+02  0.51100000000E-03 0. -1.
    9900012    2    1    2    0    0 -0.21077614431E+02  0.26794298286E+02  0.26859333017E+02  0.47787262438E+02  0.19999960762E+02 0.  0.
         12    1    1    2    0    0  0.21077614431E+02 -0.26794298286E+02 -0.26859333017E+02  0.43400737562E+02  0.00000000000E+00 0. -1.
         11    1    3    3    0    0 -0.59658635470E+01  0.77121326759E+01 -0.95454248647E+00  0.97969214497E+01  0.51100000000E-03 0. -1.
        -11    1    3    3    0    0 -0.93427711224E+01  0.49096797521E+01  0.12123631647E+02  0.16074040316E+02  0.51100000000E-03 0.  1.
         12    1    3    3    0    0 -0.57689797619E+01  0.14172485858E+02  0.15690243857E+02  0.21916300673E+02  0.00000000000E+00 0. -1.
</event>
<event>
 7    1  0.5559916E-010  0.4778727E+02  0.7816164E-02  0.1312668E+00
        -11   -1    0    0    0    0  0.00000000000E+00  0.00000000000E+00  0.45593999997E+02  0.45594000000E+02  0.51100000000E-03 0.  1.
         11   -1    0    0    0    0 -0.00000000000E+00 -0.00000000000E+00 -0.45593999997E+02  0.45594000000E+02  0.51100000000E-03 0. -1.
    9900012    2    1    2    0    0 -0.18005787683E+02 -0.16786175054E+02  0.35744080015E+02  0.47787270523E+02  0.19999997624E+02 0.  0.
         12    1    1    2    0    0  0.18005787683E+02  0.16786175054E+02 -0.35744080015E+02  0.43400729477E+02  0.00000000000E+00 0. -1.
         11    1    3    3    0    0 -0.11114774524E+02 -0.79469478024E+01  0.63834156418E+01  0.15081120238E+02  0.51100000000E-03 0. -1.
        -11    1    3    3    0    0 -0.69395495208E+01 -0.87538127405E+01  0.16979619095E+02  0.20324715248E+02  0.51100000000E-03 0.  1.
         12    1    3    3    0    0  0.48536362561E-01 -0.85414510843E-01  0.12381045278E+02  0.12381435038E+02  0.00000000000E+00 0. -1.
</event>
<event>
 7    1  0.5559916E-010  0.4778727E+02  0.7816164E-02  0.1312668E+00
        -11   -1    0    0    0    0  0.00000000000E+00  0.00000000000E+00  0.45593999997E+02  0.45594000000E+02  0.51100000000E-03 0.  1.
         11   -1    0    0    0    0 -0.00000000000E+00 -0.00000000000E+00 -0.45593999997E+02  0.45594000000E+02  0.51100000000E-03 0. -1.
    9900012    2    1    2    0    0  0.22889224841E+02  0.15268442207E+02  0.33564585289E+02  0.47787270434E+02  0.19999997215E+02 0.  0.
         12    1    1    2    0    0 -0.22889224841E+02 -0.15268442207E+02 -0.33564585289E+02  0.43400729566E+02  0.00000000000E+00 0. -1.
         11    1    3    3    0    0  0.19645743141E+02  0.10814687134E+02  0.26069748886E+02  0.34388144593E+02  0.51100000000E-03 0. -1.
        -11    1    3    3    0    0  0.35571433773E+01  0.29238371999E+01  0.96764404881E+01  0.10716137073E+02  0.51100000000E-03 0.  1.
         12    1    3    3    0    0 -0.31366167745E+00  0.15299178731E+01 -0.21816040842E+01  0.26829887675E+01  0.00000000000E+00 0. -1.
</event>
<event>
 7    1  0.5559916E-010  0.4778728E+02  0.7816164E-02  0.1312668E+00
        -11   -1    0    0    0    0  0.00000000000E+00  0.00000000000E+00  0.45593999997E+02  0.45594000000E+02  0.51100000000E-03 0.  1.
         11   -1    0    0    0    0 -0.00000000000E+00 -0.00000000000E+00 -0.45593999997E+02  0.45594000000E+02  0.51100000000E-03 0. -1.
    9900012    2    1    2    0    0 -0.33641249028E+02 -0.24917277434E+02  0.11446329539E+02  0.47787276380E+02  0.20000024325E+02 0.  0.
         12    1    1    2    0    0  0.33641249028E+02  0.24917277434E+02 -0.11446329539E+02  0.43400723620E+02  0.00000000000E+00 0. -1.
         11    1    3    3    0    0 -0.15275826237E+02 -0.11186996092E+01  0.24823298170E+01  0.15516582021E+02  0.51100000000E-03 0. -1.
        -11    1    3    3    0    0 -0.14006933915E+02 -0.14578885292E+02  0.88566880115E+01  0.22072132132E+02  0.51100000000E-03 0.  1.
         12    1    3    3    0    0 -0.43584888754E+01 -0.92196925329E+01  0.10731171017E+00  0.10198562226E+02  0.00000000000E+00 0. -1.
</event>
<event>
 7    1  0.5559916E-010  0.4778728E+02  0.7816164E-02  0.1312668E+00
        -11   -1    0    0    0    0  0.00000000000E+00  0.00000000000E+00  0.45593999997E+02  0.45594000000E+02  0.51100000000E-03 0.  1.
         11   -1    0    0    0    0 -0.00000000000E+00 -0.00000000000E+00 -0.45593999997E+02  0.45594000000E+02  0.51100000000E-03 0. -1.
    9900012    2    1    2    0    0 -0.37659525743E+02 -0.18438146831E+02  0.11198975427E+02  0.47787283550E+02  0.20000057019E+02 0.  0.
         12    1    1    2    0    0  0.37659525743E+02  0.18438146831E+02 -0.11198975427E+02  0.43400716450E+02  0.00000000000E+00 0. -1.
         11    1    3    3    0    0 -0.14214633698E+02 -0.15119804628E+02  0.38393808549E+01  0.21104623872E+02  0.51100000000E-03 0. -1.
        -11    1    3    3    0    0 -0.23619693251E+02 -0.30994832356E+01  0.50441849999E+01  0.24350369775E+02  0.51100000000E-03 0.  1.
        -12    1    3    3    0    0  0.17480120593E+00 -0.21885896735E+00  0.23154095720E+01  0.23322899037E+01  0.00000000000E+00 0.  1.
</event>
<event>
 7    1  0.5559916E-010  0.4778727E+02  0.7816164E-02  0.1312668E+00
        -11   -1    0    0    0    0  0.00000000000E+00  0.00000000000E+00  0.45593999997E+02  0.45594000000E+02  0.51100000000E-03 0.  1.
         11   -1    0    0    0    0 -0.00000000000E+00 -0.00000000000E+00 -0.45593999997E+02  0.45594000000E+02  0.51100000000E-03 0. -1.
    9900012    2    1    2    0    0 -0.25499304273E+02  0.12465051074E+02  0.32833385249E+02  0.47787271854E+02  0.20000003691E+02 0.  0.
         12    1    1    2    0    0  0.25499304273E+02 -0.12465051074E+02 -0.32833385249E+02  0.43400728146E+02  0.00000000000E+00 0. -1.
         11    1    3    3    0    0 -0.95712042284E+00  0.28984706149E+01  0.76649901764E-01  0.30533730328E+01  0.51100000000E-03 0. -1.
        -11    1    3    3    0    0 -0.17252894771E+02  0.32719356741E+01  0.10444330254E+02  0.20431641533E+02  0.51100000000E-03 0.  1.
        -12    1    3    3    0    0 -0.72892890799E+01  0.62946447854E+01  0.22312405093E+02  0.24302257288E+02  0.00000000000E+00 0.  1.
</event>
<event>
 7    1  0.5559916E-010  0.4778727E+02  0.7816164E-02  0.1312668E+00
        -11   -1    0    0    0    0  0.00000000000E+00  0.00000000000E+00  0.45593999997E+02  0.45594000000E+02  0.51100000000E-03 0.  1.
         11   -1    0    0    0    0 -0.00000000000E+00 -0.00000000000E+00 -0.45593999997E+02  0.45594000000E+02  0.51100000000E-03 0. -1.
    9900012    2    1    2    0    0 -0.14363777416E+02  0.63724482669E+01  0.40456112621E+02  0.47787271355E+02  0.20000001414E+02 0.  0.
         12    1    1    2    0    0  0.14363777416E+02 -0.63724482669E+01 -0.40456112621E+02  0.43400728645E+02  0.00000000000E+00 0. -1.
         11    1    3    3    0    0  0.36670552937E+01 -0.18152649802E+01  0.14673710970E+02  0.15233524719E+02  0.51100000000E-03 0. -1.
        -11    1    3    3    0    0 -0.76133905196E+01  0.25660622907E+01  0.10134636771E+02  0.12932874917E+02  0.51100000000E-03 0.  1.
         12    1    3    3    0    0 -0.10417442190E+02  0.56216509564E+01  0.15647764880E+02  0.19620871718E+02  0.00000000000E+00 0. -1.
</event>
<event>
 7    1  0.5559916E-010  0.4778727E+02  0.7816164E-02  0.1312668E+00
        -11   -1    0    0    0    0  0.00000000000E+00  0.00000000000E+00  0.45593999997E+02  0.45594000000E+02  0.51100000000E-03 0.  1.
         11   -1    0    0    0    0 -0.00000000000E+00 -0.00000000000E+00 -0.45593999997E+02  0.45594000000E+02  0.51100000000E-03 0. -1.
    9900012    2    1    2    0    0  0.96218724298E+01 -0.33985327527E+01  0.42184035329E+02  0.47787270852E+02  0.19999999122E+02 0.  0.
         12    1    1    2    0    0 -0.96218724298E+01  0.33985327527E+01 -0.42184035329E+02  0.43400729148E+02  0.00000000000E+00 0. -1.
         11    1    3    3    0    0 -0.88502880820E+00 -0.77330372315E+01  0.80566320237E+01  0.11202341748E+02  0.51100000000E-03 0. -1.
        -11    1    3    3    0    0  0.67630892391E+01  0.14406079677E+01  0.28010615035E+02  0.28851503986E+02  0.51100000000E-03 0.  1.
        -12    1    3    3    0    0  0.37438119989E+01  0.28938965110E+01  0.61167882711E+01  0.77334251178E+01  0.00000000000E+00 0.  1.
</event>
<event>
 7    1  0.5559916E-010  0.4778727E+02  0.7816164E-02  0.1312668E+00
        -11   -1    0    0    0    0  0.00000000000E+00  0.00000000000E+00  0.45593999997E+02  0.45594000000E+02  0.51100000000E-03 0.  1.
         11   -1    0    0    0    0 -0.00000000000E+00 -0.00000000000E+00 -0.45593999997E+02  0.45594000000E+02  0.51100000000E-03 0. -1.
    9900012    2    1    2    0    0  0.10527550021E+02  0.39240538364E+02  0.15263489512E+02  0.47787271059E+02  0.20000000065E+02 0.  0.
         12    1    1    2    0    0 -0.10527550021E+02 -0.39240538364E+02 -0.15263489512E+02  0.43400728941E+02  0.00000000000E+00 0. -1.
         11    1    3    3    0    0  0.12037570325E+02  0.19249030928E+02  0.12756735866E+02  0.26041555277E+02  0.51100000000E-03 0. -1.
        -11    1    3    3    0    0  0.32514490460E+01  0.60842581450E+01  0.64894727617E+00  0.69290151466E+01  0.51100000000E-03 0.  1.
         12    1    3    3    0    0 -0.47614693501E+01  0.13907249291E+02  0.18578063695E+01  0.14816700635E+02  0.00000000000E+00 0. -1.
</event>
<event>
 7    1  0.5559916E-010  0.4778727E+02  0.7816164E-02  0.1312668E+00
        -11   -1    0    0    0    0  0.00000000000E+00  0.00000000000E+00  0.45593999997E+02  0.45594000000E+02  0.51100000000E-03 0. -1.
         11   -1    0    0    0    0 -0.00000000000E+00 -0.00000000000E+00 -0.45593999997E+02  0.45594000000E+02  0.51100000000E-03 0.  1.
    9900012    2    1    2    0    0 -0.43107668747E+02  0.45538179218E-01 -0.50348653532E+01  0.47787273651E+02  0.20000011883E+02 0.  0.
         12    1    1    2    0    0  0.43107668747E+02 -0.45538179218E-01  0.50348653532E+01  0.43400726349E+02  0.00000000000E+00 0. -1.
         11    1    3    3    0    0  0.37133053538E+00 -0.21631574029E+01  0.18607216789E+01  0.28773984332E+01  0.51100000000E-03 0. -1.
        -11    1    3    3    0    0 -0.23375807615E+02 -0.67838635746E+00 -0.75959676707E+01  0.24588357302E+02  0.51100000000E-03 0.  1.
         12    1    3    3    0    0 -0.20103191667E+02  0.28870819396E+01  0.70038063869E+00  0.20321517915E+02  0.00000000000E+00 0. -1.
</event>
<event>
 7    1  0.5559916E-010  0.4778727E+02  0.7816164E-02  0.1312668E+00
        -11   -1    0    0    0    0  0.00000000000E+00  0.00000000000E+00  0.45593999997E+02  0.45594000000E+02  0.51100000000E-03 0.  1.
         11   -1    0    0    0    0 -0.00000000000E+00 -0.00000000000E+00 -0.45593999997E+02  0.45594000000E+02  0.51100000000E-03 0. -1.
    9900012    2    1    2    0    0  0.25759114049E+02 -0.21645765350E+02  0.27414451813E+02  0.47787270947E+02  0.19999999554E+02 0.  0.
         12    1    1    2    0    0 -0.25759114049E+02  0.21645765350E+02 -0.27414451813E+02  0.43400729053E+02  0.00000000000E+00 0. -1.
         11    1    3    3    0    0  0.12667564282E+02 -0.13824429472E+02  0.55186104168E+01  0.19545769267E+02  0.51100000000E-03 0. -1.
        -11    1    3    3    0    0  0.93369626992E+01 -0.98413438989E+01  0.16303464058E+02  0.21209287182E+02  0.51100000000E-03 0.  1.
         12    1    3    3    0    0  0.37545870681E+01  0.20200080210E+01  0.55923773375E+01  0.70322144977E+01  0.00000000000E+00 0. -1.
</event>
<event>
 7    1  0.5559916E-010  0.4778727E+02  0.7816164E-02  0.1312668E+00
        -11   -1    0    0    0    0  0.00000000000E+00  0.00000000000E+00  0.45593999997E+02  0.45594000000E+02  0.51100000000E-03 0.  1.
         11   -1    0    0    0    0 -0.00000000000E+00 -0.00000000000E+00 -0.45593999997E+02  0.45594000000E+02  0.51100000000E-03 0. -1.
    9900012    2    1    2    0    0  0.65119213093E+01  0.37036495861E+02 -0.21668321960E+02  0.47787270498E+02  0.19999997508E+02 0.  0.
         12    1    1    2    0    0 -0.65119213093E+01 -0.37036495861E+02  0.21668321960E+02  0.43400729502E+02  0.00000000000E+00 0. -1.
         11    1    3    3    0    0 -0.54600784270E+01  0.18068593525E+02 -0.56224911162E+01  0.19695150038E+02  0.51100000000E-03 0. -1.
        -11    1    3    3    0    0  0.10996192098E+02  0.17668534230E+02 -0.16316583292E+02  0.26444739232E+02  0.51100000000E-03 0.  1.
        -12    1    3    3    0    0  0.97580763854E+00  0.12993681063E+01  0.27075244825E+00  0.16473812283E+01  0.00000000000E+00 0.  1.
</event>
<event>
 7    1  0.5559916E-010  0.4778728E+02  0.7816164E-02  0.1312668E+00
        -11   -1    0    0    0    0  0.00000000000E+00  0.00000000000E+00  0.45593999997E+02  0.45594000000E+02  0.51100000000E-03 0. -1.
         11   -1    0    0    0    0 -0.00000000000E+00 -0.00000000000E+00 -0.45593999997E+02  0.45594000000E+02  0.51100000000E-03 0.  1.
    9900012    2    1    2    0    0 -0.41557421547E+02  0.12228663277E+02 -0.26576799241E+01  0.47787277036E+02  0.20000027318E+02 0.  0.
         12    1    1    2    0    0  0.41557421547E+02 -0.12228663277E+02  0.26576799241E+01  0.43400722964E+02  0.00000000000E+00 0. -1.
         11    1    3    3    0    0 -0.31995506246E+01  0.45231965970E+01  0.43600058807E+01  0.70502541227E+01  0.51100000000E-03 0. -1.
        -11    1    3    3    0    0 -0.32908521475E+02  0.91253911885E+01 -0.41023490298E+01  0.34395825587E+02  0.51100000000E-03 0.  1.
        -12    1    3    3    0    0 -0.54493494478E+01 -0.14199245082E+01 -0.29153367750E+01  0.63411973258E+01  0.00000000000E+00 0.  1.
</event>
<event>
 7    1  0.5559916E-010  0.4778729E+02  0.7816164E-02  0.1312668E+00
        -11   -1    0    0    0    0  0.00000000000E+00  0.00000000000E+00  0.45593999997E+02  0.45594000000E+02  0.51100000000E-03 0.  1.
         11   -1    0    0    0    0 -0.00000000000E+00 -0.00000000000E+00 -0.45593999997E+02  0.45594000000E+02  0.51100000000E-03 0. -1.
    9900012    2    1    2    0    0 -0.14976180465E+02 -0.31579035393E+02  0.25731308119E+02  0.47787289462E+02  0.20000083975E+02 0.  0.
         12    1    1    2    0    0  0.14976180465E+02  0.31579035393E+02 -0.25731308119E+02  0.43400710538E+02  0.00000000000E+00 0. -1.
         11    1    3    3    0    0 -0.87681278108E+00 -0.50510878528E+01  0.14329164874E+00  0.51286276827E+01  0.51100000000E-03 0. -1.
        -11    1    3    3    0    0 -0.79858969003E+01 -0.61411907504E+01  0.97758035798E+00  0.10121483920E+02  0.51100000000E-03 0.  1.
        -12    1    3    3    0    0 -0.61134707836E+01 -0.20386756789E+02  0.24610436112E+02  0.32537177859E+02  0.00000000000E+00 0.  1.
</event>
<event>
 7    1  0.5559916E-010  0.4778727E+02  0.7816164E-02  0.1312668E+00
        -11   -1    0    0    0    0  0.00000000000E+00  0.00000000000E+00  0.45593999997E+02  0.45594000000E+02  0.51100000000E-03 0. -1.
         11   -1    0    0    0    0 -0.00000000000E+00 -0.00000000000E+00 -0.45593999997E+02  0.45594000000E+02  0.51100000000E-03 0.  1.
    9900012    2    1    2    0    0  0.35345932293E+02  0.14134494101E+02 -0.20844768217E+02  0.47787271721E+02  0.20000003084E+02 0.  0.
         12    1    1    2    0    0 -0.35345932293E+02 -0.14134494101E+02  0.20844768217E+02  0.43400728279E+02  0.00000000000E+00 0. -1.
         11    1    3    3    0    0  0.31343883460E+02  0.14620793359E+02 -0.15313159900E+02  0.37824588500E+02  0.51100000000E-03 0.  1.
        -11    1    3    3    0    0  0.26453559935E+01 -0.16077069491E+01 -0.70106116272E+01  0.76636352741E+01  0.51100000000E-03 0. -1.
         12    1    3    3    0    0  0.13566928394E+01  0.11214076907E+01  0.14790033104E+01  0.22990479467E+01  0.00000000000E+00 0. -1.
</event>
<event>
 7    1  0.5559916E-010  0.4778727E+02  0.7816164E-02  0.1312668E+00
        -11   -1    0    0    0    0  0.00000000000E+00  0.00000000000E+00  0.45593999997E+02  0.45594000000E+02  0.51100000000E-03 0.  1.
         11   -1    0    0    0    0 -0.00000000000E+00 -0.00000000000E+00 -0.45593999997E+02  0.45594000000E+02  0.51100000000E-03 0. -1.
    9900012    2    1    2    0    0 -0.69457909835E+01 -0.11776292140E+02  0.41190995972E+02  0.47787271687E+02  0.20000002928E+02 0.  0.
         12    1    1    2    0    0  0.69457909835E+01  0.11776292140E+02 -0.41190995972E+02  0.43400728313E+02  0.00000000000E+00 0. -1.
         11    1    3    3    0    0 -0.53484987865E+01  0.73546056268E-01  0.77554903878E+01  0.94212249580E+01  0.51100000000E-03 0. -1.
        -11    1    3    3    0    0  0.62693407363E+01 -0.37944584036E+01  0.10356370099E+02  0.12686881009E+02  0.51100000000E-03 0.  1.
        -12    1    3    3    0    0 -0.78666329333E+01 -0.80553797930E+01  0.23079135485E+02  0.25679165720E+02  0.00000000000E+00 0.  1.
</event>
<event>
 7    1  0.5559916E-010  0.4778727E+02  0.7816164E-02  0.1312668E+00
        -11   -1    0    0    0    0  0.00000000000E+00  0.00000000000E+00  0.45593999997E+02  0.45594000000E+02  0.51100000000E-03 0. -1.
         11   -1    0    0    0    0 -0.00000000000E+00 -0.00000000000E+00 -0.45593999997E+02  0.45594000000E+02  0.51100000000E-03 0.  1.
    9900012    2    1    2    0    0  0.33589182708E+02  0.25665915592E+02  0.98311205239E+01  0.47787270180E+02  0.19999996058E+02 0.  0.
         12    1    1    2    0    0 -0.33589182708E+02 -0.25665915592E+02 -0.98311205239E+01  0.43400729820E+02  0.00000000000E+00 0. -1.
         11    1    3    3    0    0  0.23370101049E+02  0.16862920041E+02  0.11771146952E+02  0.31130043305E+02  0.51100000000E-03 0. -1.
        -11    1    3    3    0    0  0.87574163243E+01  0.87147179264E+01  0.19436548546E+01  0.12506655975E+02  0.51100000000E-03 0.  1.
         12    1    3    3    0    0  0.14616653348E+01  0.88277624327E-01 -0.38836812828E+01  0.41505709000E+01  0.00000000000E+00 0. -1.
</event>
<event>
 7    1  0.5559916E-010  0.4778727E+02  0.7816164E-02  0.1312668E+00
        -11   -1    0    0    0    0  0.00000000000E+00  0.00000000000E+00  0.45593999997E+02  0.45594000000E+02  0.51100000000E-03 0.  1.
         11   -1    0    0    0    0 -0.00000000000E+00 -0.00000000000E+00 -0.45593999997E+02  0.45594000000E+02  0.51100000000E-03 0. -1.
    9900012    2    1    2    0    0 -0.24737748685E+02 -0.65363341230E+01  0.35056286225E+02  0.47787273305E+02  0.20000010305E+02 0.  0.
         12    1    1    2    0    0  0.24737748685E+02  0.65363341230E+01 -0.35056286225E+02  0.43400726695E+02  0.00000000000E+00 0. -1.
         11    1    3    3    0    0 -0.13237947730E+02 -0.94341169134E+01  0.93464583376E+01  0.18751056123E+02  0.51100000000E-03 0. -1.
        -11    1    3    3    0    0 -0.64041532567E+01  0.21343990656E+01  0.74053838328E+01  0.10020406592E+02  0.51100000000E-03 0.  1.
         12    1    3    3    0    0 -0.50956476987E+01  0.76338372468E+00  0.18304444055E+02  0.19015810589E+02  0.00000000000E+00 0. -1.
</event>
<event>
 7    1  0.5559916E-010  0.4778727E+02  0.7816164E-02  0.1312668E+00
        -11   -1    0    0    0    0  0.00000000000E+00  0.00000000000E+00  0.45593999997E+02  0.45594000000E+02  0.51100000000E-03 0.  1.
         11   -1    0    0    0    0 -0.00000000000E+00 -0.00000000000E+00 -0.45593999997E+02  0.45594000000E+02  0.51100000000E-03 0. -1.
    9900012    2    1    2    0    0  0.11195297730E+02 -0.24841019059E+02  0.33781836837E+02  0.47787269370E+02  0.19999992366E+02 0.  0.
         12    1    1    2    0    0 -0.11195297730E+02  0.24841019059E+02 -0.33781836837E+02  0.43400730630E+02  0.00000000000E+00 0. -1.
         11    1    3    3    0    0  0.43916636834E+01 -0.61760274607E+01  0.18262407856E+02  0.19772343464E+02  0.51100000000E-03 0. -1.
        -11    1    3    3    0    0  0.38634198500E+01 -0.21277237571E+01 -0.92733047444E+00  0.45070126907E+01  0.51100000000E-03 0.  1.
        -12    1    3    3    0    0  0.29402141970E+01 -0.16537267841E+02  0.16446759455E+02  0.23507913215E+02  0.00000000000E+00 0.  1.
</event>
<event>
 7    1  0.5559916E-010  0.4778727E+02  0.7816164E-02  0.1312668E+00
        -11   -1    0    0    0    0  0.00000000000E+00  0.00000000000E+00  0.45593999997E+02  0.45594000000E+02  0.51100000000E-03 0. -1.
         11   -1    0    0    0    0 -0.00000000000E+00 -0.00000000000E+00 -0.45593999997E+02  0.45594000000E+02  0.51100000000E-03 0.  1.
    9900012    2    1    2    0    0  0.17379430052E+02  0.35241958181E+02 -0.18427780394E+02  0.47787270794E+02  0.19999998860E+02 0.  0.
         12    1    1    2    0    0 -0.17379430052E+02 -0.35241958181E+02  0.18427780394E+02  0.43400729206E+02  0.00000000000E+00 0. -1.
         11    1    3    3    0    0  0.13667025196E+02  0.83136733724E+01 -0.36489052777E+01  0.16407902140E+02  0.51100000000E-03 0. -1.
        -11    1    3    3    0    0  0.49051703562E+01  0.21693325488E+02 -0.12772789626E+02  0.25647713778E+02  0.51100000000E-03 0.  1.
         12    1    3    3    0    0 -0.11927655003E+01  0.52349593206E+01 -0.20060854897E+01  0.57316548761E+01  0.00000000000E+00 0. -1.
</event>
<event>
 7    1  0.5559916E-010  0.4778728E+02  0.7816164E-02  0.1312668E+00
        -11   -1    0    0    0    0  0.00000000000E+00  0.00000000000E+00  0.45593999997E+02  0.45594000000E+02  0.51100000000E-03 0.  1.
         11   -1    0    0    0    0 -0.00000000000E+00 -0.00000000000E+00 -0.45593999997E+02  0.45594000000E+02  0.51100000000E-03 0. -1.
    9900012    2    1    2    0    0 -0.38646470104E+02  0.10492989326E+02  0.16732315779E+02  0.47787275723E+02  0.20000021330E+02 0.  0.
         12    1    1    2    0    0  0.38646470104E+02 -0.10492989326E+02 -0.16732315779E+02  0.43400724277E+02  0.00000000000E+00 0. -1.
         11    1    3    3    0    0 -0.24950320265E+02  0.12842034997E+02  0.17299436686E+02  0.32965237055E+02  0.51100000000E-03 0. -1.
        -11    1    3    3    0    0 -0.14957416305E+01 -0.12544562323E+01  0.14180156266E+01  0.24128141334E+01  0.51100000000E-03 0.  1.
         12    1    3    3    0    0 -0.12200408209E+02 -0.10945894380E+01 -0.19851365337E+01  0.12409224535E+02  0.00000000000E+00 0. -1.
</event>
<event>
 7    1  0.5559916E-010  0.4778725E+02  0.7816164E-02  0.1312668E+00
        -11   -1    0    0    0    0  0.00000000000E+00  0.00000000000E+00  0.45593999997E+02  0.45594000000E+02  0.51100000000E-03 0.  1.
         11   -1    0    0    0    0 -0.00000000000E+00 -0.00000000000E+00 -0.45593999997E+02  0.45594000000E+02  0.51100000000E-03 0. -1.
    9900012    2    1    2    0    0  0.77805429635E+01 -0.37396569891E+02  0.20605449696E+02  0.47787252938E+02  0.19999917444E+02 0.  0.
         12    1    1    2    0    0 -0.77805429635E+01  0.37396569891E+02 -0.20605449696E+02  0.43400747062E+02  0.00000000000E+00 0. -1.
         11    1    3    3    0    0 -0.24627086614E+01 -0.29840836128E+01  0.26326789778E+01  0.46798170713E+01  0.51100000000E-03 0. -1.
        -11    1    3    3    0    0  0.75233727201E+01 -0.24539857221E+02  0.42999251896E+01  0.26024893591E+02  0.51100000000E-03 0.  1.
        -12    1    3    3    0    0  0.27198789048E+01 -0.98726290570E+01  0.13672845529E+02  0.17082542276E+02  0.00000000000E+00 0.  1.
</event>
<event>
 7    1  0.5559916E-010  0.4778727E+02  0.7816164E-02  0.1312668E+00
        -11   -1    0    0    0    0  0.00000000000E+00  0.00000000000E+00  0.45593999997E+02  0.45594000000E+02  0.51100000000E-03 0.  1.
         11   -1    0    0    0    0 -0.00000000000E+00 -0.00000000000E+00 -0.45593999997E+02  0.45594000000E+02  0.51100000000E-03 0. -1.
    9900012    2    1    2    0    0 -0.23858201445E+02 -0.51708924035E+00  0.36251099289E+02  0.47787270086E+02  0.19999995629E+02 0.  0.
         12    1    1    2    0    0  0.23858201445E+02  0.51708924035E+00 -0.36251099289E+02  0.43400729914E+02  0.00000000000E+00 0. -1.
         11    1    3    3    0    0 -0.43735897465E+01 -0.26461986930E+01 -0.63677561568E+00  0.51513239307E+01  0.51100000000E-03 0. -1.
        -11    1    3    3    0    0 -0.13500290525E+02 -0.16742614978E+01  0.18781197491E+02  0.23190394030E+02  0.51100000000E-03 0.  1.
         12    1    3    3    0    0 -0.59843211734E+01  0.38033709505E+01  0.18106677413E+02  0.19445552125E+02  0.00000000000E+00 0. -1.
</event>
<event>
 7    1  0.5559916E-010  0.4778727E+02  0.7816164E-02  0.1312668E+00
        -11   -1    0    0    0    0  0.00000000000E+00  0.00000000000E+00  0.45593999997E+02  0.45594000000E+02  0.51100000000E-03 0.  1.
         11   -1    0    0    0    0 -0.00000000000E+00 -0.00000000000E+00 -0.45593999997E+02  0.45594000000E+02  0.51100000000E-03 0. -1.
    9900012    2    1    2    0    0 -0.19341400574E+02 -0.26245552950E+02  0.28647939292E+02  0.47787271302E+02  0.20000001173E+02 0.  0.
         12    1    1    2    0    0  0.19341400574E+02  0.26245552950E+02 -0.28647939292E+02  0.43400728698E+02  0.00000000000E+00 0. -1.
         11    1    3    3    0    0 -0.54547992025E+01 -0.17634016919E+02  0.67751122614E+01  0.19662541378E+02  0.51100000000E-03 0. -1.
        -11    1    3    3    0    0 -0.96605737159E+01 -0.27430621111E+01  0.15592324287E+02  0.18546472742E+02  0.51100000000E-03 0.  1.
        -12    1    3    3    0    0 -0.42260276560E+01 -0.58684739202E+01  0.62805027445E+01  0.95782571810E+01  0.00000000000E+00 0.  1.
</event>
<event>
 7    1  0.5559916E-010  0.4778727E+02  0.7816164E-02  0.1312668E+00
        -11   -1    0    0    0    0  0.00000000000E+00  0.00000000000E+00  0.45593999997E+02  0.45594000000E+02  0.51100000000E-03 0.  1.
         11   -1    0    0    0    0 -0.00000000000E+00 -0.00000000000E+00 -0.45593999997E+02  0.45594000000E+02  0.51100000000E-03 0. -1.
    9900012    2    1    2    0    0  0.11070022194E+02 -0.74599434650E+01  0.41296816732E+02  0.47787271664E+02  0.20000002826E+02 0.  0.
         12    1    1    2    0    0 -0.11070022194E+02  0.74599434650E+01 -0.41296816732E+02  0.43400728336E+02  0.00000000000E+00 0. -1.
         11    1    3    3    0    0  0.52503773725E+01  0.21389739916E+01  0.17719605549E+01  0.59398246405E+01  0.51100000000E-03 0. -1.
        -11    1    3    3    0    0 -0.59475977109E+00 -0.65430725814E+01  0.21139606118E+02  0.22137038760E+02  0.51100000000E-03 0.  1.
         12    1    3    3    0    0  0.64144045930E+01 -0.30558448751E+01  0.18385250059E+02  0.19710408264E+02  0.00000000000E+00 0. -1.
</event>
<event>
 7    1  0.5559916E-010  0.4778727E+02  0.7816164E-02  0.1312668E+00
        -11   -1    0    0    0    0  0.00000000000E+00  0.00000000000E+00  0.45593999997E+02  0.45594000000E+02  0.51100000000E-03 0.  1.
         11   -1    0    0    0    0 -0.00000000000E+00 -0.00000000000E+00 -0.45593999997E+02  0.45594000000E+02  0.51100000000E-03 0. -1.
    9900012    2    1    2    0    0  0.15961854326E+02  0.19644512205E+02  0.35255293373E+02  0.47787270005E+02  0.19999995260E+02 0.  0.
         12    1    1    2    0    0 -0.15961854326E+02 -0.19644512205E+02 -0.35255293373E+02  0.43400729995E+02  0.00000000000E+00 0. -1.
         11    1    3    3    0    0  0.84288647901E+01 -0.10561508178E+01  0.38122406259E+01  0.93109824965E+01  0.51100000000E-03 0. -1.
        -11    1    3    3    0    0  0.45815740858E+01  0.15837651539E+02  0.23414590670E+02  0.28636778517E+02  0.51100000000E-03 0.  1.
         12    1    3    3    0    0  0.29514154501E+01  0.48630114843E+01  0.80284620772E+01  0.98395089909E+01  0.00000000000E+00 0. -1.
</event>
<event>
 7    1  0.5559916E-010  0.4778728E+02  0.7816164E-02  0.1312668E+00
        -11   -1    0    0    0    0  0.00000000000E+00  0.00000000000E+00  0.45593999997E+02  0.45594000000E+02  0.51100000000E-03 0. -1.
         11   -1    0    0    0    0 -0.00000000000E+00 -0.00000000000E+00 -0.45593999997E+02  0.45594000000E+02  0.51100000000E-03 0.  1.
    9900012    2    1    2    0    0 -0.23218971426E+02  0.27857451370E+02 -0.23842487803E+02  0.47787280472E+02  0.20000042986E+02 0.  0.
         12    1    1    2    0    0  0.23218971426E+02 -0.27857451370E+02  0.23842487803E+02  0.43400719528E+02  0.00000000000E+00 0. -1.
         11    1    3    3    0    0 -0.14507005357E+02  0.99359070832E+01 -0.91325565849E+01  0.19813607547E+02  0.51100000000E-03 0. -1.
        -11    1    3    3    0    0 -0.32031392594E+01  0.14797205599E+02 -0.15408848759E+02  0.21602083580E+02  0.51100000000E-03 0.  1.
         12    1    3    3    0    0 -0.55088268098E+01  0.31243386873E+01  0.69891754146E+00  0.63715893451E+01  0.00000000000E+00 0. -1.
</event>
<event>
 7    1  0.5559916E-010  0.4778727E+02  0.7816164E-02  0.1312668E+00
        -11   -1    0    0    0    0  0.00000000000E+00  0.00000000000E+00  0.45593999997E+02  0.45594000000E+02  0.51100000000E-03 0.  1.
         11   -1    0    0    0    0 -0.00000000000E+00 -0.00000000000E+00 -0.45593999997E+02  0.45594000000E+02  0.51100000000E-03 0. -1.
    9900012    2    1    2    0    0 -0.41198454194E+02  0.13629617777E+02  0.73750078553E+00  0.47787274014E+02  0.20000013539E+02 0.  0.
         12    1    1    2    0    0  0.41198454194E+02 -0.13629617777E+02 -0.73750078553E+00  0.43400725986E+02  0.00000000000E+00 0. -1.
         11    1    3    3    0    0 -0.23153538396E+02  0.24710952254E+01 -0.70549599131E+01  0.24330333157E+02  0.51100000000E-03 0. -1.
        -11    1    3    3    0    0 -0.27487055967E+01  0.30603499502E+01  0.40020163115E+01  0.57390991535E+01  0.51100000000E-03 0.  1.
         12    1    3    3    0    0 -0.15296210201E+02  0.80981726011E+01  0.37904443872E+01  0.17717841704E+02  0.00000000000E+00 0. -1.
</event>
<event>
 7    1  0.5559916E-010  0.4778729E+02  0.7816164E-02  0.1312668E+00
        -11   -1    0    0    0    0  0.00000000000E+00  0.00000000000E+00  0.45593999997E+02  0.45594000000E+02  0.51100000000E-03 0.  1.
         11   -1    0    0    0    0 -0.00000000000E+00 -0.00000000000E+00 -0.45593999997E+02  0.45594000000E+02  0.51100000000E-03 0. -1.
    9900012    2    1    2    0    0  0.36195235538E+02  0.19431016025E+02  0.13998659103E+02  0.47787286687E+02  0.20000071320E+02 0.  0.
         12    1    1    2    0    0 -0.36195235538E+02 -0.19431016025E+02 -0.13998659103E+02  0.43400713313E+02  0.00000000000E+00 0. -1.
         11    1    3    3    0    0 -0.12377322323E+00  0.58236579706E+00 -0.76377320673E+00  0.96841081407E+00  0.51100000000E-03 0. -1.
        -11    1    3    3    0    0  0.13614796544E+02  0.75626902610E+01 -0.30012689486E+01  0.15860787638E+02  0.51100000000E-03 0.  1.
        -12    1    3    3    0    0  0.22704212216E+02  0.11285959967E+02  0.17763701259E+02  0.30958088235E+02  0.00000000000E+00 0.  1.
</event>
<event>
 7    1  0.5559916E-010  0.4778727E+02  0.7816164E-02  0.1312668E+00
        -11   -1    0    0    0    0  0.00000000000E+00  0.00000000000E+00  0.45593999997E+02  0.45594000000E+02  0.51100000000E-03 0. -1.
         11   -1    0    0    0    0 -0.00000000000E+00 -0.00000000000E+00 -0.45593999997E+02  0.45594000000E+02  0.51100000000E-03 0.  1.
    9900012    2    1    2    0    0  0.17899868277E+02 -0.18084684628E+02 -0.35159098291E+02  0.47787270800E+02  0.19999998886E+02 0.  0.
         12    1    1    2    0    0 -0.17899868277E+02  0.18084684628E+02  0.35159098291E+02  0.43400729200E+02  0.00000000000E+00 0. -1.
         11    1    3    3    0    0  0.12328313414E+01 -0.59796815708E+01 -0.83040779890E+01  0.10306996474E+02  0.51100000000E-03 0. -1.
        -11    1    3    3    0    0 -0.26643658966E+01  0.67354469704E+00 -0.14995318153E+01  0.31306714961E+01  0.51100000000E-03 0.  1.
        -12    1    3    3    0    0  0.19331402832E+02 -0.12778547755E+02 -0.25355488487E+02  0.34349602830E+02  0.00000000000E+00 0.  1.
</event>
<event>
 7    1  0.5559916E-010  0.4778727E+02  0.7816164E-02  0.1312668E+00
        -11   -1    0    0    0    0  0.00000000000E+00  0.00000000000E+00  0.45593999997E+02  0.45594000000E+02  0.51100000000E-03 0.  1.
         11   -1    0    0    0    0 -0.00000000000E+00 -0.00000000000E+00 -0.45593999997E+02  0.45594000000E+02  0.51100000000E-03 0. -1.
    9900012    2    1    2    0    0  0.16321756828E+02 -0.13712477163E+02  0.37804648685E+02  0.47787271457E+02  0.20000001882E+02 0.  0.
         12    1    1    2    0    0 -0.16321756828E+02  0.13712477163E+02 -0.37804648685E+02  0.43400728543E+02  0.00000000000E+00 0. -1.
         11    1    3    3    0    0 -0.37768750450E+01 -0.15052163637E+01  0.38489125529E+01  0.55986238942E+01  0.51100000000E-03 0. -1.
        -11    1    3    3    0    0  0.13757399932E+02 -0.41418485273E+01  0.23470902439E+02  0.27519161028E+02  0.51100000000E-03 0.  1.
        -12    1    3    3    0    0  0.63412319404E+01 -0.80654122716E+01  0.10484833692E+02  0.14669486535E+02  0.00000000000E+00 0.  1.
</event>
<event>
 7    1  0.5559916E-010  0.4778727E+02  0.7816164E-02  0.1312668E+00
        -11   -1    0    0    0    0  0.00000000000E+00  0.00000000000E+00  0.45593999997E+02  0.45594000000E+02  0.51100000000E-03 0. -1.
         11   -1    0    0    0    0 -0.00000000000E+00 -0.00000000000E+00 -0.45593999997E+02  0.45594000000E+02  0.51100000000E-03 0.  1.
    9900012    2    1    2    0    0  0.16058372187E+02  0.36592698160E+02 -0.16932990498E+02  0.47787273702E+02  0.20000012118E+02 0.  0.
         12    1    1    2    0    0 -0.16058372187E+02 -0.36592698160E+02  0.16932990498E+02  0.43400726298E+02  0.00000000000E+00 0. -1.
         11    1    3    3    0    0 -0.38294313890E+01  0.47279944657E+01  0.79166574643E+00  0.61355693579E+01  0.51100000000E-03 0. -1.
        -11    1    3    3    0    0  0.13859760082E+02  0.24120848924E+02 -0.14116748870E+02  0.31196007778E+02  0.51100000000E-03 0.  1.
        -12    1    3    3    0    0  0.60280434934E+01  0.77438547704E+01 -0.36079073746E+01  0.10455696566E+02  0.00000000000E+00 0.  1.
</event>
<event>
 7    1  0.5559916E-010  0.4778727E+02  0.7816164E-02  0.1312668E+00
        -11   -1    0    0    0    0  0.00000000000E+00  0.00000000000E+00  0.45593999997E+02  0.45594000000E+02  0.51100000000E-03 0. -1.
         11   -1    0    0    0    0 -0.00000000000E+00 -0.00000000000E+00 -0.45593999997E+02  0.45594000000E+02  0.51100000000E-03 0.  1.
    9900012    2    1    2    0    0  0.82082619444E+01 -0.36044485814E+02 -0.22738574006E+02  0.47787271094E+02  0.20000000227E+02 0.  0.
         12    1    1    2    0    0 -0.82082619444E+01  0.36044485814E+02  0.22738574006E+02  0.43400728906E+02  0.00000000000E+00 0. -1.
         11    1    3    3    0    0 -0.72774621898E+00  0.18277222320E+01 -0.15638611311E+01  0.25131345000E+01  0.51100000000E-03 0. -1.
        -11    1    3    3    0    0  0.93024642475E+01 -0.34652310069E+02 -0.21787044869E+02  0.41976109379E+02  0.51100000000E-03 0.  1.
        -12    1    3    3    0    0 -0.36645608416E+00 -0.32198979770E+01  0.61233199392E+00  0.32980272155E+01  0.00000000000E+00 0.  1.
</event>
<event>
 7    1  0.5559916E-010  0.4778727E+02  0.7816164E-02  0.1312668E+00
        -11   -1    0    0    0    0  0.00000000000E+00  0.00000000000E+00  0.45593999997E+02  0.45594000000E+02  0.51100000000E-03 0.  1.
         11   -1    0    0    0    0 -0.00000000000E+00 -0.00000000000E+00 -0.45593999997E+02  0.45594000000E+02  0.51100000000E-03 0. -1.
    9900012    2    1    2    0    0  0.38582113261E+02 -0.19731641651E+02 -0.23887595477E+01  0.47787270535E+02  0.19999997678E+02 0.  0.
         12    1    1    2    0    0 -0.38582113261E+02  0.19731641651E+02  0.23887595477E+01  0.43400729465E+02  0.00000000000E+00 0. -1.
         11    1    3    3    0    0 -0.14903575222E+01 -0.30922510545E+00 -0.10037383985E+01  0.18232599221E+01  0.51100000000E-03 0. -1.
        -11    1    3    3    0    0  0.39013510104E+02 -0.15972200057E+02 -0.17277847280E+00  0.42156790650E+02  0.51100000000E-03 0.  1.
         12    1    3    3    0    0  0.10589606791E+01 -0.34502164885E+01 -0.12122426763E+01  0.38072199627E+01  0.00000000000E+00 0. -1.
</event>
<event>
 7    1  0.5559916E-010  0.4778727E+02  0.7816164E-02  0.1312668E+00
        -11   -1    0    0    0    0  0.00000000000E+00  0.00000000000E+00  0.45593999997E+02  0.45594000000E+02  0.51100000000E-03 0.  1.
         11   -1    0    0    0    0 -0.00000000000E+00 -0.00000000000E+00 -0.45593999997E+02  0.45594000000E+02  0.51100000000E-03 0. -1.
    9900012    2    1    2    0    0  0.17444499278E+02 -0.38229251196E+02  0.10855270489E+02  0.47787273054E+02  0.20000009161E+02 0.  0.
         12    1    1    2    0    0 -0.17444499278E+02  0.38229251196E+02 -0.10855270489E+02  0.43400726946E+02  0.00000000000E+00 0. -1.
         11    1    3    3    0    0  0.12009790822E+02 -0.29416362854E+02  0.12980334337E+02  0.34322682863E+02  0.51100000000E-03 0. -1.
        -11    1    3    3    0    0 -0.13080843364E+01 -0.38859762114E+01  0.14928546965E+01  0.43635434170E+01  0.51100000000E-03 0.  1.
         12    1    3    3    0    0  0.67427927923E+01 -0.49269121310E+01 -0.36179185442E+01  0.91010467738E+01  0.00000000000E+00 0. -1.
</event>
<event>
 7    1  0.5559916E-010  0.4778727E+02  0.7816164E-02  0.1312668E+00
        -11   -1    0    0    0    0  0.00000000000E+00  0.00000000000E+00  0.45593999997E+02  0.45594000000E+02  0.51100000000E-03 0.  1.
         11   -1    0    0    0    0 -0.00000000000E+00 -0.00000000000E+00 -0.45593999997E+02  0.45594000000E+02  0.51100000000E-03 0. -1.
    9900012    2    1    2    0    0 -0.22983417418E+02 -0.11478137898E+02  0.34980544387E+02  0.47787267156E+02  0.19999982270E+02 0.  0.
         12    1    1    2    0    0  0.22983417418E+02  0.11478137898E+02 -0.34980544387E+02  0.43400732844E+02  0.00000000000E+00 0. -1.
         11    1    3    3    0    0 -0.19805725259E+02 -0.91828730845E+01  0.14670955354E+02  0.26302639457E+02  0.51100000000E-03 0. -1.
        -11    1    3    3    0    0 -0.48273859718E+01 -0.23001946587E+01  0.14999470946E+02  0.15924153972E+02  0.51100000000E-03 0.  1.
         12    1    3    3    0    0  0.16496938128E+01  0.49298456413E-02  0.53101180864E+01  0.55604737272E+01  0.00000000000E+00 0. -1.
</event>
<event>
 7    1  0.5559916E-010  0.4778725E+02  0.7816164E-02  0.1312668E+00
        -11   -1    0    0    0    0  0.00000000000E+00  0.00000000000E+00  0.45593999997E+02  0.45594000000E+02  0.51100000000E-03 0.  1.
         11   -1    0    0    0    0 -0.00000000000E+00 -0.00000000000E+00 -0.45593999997E+02  0.45594000000E+02  0.51100000000E-03 0. -1.
    9900012    2    1    2    0    0 -0.12533212771E+02 -0.19239376576E+02  0.36829196407E+02  0.47787254138E+02  0.19999922918E+02 0.  0.
         12    1    1    2    0    0  0.12533212771E+02  0.19239376576E+02 -0.36829196407E+02  0.43400745862E+02  0.00000000000E+00 0. -1.
         11    1    3    3    0    0  0.40368232914E+01 -0.13749841063E+01  0.50442289425E+01  0.66053591472E+01  0.51100000000E-03 0. -1.
        -11    1    3    3    0    0 -0.13784609820E+02 -0.84594582397E+01  0.22208132233E+02  0.27473242239E+02  0.51100000000E-03 0.  1.
         12    1    3    3    0    0 -0.27854262419E+01 -0.94049342297E+01  0.95768352316E+01  0.13708652752E+02  0.00000000000E+00 0. -1.
</event>
<event>
 7    1  0.5559916E-010  0.4778726E+02  0.7816164E-02  0.1312668E+00
        -11   -1    0    0    0    0  0.00000000000E+00  0.00000000000E+00  0.45593999997E+02  0.45594000000E+02  0.51100000000E-03 0.  1.
         11   -1    0    0    0    0 -0.00000000000E+00 -0.00000000000E+00 -0.45593999997E+02  0.45594000000E+02  0.51100000000E-03 0. -1.
    9900012    2    1    2    0    0  0.16699151398E+02  0.18042088981E+02  0.35766538982E+02  0.47787263336E+02  0.19999964856E+02 0.  0.
         12    1    1    2    0    0 -0.16699151398E+02 -0.18042088981E+02 -0.35766538982E+02  0.43400736664E+02  0.00000000000E+00 0. -1.
         11    1    3    3    0    0  0.93949167773E+01  0.43873932761E+01  0.48392287458E+01  0.11442544128E+02  0.51100000000E-03 0.  1.
        -11    1    3    3    0    0 -0.12614310741E+01  0.94414804538E+01  0.16261223716E+02  0.18845693367E+02  0.51100000000E-03 0. -1.
         12    1    3    3    0    0  0.85656656947E+01  0.42132152509E+01  0.14666086521E+02  0.17499025841E+02  0.00000000000E+00 0. -1.
</event>
<event>
 7    1  0.5559916E-010  0.4778727E+02  0.7816164E-02  0.1312668E+00
        -11   -1    0    0    0    0  0.00000000000E+00  0.00000000000E+00  0.45593999997E+02  0.45594000000E+02  0.51100000000E-03 0.  1.
         11   -1    0    0    0    0 -0.00000000000E+00 -0.00000000000E+00 -0.45593999997E+02  0.45594000000E+02  0.51100000000E-03 0. -1.
    9900012    2    1    2    0    0  0.16174493894E+02 -0.38348330864E+02 -0.12305060155E+02  0.47787271455E+02  0.20000001874E+02 0.  0.
         12    1    1    2    0    0 -0.16174493894E+02  0.38348330864E+02  0.12305060155E+02  0.43400728545E+02  0.00000000000E+00 0. -1.
         11    1    3    3    0    0  0.38905924374E+01 -0.17882186729E+02  0.25002514952E+01  0.18470532464E+02  0.51100000000E-03 0. -1.
        -11    1    3    3    0    0  0.47027727849E+01 -0.97791800111E+01 -0.20745539958E+01  0.11047724114E+02  0.51100000000E-03 0.  1.
         12    1    3    3    0    0  0.75811286714E+01 -0.10686964124E+02 -0.12730757654E+02  0.18269014877E+02  0.00000000000E+00 0. -1.
</event>
<event>
 7    1  0.5559916E-010  0.4778727E+02  0.7816164E-02  0.1312668E+00
        -11   -1    0    0    0    0  0.00000000000E+00  0.00000000000E+00  0.45593999997E+02  0.45594000000E+02  0.51100000000E-03 0. -1.
         11   -1    0    0    0    0 -0.00000000000E+00 -0.00000000000E+00 -0.45593999997E+02  0.45594000000E+02  0.51100000000E-03 0.  1.
    9900012    2    1    2    0    0 -0.14956760379E+02  0.39285821010E+02 -0.10795512265E+02  0.47787268456E+02  0.19999988197E+02 0.  0.
         12    1    1    2    0    0  0.14956760379E+02 -0.39285821010E+02  0.10795512265E+02  0.43400731544E+02  0.00000000000E+00 0. -1.
         11    1    3    3    0    0 -0.57433398104E+01  0.14683659186E+02  0.24370206458E+01  0.15954148963E+02  0.51100000000E-03 0. -1.
        -11    1    3    3    0    0 -0.40671703691E+01  0.26197003394E+01 -0.68230250545E+01  0.83641123757E+01  0.51100000000E-03 0.  1.
        -12    1    3    3    0    0 -0.51462501999E+01  0.21982461485E+02 -0.64095078564E+01  0.23469007117E+02  0.00000000000E+00 0.  1.
</event>
<event>
 7    1  0.5559916E-010  0.4778727E+02  0.7816164E-02  0.1312668E+00
        -11   -1    0    0    0    0  0.00000000000E+00  0.00000000000E+00  0.45593999997E+02  0.45594000000E+02  0.51100000000E-03 0.  1.
         11   -1    0    0    0    0 -0.00000000000E+00 -0.00000000000E+00 -0.45593999997E+02  0.45594000000E+02  0.51100000000E-03 0. -1.
    9900012    2    1    2    0    0  0.33715170066E+02  0.27221781675E+02 -0.24259665548E+01  0.47787269547E+02  0.19999993172E+02 0.  0.
         12    1    1    2    0    0 -0.33715170066E+02 -0.27221781675E+02  0.24259665548E+01  0.43400730453E+02  0.00000000000E+00 0. -1.
         11    1    3    3    0    0  0.21272636571E+02  0.12336532572E+02 -0.78648357006E+01  0.25818031363E+02  0.51100000000E-03 0. -1.
        -11    1    3    3    0    0  0.24448683810E+01  0.91351986593E+01  0.64289376379E+00  0.94785309304E+01  0.51100000000E-03 0.  1.
         12    1    3    3    0    0  0.99976651143E+01  0.57500504429E+01  0.47959753820E+01  0.12490707254E+02  0.00000000000E+00 0. -1.
</event>
<event>
 7    1  0.5559916E-010  0.4778727E+02  0.7816164E-02  0.1312668E+00
        -11   -1    0    0    0    0  0.00000000000E+00  0.00000000000E+00  0.45593999997E+02  0.45594000000E+02  0.51100000000E-03 0. -1.
         11   -1    0    0    0    0 -0.00000000000E+00 -0.00000000000E+00 -0.45593999997E+02  0.45594000000E+02  0.51100000000E-03 0.  1.
    9900012    2    1    2    0    0 -0.18758783389E+02  0.21216745195E+02 -0.32887399409E+02  0.47787271079E+02  0.20000000160E+02 0.  0.
         12    1    1    2    0    0  0.18758783389E+02 -0.21216745195E+02  0.32887399409E+02  0.43400728921E+02  0.00000000000E+00 0. -1.
         11    1    3    3    0    0 -0.52931273685E+01 -0.28987181017E+01 -0.88322537117E+01  0.10697124373E+02  0.51100000000E-03 0. -1.
        -11    1    3    3    0    0 -0.14030470679E+02  0.23551716913E+02 -0.23129241322E+02  0.35867802852E+02  0.51100000000E-03 0.  1.
        -12    1    3    3    0    0  0.56481465890E+00  0.56374638416E+00 -0.92590437523E+00  0.12223438537E+01  0.00000000000E+00 0.  1.
</event>
<event>
 7    1  0.5559916E-010  0.4778726E+02  0.7816164E-02  0.1312668E+00
        -11   -1    0    0    0    0  0.00000000000E+00  0.00000000000E+00  0.45593999997E+02  0.45594000000E+02  0.51100000000E-03 0.  1.
         11   -1    0    0    0    0 -0.00000000000E+00 -0.00000000000E+00 -0.45593999997E+02  0.45594000000E+02  0.51100000000E-03 0. -1.
    9900012    2    1    2    0    0 -0.39523292093E+02 -0.75652471804E+01  0.16257315384E+02  0.47787263989E+02  0.19999967833E+02 0.  0.
         12    1    1    2    0    0  0.39523292093E+02  0.75652471804E+01 -0.16257315384E+02  0.43400736011E+02  0.00000000000E+00 0. -1.
         11    1    3    3    0    0  0.51437939064E+00 -0.12256789227E+01 -0.45103869234E+00  0.14036777202E+01  0.51100000000E-03 0. -1.
        -11    1    3    3    0    0 -0.17470131123E+02 -0.80167774342E+01  0.13588440574E+02  0.23539751898E+02  0.51100000000E-03 0.  1.
        -12    1    3    3    0    0 -0.22567540361E+02  0.16772091765E+01  0.31199135018E+01  0.22843834372E+02  0.00000000000E+00 0.  1.
</event>
<event>
 7    1  0.5559916E-010  0.4778723E+02  0.7816164E-02  0.1312668E+00
        -11   -1    0    0    0    0  0.00000000000E+00  0.00000000000E+00  0.45593999997E+02  0.45594000000E+02  0.51100000000E-03 0. -1.
         11   -1    0    0    0    0 -0.00000000000E+00 -0.00000000000E+00 -0.45593999997E+02  0.45594000000E+02  0.51100000000E-03 0.  1.
    9900012    2    1    2    0    0 -0.18287658242E+02  0.29628752132E+02 -0.25909943557E+02  0.47787233048E+02  0.19999826758E+02 0.  0.
         12    1    1    2    0    0  0.18287658242E+02 -0.29628752132E+02  0.25909943557E+02  0.43400766952E+02  0.00000000000E+00 0. -1.
         11    1    3    3    0    0  0.20780961271E+01  0.17299997629E+01  0.62635603444E+00  0.27755548700E+01  0.51100000000E-03 0. -1.
        -11    1    3    3    0    0 -0.18827833328E+02  0.28712071200E+02 -0.26312556251E+02  0.43257611552E+02  0.51100000000E-03 0.  1.
        -12    1    3    3    0    0 -0.15379210409E+01 -0.81331883016E+00 -0.22374334021E+00  0.17540666264E+01  0.00000000000E+00 0.  1.
</event>
<event>
 7    1  0.5559916E-010  0.4778727E+02  0.7816164E-02  0.1312668E+00
        -11   -1    0    0    0    0  0.00000000000E+00  0.00000000000E+00  0.45593999997E+02  0.45594000000E+02  0.51100000000E-03 0.  1.
         11   -1    0    0    0    0 -0.00000000000E+00 -0.00000000000E+00 -0.45593999997E+02  0.45594000000E+02  0.51100000000E-03 0. -1.
    9900012    2    1    2    0    0 -0.15729984413E+02 -0.90403429532E+01  0.39426675580E+02  0.47787274688E+02  0.20000016613E+02 0.  0.
         12    1    1    2    0    0  0.15729984413E+02  0.90403429532E+01 -0.39426675580E+02  0.43400725312E+02  0.00000000000E+00 0. -1.
         11    1    3    3    0    0 -0.69537428266E+01 -0.48101501551E+01  0.26999004728E+01  0.88758969483E+01  0.51100000000E-03 0. -1.
        -11    1    3    3    0    0 -0.22546465137E+01  0.25531120319E+01  0.11144722053E+02  0.11653610678E+02  0.51100000000E-03 0.  1.
         12    1    3    3    0    0 -0.65215950728E+01 -0.67833048300E+01  0.25582053054E+02  0.27257767062E+02  0.00000000000E+00 0. -1.
</event>
<event>
 7    1  0.5559916E-010  0.4778727E+02  0.7816164E-02  0.1312668E+00
        -11   -1    0    0    0    0  0.00000000000E+00  0.00000000000E+00  0.45593999997E+02  0.45594000000E+02  0.51100000000E-03 0.  1.
         11   -1    0    0    0    0 -0.00000000000E+00 -0.00000000000E+00 -0.45593999997E+02  0.45594000000E+02  0.51100000000E-03 0. -1.
    9900012    2    1    2    0    0 -0.50777998250E+01 -0.23861556250E+02  0.35895197877E+02  0.47787272490E+02  0.20000006591E+02 0.  0.
         12    1    1    2    0    0  0.50777998250E+01  0.23861556250E+02 -0.35895197877E+02  0.43400727510E+02  0.00000000000E+00 0. -1.
         11    1    3    3    0    0 -0.22185006558E-01  0.21821135758E+01  0.80778060287E+01  0.83673808525E+01  0.51100000000E-03 0. -1.
        -11    1    3    3    0    0 -0.42625475782E+00 -0.17128638910E+02  0.21735915195E+02  0.27677101974E+02  0.51100000000E-03 0.  1.
        -12    1    3    3    0    0 -0.46293600607E+01 -0.89150309158E+01  0.60814766535E+01  0.11742789664E+02  0.00000000000E+00 0.  1.
</event>
<event>
 7    1  0.5559916E-010  0.4778727E+02  0.7816164E-02  0.1312668E+00
        -11   -1    0    0    0    0  0.00000000000E+00  0.00000000000E+00  0.45593999997E+02  0.45594000000E+02  0.51100000000E-03 0.  1.
         11   -1    0    0    0    0 -0.00000000000E+00 -0.00000000000E+00 -0.45593999997E+02  0.45594000000E+02  0.51100000000E-03 0. -1.
    9900012    2    1    2    0    0  0.58809587855E+01  0.39110519362E+02  0.17871902205E+02  0.47787270866E+02  0.19999999185E+02 0.  0.
         12    1    1    2    0    0 -0.58809587855E+01 -0.39110519362E+02 -0.17871902205E+02  0.43400729134E+02  0.00000000000E+00 0. -1.
         11    1    3    3    0    0 -0.35858201640E+01  0.18302454812E+02  0.14762538821E+02  0.23785930949E+02  0.51100000000E-03 0. -1.
        -11    1    3    3    0    0  0.73925242652E+01  0.86591771257E+01  0.25286936099E+01  0.11662977971E+02  0.51100000000E-03 0.  1.
         12    1    3    3    0    0  0.20742546843E+01  0.12148887424E+02  0.58066977413E+00  0.12338361946E+02  0.00000000000E+00 0. -1.
</event>
<event>
 7    1  0.5559916E-010  0.4778726E+02  0.7816164E-02  0.1312668E+00
        -11   -1    0    0    0    0  0.00000000000E+00  0.00000000000E+00  0.45593999997E+02  0.45594000000E+02  0.51100000000E-03 0. -1.
         11   -1    0    0    0    0 -0.00000000000E+00 -0.00000000000E+00 -0.45593999997E+02  0.45594000000E+02  0.51100000000E-03 0.  1.
    9900012    2    1    2    0    0 -0.10843010088E+02 -0.26201899176E+02 -0.32855953816E+02  0.47787261650E+02  0.19999957168E+02 0.  0.
         12    1    1    2    0    0  0.10843010088E+02  0.26201899176E+02  0.32855953816E+02  0.43400738350E+02  0.00000000000E+00 0. -1.
         11    1    3    3    0    0  0.39750422264E+00 -0.16553837151E+02 -0.83561259277E+01  0.18547570590E+02  0.51100000000E-03 0.  1.
        -11    1    3    3    0    0 -0.44141431051E+01 -0.39036246760E+00 -0.75815386414E+01  0.87816154915E+01  0.51100000000E-03 0. -1.
         12    1    3    3    0    0 -0.68263712055E+01 -0.92576995572E+01 -0.16918289247E+02  0.20458075568E+02  0.00000000000E+00 0. -1.
</event>
<event>
 7    1  0.5559916E-010  0.4778727E+02  0.7816164E-02  0.1312668E+00
        -11   -1    0    0    0    0  0.00000000000E+00  0.00000000000E+00  0.45593999997E+02  0.45594000000E+02  0.51100000000E-03 0.  1.
         11   -1    0    0    0    0 -0.00000000000E+00 -0.00000000000E+00 -0.45593999997E+02  0.45594000000E+02  0.51100000000E-03 0. -1.
    9900012    2    1    2    0    0  0.15207852424E+02  0.76365347490E+01  0.39925276870E+02  0.47787272224E+02  0.20000005380E+02 0.  0.
         12    1    1    2    0    0 -0.15207852424E+02 -0.76365347490E+01 -0.39925276870E+02  0.43400727776E+02  0.00000000000E+00 0. -1.
         11    1    3    3    0    0  0.84076803918E+01 -0.25691509255E+00  0.27565475991E+01  0.88517597043E+01  0.51100000000E-03 0. -1.
        -11    1    3    3    0    0  0.13389837021E+01  0.44219173110E+01  0.21352776666E+02  0.21846905997E+02  0.51100000000E-03 0.  1.
        -12    1    3    3    0    0  0.54611883297E+01  0.34715325305E+01  0.15815952605E+02  0.17088606523E+02  0.00000000000E+00 0.  1.
</event>
<event>
 7    1  0.5559916E-010  0.4778727E+02  0.7816164E-02  0.1312668E+00
        -11   -1    0    0    0    0  0.00000000000E+00  0.00000000000E+00  0.45593999997E+02  0.45594000000E+02  0.51100000000E-03 0.  1.
         11   -1    0    0    0    0 -0.00000000000E+00 -0.00000000000E+00 -0.45593999997E+02  0.45594000000E+02  0.51100000000E-03 0. -1.
    9900012    2    1    2    0    0 -0.16934694863E+02 -0.21360012642E+02 -0.33772614767E+02  0.47787267997E+02  0.19999986106E+02 0.  0.
         12    1    1    2    0    0  0.16934694863E+02  0.21360012642E+02  0.33772614767E+02  0.43400732003E+02  0.00000000000E+00 0. -1.
         11    1    3    3    0    0 -0.11372449929E+02 -0.13982103120E+02 -0.70835768960E+01  0.19365146190E+02  0.51100000000E-03 0. -1.
        -11    1    3    3    0    0 -0.24850453799E+01 -0.54408034090E+01 -0.14045243679E+02  0.15265865928E+02  0.51100000000E-03 0.  1.
         12    1    3    3    0    0 -0.30771995537E+01 -0.19371061134E+01 -0.12643794192E+02  0.13156255879E+02  0.00000000000E+00 0. -1.
</event>
<event>
 7    1  0.5559916E-010  0.4778727E+02  0.7816164E-02  0.1312668E+00
        -11   -1    0    0    0    0  0.00000000000E+00  0.00000000000E+00  0.45593999997E+02  0.45594000000E+02  0.51100000000E-03 0.  1.
         11   -1    0    0    0    0 -0.00000000000E+00 -0.00000000000E+00 -0.45593999997E+02  0.45594000000E+02  0.51100000000E-03 0. -1.
    9900012    2    1    2    0    0 -0.41481196730E+02 -0.89651419367E+01  0.90862344906E+01  0.47787272940E+02  0.20000008644E+02 0.  0.
         12    1    1    2    0    0  0.41481196730E+02  0.89651419367E+01 -0.90862344906E+01  0.43400727060E+02  0.00000000000E+00 0. -1.
         11    1    3    3    0    0 -0.32833305606E+02 -0.80101951595E+01  0.30630001799E+01  0.33934807409E+02  0.51100000000E-03 0. -1.
        -11    1    3    3    0    0 -0.78060687086E+01  0.27562463658E+01  0.56629306997E+01  0.10029974431E+02  0.51100000000E-03 0.  1.
         12    1    3    3    0    0 -0.84182241524E+00 -0.37111931430E+01  0.36030361105E+00  0.38224911008E+01  0.00000000000E+00 0. -1.
</event>
<event>
 7    1  0.5559916E-010  0.4778728E+02  0.7816164E-02  0.1312668E+00
        -11   -1    0    0    0    0  0.00000000000E+00  0.00000000000E+00  0.45593999997E+02  0.45594000000E+02  0.51100000000E-03 0.  1.
         11   -1    0    0    0    0 -0.00000000000E+00 -0.00000000000E+00 -0.45593999997E+02  0.45594000000E+02  0.51100000000E-03 0. -1.
    9900012    2    1    2    0    0 -0.34113091644E+02  0.24101722650E+02  0.11790956107E+02  0.47787277631E+02  0.20000030030E+02 0.  0.
         12    1    1    2    0    0  0.34113091644E+02 -0.24101722650E+02 -0.11790956107E+02  0.43400722369E+02  0.00000000000E+00 0. -1.
         11    1    3    3    0    0 -0.42823420106E+01  0.10401770431E+02  0.85469087322E+01  0.14127453073E+02  0.51100000000E-03 0. -1.
        -11    1    3    3    0    0 -0.19762068207E+02  0.11563580869E+02  0.43553088154E+01  0.23307176094E+02  0.51100000000E-03 0.  1.
         12    1    3    3    0    0 -0.10068681426E+02  0.21363713499E+01 -0.11112614409E+01  0.10352648463E+02  0.00000000000E+00 0. -1.
</event>
<event>
 7    1  0.5559916E-010  0.4778727E+02  0.7816164E-02  0.1312668E+00
        -11   -1    0    0    0    0  0.00000000000E+00  0.00000000000E+00  0.45593999997E+02  0.45594000000E+02  0.51100000000E-03 0. -1.
         11   -1    0    0    0    0 -0.00000000000E+00 -0.00000000000E+00 -0.45593999997E+02  0.45594000000E+02  0.51100000000E-03 0.  1.
    9900012    2    1    2    0    0  0.21131609107E+02  0.36563295026E+02  0.10010173143E+02  0.47787274051E+02  0.20000013707E+02 0.  0.
         12    1    1    2    0    0 -0.21131609107E+02 -0.36563295026E+02 -0.10010173143E+02  0.43400725949E+02  0.00000000000E+00 0. -1.
         11    1    3    3    0    0  0.21537117855E+01  0.49788742122E+00 -0.23060449090E+01  0.31944028742E+01  0.51100000000E-03 0. -1.
        -11    1    3    3    0    0  0.98084840884E+01  0.26893104257E+02  0.13342629452E+02  0.31582767100E+02  0.51100000000E-03 0.  1.
        -12    1    3    3    0    0  0.91694132326E+01  0.91723033474E+01 -0.10264114005E+01  0.13010104077E+02  0.00000000000E+00 0.  1.
</event>
<event>
 7    1  0.5559916E-010  0.4778727E+02  0.7816164E-02  0.1312668E+00
        -11   -1    0    0    0    0  0.00000000000E+00  0.00000000000E+00  0.45593999997E+02  0.45594000000E+02  0.51100000000E-03 0.  1.
         11   -1    0    0    0    0 -0.00000000000E+00 -0.00000000000E+00 -0.45593999997E+02  0.45594000000E+02  0.51100000000E-03 0. -1.
    9900012    2    1    2    0    0 -0.19479103505E+02 -0.27862484566E+02  0.26979061159E+02  0.47787271198E+02  0.20000000701E+02 0.  0.
         12    1    1    2    0    0  0.19479103505E+02  0.27862484566E+02 -0.26979061159E+02  0.43400728802E+02  0.00000000000E+00 0. -1.
         11    1    3    3    0    0 -0.35145131465E+01 -0.19819010363E-01  0.79365738791E+01  0.86799424336E+01  0.51100000000E-03 0. -1.
        -11    1    3    3    0    0 -0.17098646229E+02 -0.24358221687E+02  0.19239142222E+02  0.35437709580E+02  0.51100000000E-03 0.  1.
         12    1    3    3    0    0  0.11340558709E+01 -0.34844438683E+01 -0.19665494204E+00  0.36696191841E+01  0.00000000000E+00 0. -1.
</event>
<event>
 7    1  0.5559916E-010  0.4778727E+02  0.7816164E-02  0.1312668E+00
        -11   -1    0    0    0    0  0.00000000000E+00  0.00000000000E+00  0.45593999997E+02  0.45594000000E+02  0.51100000000E-03 0.  1.
         11   -1    0    0    0    0 -0.00000000000E+00 -0.00000000000E+00 -0.45593999997E+02  0.45594000000E+02  0.51100000000E-03 0. -1.
    9900012    2    1    2    0    0 -0.26049793625E+01 -0.19469855224E+02  0.38700934500E+02  0.47787268312E+02  0.19999987540E+02 0.  0.
         12    1    1    2    0    0  0.26049793625E+01  0.19469855224E+02 -0.38700934500E+02  0.43400731688E+02  0.00000000000E+00 0. -1.
         11    1    3    3    0    0  0.15192754255E+01 -0.52118600802E+01  0.27474216763E+02  0.28005432872E+02  0.51100000000E-03 0. -1.
        -11    1    3    3    0    0 -0.33192700336E+01 -0.54786196488E+01  0.13568781901E+01  0.65478199041E+01  0.51100000000E-03 0.  1.
         12    1    3    3    0    0 -0.80498475441E+00 -0.87793754946E+01  0.98698395464E+01  0.13234015536E+02  0.00000000000E+00 0. -1.
</event>
<event>
 7    1  0.5559916E-010  0.4778728E+02  0.7816164E-02  0.1312668E+00
        -11   -1    0    0    0    0  0.00000000000E+00  0.00000000000E+00  0.45593999997E+02  0.45594000000E+02  0.51100000000E-03 0.  1.
         11   -1    0    0    0    0 -0.00000000000E+00 -0.00000000000E+00 -0.45593999997E+02  0.45594000000E+02  0.51100000000E-03 0. -1.
    9900012    2    1    2    0    0 -0.34742932111E+02 -0.12357457713E+01  0.25981233783E+02  0.47787275257E+02  0.20000019208E+02 0.  0.
         12    1    1    2    0    0  0.34742932111E+02  0.12357457713E+01 -0.25981233783E+02  0.43400724743E+02  0.00000000000E+00 0. -1.
         11    1    3    3    0    0 -0.14420925805E+02 -0.32196463199E+01  0.63731413041E-01  0.14776105220E+02  0.51100000000E-03 0. -1.
        -11    1    3    3    0    0 -0.19537085742E+02  0.20675218097E+01  0.24705134792E+02  0.31564474510E+02  0.51100000000E-03 0.  1.
         12    1    3    3    0    0 -0.78492056448E+00 -0.83621261128E-01  0.12123675777E+01  0.14466955282E+01  0.00000000000E+00 0. -1.
</event>
<event>
 7    1  0.5559916E-010  0.4778727E+02  0.7816164E-02  0.1312668E+00
        -11   -1    0    0    0    0  0.00000000000E+00  0.00000000000E+00  0.45593999997E+02  0.45594000000E+02  0.51100000000E-03 0. -1.
         11   -1    0    0    0    0 -0.00000000000E+00 -0.00000000000E+00 -0.45593999997E+02  0.45594000000E+02  0.51100000000E-03 0.  1.
    9900012    2    1    2    0    0 -0.21887061681E+02  0.37334149964E+02 -0.32773566196E+01  0.47787270870E+02  0.19999999205E+02 0.  0.
         12    1    1    2    0    0  0.21887061681E+02 -0.37334149964E+02  0.32773566196E+01  0.43400729130E+02  0.00000000000E+00 0. -1.
         11    1    3    3    0    0 -0.11220577465E+02  0.12589034786E+02  0.33821745536E+01  0.17199542449E+02  0.51100000000E-03 0. -1.
        -11    1    3    3    0    0  0.98720253991E+00 -0.22192661555E+00 -0.25329035275E+01  0.27275301682E+01  0.51100000000E-03 0.  1.
         12    1    3    3    0    0 -0.11653686757E+02  0.24967041794E+02 -0.41266276456E+01  0.27860198253E+02  0.00000000000E+00 0. -1.
</event>
<event>
 7    1  0.5559916E-010  0.4778727E+02  0.7816164E-02  0.1312668E+00
        -11   -1    0    0    0    0  0.00000000000E+00  0.00000000000E+00  0.45593999997E+02  0.45594000000E+02  0.51100000000E-03 0.  1.
         11   -1    0    0    0    0 -0.00000000000E+00 -0.00000000000E+00 -0.45593999997E+02  0.45594000000E+02  0.51100000000E-03 0. -1.
    9900012    2    1    2    0    0  0.17372770761E+01  0.43213182677E+02  0.36367109968E+01  0.47787274711E+02  0.20000016719E+02 0.  0.
         12    1    1    2    0    0 -0.17372770761E+01 -0.43213182677E+02 -0.36367109968E+01  0.43400725289E+02  0.00000000000E+00 0. -1.
         11    1    3    3    0    0  0.11086999944E+01 -0.84739662522E+00 -0.16341362462E+01  0.21488830239E+01  0.51100000000E-03 0. -1.
        -11    1    3    3    0    0 -0.41332608649E+01  0.27770981572E+02  0.57529628802E+01  0.28660213625E+02  0.51100000000E-03 0.  1.
        -12    1    3    3    0    0  0.47618379465E+01  0.16289597730E+02 -0.48211563712E+00  0.16978178062E+02  0.00000000000E+00 0.  1.
</event>
<event>
 7    1  0.5559916E-010  0.4778727E+02  0.7816164E-02  0.1312668E+00
        -11   -1    0    0    0    0  0.00000000000E+00  0.00000000000E+00  0.45593999997E+02  0.45594000000E+02  0.51100000000E-03 0. -1.
         11   -1    0    0    0    0 -0.00000000000E+00 -0.00000000000E+00 -0.45593999997E+02  0.45594000000E+02  0.51100000000E-03 0.  1.
    9900012    2    1    2    0    0 -0.24076925418E+02  0.35912947850E+02 -0.37663033329E+01  0.47787271876E+02  0.20000003792E+02 0.  0.
         12    1    1    2    0    0  0.24076925418E+02 -0.35912947850E+02  0.37663033329E+01  0.43400728124E+02  0.00000000000E+00 0. -1.
         11    1    3    3    0    0 -0.26084403009E+01  0.49580184993E+01 -0.48139534699E+01  0.73864779505E+01  0.51100000000E-03 0. -1.
        -11    1    3    3    0    0 -0.22341584310E+02  0.31974926827E+02  0.69727277779E+00  0.39013183985E+02  0.51100000000E-03 0.  1.
        -12    1    3    3    0    0  0.87309919277E+00 -0.10199974763E+01  0.35037735920E+00  0.13876099401E+01  0.00000000000E+00 0.  1.
</event>
<event>
 7    1  0.5559916E-010  0.4778727E+02  0.7816164E-02  0.1312668E+00
        -11   -1    0    0    0    0  0.00000000000E+00  0.00000000000E+00  0.45593999997E+02  0.45594000000E+02  0.51100000000E-03 0.  1.
         11   -1    0    0    0    0 -0.00000000000E+00 -0.00000000000E+00 -0.45593999997E+02  0.45594000000E+02  0.51100000000E-03 0. -1.
    9900012    2    1    2    0    0  0.52018648588E+01  0.26468979455E+01  0.43006483011E+02  0.47787273650E+02  0.20000011878E+02 0.  0.
         12    1    1    2    0    0 -0.52018648588E+01 -0.26468979455E+01 -0.43006483011E+02  0.43400726350E+02  0.00000000000E+00 0. -1.
         11    1    3    3    0    0  0.30680004966E+01  0.46488639397E+01  0.54107785123E+01  0.77653774762E+01  0.51100000000E-03 0. -1.
        -11    1    3    3    0    0  0.37609569774E+01 -0.61876946080E+01  0.32188871514E+02  0.32993269185E+02  0.51100000000E-03 0.  1.
        -12    1    3    3    0    0 -0.16270926153E+01  0.41857286138E+01  0.54068329853E+01  0.70286269881E+01  0.00000000000E+00 0.  1.
</event>
<event>
 7    1  0.5559916E-010  0.4778727E+02  0.7816164E-02  0.1312668E+00
        -11   -1    0    0    0    0  0.00000000000E+00  0.00000000000E+00  0.45593999997E+02  0.45594000000E+02  0.51100000000E-03 0.  1.
         11   -1    0    0    0    0 -0.00000000000E+00 -0.00000000000E+00 -0.45593999997E+02  0.45594000000E+02  0.51100000000E-03 0. -1.
    9900012    2    1    2    0    0  0.34429831534E+01 -0.41180794985E+02 -0.13263165990E+02  0.47787267511E+02  0.19999983888E+02 0.  0.
         12    1    1    2    0    0 -0.34429831534E+01  0.41180794985E+02  0.13263165990E+02  0.43400732489E+02  0.00000000000E+00 0. -1.
         11    1    3    3    0    0 -0.17980864202E+01 -0.23037342403E+02 -0.11063460141E+01  0.23133876924E+02  0.51100000000E-03 0. -1.
        -11    1    3    3    0    0  0.62068020436E+00 -0.15240819858E+02 -0.59082310860E+01  0.16357720767E+02  0.51100000000E-03 0.  1.
         12    1    3    3    0    0  0.46203893693E+01 -0.29026327238E+01 -0.62485888895E+01  0.82956698200E+01  0.00000000000E+00 0. -1.
</event>
<event>
 7    1  0.5559916E-010  0.4778727E+02  0.7816164E-02  0.1312668E+00
        -11   -1    0    0    0    0  0.00000000000E+00  0.00000000000E+00  0.45593999997E+02  0.45594000000E+02  0.51100000000E-03 0.  1.
         11   -1    0    0    0    0 -0.00000000000E+00 -0.00000000000E+00 -0.45593999997E+02  0.45594000000E+02  0.51100000000E-03 0. -1.
    9900012    2    1    2    0    0  0.33521716641E+02 -0.89826458861E+01  0.26062038089E+02  0.47787271400E+02  0.20000001621E+02 0.  0.
         12    1    1    2    0    0 -0.33521716641E+02  0.89826458861E+01 -0.26062038089E+02  0.43400728600E+02  0.00000000000E+00 0. -1.
         11    1    3    3    0    0  0.50451613131E+01 -0.79605139051E+01  0.98705424056E+01  0.13647382238E+02  0.51100000000E-03 0. -1.
        -11    1    3    3    0    0  0.27517491819E+02 -0.29348288829E+01  0.13775485122E+02  0.30912611783E+02  0.51100000000E-03 0.  1.
         12    1    3    3    0    0  0.95906350816E+00  0.19126969019E+01  0.24160105614E+01  0.32272773794E+01  0.00000000000E+00 0. -1.
</event>
<event>
 7    1  0.5559916E-010  0.4778728E+02  0.7816164E-02  0.1312668E+00
        -11   -1    0    0    0    0  0.00000000000E+00  0.00000000000E+00  0.45593999997E+02  0.45594000000E+02  0.51100000000E-03 0.  1.
         11   -1    0    0    0    0 -0.00000000000E+00 -0.00000000000E+00 -0.45593999997E+02  0.45594000000E+02  0.51100000000E-03 0. -1.
    9900012    2    1    2    0    0 -0.18596091859E+02  0.26552184329E+02  0.28858086824E+02  0.47787282261E+02  0.20000051143E+02 0.  0.
         12    1    1    2    0    0  0.18596091859E+02 -0.26552184329E+02 -0.28858086824E+02  0.43400717739E+02  0.00000000000E+00 0. -1.
         11    1    3    3    0    0 -0.12032394590E+02  0.48207215655E+01  0.83082690002E+01  0.15396272602E+02  0.51100000000E-03 0. -1.
        -11    1    3    3    0    0 -0.53252268696E+00  0.94708409613E+01  0.14773039948E+02  0.17556284302E+02  0.51100000000E-03 0.  1.
        -12    1    3    3    0    0 -0.60311745815E+01  0.12260621802E+02  0.57767778763E+01  0.14834725358E+02  0.00000000000E+00 0.  1.
</event>
<event>
 7    1  0.5559916E-010  0.4778729E+02  0.7816164E-02  0.1312668E+00
        -11   -1    0    0    0    0  0.00000000000E+00  0.00000000000E+00  0.45593999997E+02  0.45594000000E+02  0.51100000000E-03 0.  1.
         11   -1    0    0    0    0 -0.00000000000E+00 -0.00000000000E+00 -0.45593999997E+02  0.45594000000E+02  0.51100000000E-03 0. -1.
    9900012    2    1    2    0    0 -0.28829985124E+02  0.12615113501E+02  0.29888340850E+02  0.47787285149E+02  0.20000064306E+02 0.  0.
         12    1    1    2    0    0  0.28829985124E+02 -0.12615113501E+02 -0.29888340850E+02  0.43400714851E+02  0.00000000000E+00 0. -1.
         11    1    3    3    0    0 -0.74325362998E+00 -0.18087681229E+01  0.60843564821E+01  0.63908889947E+01  0.51100000000E-03 0. -1.
        -11    1    3    3    0    0 -0.64990839940E+01  0.41851208871E+01  0.86200938650E-01  0.77305084220E+01  0.51100000000E-03 0.  1.
        -12    1    3    3    0    0 -0.21587647500E+02  0.10238760736E+02  0.23717783429E+02  0.33665887732E+02  0.00000000000E+00 0.  1.
</event>
<event>
 7    1  0.5559916E-010  0.4778733E+02  0.7816164E-02  0.1312668E+00
        -11   -1    0    0    0    0  0.00000000000E+00  0.00000000000E+00  0.45593999997E+02  0.45594000000E+02  0.51100000000E-03 0.  1.
         11   -1    0    0    0    0 -0.00000000000E+00 -0.00000000000E+00 -0.45593999997E+02  0.45594000000E+02  0.51100000000E-03 0. -1.
    9900012    2    1    2    0    0  0.34393853731E+02 -0.41157952517E+01  0.26148453525E+02  0.47787325273E+02  0.20000247248E+02 0.  0.
         12    1    1    2    0    0 -0.34393853731E+02  0.41157952517E+01 -0.26148453525E+02  0.43400674727E+02  0.00000000000E+00 0. -1.
         11    1    3    3    0    0  0.10916245296E+02 -0.63470535295E+01  0.22805598767E+01  0.12831619285E+02  0.51100000000E-03 0. -1.
        -11    1    3    3    0    0  0.44991238325E+01  0.10056799794E+01  0.11181527969E+02  0.12094630026E+02  0.51100000000E-03 0.  1.
        -12    1    3    3    0    0  0.18978484603E+02  0.12255782984E+01  0.12686365679E+02  0.22861075962E+02  0.00000000000E+00 0.  1.
</event>
<event>
 7    1  0.5559916E-010  0.4778727E+02  0.7816164E-02  0.1312668E+00
        -11   -1    0    0    0    0  0.00000000000E+00  0.00000000000E+00  0.45593999997E+02  0.45594000000E+02  0.51100000000E-03 0.  1.
         11   -1    0    0    0    0 -0.00000000000E+00 -0.00000000000E+00 -0.45593999997E+02  0.45594000000E+02  0.51100000000E-03 0. -1.
    9900012    2    1    2    0    0 -0.39316396136E+02 -0.15144391127E+02  0.10415927580E+02  0.47787272644E+02  0.20000007292E+02 0.  0.
         12    1    1    2    0    0  0.39316396136E+02  0.15144391127E+02 -0.10415927580E+02  0.43400727356E+02  0.00000000000E+00 0. -1.
         11    1    3    3    0    0 -0.70991666810E+01  0.23085804912E+01  0.54104669641E+01  0.92195913401E+01  0.51100000000E-03 0. -1.
        -11    1    3    3    0    0 -0.15208164942E+02 -0.14069354589E+02  0.85516772858E+00  0.20735629519E+02  0.51100000000E-03 0.  1.
        -12    1    3    3    0    0 -0.17009064513E+02 -0.33836170299E+01  0.41502928874E+01  0.17832051785E+02  0.00000000000E+00 0.  1.
</event>
<event>
 7    1  0.5559916E-010  0.4778727E+02  0.7816164E-02  0.1312668E+00
        -11   -1    0    0    0    0  0.00000000000E+00  0.00000000000E+00  0.45593999997E+02  0.45594000000E+02  0.51100000000E-03 0.  1.
         11   -1    0    0    0    0 -0.00000000000E+00 -0.00000000000E+00 -0.45593999997E+02  0.45594000000E+02  0.51100000000E-03 0. -1.
    9900012    2    1    2    0    0 -0.26329453576E+02 -0.20572570771E+02  0.27697517190E+02  0.47787271294E+02  0.20000001137E+02 0.  0.
         12    1    1    2    0    0  0.26329453576E+02  0.20572570771E+02 -0.27697517190E+02  0.43400728706E+02  0.00000000000E+00 0. -1.
         11    1    3    3    0    0 -0.67036973704E+01  0.14423153318E+01  0.44737364364E+01  0.81874385441E+01  0.51100000000E-03 0. -1.
        -11    1    3    3    0    0  0.12159453147E+01  0.40603911347E+00  0.20283400680E+00  0.12978954756E+01  0.51100000000E-03 0.  1.
        -12    1    3    3    0    0 -0.20841701520E+02 -0.22420925217E+02  0.23020946747E+02  0.38301937274E+02  0.00000000000E+00 0.  1.
</event>
<event>
 7    1  0.5559916E-010  0.4778725E+02  0.7816164E-02  0.1312668E+00
        -11   -1    0    0    0    0  0.00000000000E+00  0.00000000000E+00  0.45593999997E+02  0.45594000000E+02  0.51100000000E-03 0.  1.
         11   -1    0    0    0    0 -0.00000000000E+00 -0.00000000000E+00 -0.45593999997E+02  0.45594000000E+02  0.51100000000E-03 0. -1.
    9900012    2    1    2    0    0  0.72978645504E+01 -0.15130421467E+02  0.40017950856E+02  0.47787252639E+02  0.19999916083E+02 0.  0.
         12    1    1    2    0    0 -0.72978645504E+01  0.15130421467E+02 -0.40017950856E+02  0.43400747361E+02  0.00000000000E+00 0. -1.
         11    1    3    3    0    0  0.99348563185E+00 -0.14028164500E+02  0.12486172255E+02  0.18806406110E+02  0.51100000000E-03 0. -1.
        -11    1    3    3    0    0  0.73394515944E+01 -0.20708633056E+01  0.22828717315E+02  0.24068783913E+02  0.51100000000E-03 0.  1.
        -12    1    3    3    0    0 -0.10350726759E+01  0.96860633840E+00  0.47030612862E+01  0.49120626161E+01  0.00000000000E+00 0.  1.
</event>
<event>
 7    1  0.5559916E-010  0.4778722E+02  0.7816164E-02  0.1312668E+00
        -11   -1    0    0    0    0  0.00000000000E+00  0.00000000000E+00  0.45593999997E+02  0.45594000000E+02  0.51100000000E-03 0.  1.
         11   -1    0    0    0    0 -0.00000000000E+00 -0.00000000000E+00 -0.45593999997E+02  0.45594000000E+02  0.51100000000E-03 0. -1.
    9900012    2    1    2    0    0 -0.16542233848E+02 -0.59777285831E+01  0.39676802032E+02  0.47787223980E+02  0.19999785412E+02 0.  0.
         12    1    1    2    0    0  0.16542233848E+02  0.59777285831E+01 -0.39676802032E+02  0.43400776020E+02  0.00000000000E+00 0. -1.
         11    1    3    3    0    0 -0.15729396663E+02  0.20827345069E+01  0.20266434889E+02  0.25738688501E+02  0.51100000000E-03 0. -1.
        -11    1    3    3    0    0 -0.20827961819E+01 -0.86002382173E+01  0.14876385712E+02  0.17309216893E+02  0.51100000000E-03 0.  1.
        -12    1    3    3    0    0  0.12699589966E+01  0.53977512724E+00  0.45339814303E+01  0.47393185851E+01  0.00000000000E+00 0.  1.
</event>
<event>
 7    1  0.5559916E-010  0.4778728E+02  0.7816164E-02  0.1312668E+00
        -11   -1    0    0    0    0  0.00000000000E+00  0.00000000000E+00  0.45593999997E+02  0.45594000000E+02  0.51100000000E-03 0. -1.
         11   -1    0    0    0    0 -0.00000000000E+00 -0.00000000000E+00 -0.45593999997E+02  0.45594000000E+02  0.51100000000E-03 0.  1.
    9900012    2    1    2    0    0 -0.24233933716E+02  0.62996782909E+01 -0.35449300271E+02  0.47787281347E+02  0.20000046973E+02 0.  0.
         12    1    1    2    0    0  0.24233933716E+02 -0.62996782909E+01  0.35449300271E+02  0.43400718653E+02  0.00000000000E+00 0. -1.
         11    1    3    3    0    0 -0.13976661137E+01 -0.36465143546E+00 -0.10094892572E+02  0.10197710406E+02  0.51100000000E-03 0. -1.
        -11    1    3    3    0    0 -0.62081033760E+01  0.21010797861E+01 -0.17413346710E+02  0.18605905721E+02  0.51100000000E-03 0.  1.
        -12    1    3    3    0    0 -0.16628164226E+02  0.45632499403E+01 -0.79410609899E+01  0.18983665220E+02  0.00000000000E+00 0.  1.
</event>
<event>
 7    1  0.5559916E-010  0.4778727E+02  0.7816164E-02  0.1312668E+00
        -11   -1    0    0    0    0  0.00000000000E+00  0.00000000000E+00  0.45593999997E+02  0.45594000000E+02  0.51100000000E-03 0.  1.
         11   -1    0    0    0    0 -0.00000000000E+00 -0.00000000000E+00 -0.45593999997E+02  0.45594000000E+02  0.51100000000E-03 0. -1.
    9900012    2    1    2    0    0  0.16195359794E+02 -0.39525150784E+02 -0.76873944252E+01  0.47787271246E+02  0.20000000919E+02 0.  0.
         12    1    1    2    0    0 -0.16195359794E+02  0.39525150784E+02  0.76873944252E+01  0.43400728754E+02  0.00000000000E+00 0. -1.
         11    1    3    3    0    0  0.17102671026E+02 -0.22179252034E+02  0.64773866190E+00  0.28014998530E+02  0.51100000000E-03 0.  1.
        -11    1    3    3    0    0 -0.35533393884E-01  0.25885015459E+00 -0.30889246596E+00  0.40457488956E+00  0.51100000000E-03 0. -1.
         12    1    3    3    0    0 -0.87177783802E+00 -0.17604748904E+02 -0.80262406212E+01  0.19367697826E+02  0.00000000000E+00 0. -1.
</event>
<event>
 7    1  0.5559916E-010  0.4778727E+02  0.7816164E-02  0.1312668E+00
        -11   -1    0    0    0    0  0.00000000000E+00  0.00000000000E+00  0.45593999997E+02  0.45594000000E+02  0.51100000000E-03 0.  1.
         11   -1    0    0    0    0 -0.00000000000E+00 -0.00000000000E+00 -0.45593999997E+02  0.45594000000E+02  0.51100000000E-03 0. -1.
    9900012    2    1    2    0    0 -0.18629505261E+02  0.48949100660E+01  0.38892219661E+02  0.47787270041E+02  0.19999995424E+02 0.  0.
         12    1    1    2    0    0  0.18629505261E+02 -0.48949100660E+01 -0.38892219661E+02  0.43400729959E+02  0.00000000000E+00 0. -1.
         11    1    3    3    0    0 -0.12201309847E+02 -0.40554274237E+01  0.22760494943E+02  0.26141128207E+02  0.51100000000E-03 0. -1.
        -11    1    3    3    0    0 -0.71548621434E+01  0.59583509885E+01  0.60479543037E+01  0.11102781197E+02  0.51100000000E-03 0.  1.
        -12    1    3    3    0    0  0.72666672957E+00  0.29919865012E+01  0.10083770414E+02  0.10543360637E+02  0.00000000000E+00 0.  1.
</event>
<event>
 7    1  0.5559916E-010  0.4778727E+02  0.7816164E-02  0.1312668E+00
        -11   -1    0    0    0    0  0.00000000000E+00  0.00000000000E+00  0.45593999997E+02  0.45594000000E+02  0.51100000000E-03 0.  1.
         11   -1    0    0    0    0 -0.00000000000E+00 -0.00000000000E+00 -0.45593999997E+02  0.45594000000E+02  0.51100000000E-03 0. -1.
    9900012    2    1    2    0    0  0.14264049096E+02 -0.39644031415E+02 -0.10416858474E+02  0.47787271159E+02  0.20000000522E+02 0.  0.
         12    1    1    2    0    0 -0.14264049096E+02  0.39644031415E+02  0.10416858474E+02  0.43400728841E+02  0.00000000000E+00 0. -1.
         11    1    3    3    0    0 -0.15699141273E+01 -0.11556991774E+02  0.17384988000E+01  0.11791991671E+02  0.51100000000E-03 0. -1.
        -11    1    3    3    0    0  0.60062876000E+01 -0.82320062538E+01  0.98421498158E+00  0.10237680259E+02  0.51100000000E-03 0.  1.
         12    1    3    3    0    0  0.98276756235E+01 -0.19855033388E+02 -0.13139572255E+02  0.25757599229E+02  0.00000000000E+00 0. -1.
</event>
<event>
 7    1  0.5559916E-010  0.4778727E+02  0.7816164E-02  0.1312668E+00
        -11   -1    0    0    0    0  0.00000000000E+00  0.00000000000E+00  0.45593999997E+02  0.45594000000E+02  0.51100000000E-03 0.  1.
         11   -1    0    0    0    0 -0.00000000000E+00 -0.00000000000E+00 -0.45593999997E+02  0.45594000000E+02  0.51100000000E-03 0. -1.
    9900012    2    1    2    0    0 -0.15360206822E+02  0.72622409517E+01  0.39936789583E+02  0.47787271211E+02  0.20000000759E+02 0.  0.
         12    1    1    2    0    0  0.15360206822E+02 -0.72622409517E+01 -0.39936789583E+02  0.43400728789E+02  0.00000000000E+00 0. -1.
         11    1    3    3    0    0 -0.22564859831E+01  0.76119323228E+01  0.39405971104E+01  0.88634952771E+01  0.51100000000E-03 0. -1.
        -11    1    3    3    0    0 -0.74310892719E+01 -0.34923689546E+01  0.22474231023E+02  0.23927155891E+02  0.51100000000E-03 0.  1.
         12    1    3    3    0    0 -0.56726315667E+01  0.31426775835E+01  0.13521961449E+02  0.14996620043E+02  0.00000000000E+00 0. -1.
</event>
<event>
 7    1  0.5559916E-010  0.4778726E+02  0.7816164E-02  0.1312668E+00
        -11   -1    0    0    0    0  0.00000000000E+00  0.00000000000E+00  0.45593999997E+02  0.45594000000E+02  0.51100000000E-03 0.  1.
         11   -1    0    0    0    0 -0.00000000000E+00 -0.00000000000E+00 -0.45593999997E+02  0.45594000000E+02  0.51100000000E-03 0. -1.
    9900012    2    1    2    0    0 -0.36409723890E+02 -0.15035434751E+02  0.18217892945E+02  0.47787263655E+02  0.19999966310E+02 0.  0.
         12    1    1    2    0    0  0.36409723890E+02  0.15035434751E+02 -0.18217892945E+02  0.43400736345E+02  0.00000000000E+00 0. -1.
         11    1    3    3    0    0 -0.26297610998E+02 -0.91353421463E+01  0.62373218808E+01  0.28529335864E+02  0.51100000000E-03 0. -1.
        -11    1    3    3    0    0 -0.96723262014E+01 -0.61234110629E+01  0.53973951789E+01  0.12656300098E+02  0.51100000000E-03 0.  1.
         12    1    3    3    0    0 -0.43978669085E+00  0.22331845809E+00  0.65831758851E+01  0.66016276933E+01  0.00000000000E+00 0. -1.
</event>
<event>
 7    1  0.5559916E-010  0.4778723E+02  0.7816164E-02  0.1312668E+00
        -11   -1    0    0    0    0  0.00000000000E+00  0.00000000000E+00  0.45593999997E+02  0.45594000000E+02  0.51100000000E-03 0. -1.
         11   -1    0    0    0    0 -0.00000000000E+00 -0.00000000000E+00 -0.45593999997E+02  0.45594000000E+02  0.51100000000E-03 0.  1.
    9900012    2    1    2    0    0 -0.80869030726E+01  0.99786473804E+01 -0.41456672963E+02  0.47787226527E+02  0.19999797027E+02 0.  0.
         12    1    1    2    0    0  0.80869030726E+01 -0.99786473804E+01  0.41456672963E+02  0.43400773473E+02  0.00000000000E+00 0. -1.
         11    1    3    3    0    0 -0.94189025292E+01  0.16508356974E+01 -0.25567366401E+02  0.27297091572E+02  0.51100000000E-03 0. -1.
        -11    1    3    3    0    0 -0.20330243661E+01  0.66021252999E-01 -0.89774235262E+01  0.92049812770E+01  0.51100000000E-03 0.  1.
         12    1    3    3    0    0  0.33650238227E+01  0.82617904299E+01 -0.69118830363E+01  0.11285153678E+02  0.00000000000E+00 0. -1.
</event>
<event>
 7    1  0.5559916E-010  0.4778727E+02  0.7816164E-02  0.1312668E+00
        -11   -1    0    0    0    0  0.00000000000E+00  0.00000000000E+00  0.45593999997E+02  0.45594000000E+02  0.51100000000E-03 0.  1.
         11   -1    0    0    0    0 -0.00000000000E+00 -0.00000000000E+00 -0.45593999997E+02  0.45594000000E+02  0.51100000000E-03 0. -1.
    9900012    2    1    2    0    0  0.43100953986E+02  0.50101590423E+01  0.91072163450E+00  0.47787270259E+02  0.19999996419E+02 0.  0.
         12    1    1    2    0    0 -0.43100953986E+02 -0.50101590423E+01 -0.91072163450E+00  0.43400729741E+02  0.00000000000E+00 0. -1.
         11    1    3    3    0    0  0.57488769998E+01  0.77330249021E+01  0.26129510164E+01  0.99838256280E+01  0.51100000000E-03 0. -1.
        -11    1    3    3    0    0  0.32623029903E+02 -0.32547941202E+01 -0.28483921247E+01  0.32908495905E+02  0.51100000000E-03 0.  1.
         12    1    3    3    0    0  0.47290470837E+01  0.53192826037E+00  0.11461627428E+01  0.48949487256E+01  0.00000000000E+00 0. -1.
</event>
<event>
 7    1  0.5559916E-010  0.4778727E+02  0.7816164E-02  0.1312668E+00
        -11   -1    0    0    0    0  0.00000000000E+00  0.00000000000E+00  0.45593999997E+02  0.45594000000E+02  0.51100000000E-03 0. -1.
         11   -1    0    0    0    0 -0.00000000000E+00 -0.00000000000E+00 -0.45593999997E+02  0.45594000000E+02  0.51100000000E-03 0.  1.
    9900012    2    1    2    0    0 -0.30445799894E+01 -0.40719712293E+02 -0.14705733591E+02  0.47787273774E+02  0.20000012445E+02 0.  0.
         12    1    1    2    0    0  0.30445799894E+01  0.40719712293E+02  0.14705733591E+02  0.43400726226E+02  0.00000000000E+00 0. -1.
         11    1    3    3    0    0 -0.28350362464E+01 -0.30522032877E+01 -0.39335200781E+01  0.57293940250E+01  0.51100000000E-03 0. -1.
        -11    1    3    3    0    0 -0.35503816483E+01 -0.34765308321E+02 -0.12764977198E+02  0.37204522784E+02  0.51100000000E-03 0.  1.
        -12    1    3    3    0    0  0.33408379053E+01 -0.29022006841E+01  0.19927636851E+01  0.48533569645E+01  0.00000000000E+00 0.  1.
</event>
<event>
 7    1  0.5559916E-010  0.4778727E+02  0.7816164E-02  0.1312668E+00
        -11   -1    0    0    0    0  0.00000000000E+00  0.00000000000E+00  0.45593999997E+02  0.45594000000E+02  0.51100000000E-03 0.  1.
         11   -1    0    0    0    0 -0.00000000000E+00 -0.00000000000E+00 -0.45593999997E+02  0.45594000000E+02  0.51100000000E-03 0. -1.
    9900012    2    1    2    0    0  0.33019963279E+02 -0.20604614187E+02  0.19203003557E+02  0.47787269057E+02  0.19999990939E+02 0.  0.
         12    1    1    2    0    0 -0.33019963279E+02  0.20604614187E+02 -0.19203003557E+02  0.43400730943E+02  0.00000000000E+00 0. -1.
         11    1    3    3    0    0  0.24086295647E+02 -0.17359992164E+02  0.64722111245E+01  0.30387637010E+02  0.51100000000E-03 0. -1.
        -11    1    3    3    0    0  0.47376262870E+01 -0.48291020523E+01  0.10229485404E+02  0.12264081758E+02  0.51100000000E-03 0.  1.
         12    1    3    3    0    0  0.41960413448E+01  0.15844800286E+01  0.25013070282E+01  0.51355502897E+01  0.00000000000E+00 0. -1.
</event>
<event>
 7    1  0.5559916E-010  0.4778729E+02  0.7816164E-02  0.1312668E+00
        -11   -1    0    0    0    0  0.00000000000E+00  0.00000000000E+00  0.45593999997E+02  0.45594000000E+02  0.51100000000E-03 0.  1.
         11   -1    0    0    0    0 -0.00000000000E+00 -0.00000000000E+00 -0.45593999997E+02  0.45594000000E+02  0.51100000000E-03 0. -1.
    9900012    2    1    2    0    0 -0.39052054434E+02 -0.18666622805E+02  0.31805528035E+01  0.47787289423E+02  0.20000083793E+02 0.  0.
         12    1    1    2    0    0  0.39052054434E+02  0.18666622805E+02 -0.31805528035E+01  0.43400710577E+02  0.00000000000E+00 0. -1.
         11    1    3    3    0    0 -0.39440865614E+01  0.44964504512E+00  0.12248982349E+01  0.41543200909E+01  0.51100000000E-03 0. -1.
        -11    1    3    3    0    0  0.19042787356E+01 -0.15412859340E+00 -0.49612444292E+00  0.19738725517E+01  0.51100000000E-03 0.  1.
        -12    1    3    3    0    0 -0.37012246608E+02 -0.18962139257E+02  0.24517790115E+01  0.41659096780E+02  0.00000000000E+00 0.  1.
</event>
<event>
 7    1  0.5559916E-010  0.4778728E+02  0.7816164E-02  0.1312668E+00
        -11   -1    0    0    0    0  0.00000000000E+00  0.00000000000E+00  0.45593999997E+02  0.45594000000E+02  0.51100000000E-03 0.  1.
         11   -1    0    0    0    0 -0.00000000000E+00 -0.00000000000E+00 -0.45593999997E+02  0.45594000000E+02  0.51100000000E-03 0. -1.
    9900012    2    1    2    0    0  0.25029449325E+02  0.19855103438E+02  0.29375561460E+02  0.47787284831E+02  0.20000062859E+02 0.  0.
         12    1    1    2    0    0 -0.25029449325E+02 -0.19855103438E+02 -0.29375561460E+02  0.43400715169E+02  0.00000000000E+00 0. -1.
         11    1    3    3    0    0  0.23950640315E+00  0.54860932397E+01  0.80124774703E+01  0.97136181635E+01  0.51100000000E-03 0. -1.
        -11    1    3    3    0    0  0.21463920113E+01  0.62721809579E+01  0.85703241131E+01  0.10835022303E+02  0.51100000000E-03 0.  1.
        -12    1    3    3    0    0  0.22643550910E+02  0.80968292408E+01  0.12792759877E+02  0.27238644365E+02  0.00000000000E+00 0.  1.
</event>
<event>
 7    1  0.5559916E-010  0.4778727E+02  0.7816164E-02  0.1312668E+00
        -11   -1    0    0    0    0  0.00000000000E+00  0.00000000000E+00  0.45593999997E+02  0.45594000000E+02  0.51100000000E-03 0.  1.
         11   -1    0    0    0    0 -0.00000000000E+00 -0.00000000000E+00 -0.45593999997E+02  0.45594000000E+02  0.51100000000E-03 0. -1.
    9900012    2    1    2    0    0  0.26844737133E+02  0.17139499208E+02  0.29482548858E+02  0.47787273831E+02  0.20000012706E+02 0.  0.
         12    1    1    2    0    0 -0.26844737133E+02 -0.17139499208E+02 -0.29482548858E+02  0.43400726169E+02  0.00000000000E+00 0. -1.
         11    1    3    3    0    0  0.88482191728E+01  0.14300290172E+02  0.57465507728E+01  0.17771103724E+02  0.51100000000E-03 0. -1.
        -11    1    3    3    0    0  0.90268324041E+01  0.53486112247E+00  0.13031941810E+02  0.15861944625E+02  0.51100000000E-03 0.  1.
         12    1    3    3    0    0  0.89696855558E+01  0.23043479142E+01  0.10704056274E+02  0.14154225482E+02  0.00000000000E+00 0. -1.
</event>
<event>
 7    1  0.5559916E-010  0.4778726E+02  0.7816164E-02  0.1312668E+00
        -11   -1    0    0    0    0  0.00000000000E+00  0.00000000000E+00  0.45593999997E+02  0.45594000000E+02  0.51100000000E-03 0.  1.
         11   -1    0    0    0    0 -0.00000000000E+00 -0.00000000000E+00 -0.45593999997E+02  0.45594000000E+02  0.51100000000E-03 0. -1.
    9900012    2    1    2    0    0  0.14523244525E+02 -0.13826181613E+02  0.38490731417E+02  0.47787258825E+02  0.19999944287E+02 0.  0.
         12    1    1    2    0    0 -0.14523244525E+02  0.13826181613E+02 -0.38490731417E+02  0.43400741175E+02  0.00000000000E+00 0. -1.
         11    1    3    3    0    0 -0.45371721668E+01 -0.34179586847E+01  0.46487724501E+01  0.73402628288E+01  0.51100000000E-03 0. -1.
        -11    1    3    3    0    0  0.29007329700E+01 -0.22318052486E+01  0.89025754565E+01  0.96255418783E+01  0.51100000000E-03 0.  1.
         12    1    3    3    0    0  0.16159683722E+02 -0.81764176794E+01  0.24939383510E+02  0.30821454118E+02  0.00000000000E+00 0. -1.
</event>
<event>
 7    1  0.5559916E-010  0.4778727E+02  0.7816164E-02  0.1312668E+00
        -11   -1    0    0    0    0  0.00000000000E+00  0.00000000000E+00  0.45593999997E+02  0.45594000000E+02  0.51100000000E-03 0.  1.
         11   -1    0    0    0    0 -0.00000000000E+00 -0.00000000000E+00 -0.45593999997E+02  0.45594000000E+02  0.51100000000E-03 0. -1.
    9900012    2    1    2    0    0  0.64706417230E+01 -0.12079399739E+02  0.41180600696E+02  0.47787274475E+02  0.20000015642E+02 0.  0.
         12    1    1    2    0    0 -0.64706417230E+01  0.12079399739E+02 -0.41180600696E+02  0.43400725525E+02  0.00000000000E+00 0. -1.
         11    1    3    3    0    0  0.20513622823E+01  0.21801767254E+01 -0.32329279763E+00  0.30109427529E+01  0.51100000000E-03 0. -1.
        -11    1    3    3    0    0  0.41464445840E+01 -0.28797345083E+01  0.87641097963E+01  0.10114123507E+02  0.51100000000E-03 0.  1.
         12    1    3    3    0    0  0.27283485671E+00 -0.11379841956E+02  0.32739783698E+02  0.34662208216E+02  0.00000000000E+00 0. -1.
</event>
<event>
 7    1  0.5559916E-010  0.4778727E+02  0.7816164E-02  0.1312668E+00
        -11   -1    0    0    0    0  0.00000000000E+00  0.00000000000E+00  0.45593999997E+02  0.45594000000E+02  0.51100000000E-03 0.  1.
         11   -1    0    0    0    0 -0.00000000000E+00 -0.00000000000E+00 -0.45593999997E+02  0.45594000000E+02  0.51100000000E-03 0. -1.
    9900012    2    1    2    0    0 -0.24546241120E+02 -0.35739875741E+02  0.19408197517E+01  0.47787268988E+02  0.19999990624E+02 0.  0.
         12    1    1    2    0    0  0.24546241120E+02  0.35739875741E+02 -0.19408197517E+01  0.43400731012E+02  0.00000000000E+00 0. -1.
         11    1    3    3    0    0 -0.93080848958E+01 -0.17877838969E+02 -0.46883228295E+01  0.20693910743E+02  0.51100000000E-03 0. -1.
        -11    1    3    3    0    0 -0.14580596012E+02 -0.89759635262E+01  0.26148782754E+01  0.17320487578E+02  0.51100000000E-03 0.  1.
        -12    1    3    3    0    0 -0.65756021208E+00 -0.88860732457E+01  0.40142643058E+01  0.97728706671E+01  0.00000000000E+00 0.  1.
</event>
<event>
 7    1  0.5559916E-010  0.4778727E+02  0.7816164E-02  0.1312668E+00
        -11   -1    0    0    0    0  0.00000000000E+00  0.00000000000E+00  0.45593999997E+02  0.45594000000E+02  0.51100000000E-03 0.  1.
         11   -1    0    0    0    0 -0.00000000000E+00 -0.00000000000E+00 -0.45593999997E+02  0.45594000000E+02  0.51100000000E-03 0. -1.
    9900012    2    1    2    0    0 -0.22774737416E+02 -0.15504091710E+02  0.33534425619E+02  0.47787271599E+02  0.20000002529E+02 0.  0.
         12    1    1    2    0    0  0.22774737416E+02  0.15504091710E+02 -0.33534425619E+02  0.43400728401E+02  0.00000000000E+00 0. -1.
         11    1    3    3    0    0 -0.47637819458E+01 -0.10920859003E+02  0.56201249252E+01  0.13173632158E+02  0.51100000000E-03 0. -1.
        -11    1    3    3    0    0 -0.10957431783E+02 -0.69286632549E+01  0.16344639166E+02  0.20861901052E+02  0.51100000000E-03 0.  1.
         12    1    3    3    0    0 -0.70535236866E+01  0.23454305479E+01  0.11569661528E+02  0.13751738389E+02  0.00000000000E+00 0. -1.
</event>
<event>
 7    1  0.5559916E-010  0.4778728E+02  0.7816164E-02  0.1312668E+00
        -11   -1    0    0    0    0  0.00000000000E+00  0.00000000000E+00  0.45593999997E+02  0.45594000000E+02  0.51100000000E-03 0.  1.
         11   -1    0    0    0    0 -0.00000000000E+00 -0.00000000000E+00 -0.45593999997E+02  0.45594000000E+02  0.51100000000E-03 0. -1.
    9900012    2    1    2    0    0  0.38254273136E+02 -0.99548980673E+01  0.17920182020E+02  0.47787281892E+02  0.20000049459E+02 0.  0.
         12    1    1    2    0    0 -0.38254273136E+02  0.99548980673E+01 -0.17920182020E+02  0.43400718108E+02  0.00000000000E+00 0. -1.
         11    1    3    3    0    0  0.18156019138E+01 -0.13887051410E+01 -0.38256610676E+00  0.23175999149E+01  0.51100000000E-03 0. -1.
        -11    1    3    3    0    0 -0.62304342721E+00 -0.29791384311E+01 -0.11354430300E+01  0.32484888856E+01  0.51100000000E-03 0.  1.
        -12    1    3    3    0    0  0.37061714649E+02 -0.55870544951E+01  0.19438191156E+02  0.42221193092E+02  0.00000000000E+00 0.  1.
</event>
<event>
 7    1  0.5559916E-010  0.4778727E+02  0.7816164E-02  0.1312668E+00
        -11   -1    0    0    0    0  0.00000000000E+00  0.00000000000E+00  0.45593999997E+02  0.45594000000E+02  0.51100000000E-03 0.  1.
         11   -1    0    0    0    0 -0.00000000000E+00 -0.00000000000E+00 -0.45593999997E+02  0.45594000000E+02  0.51100000000E-03 0. -1.
    9900012    2    1    2    0    0 -0.14604398009E+02 -0.28490573931E+01  0.40770301270E+02  0.47787273798E+02  0.20000012555E+02 0.  0.
         12    1    1    2    0    0  0.14604398009E+02  0.28490573931E+01 -0.40770301270E+02  0.43400726202E+02  0.00000000000E+00 0. -1.
         11    1    3    3    0    0 -0.73195080348E+01 -0.43508402224E+01  0.93452275248E+01  0.12642716728E+02  0.51100000000E-03 0. -1.
        -11    1    3    3    0    0  0.81129346704E+00 -0.13732204379E+01  0.23186467150E+02  0.23241260521E+02  0.51100000000E-03 0.  1.
        -12    1    3    3    0    0 -0.80961834414E+01  0.28750032673E+01  0.82386065954E+01  0.11903296549E+02  0.00000000000E+00 0.  1.
</event>
<event>
 7    1  0.5559916E-010  0.4778730E+02  0.7816164E-02  0.1312668E+00
        -11   -1    0    0    0    0  0.00000000000E+00  0.00000000000E+00  0.45593999997E+02  0.45594000000E+02  0.51100000000E-03 0. -1.
         11   -1    0    0    0    0 -0.00000000000E+00 -0.00000000000E+00 -0.45593999997E+02  0.45594000000E+02  0.51100000000E-03 0.  1.
    9900012    2    1    2    0    0 -0.58897942238E+01  0.25636070119E+02 -0.34521340637E+02  0.47787300391E+02  0.20000133804E+02 0.  0.
         12    1    1    2    0    0  0.58897942238E+01 -0.25636070119E+02  0.34521340637E+02  0.43400699609E+02  0.00000000000E+00 0. -1.
         11    1    3    3    0    0 -0.50546392199E+00  0.31737524319E+00 -0.74296495671E+01  0.74535839549E+01  0.51100000000E-03 0. -1.
        -11    1    3    3    0    0 -0.68605223241E+00  0.22194772832E+02 -0.26629332509E+02  0.34672755282E+02  0.51100000000E-03 0.  1.
        -12    1    3    3    0    0 -0.46982780694E+01  0.31239220433E+01 -0.46235856117E+00  0.56609611542E+01  0.00000000000E+00 0.  1.
</event>
<event>
 7    1  0.5559916E-010  0.4778727E+02  0.7816164E-02  0.1312668E+00
        -11   -1    0    0    0    0  0.00000000000E+00  0.00000000000E+00  0.45593999997E+02  0.45594000000E+02  0.51100000000E-03 0.  1.
         11   -1    0    0    0    0 -0.00000000000E+00 -0.00000000000E+00 -0.45593999997E+02  0.45594000000E+02  0.51100000000E-03 0. -1.
    9900012    2    1    2    0    0  0.21719002365E+02 -0.10456456926E+02  0.36091142657E+02  0.47787272662E+02  0.20000007376E+02 0.  0.
         12    1    1    2    0    0 -0.21719002365E+02  0.10456456926E+02 -0.36091142657E+02  0.43400727338E+02  0.00000000000E+00 0. -1.
         11    1    3    3    0    0  0.80559086282E+01  0.15256077649E+01  0.21144080418E+02  0.22678123376E+02  0.51100000000E-03 0. -1.
        -11    1    3    3    0    0  0.13705470208E+02 -0.12484699204E+02  0.11920870642E+02  0.22041206522E+02  0.51100000000E-03 0.  1.
        -12    1    3    3    0    0 -0.42376471315E-01  0.50263451359E+00  0.30261915975E+01  0.30679427642E+01  0.00000000000E+00 0.  1.
</event>
<event>
 7    1  0.5559916E-010  0.4778727E+02  0.7816164E-02  0.1312668E+00
        -11   -1    0    0    0    0  0.00000000000E+00  0.00000000000E+00  0.45593999997E+02  0.45594000000E+02  0.51100000000E-03 0.  1.
         11   -1    0    0    0    0 -0.00000000000E+00 -0.00000000000E+00 -0.45593999997E+02  0.45594000000E+02  0.51100000000E-03 0. -1.
    9900012    2    1    2    0    0  0.30967655260E+02 -0.27086305674E+01  0.30286808902E+02  0.47787272526E+02  0.20000006755E+02 0.  0.
         12    1    1    2    0    0 -0.30967655260E+02  0.27086305674E+01 -0.30286808902E+02  0.43400727474E+02  0.00000000000E+00 0. -1.
         11    1    3    3    0    0  0.67886488287E+01  0.17753005585E+01  0.12629962367E+02  0.14448300753E+02  0.51100000000E-03 0. -1.
        -11    1    3    3    0    0  0.16142172310E+02 -0.83630088938E+01  0.16091919168E+02  0.24278787190E+02  0.51100000000E-03 0.  1.
        -12    1    3    3    0    0  0.80368341208E+01  0.38790777679E+01  0.15649273664E+01  0.90601845829E+01  0.00000000000E+00 0.  1.
</event>
<event>
 7    1  0.5559916E-010  0.4778727E+02  0.7816164E-02  0.1312668E+00
        -11   -1    0    0    0    0  0.00000000000E+00  0.00000000000E+00  0.45593999997E+02  0.45594000000E+02  0.51100000000E-03 0.  1.
         11   -1    0    0    0    0 -0.00000000000E+00 -0.00000000000E+00 -0.45593999997E+02  0.45594000000E+02  0.51100000000E-03 0. -1.
    9900012    2    1    2    0    0 -0.26161279912E+02  0.36454713897E+01  0.34437205617E+02  0.47787272368E+02  0.20000006033E+02 0.  0.
         12    1    1    2    0    0  0.26161279912E+02 -0.36454713897E+01 -0.34437205617E+02  0.43400727632E+02  0.00000000000E+00 0. -1.
         11    1    3    3    0    0 -0.12581871039E+02  0.98355258391E+01  0.15905354584E+02  0.22539329007E+02  0.51100000000E-03 0. -1.
        -11    1    3    3    0    0 -0.48843712742E+01 -0.65117485478E+01  0.11342233171E+02  0.13960881257E+02  0.51100000000E-03 0.  1.
         12    1    3    3    0    0 -0.86950375986E+01  0.32169409846E+00  0.71896178620E+01  0.11287062104E+02  0.00000000000E+00 0. -1.
</event>
<event>
 7    1  0.5559916E-010  0.4778727E+02  0.7816164E-02  0.1312668E+00
        -11   -1    0    0    0    0  0.00000000000E+00  0.00000000000E+00  0.45593999997E+02  0.45594000000E+02  0.51100000000E-03 0. -1.
         11   -1    0    0    0    0 -0.00000000000E+00 -0.00000000000E+00 -0.45593999997E+02  0.45594000000E+02  0.51100000000E-03 0.  1.
    9900012    2    1    2    0    0  0.12980249108E+02  0.32353918174E+02 -0.25852663493E+02  0.47787273073E+02  0.20000009249E+02 0.  0.
         12    1    1    2    0    0 -0.12980249108E+02 -0.32353918174E+02  0.25852663493E+02  0.43400726927E+02  0.00000000000E+00 0. -1.
         11    1    3    3    0    0  0.35964106186E+01  0.35459242698E+01  0.23171890848E+01  0.55567178965E+01  0.51100000000E-03 0. -1.
        -11    1    3    3    0    0 -0.84803775160E+00  0.70059355764E+01 -0.40080200649E+01  0.81158195168E+01  0.51100000000E-03 0.  1.
         12    1    3    3    0    0  0.10231876241E+02  0.21802058328E+02 -0.24161832513E+02  0.34114735660E+02  0.00000000000E+00 0. -1.
</event>
<event>
 7    1  0.5559916E-010  0.4778727E+02  0.7816164E-02  0.1312668E+00
        -11   -1    0    0    0    0  0.00000000000E+00  0.00000000000E+00  0.45593999997E+02  0.45594000000E+02  0.51100000000E-03 0.  1.
         11   -1    0    0    0    0 -0.00000000000E+00 -0.00000000000E+00 -0.45593999997E+02  0.45594000000E+02  0.51100000000E-03 0. -1.
    9900012    2    1    2    0    0  0.48800395227E+01 -0.34531416139E+02  0.25833888727E+02  0.47787270824E+02  0.19999998993E+02 0.  0.
         12    1    1    2    0    0 -0.48800395227E+01  0.34531416139E+02 -0.25833888727E+02  0.43400729176E+02  0.00000000000E+00 0. -1.
         11    1    3    3    0    0  0.84990384585E+01 -0.12245174866E+02  0.73514385973E+01  0.16619916122E+02  0.51100000000E-03 0. -1.
        -11    1    3    3    0    0  0.35314622536E+01 -0.10876800830E+02  0.10433397186E+02  0.15480045188E+02  0.51100000000E-03 0.  1.
         12    1    3    3    0    0 -0.71504611895E+01 -0.11409440444E+02  0.80490529436E+01  0.15687309513E+02  0.00000000000E+00 0. -1.
</event>
<event>
 7    1  0.5559916E-010  0.4778727E+02  0.7816164E-02  0.1312668E+00
        -11   -1    0    0    0    0  0.00000000000E+00  0.00000000000E+00  0.45593999997E+02  0.45594000000E+02  0.51100000000E-03 0.  1.
         11   -1    0    0    0    0 -0.00000000000E+00 -0.00000000000E+00 -0.45593999997E+02  0.45594000000E+02  0.51100000000E-03 0. -1.
    9900012    2    1    2    0    0 -0.62305550792E+00 -0.32277197762E+02  0.29007196359E+02  0.47787272654E+02  0.20000007340E+02 0.  0.
         12    1    1    2    0    0  0.62305550792E+00  0.32277197762E+02 -0.29007196359E+02  0.43400727346E+02  0.00000000000E+00 0. -1.
         11    1    3    3    0    0  0.44053933649E+01 -0.15331892841E+02  0.16732439732E+02  0.23118152358E+02  0.51100000000E-03 0. -1.
        -11    1    3    3    0    0 -0.60341452241E+01 -0.19762121642E+01  0.29203522180E+01  0.69889040945E+01  0.51100000000E-03 0.  1.
         12    1    3    3    0    0  0.10056963513E+01 -0.14969092757E+02  0.93544044089E+01  0.17680216202E+02  0.00000000000E+00 0. -1.
</event>
<event>
 7    1  0.5559916E-010  0.4778727E+02  0.7816164E-02  0.1312668E+00
        -11   -1    0    0    0    0  0.00000000000E+00  0.00000000000E+00  0.45593999997E+02  0.45594000000E+02  0.51100000000E-03 0. -1.
         11   -1    0    0    0    0 -0.00000000000E+00 -0.00000000000E+00 -0.45593999997E+02  0.45594000000E+02  0.51100000000E-03 0.  1.
    9900012    2    1    2    0    0 -0.13301511655E+02  0.11004188732E+02 -0.39819602896E+02  0.47787272394E+02  0.20000006151E+02 0.  0.
         12    1    1    2    0    0  0.13301511655E+02 -0.11004188732E+02  0.39819602896E+02  0.43400727606E+02  0.00000000000E+00 0. -1.
         11    1    3    3    0    0 -0.65333445317E+01  0.32849265111E+01 -0.31456778557E+02  0.32295576329E+02  0.51100000000E-03 0. -1.
        -11    1    3    3    0    0  0.24238005004E+00  0.28770747846E+01 -0.59863197594E+01  0.66462268941E+01  0.51100000000E-03 0.  1.
         12    1    3    3    0    0 -0.70105471730E+01  0.48421874360E+01 -0.23765045795E+01  0.88454691705E+01  0.00000000000E+00 0. -1.
</event>
<event>
 7    1  0.5559916E-010  0.4778726E+02  0.7816164E-02  0.1312668E+00
        -11   -1    0    0    0    0  0.00000000000E+00  0.00000000000E+00  0.45593999997E+02  0.45594000000E+02  0.51100000000E-03 0.  1.
         11   -1    0    0    0    0 -0.00000000000E+00 -0.00000000000E+00 -0.45593999997E+02  0.45594000000E+02  0.51100000000E-03 0. -1.
    9900012    2    1    2    0    0  0.23510002222E+02  0.34353720907E+02  0.12277037915E+02  0.47787262627E+02  0.19999961620E+02 0.  0.
         12    1    1    2    0    0 -0.23510002222E+02 -0.34353720907E+02 -0.12277037915E+02  0.43400737373E+02  0.00000000000E+00 0. -1.
         11    1    3    3    0    0  0.57443234794E+00  0.70662571654E+01  0.67042720182E+01  0.97575215299E+01  0.51100000000E-03 0. -1.
        -11    1    3    3    0    0  0.88411217050E+01  0.14005221879E+02 -0.30317394048E+01  0.16837550801E+02  0.51100000000E-03 0.  1.
        -12    1    3    3    0    0  0.14094448169E+02  0.13282241862E+02  0.86045053011E+01  0.21192190296E+02  0.00000000000E+00 0.  1.
</event>
<event>
 7    1  0.5559916E-010  0.4778727E+02  0.7816164E-02  0.1312668E+00
        -11   -1    0    0    0    0  0.00000000000E+00  0.00000000000E+00  0.45593999997E+02  0.45594000000E+02  0.51100000000E-03 0. -1.
         11   -1    0    0    0    0 -0.00000000000E+00 -0.00000000000E+00 -0.45593999997E+02  0.45594000000E+02  0.51100000000E-03 0.  1.
    9900012    2    1    2    0    0  0.58766547393E+01 -0.40822547349E+02 -0.13513235190E+02  0.47787274565E+02  0.20000016053E+02 0.  0.
         12    1    1    2    0    0 -0.58766547393E+01  0.40822547349E+02  0.13513235190E+02  0.43400725435E+02  0.00000000000E+00 0. -1.
         11    1    3    3    0    0  0.36509165905E+01 -0.18254896780E+01 -0.41391030330E-01  0.40820727571E+01  0.51100000000E-03 0. -1.
        -11    1    3    3    0    0  0.22370886970E+01 -0.37370258916E+02 -0.15988598312E+02  0.40708427795E+02  0.51100000000E-03 0.  1.
        -12    1    3    3    0    0 -0.11350548243E-01 -0.16267987546E+01  0.25167541524E+01  0.29967740133E+01  0.00000000000E+00 0.  1.
</event>
<event>
 7    1  0.5559916E-010  0.4778727E+02  0.7816164E-02  0.1312668E+00
        -11   -1    0    0    0    0  0.00000000000E+00  0.00000000000E+00  0.45593999997E+02  0.45594000000E+02  0.51100000000E-03 0. -1.
         11   -1    0    0    0    0 -0.00000000000E+00 -0.00000000000E+00 -0.45593999997E+02  0.45594000000E+02  0.51100000000E-03 0.  1.
    9900012    2    1    2    0    0 -0.28104077182E+02 -0.24417970355E+02 -0.22305750765E+02  0.47787274802E+02  0.20000017133E+02 0.  0.
         12    1    1    2    0    0  0.28104077182E+02  0.24417970355E+02  0.22305750765E+02  0.43400725198E+02  0.00000000000E+00 0. -1.
         11    1    3    3    0    0 -0.50837481261E+01 -0.14254155664E+02 -0.87803922110E+01  0.17496306363E+02  0.51100000000E-03 0. -1.
        -11    1    3    3    0    0 -0.92699731633E+01  0.42758773005E+00 -0.21092467174E+01  0.95165201461E+01  0.51100000000E-03 0.  1.
        -12    1    3    3    0    0 -0.13750355893E+02 -0.10591402420E+02 -0.11416111836E+02  0.20774448293E+02  0.00000000000E+00 0.  1.
</event>
<event>
 7    1  0.5559916E-010  0.4778727E+02  0.7816164E-02  0.1312668E+00
        -11   -1    0    0    0    0  0.00000000000E+00  0.00000000000E+00  0.45593999997E+02  0.45594000000E+02  0.51100000000E-03 0. -1.
         11   -1    0    0    0    0 -0.00000000000E+00 -0.00000000000E+00 -0.45593999997E+02  0.45594000000E+02  0.51100000000E-03 0.  1.
    9900012    2    1    2    0    0  0.45253613671E+01 -0.38279799738E+02 -0.19944957989E+02  0.47787270597E+02  0.19999997961E+02 0.  0.
         12    1    1    2    0    0 -0.45253613671E+01  0.38279799738E+02  0.19944957989E+02  0.43400729403E+02  0.00000000000E+00 0. -1.
         11    1    3    3    0    0  0.64858869240E+01 -0.30415951715E+02 -0.12112291366E+02  0.33375207120E+02  0.51100000000E-03 0. -1.
        -11    1    3    3    0    0  0.19414112335E+01 -0.63197519356E+01 -0.77876537671E+01  0.10215473242E+02  0.51100000000E-03 0.  1.
         12    1    3    3    0    0 -0.39019367904E+01 -0.15440960874E+01 -0.45012856659E-01  0.41965902350E+01  0.00000000000E+00 0. -1.
</event>
<event>
 7    1  0.5559916E-010  0.4778727E+02  0.7816164E-02  0.1312668E+00
        -11   -1    0    0    0    0  0.00000000000E+00  0.00000000000E+00  0.45593999997E+02  0.45594000000E+02  0.51100000000E-03 0.  1.
         11   -1    0    0    0    0 -0.00000000000E+00 -0.00000000000E+00 -0.45593999997E+02  0.45594000000E+02  0.51100000000E-03 0. -1.
    9900012    2    1    2    0    0  0.30308030222E+02  0.27339613391E+02 -0.14751007651E+02  0.47787269787E+02  0.19999994267E+02 0.  0.
         12    1    1    2    0    0 -0.30308030222E+02 -0.27339613391E+02  0.14751007651E+02  0.43400730213E+02  0.00000000000E+00 0. -1.
         11    1    3    3    0    0  0.16367928923E+02  0.79078965504E+01 -0.49555718228E+00  0.18184870147E+02  0.51100000000E-03 0. -1.
        -11    1    3    3    0    0  0.12912340250E+02  0.11206259997E+02 -0.12365934395E+02  0.21100358470E+02  0.51100000000E-03 0.  1.
         12    1    3    3    0    0  0.10277610489E+01  0.82254568438E+01 -0.18895160745E+01  0.85020411701E+01  0.00000000000E+00 0. -1.
</event>
<event>
 7    1  0.5559916E-010  0.4778727E+02  0.7816164E-02  0.1312668E+00
        -11   -1    0    0    0    0  0.00000000000E+00  0.00000000000E+00  0.45593999997E+02  0.45594000000E+02  0.51100000000E-03 0. -1.
         11   -1    0    0    0    0 -0.00000000000E+00 -0.00000000000E+00 -0.45593999997E+02  0.45594000000E+02  0.51100000000E-03 0.  1.
    9900012    2    1    2    0    0 -0.19843889967E+02 -0.96605923586E+01 -0.37369990854E+02  0.47787271547E+02  0.20000002293E+02 0.  0.
         12    1    1    2    0    0  0.19843889967E+02  0.96605923586E+01  0.37369990854E+02  0.43400728453E+02  0.00000000000E+00 0. -1.
         11    1    3    3    0    0 -0.14546060596E+02  0.31559364790E+01 -0.20285760752E+02  0.25160681697E+02  0.51100000000E-03 0. -1.
        -11    1    3    3    0    0 -0.20148370714E+01 -0.89333323309E+00 -0.43443407257E+01  0.48714381133E+01  0.51100000000E-03 0.  1.
         12    1    3    3    0    0 -0.32829923001E+01 -0.11923195604E+02 -0.12739889377E+02  0.17755151737E+02  0.00000000000E+00 0. -1.
</event>
<event>
 7    1  0.5559916E-010  0.4778729E+02  0.7816164E-02  0.1312668E+00
        -11   -1    0    0    0    0  0.00000000000E+00  0.00000000000E+00  0.45593999997E+02  0.45594000000E+02  0.51100000000E-03 0.  1.
         11   -1    0    0    0    0 -0.00000000000E+00 -0.00000000000E+00 -0.45593999997E+02  0.45594000000E+02  0.51100000000E-03 0. -1.
    9900012    2    1    2    0    0 -0.16495106999E+02  0.36466754923E+02  0.16784179401E+02  0.47787292083E+02  0.20000095923E+02 0.  0.
         12    1    1    2    0    0  0.16495106999E+02 -0.36466754923E+02 -0.16784179401E+02  0.43400707917E+02  0.00000000000E+00 0. -1.
         11    1    3    3    0    0 -0.39015975752E+01  0.10491031578E+02  0.12152888595E+02  0.16522012852E+02  0.51100000000E-03 0. -1.
        -11    1    3    3    0    0 -0.25579419737E+01  0.67187897327E+01 -0.36028691937E+01  0.80415091432E+01  0.51100000000E-03 0.  1.
        -12    1    3    3    0    0 -0.10035567450E+02  0.19256933612E+02  0.82341600000E+01  0.23223770088E+02  0.00000000000E+00 0.  1.
</event>
<event>
 7    1  0.5559916E-010  0.4778727E+02  0.7816164E-02  0.1312668E+00
        -11   -1    0    0    0    0  0.00000000000E+00  0.00000000000E+00  0.45593999997E+02  0.45594000000E+02  0.51100000000E-03 0.  1.
         11   -1    0    0    0    0 -0.00000000000E+00 -0.00000000000E+00 -0.45593999997E+02  0.45594000000E+02  0.51100000000E-03 0. -1.
    9900012    2    1    2    0    0  0.28659066885E+02  0.32437328212E+02  0.31782013600E+01  0.47787270281E+02  0.19999996520E+02 0.  0.
         12    1    1    2    0    0 -0.28659066885E+02 -0.32437328212E+02 -0.31782013600E+01  0.43400729719E+02  0.00000000000E+00 0. -1.
         11    1    3    3    0    0  0.56951583332E+01 -0.43998273990E-01 -0.13333901276E+01  0.58493327638E+01  0.51100000000E-03 0. -1.
        -11    1    3    3    0    0  0.62094345619E+01  0.18818633850E+02 -0.17225438826E+00  0.19817359294E+02  0.51100000000E-03 0.  1.
        -12    1    3    3    0    0  0.16754473989E+02  0.13662692637E+02  0.46838458759E+01  0.22120578223E+02  0.00000000000E+00 0.  1.
</event>
<event>
 7    1  0.5559916E-010  0.4778726E+02  0.7816164E-02  0.1312668E+00
        -11   -1    0    0    0    0  0.00000000000E+00  0.00000000000E+00  0.45593999997E+02  0.45594000000E+02  0.51100000000E-03 0. -1.
         11   -1    0    0    0    0 -0.00000000000E+00 -0.00000000000E+00 -0.45593999997E+02  0.45594000000E+02  0.51100000000E-03 0.  1.
    9900012    2    1    2    0    0  0.11990182605E+02  0.14121357339E+02 -0.39248524910E+02  0.47787263605E+02  0.19999966081E+02 0.  0.
         12    1    1    2    0    0 -0.11990182605E+02 -0.14121357339E+02  0.39248524910E+02  0.43400736395E+02  0.00000000000E+00 0. -1.
         11    1    3    3    0    0  0.10451414947E+02  0.35716581640E+01 -0.15153670105E+02  0.18751600847E+02  0.51100000000E-03 0. -1.
        -11    1    3    3    0    0 -0.46791512210E+01  0.23722597645E+01 -0.45022321306E+01  0.69131879013E+01  0.51100000000E-03 0.  1.
        -12    1    3    3    0    0  0.62179188793E+01  0.81774394104E+01 -0.19592622675E+02  0.22122474857E+02  0.00000000000E+00 0.  1.
</event>
<event>
 7    1  0.5559916E-010  0.4778732E+02  0.7816164E-02  0.1312668E+00
        -11   -1    0    0    0    0  0.00000000000E+00  0.00000000000E+00  0.45593999997E+02  0.45594000000E+02  0.51100000000E-03 0. -1.
         11   -1    0    0    0    0 -0.00000000000E+00 -0.00000000000E+00 -0.45593999997E+02  0.45594000000E+02  0.51100000000E-03 0.  1.
    9900012    2    1    2    0    0  0.17306248768E+02  0.32214468036E+02 -0.23373929552E+02  0.47787322816E+02  0.20000236047E+02 0.  0.
         12    1    1    2    0    0 -0.17306248768E+02 -0.32214468036E+02  0.23373929552E+02  0.43400677184E+02  0.00000000000E+00 0. -1.
         11    1    3    3    0    0  0.12433959195E+02  0.10761698600E+02 -0.31794141460E+01  0.16748915565E+02  0.51100000000E-03 0. -1.
        -11    1    3    3    0    0  0.54192907552E+00  0.14996303813E+02 -0.16883830923E+02  0.22588637897E+02  0.51100000000E-03 0.  1.
        -12    1    3    3    0    0  0.43303604977E+01  0.64564656231E+01 -0.33106844837E+01  0.84497693538E+01  0.00000000000E+00 0.  1.
</event>
<event>
 7    1  0.5559916E-010  0.4778727E+02  0.7816164E-02  0.1312668E+00
        -11   -1    0    0    0    0  0.00000000000E+00  0.00000000000E+00  0.45593999997E+02  0.45594000000E+02  0.51100000000E-03 0. -1.
         11   -1    0    0    0    0 -0.00000000000E+00 -0.00000000000E+00 -0.45593999997E+02  0.45594000000E+02  0.51100000000E-03 0.  1.
    9900012    2    1    2    0    0 -0.25951992555E+02 -0.33161872952E+02 -0.10507496710E+02  0.47787271638E+02  0.20000002705E+02 0.  0.
         12    1    1    2    0    0  0.25951992555E+02  0.33161872952E+02  0.10507496710E+02  0.43400728362E+02  0.00000000000E+00 0. -1.
         11    1    3    3    0    0  0.20033486414E+01 -0.18683197897E+01  0.21304164987E+01  0.34702592604E+01  0.51100000000E-03 0. -1.
        -11    1    3    3    0    0 -0.12657498661E+02 -0.18791583153E+02 -0.55432456183E+01  0.23325167566E+02  0.51100000000E-03 0.  1.
         12    1    3    3    0    0 -0.15297842535E+02 -0.12501970009E+02 -0.70946675902E+01  0.20991844811E+02  0.00000000000E+00 0. -1.
</event>
<event>
 7    1  0.5559916E-010  0.4778727E+02  0.7816164E-02  0.1312668E+00
        -11   -1    0    0    0    0  0.00000000000E+00  0.00000000000E+00  0.45593999997E+02  0.45594000000E+02  0.51100000000E-03 0.  1.
         11   -1    0    0    0    0 -0.00000000000E+00 -0.00000000000E+00 -0.45593999997E+02  0.45594000000E+02  0.51100000000E-03 0. -1.
    9900012    2    1    2    0    0 -0.16343777529E+02  0.16609705697E+02  0.36614502124E+02  0.47787272436E+02  0.20000006345E+02 0.  0.
         12    1    1    2    0    0  0.16343777529E+02 -0.16609705697E+02 -0.36614502124E+02  0.43400727564E+02  0.00000000000E+00 0. -1.
         11    1    3    3    0    0 -0.40443700428E+01 -0.44107663387E+01  0.78858022314E+01  0.98993770426E+01  0.51100000000E-03 0. -1.
        -11    1    3    3    0    0 -0.89662547974E+01  0.12498464453E+02  0.20101804957E+02  0.25311813479E+02  0.51100000000E-03 0.  1.
         12    1    3    3    0    0 -0.33331526887E+01  0.85220075831E+01  0.86268949355E+01  0.12576081915E+02  0.00000000000E+00 0. -1.
</event>
<event>
 7    1  0.5559916E-010  0.4778727E+02  0.7816164E-02  0.1312668E+00
        -11   -1    0    0    0    0  0.00000000000E+00  0.00000000000E+00  0.45593999997E+02  0.45594000000E+02  0.51100000000E-03 0. -1.
         11   -1    0    0    0    0 -0.00000000000E+00 -0.00000000000E+00 -0.45593999997E+02  0.45594000000E+02  0.51100000000E-03 0.  1.
    9900012    2    1    2    0    0 -0.20986150112E+02 -0.17494065987E+02 -0.33721839190E+02  0.47787270978E+02  0.19999999697E+02 0.  0.
         12    1    1    2    0    0  0.20986150112E+02  0.17494065987E+02  0.33721839190E+02  0.43400729022E+02  0.00000000000E+00 0. -1.
         11    1    3    3    0    0 -0.12004410761E+02 -0.15036292372E+02 -0.14560965049E+02  0.24129187086E+02  0.51100000000E-03 0. -1.
        -11    1    3    3    0    0 -0.11236564349E+02 -0.13284696894E+01 -0.16329278511E+02  0.19866316896E+02  0.51100000000E-03 0.  1.
         12    1    3    3    0    0  0.22548249988E+01 -0.11293039256E+01 -0.28315956310E+01  0.37917669956E+01  0.00000000000E+00 0. -1.
</event>
<event>
 7    1  0.5559916E-010  0.4778727E+02  0.7816164E-02  0.1312668E+00
        -11   -1    0    0    0    0  0.00000000000E+00  0.00000000000E+00  0.45593999997E+02  0.45594000000E+02  0.51100000000E-03 0. -1.
         11   -1    0    0    0    0 -0.00000000000E+00 -0.00000000000E+00 -0.45593999997E+02  0.45594000000E+02  0.51100000000E-03 0.  1.
    9900012    2    1    2    0    0 -0.33270028662E+02  0.79569686488E+01 -0.26709828804E+02  0.47787272910E+02  0.20000008504E+02 0.  0.
         12    1    1    2    0    0  0.33270028662E+02 -0.79569686488E+01  0.26709828804E+02  0.43400727090E+02  0.00000000000E+00 0. -1.
         11    1    3    3    0    0 -0.14578935834E+02  0.10192662283E+02 -0.12649648526E+02  0.21827719591E+02  0.51100000000E-03 0. -1.
        -11    1    3    3    0    0 -0.12619935552E+02 -0.52255451656E+01 -0.13442011938E+02  0.19163944814E+02  0.51100000000E-03 0.  1.
         12    1    3    3    0    0 -0.60711572762E+01  0.29898515318E+01 -0.61816833940E+00  0.67956085048E+01  0.00000000000E+00 0. -1.
</event>
<event>
 7    1  0.5559916E-010  0.4778729E+02  0.7816164E-02  0.1312668E+00
        -11   -1    0    0    0    0  0.00000000000E+00  0.00000000000E+00  0.45593999997E+02  0.45594000000E+02  0.51100000000E-03 0.  1.
         11   -1    0    0    0    0 -0.00000000000E+00 -0.00000000000E+00 -0.45593999997E+02  0.45594000000E+02  0.51100000000E-03 0. -1.
    9900012    2    1    2    0    0  0.63047563107E+01 -0.83282387551E+01  0.42124954902E+02  0.47787293343E+02  0.20000101666E+02 0.  0.
         12    1    1    2    0    0 -0.63047563107E+01  0.83282387551E+01 -0.42124954902E+02  0.43400706657E+02  0.00000000000E+00 0. -1.
         11    1    3    3    0    0 -0.52147498867E+01 -0.28049904586E+00  0.15901971819E+02  0.16737532796E+02  0.51100000000E-03 0. -1.
        -11    1    3    3    0    0  0.20530579791E+01 -0.47417342931E+00  0.12759949802E+02  0.12932757120E+02  0.51100000000E-03 0.  1.
         12    1    3    3    0    0  0.94664482183E+01 -0.75735662799E+01  0.13463033280E+02  0.18117003427E+02  0.00000000000E+00 0. -1.
</event>
<event>
 7    1  0.5559916E-010  0.4778727E+02  0.7816164E-02  0.1312668E+00
        -11   -1    0    0    0    0  0.00000000000E+00  0.00000000000E+00  0.45593999997E+02  0.45594000000E+02  0.51100000000E-03 0.  1.
         11   -1    0    0    0    0 -0.00000000000E+00 -0.00000000000E+00 -0.45593999997E+02  0.45594000000E+02  0.51100000000E-03 0. -1.
    9900012    2    1    2    0    0 -0.17359795049E+02  0.10822074876E+02  0.38277192951E+02  0.47787270870E+02  0.19999999206E+02 0.  0.
         12    1    1    2    0    0  0.17359795049E+02 -0.10822074876E+02 -0.38277192951E+02  0.43400729130E+02  0.00000000000E+00 0. -1.
         11    1    3    3    0    0 -0.56474552295E+01  0.41617179555E+01  0.43741366268E+01  0.82672074125E+01  0.51100000000E-03 0.  1.
        -11    1    3    3    0    0  0.31529714293E+01  0.39515452452E+01  0.65859594722E+01  0.83024575331E+01  0.51100000000E-03 0. -1.
        -12    1    3    3    0    0 -0.14865311249E+02  0.27088116749E+01  0.27317096852E+02  0.31217605925E+02  0.00000000000E+00 0.  1.
</event>
<event>
 7    1  0.5559916E-010  0.4778727E+02  0.7816164E-02  0.1312668E+00
        -11   -1    0    0    0    0  0.00000000000E+00  0.00000000000E+00  0.45593999997E+02  0.45594000000E+02  0.51100000000E-03 0.  1.
         11   -1    0    0    0    0 -0.00000000000E+00 -0.00000000000E+00 -0.45593999997E+02  0.45594000000E+02  0.51100000000E-03 0. -1.
    9900012    2    1    2    0    0  0.29117025339E+02 -0.18844111973E+02 -0.26090635679E+02  0.47787274306E+02  0.20000014872E+02 0.  0.
         12    1    1    2    0    0 -0.29117025339E+02  0.18844111973E+02  0.26090635679E+02  0.43400725694E+02  0.00000000000E+00 0. -1.
         11    1    3    3    0    0  0.10873491281E+02 -0.14265695115E+02 -0.18656735679E+02  0.25880816375E+02  0.51100000000E-03 0. -1.
        -11    1    3    3    0    0  0.16075882869E+02 -0.61552109027E+01 -0.42241885983E+01  0.17724683378E+02  0.51100000000E-03 0.  1.
        -12    1    3    3    0    0  0.21676511879E+01  0.15767940452E+01 -0.32097114015E+01  0.41817745533E+01  0.00000000000E+00 0.  1.
</event>
<event>
 7    1  0.5559916E-010  0.4778727E+02  0.7816164E-02  0.1312668E+00
        -11   -1    0    0    0    0  0.00000000000E+00  0.00000000000E+00  0.45593999997E+02  0.45594000000E+02  0.51100000000E-03 0.  1.
         11   -1    0    0    0    0 -0.00000000000E+00 -0.00000000000E+00 -0.45593999997E+02  0.45594000000E+02  0.51100000000E-03 0. -1.
    9900012    2    1    2    0    0 -0.11383115636E+02 -0.27659975706E+02  0.31447952882E+02  0.47787270535E+02  0.19999997676E+02 0.  0.
         12    1    1    2    0    0  0.11383115636E+02  0.27659975706E+02 -0.31447952882E+02  0.43400729465E+02  0.00000000000E+00 0. -1.
         11    1    3    3    0    0 -0.16319830532E+01 -0.16798816747E+02  0.14536843026E+02  0.22275174931E+02  0.51100000000E-03 0. -1.
        -11    1    3    3    0    0 -0.12627399644E+02 -0.95268564150E+01  0.12982222223E+02  0.20463389481E+02  0.51100000000E-03 0.  1.
        -12    1    3    3    0    0  0.28762670610E+01 -0.13343025441E+01  0.39288876327E+01  0.50487061229E+01  0.00000000000E+00 0.  1.
</event>
<event>
 7    1  0.5559916E-010  0.4778727E+02  0.7816164E-02  0.1312668E+00
        -11   -1    0    0    0    0  0.00000000000E+00  0.00000000000E+00  0.45593999997E+02  0.45594000000E+02  0.51100000000E-03 0.  1.
         11   -1    0    0    0    0 -0.00000000000E+00 -0.00000000000E+00 -0.45593999997E+02  0.45594000000E+02  0.51100000000E-03 0. -1.
    9900012    2    1    2    0    0 -0.21314034750E+02 -0.13752034154E+02  0.35216710309E+02  0.47787271830E+02  0.20000003582E+02 0.  0.
         12    1    1    2    0    0  0.21314034750E+02  0.13752034154E+02 -0.35216710309E+02  0.43400728170E+02  0.00000000000E+00 0. -1.
         11    1    3    3    0    0 -0.39402783873E+00 -0.85803301501E+01  0.13404634339E+02  0.15920475667E+02  0.51100000000E-03 0.  1.
        -11    1    3    3    0    0 -0.38744226384E+01 -0.38583668835E+01  0.23203061399E+01  0.59398625096E+01  0.51100000000E-03 0. -1.
        -12    1    3    3    0    0 -0.17045584273E+02 -0.13133371203E+01  0.19491769830E+02  0.25926933654E+02  0.00000000000E+00 0.  1.
</event>
<event>
 7    1  0.5559916E-010  0.4778727E+02  0.7816164E-02  0.1312668E+00
        -11   -1    0    0    0    0  0.00000000000E+00  0.00000000000E+00  0.45593999997E+02  0.45594000000E+02  0.51100000000E-03 0.  1.
         11   -1    0    0    0    0 -0.00000000000E+00 -0.00000000000E+00 -0.45593999997E+02  0.45594000000E+02  0.51100000000E-03 0. -1.
    9900012    2    1    2    0    0  0.12384748083E+02  0.24073233170E+02  0.33922275802E+02  0.47787270329E+02  0.19999996740E+02 0.  0.
         12    1    1    2    0    0 -0.12384748083E+02 -0.24073233170E+02 -0.33922275802E+02  0.43400729671E+02  0.00000000000E+00 0. -1.
         11    1    3    3    0    0  0.56090590560E+01  0.18840466778E+02  0.11995228471E+02  0.23028465825E+02  0.51100000000E-03 0. -1.
        -11    1    3    3    0    0  0.47405677212E+01  0.63683104557E+01  0.20600220406E+02  0.22077079549E+02  0.51100000000E-03 0.  1.
         12    1    3    3    0    0  0.20351213061E+01 -0.11355440632E+01  0.13268269245E+01  0.26817249556E+01  0.00000000000E+00 0. -1.
</event>
<event>
 7    1  0.5559916E-010  0.4778727E+02  0.7816164E-02  0.1312668E+00
        -11   -1    0    0    0    0  0.00000000000E+00  0.00000000000E+00  0.45593999997E+02  0.45594000000E+02  0.51100000000E-03 0. -1.
         11   -1    0    0    0    0 -0.00000000000E+00 -0.00000000000E+00 -0.45593999997E+02  0.45594000000E+02  0.51100000000E-03 0.  1.
    9900012    2    1    2    0    0  0.35342816148E+01 -0.37672321285E+02 -0.21258604522E+02  0.47787271852E+02  0.20000003683E+02 0.  0.
         12    1    1    2    0    0 -0.35342816148E+01  0.37672321285E+02  0.21258604522E+02  0.43400728148E+02  0.00000000000E+00 0. -1.
         11    1    3    3    0    0 -0.32310151262E+01 -0.87194918411E+00 -0.24596912965E+01  0.41532921472E+01  0.51100000000E-03 0. -1.
        -11    1    3    3    0    0  0.24776216927E+01 -0.32550201264E+02 -0.18647206368E+02  0.37594846950E+02  0.51100000000E-03 0.  1.
         12    1    3    3    0    0  0.42876750483E+01 -0.42501708370E+01 -0.15170685733E+00  0.60391327552E+01  0.00000000000E+00 0. -1.
</event>
<event>
 7    1  0.5559916E-010  0.4778727E+02  0.7816164E-02  0.1312668E+00
        -11   -1    0    0    0    0  0.00000000000E+00  0.00000000000E+00  0.45593999997E+02  0.45594000000E+02  0.51100000000E-03 0.  1.
         11   -1    0    0    0    0 -0.00000000000E+00 -0.00000000000E+00 -0.45593999997E+02  0.45594000000E+02  0.51100000000E-03 0. -1.
    9900012    2    1    2    0    0 -0.14460752864E+02  0.12636036273E+02  0.38920949707E+02  0.47787272908E+02  0.20000008495E+02 0.  0.
         12    1    1    2    0    0  0.14460752864E+02 -0.12636036273E+02 -0.38920949707E+02  0.43400727092E+02  0.00000000000E+00 0. -1.
         11    1    3    3    0    0 -0.72385283409E+01  0.11414751709E+02  0.17811230066E+02  0.22359176323E+02  0.51100000000E-03 0. -1.
        -11    1    3    3    0    0  0.17836211977E+01 -0.30066665960E+01  0.95876927370E+01  0.10205155603E+02  0.51100000000E-03 0.  1.
        -12    1    3    3    0    0 -0.90058457212E+01  0.42279511592E+01  0.11522026904E+02  0.15222940982E+02  0.00000000000E+00 0.  1.
</event>
<event>
 7    1  0.5559916E-010  0.4778725E+02  0.7816164E-02  0.1312668E+00
        -11   -1    0    0    0    0  0.00000000000E+00  0.00000000000E+00  0.45593999997E+02  0.45594000000E+02  0.51100000000E-03 0. -1.
         11   -1    0    0    0    0 -0.00000000000E+00 -0.00000000000E+00 -0.45593999997E+02  0.45594000000E+02  0.51100000000E-03 0.  1.
    9900012    2    1    2    0    0  0.36800263407E+02 -0.82066877645E+01  0.21494556154E+02  0.47787250523E+02  0.19999906435E+02 0.  0.
         12    1    1    2    0    0 -0.36800263407E+02  0.82066877645E+01 -0.21494556154E+02  0.43400749477E+02  0.00000000000E+00 0. -1.
         11    1    3    3    0    0 -0.12309183161E+01 -0.41160076336E+00  0.42679276717E+01  0.44609171659E+01  0.51100000000E-03 0. -1.
        -11    1    3    3    0    0  0.17498632692E+02 -0.18158045205E+00  0.10544408641E+02  0.20430850971E+02  0.51100000000E-03 0.  1.
         12    1    3    3    0    0  0.20532549032E+02 -0.76135065491E+01  0.66822198412E+01  0.22895482387E+02  0.00000000000E+00 0. -1.
</event>
<event>
 7    1  0.5559916E-010  0.4778727E+02  0.7816164E-02  0.1312668E+00
        -11   -1    0    0    0    0  0.00000000000E+00  0.00000000000E+00  0.45593999997E+02  0.45594000000E+02  0.51100000000E-03 0.  1.
         11   -1    0    0    0    0 -0.00000000000E+00 -0.00000000000E+00 -0.45593999997E+02  0.45594000000E+02  0.51100000000E-03 0. -1.
    9900012    2    1    2    0    0  0.27024148892E+02 -0.14772983491E+01  0.33928405073E+02  0.47787266083E+02  0.19999977379E+02 0.  0.
         12    1    1    2    0    0 -0.27024148892E+02  0.14772983491E+01 -0.33928405073E+02  0.43400733917E+02  0.00000000000E+00 0. -1.
         11    1    3    3    0    0  0.23666821640E+02  0.40636220354E+01  0.29065644016E+02  0.37702030885E+02  0.51100000000E-03 0.  1.
        -11    1    3    3    0    0 -0.10022866784E+01 -0.38489599883E+01  0.12286846641E+01  0.41627800618E+01  0.51100000000E-03 0. -1.
        -12    1    3    3    0    0  0.43596139305E+01 -0.16919603962E+01  0.36340763933E+01  0.59224551360E+01  0.00000000000E+00 0.  1.
</event>
<event>
 7    1  0.5559916E-010  0.4778726E+02  0.7816164E-02  0.1312668E+00
        -11   -1    0    0    0    0  0.00000000000E+00  0.00000000000E+00  0.45593999997E+02  0.45594000000E+02  0.51100000000E-03 0.  1.
         11   -1    0    0    0    0 -0.00000000000E+00 -0.00000000000E+00 -0.45593999997E+02  0.45594000000E+02  0.51100000000E-03 0. -1.
    9900012    2    1    2    0    0  0.26298204004E+02 -0.63768969217E+01  0.33931750604E+02  0.47787262135E+02  0.19999959378E+02 0.  0.
         12    1    1    2    0    0 -0.26298204004E+02  0.63768969217E+01 -0.33931750604E+02  0.43400737865E+02  0.00000000000E+00 0. -1.
         11    1    3    3    0    0  0.22726734866E+02 -0.30496236464E+01  0.20795328971E+02  0.30955619673E+02  0.51100000000E-03 0. -1.
        -11    1    3    3    0    0  0.53915990065E+01 -0.19950374945E+01  0.30732344482E+01  0.65187640459E+01  0.51100000000E-03 0.  1.
         12    1    3    3    0    0 -0.18201298684E+01 -0.13322357808E+01  0.10063187184E+02  0.10312878416E+02  0.00000000000E+00 0. -1.
</event>
<event>
 7    1  0.5559916E-010  0.4778728E+02  0.7816164E-02  0.1312668E+00
        -11   -1    0    0    0    0  0.00000000000E+00  0.00000000000E+00  0.45593999997E+02  0.45594000000E+02  0.51100000000E-03 0.  1.
         11   -1    0    0    0    0 -0.00000000000E+00 -0.00000000000E+00 -0.45593999997E+02  0.45594000000E+02  0.51100000000E-03 0. -1.
    9900012    2    1    2    0    0  0.18300646499E+00  0.22589269633E+02  0.37058247124E+02  0.47787282565E+02  0.20000052529E+02 0.  0.
         12    1    1    2    0    0 -0.18300646499E+00 -0.22589269633E+02 -0.37058247124E+02  0.43400717435E+02  0.00000000000E+00 0. -1.
         11    1    3    3    0    0 -0.61827780213E+00  0.15345664353E+01  0.15340495947E+02  0.15429451635E+02  0.51100000000E-03 0. -1.
        -11    1    3    3    0    0  0.21222634347E+01  0.22036045596E+02  0.18964912607E+02  0.29150629806E+02  0.51100000000E-03 0.  1.
         12    1    3    3    0    0 -0.13209791676E+01 -0.98134239855E+00  0.27528385695E+01  0.32072011247E+01  0.00000000000E+00 0. -1.
</event>
<event>
 7    1  0.5559916E-010  0.4778727E+02  0.7816164E-02  0.1312668E+00
        -11   -1    0    0    0    0  0.00000000000E+00  0.00000000000E+00  0.45593999997E+02  0.45594000000E+02  0.51100000000E-03 0.  1.
         11   -1    0    0    0    0 -0.00000000000E+00 -0.00000000000E+00 -0.45593999997E+02  0.45594000000E+02  0.51100000000E-03 0. -1.
    9900012    2    1    2    0    0 -0.17946494983E+01 -0.43078132533E+02  0.49675741416E+01  0.47787273483E+02  0.20000011119E+02 0.  0.
         12    1    1    2    0    0  0.17946494983E+01  0.43078132533E+02 -0.49675741416E+01  0.43400726517E+02  0.00000000000E+00 0. -1.
         11    1    3    3    0    0 -0.64582012514E+00 -0.61414966548E+01 -0.63340327197E+01  0.88461876280E+01  0.51100000000E-03 0. -1.
        -11    1    3    3    0    0  0.17479012197E+01 -0.16912960148E+02  0.59379375822E+01  0.18010066147E+02  0.51100000000E-03 0.  1.
         12    1    3    3    0    0 -0.28967305929E+01 -0.20023675730E+02  0.53636692790E+01  0.20931019708E+02  0.00000000000E+00 0. -1.
</event>
<event>
 7    1  0.5559916E-010  0.4778727E+02  0.7816164E-02  0.1312668E+00
        -11   -1    0    0    0    0  0.00000000000E+00  0.00000000000E+00  0.45593999997E+02  0.45594000000E+02  0.51100000000E-03 0. -1.
         11   -1    0    0    0    0 -0.00000000000E+00 -0.00000000000E+00 -0.45593999997E+02  0.45594000000E+02  0.51100000000E-03 0.  1.
    9900012    2    1    2    0    0  0.24232764724E+01  0.35241514878E+02 -0.25214809816E+02  0.47787271046E+02  0.20000000006E+02 0.  0.
         12    1    1    2    0    0 -0.24232764724E+01 -0.35241514878E+02  0.25214809816E+02  0.43400728954E+02  0.00000000000E+00 0. -1.
         11    1    3    3    0    0 -0.24534329707E+01  0.10309014098E+02 -0.22983496459E-01  0.10596963411E+02  0.51100000000E-03 0. -1.
        -11    1    3    3    0    0  0.45638883555E+01  0.73567515130E+01 -0.13641066704E+02  0.16156409590E+02  0.51100000000E-03 0.  1.
         12    1    3    3    0    0  0.31282108764E+00  0.17575749266E+02 -0.11550759615E+02  0.21033898045E+02  0.00000000000E+00 0. -1.
</event>
<event>
 7    1  0.7631040E-010  0.4778727E+02  0.7816164E-02  0.1312668E+00
        -11   -1    0    0    0    0  0.00000000000E+00  0.00000000000E+00  0.45593999997E+02  0.45594000000E+02  0.51100000000E-03 0. -1.
         11   -1    0    0    0    0 -0.00000000000E+00 -0.00000000000E+00 -0.45593999997E+02  0.45594000000E+02  0.51100000000E-03 0.  1.
    9900012    2    1    2    0    0 -0.25504559494E+02  0.12623270038E+02 -0.32768792361E+02  0.47787271270E+02  0.20000001030E+02 0.  0.
         12    1    1    2    0    0  0.25504559494E+02 -0.12623270038E+02  0.32768792361E+02  0.43400728730E+02  0.00000000000E+00 0. -1.
         11    1    3    3    0    0  0.22161637480E+01 -0.53891638625E-02  0.14644781807E+00  0.22210038328E+01  0.51100000000E-03 0. -1.
        -11    1    3    3    0    0 -0.17810281332E+02  0.12111481959E+02 -0.21349198074E+02  0.30326265432E+02  0.51100000000E-03 0.  1.
         12    1    3    3    0    0 -0.99104419097E+01  0.51717724310E+00 -0.11566042105E+02  0.15240002005E+02  0.00000000000E+00 0. -1.
</event>
<event>
 7    1  0.5559916E-010  0.4778727E+02  0.7816164E-02  0.1312668E+00
        -11   -1    0    0    0    0  0.00000000000E+00  0.00000000000E+00  0.45593999997E+02  0.45594000000E+02  0.51100000000E-03 0. -1.
         11   -1    0    0    0    0 -0.00000000000E+00 -0.00000000000E+00 -0.45593999997E+02  0.45594000000E+02  0.51100000000E-03 0.  1.
    9900012    2    1    2    0    0  0.25430136357E+02  0.12916349088E+02 -0.32712371995E+02  0.47787272006E+02  0.20000004383E+02 0.  0.
         12    1    1    2    0    0 -0.25430136357E+02 -0.12916349088E+02  0.32712371995E+02  0.43400727994E+02  0.00000000000E+00 0. -1.
         11    1    3    3    0    0 -0.51587765353E+00 -0.29329400202E+01 -0.78136754052E+01  0.83619250484E+01  0.51100000000E-03 0. -1.
        -11    1    3    3    0    0  0.15863725342E+02  0.10071594761E+02 -0.13415398595E+02  0.23088259407E+02  0.51100000000E-03 0.  1.
         12    1    3    3    0    0  0.10082288668E+02  0.57776943469E+01 -0.11483297995E+02  0.16337087550E+02  0.00000000000E+00 0. -1.
</event>
<event>
 7    1  0.5559916E-010  0.4778727E+02  0.7816164E-02  0.1312668E+00
        -11   -1    0    0    0    0  0.00000000000E+00  0.00000000000E+00  0.45593999997E+02  0.45594000000E+02  0.51100000000E-03 0.  1.
         11   -1    0    0    0    0 -0.00000000000E+00 -0.00000000000E+00 -0.45593999997E+02  0.45594000000E+02  0.51100000000E-03 0. -1.
    9900012    2    1    2    0    0 -0.11827710394E+02  0.25362414019E+02  0.33173428987E+02  0.47787272255E+02  0.20000005520E+02 0.  0.
         12    1    1    2    0    0  0.11827710394E+02 -0.25362414019E+02 -0.33173428987E+02  0.43400727745E+02  0.00000000000E+00 0. -1.
         11    1    3    3    0    0 -0.10118394829E+02  0.15835589276E+02  0.26418847595E+02  0.32420723468E+02  0.51100000000E-03 0. -1.
        -11    1    3    3    0    0 -0.91989078399E+00  0.34091262940E+01  0.82893275175E+01  0.90100661538E+01  0.51100000000E-03 0.  1.
         12    1    3    3    0    0 -0.78942478074E+00  0.61176984494E+01 -0.15347461260E+01  0.63564826338E+01  0.00000000000E+00 0. -1.
</event>
<event>
 7    1  0.5559916E-010  0.4778724E+02  0.7816164E-02  0.1312668E+00
        -11   -1    0    0    0    0  0.00000000000E+00  0.00000000000E+00  0.45593999997E+02  0.45594000000E+02  0.51100000000E-03 0.  1.
         11   -1    0    0    0    0 -0.00000000000E+00 -0.00000000000E+00 -0.45593999997E+02  0.45594000000E+02  0.51100000000E-03 0. -1.
    9900012    2    1    2    0    0  0.32687133540E+02 -0.27617405600E+02  0.72426818441E+01  0.47787236971E+02  0.19999844647E+02 0.  0.
         12    1    1    2    0    0 -0.32687133540E+02  0.27617405600E+02 -0.72426818441E+01  0.43400763029E+02  0.00000000000E+00 0. -1.
         11    1    3    3    0    0  0.99161180317E+01 -0.63804061427E+01 -0.37813115416E+01  0.12382943778E+02  0.51100000000E-03 0. -1.
        -11    1    3    3    0    0  0.12819131006E+02 -0.18095403534E+02  0.11454271973E+02  0.24959449022E+02  0.51100000000E-03 0.  1.
        -12    1    3    3    0    0  0.99518845030E+01 -0.31415959230E+01 -0.43027858714E+00  0.10444844172E+02  0.00000000000E+00 0.  1.
</event>
<event>
 7    1  0.5559916E-010  0.4778727E+02  0.7816164E-02  0.1312668E+00
        -11   -1    0    0    0    0  0.00000000000E+00  0.00000000000E+00  0.45593999997E+02  0.45594000000E+02  0.51100000000E-03 0.  1.
         11   -1    0    0    0    0 -0.00000000000E+00 -0.00000000000E+00 -0.45593999997E+02  0.45594000000E+02  0.51100000000E-03 0. -1.
    9900012    2    1    2    0    0  0.22794077780E+02 -0.16621285088E+02  0.32981606229E+02  0.47787269024E+02  0.19999990788E+02 0.  0.
         12    1    1    2    0    0 -0.22794077780E+02  0.16621285088E+02 -0.32981606229E+02  0.43400730976E+02  0.00000000000E+00 0. -1.
         11    1    3    3    0    0  0.36373621943E+01 -0.32832949649E+01 -0.20937036573E+00  0.49045148354E+01  0.51100000000E-03 0. -1.
        -11    1    3    3    0    0  0.17548852566E+01  0.21240682858E+01  0.57998176762E+00  0.28156113827E+01  0.51100000000E-03 0.  1.
        -12    1    3    3    0    0  0.17401830330E+02 -0.15462058409E+02  0.32610994827E+02  0.40067142806E+02  0.00000000000E+00 0.  1.
</event>
<event>
 7    1  0.5559916E-010  0.4778727E+02  0.7816164E-02  0.1312668E+00
        -11   -1    0    0    0    0  0.00000000000E+00  0.00000000000E+00  0.45593999997E+02  0.45594000000E+02  0.51100000000E-03 0.  1.
         11   -1    0    0    0    0 -0.00000000000E+00 -0.00000000000E+00 -0.45593999997E+02  0.45594000000E+02  0.51100000000E-03 0. -1.
    9900012    2    1    2    0    0 -0.18565910099E+02  0.38668796034E+02 -0.66071355157E+01  0.47787273690E+02  0.20000012061E+02 0.  0.
         12    1    1    2    0    0  0.18565910099E+02 -0.38668796034E+02  0.66071355157E+01  0.43400726310E+02  0.00000000000E+00 0. -1.
         11    1    3    3    0    0 -0.18071181185E+02  0.24200847668E+02 -0.16258313501E+01  0.30247180780E+02  0.51100000000E-03 0. -1.
        -11    1    3    3    0    0 -0.65093631336E+00  0.31888313646E+01 -0.53406284568E+01  0.62541726975E+01  0.51100000000E-03 0.  1.
        -12    1    3    3    0    0  0.15620740016E+00  0.11279117002E+02  0.35932429111E+00  0.11285920213E+02  0.00000000000E+00 0.  1.
</event>
<event>
 7    1  0.5559916E-010  0.4778727E+02  0.7816164E-02  0.1312668E+00
        -11   -1    0    0    0    0  0.00000000000E+00  0.00000000000E+00  0.45593999997E+02  0.45594000000E+02  0.51100000000E-03 0.  1.
         11   -1    0    0    0    0 -0.00000000000E+00 -0.00000000000E+00 -0.45593999997E+02  0.45594000000E+02  0.51100000000E-03 0. -1.
    9900012    2    1    2    0    0  0.47117822811E+00 -0.28393539346E+02  0.32820849081E+02  0.47787271666E+02  0.20000002834E+02 0.  0.
         12    1    1    2    0    0 -0.47117822811E+00  0.28393539346E+02 -0.32820849081E+02  0.43400728334E+02  0.00000000000E+00 0. -1.
         11    1    3    3    0    0  0.85257543455E+01 -0.12639645821E+02  0.16802533429E+02  0.22688637322E+02  0.51100000000E-03 0. -1.
        -11    1    3    3    0    0 -0.62623064117E+01 -0.12241866386E+02  0.16076888736E+02  0.21155286003E+02  0.51100000000E-03 0.  1.
         12    1    3    3    0    0 -0.17922697058E+01 -0.35120271403E+01 -0.58573083923E-01  0.39433483410E+01  0.00000000000E+00 0. -1.
</event>
<event>
 7    1  0.5559916E-010  0.4778727E+02  0.7816164E-02  0.1312668E+00
        -11   -1    0    0    0    0  0.00000000000E+00  0.00000000000E+00  0.45593999997E+02  0.45594000000E+02  0.51100000000E-03 0.  1.
         11   -1    0    0    0    0 -0.00000000000E+00 -0.00000000000E+00 -0.45593999997E+02  0.45594000000E+02  0.51100000000E-03 0. -1.
    9900012    2    1    2    0    0  0.41958666403E+01  0.69262140398E+01  0.42638544146E+02  0.47787272072E+02  0.20000004687E+02 0.  0.
         12    1    1    2    0    0 -0.41958666403E+01 -0.69262140398E+01 -0.42638544146E+02  0.43400727928E+02  0.00000000000E+00 0. -1.
         11    1    3    3    0    0  0.13844053365E+01 -0.43680577979E+01  0.20196615347E+02  0.20709895673E+02  0.51100000000E-03 0. -1.
        -11    1    3    3    0    0 -0.94388870814E+00  0.10971893532E+02  0.13845892707E+02  0.17691300650E+02  0.51100000000E-03 0.  1.
        -12    1    3    3    0    0  0.37553500120E+01  0.32237830604E+00  0.85960360924E+01  0.93860757501E+01  0.00000000000E+00 0.  1.
</event>
<event>
 7    1  0.5559916E-010  0.4778727E+02  0.7816164E-02  0.1312668E+00
        -11   -1    0    0    0    0  0.00000000000E+00  0.00000000000E+00  0.45593999997E+02  0.45594000000E+02  0.51100000000E-03 0. -1.
         11   -1    0    0    0    0 -0.00000000000E+00 -0.00000000000E+00 -0.45593999997E+02  0.45594000000E+02  0.51100000000E-03 0.  1.
    9900012    2    1    2    0    0  0.42549678305E+02 -0.70797381252E+01 -0.47984878812E+01  0.47787270724E+02  0.19999998538E+02 0.  0.
         12    1    1    2    0    0 -0.42549678305E+02  0.70797381252E+01  0.47984878812E+01  0.43400729276E+02  0.00000000000E+00 0. -1.
         11    1    3    3    0    0  0.19198127201E+01  0.93990278128E+00  0.42133658099E+01  0.47245687452E+01  0.51100000000E-03 0. -1.
        -11    1    3    3    0    0  0.35118796574E+02 -0.42788545487E+01 -0.84810255585E+01  0.36380850235E+02  0.51100000000E-03 0.  1.
        -12    1    3    3    0    0  0.55110690111E+01 -0.37407863579E+01 -0.53082813268E+00  0.66818517438E+01  0.00000000000E+00 0.  1.
</event>
<event>
 7    1  0.5559916E-010  0.4778726E+02  0.7816164E-02  0.1312668E+00
        -11   -1    0    0    0    0  0.00000000000E+00  0.00000000000E+00  0.45593999997E+02  0.45594000000E+02  0.51100000000E-03 0. -1.
         11   -1    0    0    0    0 -0.00000000000E+00 -0.00000000000E+00 -0.45593999997E+02  0.45594000000E+02  0.51100000000E-03 0.  1.
    9900012    2    1    2    0    0 -0.31349965456E+02  0.29329652364E+02 -0.63698701096E+01  0.47787261676E+02  0.19999957283E+02 0.  0.
         12    1    1    2    0    0  0.31349965456E+02 -0.29329652364E+02  0.63698701096E+01  0.43400738324E+02  0.00000000000E+00 0. -1.
         11    1    3    3    0    0 -0.97037453357E+01  0.18554235577E+01 -0.32711558225E+01  0.10407003930E+02  0.51100000000E-03 0. -1.
        -11    1    3    3    0    0 -0.81269124946E+01  0.19028664725E+02  0.16233871824E+01  0.20755051773E+02  0.51100000000E-03 0.  1.
        -12    1    3    3    0    0 -0.13519307626E+02  0.84455640813E+01 -0.47221014694E+01  0.16625205972E+02  0.00000000000E+00 0.  1.
</event>
<event>
 7    1  0.5559916E-010  0.4778727E+02  0.7816164E-02  0.1312668E+00
        -11   -1    0    0    0    0  0.00000000000E+00  0.00000000000E+00  0.45593999997E+02  0.45594000000E+02  0.51100000000E-03 0.  1.
         11   -1    0    0    0    0 -0.00000000000E+00 -0.00000000000E+00 -0.45593999997E+02  0.45594000000E+02  0.51100000000E-03 0. -1.
    9900012    2    1    2    0    0  0.33985840042E+02  0.30922192621E+01  0.26814630640E+02  0.47787267752E+02  0.19999984989E+02 0.  0.
         12    1    1    2    0    0 -0.33985840042E+02 -0.30922192621E+01 -0.26814630640E+02  0.43400732248E+02  0.00000000000E+00 0. -1.
         11    1    3    3    0    0  0.48288712327E+01  0.19053139945E+01  0.46458179972E+01  0.69664800239E+01  0.51100000000E-03 0. -1.
        -11    1    3    3    0    0  0.31373795172E+02  0.92190568045E+00  0.18241227941E+02  0.36302993411E+02  0.51100000000E-03 0.  1.
        -12    1    3    3    0    0 -0.22168263627E+01  0.26499958717E+00  0.39275847014E+01  0.45177943170E+01  0.00000000000E+00 0.  1.
</event>
<event>
 7    1  0.5559916E-010  0.4778727E+02  0.7816164E-02  0.1312668E+00
        -11   -1    0    0    0    0  0.00000000000E+00  0.00000000000E+00  0.45593999997E+02  0.45594000000E+02  0.51100000000E-03 0. -1.
         11   -1    0    0    0    0 -0.00000000000E+00 -0.00000000000E+00 -0.45593999997E+02  0.45594000000E+02  0.51100000000E-03 0.  1.
    9900012    2    1    2    0    0 -0.34847088610E+02  0.30798682302E+01 -0.25686924631E+02  0.47787271090E+02  0.20000000208E+02 0.  0.
         12    1    1    2    0    0  0.34847088610E+02 -0.30798682302E+01  0.25686924631E+02  0.43400728910E+02  0.00000000000E+00 0. -1.
         11    1    3    3    0    0 -0.47246236306E+01  0.50390014450E+01 -0.58532223927E+01  0.90539392892E+01  0.51100000000E-03 0. -1.
        -11    1    3    3    0    0 -0.13650132849E+02 -0.39507355780E+01 -0.16559808390E+02  0.21821129498E+02  0.51100000000E-03 0.  1.
        -12    1    3    3    0    0 -0.16472332131E+02  0.19916023632E+01 -0.32738938485E+01  0.16912202303E+02  0.00000000000E+00 0.  1.
</event>
<event>
 7    1  0.5559916E-010  0.4778727E+02  0.7816164E-02  0.1312668E+00
        -11   -1    0    0    0    0  0.00000000000E+00  0.00000000000E+00  0.45593999997E+02  0.45594000000E+02  0.51100000000E-03 0. -1.
         11   -1    0    0    0    0 -0.00000000000E+00 -0.00000000000E+00 -0.45593999997E+02  0.45594000000E+02  0.51100000000E-03 0.  1.
    9900012    2    1    2    0    0 -0.31167599070E+02 -0.20200082021E+02  0.22453526120E+02  0.47787269815E+02  0.19999994392E+02 0.  0.
         12    1    1    2    0    0  0.31167599070E+02  0.20200082021E+02 -0.22453526120E+02  0.43400730185E+02  0.00000000000E+00 0. -1.
         11    1    3    3    0    0 -0.12836272624E+02 -0.12080285014E+02  0.19326091612E+02  0.26157236057E+02  0.51100000000E-03 0. -1.
        -11    1    3    3    0    0 -0.17812929088E+02 -0.78347554580E+01  0.46404780184E+01  0.20005446066E+02  0.51100000000E-03 0.  1.
        -12    1    3    3    0    0 -0.51839735796E+00 -0.28504154835E+00 -0.15130435102E+01  0.16245876919E+01  0.00000000000E+00 0.  1.
</event>
<event>
 7    1  0.5559916E-010  0.4778727E+02  0.7816164E-02  0.1312668E+00
        -11   -1    0    0    0    0  0.00000000000E+00  0.00000000000E+00  0.45593999997E+02  0.45594000000E+02  0.51100000000E-03 0. -1.
         11   -1    0    0    0    0 -0.00000000000E+00 -0.00000000000E+00 -0.45593999997E+02  0.45594000000E+02  0.51100000000E-03 0.  1.
    9900012    2    1    2    0    0  0.39723842884E+02  0.17324005863E+02  0.23491236397E+01  0.47787271268E+02  0.20000001019E+02 0.  0.
         12    1    1    2    0    0 -0.39723842884E+02 -0.17324005863E+02 -0.23491236397E+01  0.43400728732E+02  0.00000000000E+00 0. -1.
         11    1    3    3    0    0  0.67231883207E+01 -0.15929481810E+01  0.22541702319E+01  0.72677389056E+01  0.51100000000E-03 0. -1.
        -11    1    3    3    0    0  0.23917477203E+02  0.12369423441E+02 -0.62599230764E+01  0.27644800401E+02  0.51100000000E-03 0.  1.
        -12    1    3    3    0    0  0.90831773601E+01  0.65475306035E+01  0.63548764842E+01  0.12874731962E+02  0.00000000000E+00 0.  1.
</event>
<event>
 7    1  0.5559916E-010  0.4778728E+02  0.7816164E-02  0.1312668E+00
        -11   -1    0    0    0    0  0.00000000000E+00  0.00000000000E+00  0.45593999997E+02  0.45594000000E+02  0.51100000000E-03 0. -1.
         11   -1    0    0    0    0 -0.00000000000E+00 -0.00000000000E+00 -0.45593999997E+02  0.45594000000E+02  0.51100000000E-03 0.  1.
    9900012    2    1    2    0    0  0.89064131175E+00  0.23854979241E+02 -0.36245958405E+02  0.47787276766E+02  0.20000026086E+02 0.  0.
         12    1    1    2    0    0 -0.89064131175E+00 -0.23854979241E+02  0.36245958405E+02  0.43400723234E+02  0.00000000000E+00 0. -1.
         11    1    3    3    0    0 -0.66594200285E+01  0.12520734682E+02 -0.12029526534E+02  0.18596402367E+02  0.51100000000E-03 0. -1.
        -11    1    3    3    0    0  0.93241200551E+00  0.27206383114E+00 -0.98152673197E+01  0.98632085903E+01  0.51100000000E-03 0.  1.
         12    1    3    3    0    0  0.66176493347E+01  0.11062180728E+02 -0.14401164552E+02  0.19327665809E+02  0.00000000000E+00 0. -1.
</event>
<event>
 7    1  0.5559916E-010  0.4778730E+02  0.7816164E-02  0.1312668E+00
        -11   -1    0    0    0    0  0.00000000000E+00  0.00000000000E+00  0.45593999997E+02  0.45594000000E+02  0.51100000000E-03 0.  1.
         11   -1    0    0    0    0 -0.00000000000E+00 -0.00000000000E+00 -0.45593999997E+02  0.45594000000E+02  0.51100000000E-03 0. -1.
    9900012    2    1    2    0    0  0.15519987880E+02 -0.77010799201E+01  0.39792509800E+02  0.47787303094E+02  0.20000146126E+02 0.  0.
         12    1    1    2    0    0 -0.15519987880E+02  0.77010799201E+01 -0.39792509800E+02  0.43400696906E+02  0.00000000000E+00 0. -1.
         11    1    3    3    0    0  0.90886964558E+01  0.41763633365E+00  0.62657770792E+01  0.11047116639E+02  0.51100000000E-03 0.  1.
        -11    1    3    3    0    0  0.74096316437E+01 -0.13244695352E+01  0.12191893792E+02  0.14328263508E+02  0.51100000000E-03 0. -1.
         12    1    3    3    0    0 -0.97834021937E+00 -0.67942467185E+01  0.21334838929E+02  0.22411922947E+02  0.00000000000E+00 0. -1.
</event>
<event>
 7    1  0.5559916E-010  0.4778725E+02  0.7816164E-02  0.1312668E+00
        -11   -1    0    0    0    0  0.00000000000E+00  0.00000000000E+00  0.45593999997E+02  0.45594000000E+02  0.51100000000E-03 0.  1.
         11   -1    0    0    0    0 -0.00000000000E+00 -0.00000000000E+00 -0.45593999997E+02  0.45594000000E+02  0.51100000000E-03 0. -1.
    9900012    2    1    2    0    0  0.21525632157E+02  0.22343114462E+02  0.30348924211E+02  0.47787253412E+02  0.19999919606E+02 0.  0.
         12    1    1    2    0    0 -0.21525632157E+02 -0.22343114462E+02 -0.30348924211E+02  0.43400746588E+02  0.00000000000E+00 0. -1.
         11    1    3    3    0    0  0.10547370682E+02  0.21819277162E+02  0.14256421327E+02  0.28117137719E+02  0.51100000000E-03 0. -1.
        -11    1    3    3    0    0  0.98661798076E+01  0.12367921062E+01  0.13575436503E+02  0.16827466690E+02  0.51100000000E-03 0.  1.
         12    1    3    3    0    0  0.11120816683E+01 -0.71295480565E+00  0.25170663802E+01  0.28426490030E+01  0.00000000000E+00 0. -1.
</event>
<event>
 7    1  0.5559916E-010  0.4778727E+02  0.7816164E-02  0.1312668E+00
        -11   -1    0    0    0    0  0.00000000000E+00  0.00000000000E+00  0.45593999997E+02  0.45594000000E+02  0.51100000000E-03 0. -1.
         11   -1    0    0    0    0 -0.00000000000E+00 -0.00000000000E+00 -0.45593999997E+02  0.45594000000E+02  0.51100000000E-03 0.  1.
    9900012    2    1    2    0    0 -0.21492074071E+02  0.37441017272E+02 -0.44591610631E+01  0.47787272591E+02  0.20000007054E+02 0.  0.
         12    1    1    2    0    0  0.21492074071E+02 -0.37441017272E+02  0.44591610631E+01  0.43400727409E+02  0.00000000000E+00 0. -1.
         11    1    3    3    0    0 -0.35919872701E+01  0.17326953980E+02  0.39089144600E+01  0.18121956829E+02  0.51100000000E-03 0. -1.
        -11    1    3    3    0    0 -0.16518752678E+02  0.19400423066E+02 -0.10035623293E+02  0.27385385524E+02  0.51100000000E-03 0.  1.
         12    1    3    3    0    0 -0.13813341224E+01  0.71364022537E+00  0.16675477695E+01  0.22799302385E+01  0.00000000000E+00 0. -1.
</event>
<event>
 7    1  0.5559916E-010  0.4778722E+02  0.7816164E-02  0.1312668E+00
        -11   -1    0    0    0    0  0.00000000000E+00  0.00000000000E+00  0.45593999997E+02  0.45594000000E+02  0.51100000000E-03 0.  1.
         11   -1    0    0    0    0 -0.00000000000E+00 -0.00000000000E+00 -0.45593999997E+02  0.45594000000E+02  0.51100000000E-03 0. -1.
    9900012    2    1    2    0    0 -0.15617825201E+02 -0.25109798516E+02  0.31768050619E+02  0.47787222522E+02  0.19999778768E+02 0.  0.
         12    1    1    2    0    0  0.15617825201E+02  0.25109798516E+02 -0.31768050619E+02  0.43400777478E+02  0.00000000000E+00 0. -1.
         11    1    3    3    0    0 -0.14150620349E+02 -0.97094461908E+01  0.18629828092E+02  0.25329506442E+02  0.51100000000E-03 0. -1.
        -11    1    3    3    0    0  0.20109388383E+01 -0.14150681830E+01 -0.61745314367E+00  0.25352596750E+01  0.51100000000E-03 0.  1.
        -12    1    3    3    0    0 -0.34781436904E+01 -0.13985284142E+02  0.13755675670E+02  0.19922456405E+02  0.00000000000E+00 0.  1.
</event>
<event>
 7    1  0.5559916E-010  0.4778727E+02  0.7816164E-02  0.1312668E+00
        -11   -1    0    0    0    0  0.00000000000E+00  0.00000000000E+00  0.45593999997E+02  0.45594000000E+02  0.51100000000E-03 0. -1.
         11   -1    0    0    0    0 -0.00000000000E+00 -0.00000000000E+00 -0.45593999997E+02  0.45594000000E+02  0.51100000000E-03 0.  1.
    9900012    2    1    2    0    0 -0.28940359107E+01 -0.23193626392E+02 -0.36569160384E+02  0.47787271432E+02  0.20000001766E+02 0.  0.
         12    1    1    2    0    0  0.28940359107E+01  0.23193626392E+02  0.36569160384E+02  0.43400728568E+02  0.00000000000E+00 0. -1.
         11    1    3    3    0    0 -0.60721063336E+01 -0.20081528087E+02 -0.15363334479E+02  0.26003274644E+02  0.51100000000E-03 0. -1.
        -11    1    3    3    0    0  0.23592665438E+01 -0.19898065464E+01 -0.18355226068E+02  0.18612893193E+02  0.51100000000E-03 0.  1.
         12    1    3    3    0    0  0.81880387906E+00 -0.11222917586E+01 -0.28505998366E+01  0.31711035953E+01  0.00000000000E+00 0. -1.
</event>
<event>
 7    1  0.5559916E-010  0.4778728E+02  0.7816164E-02  0.1312668E+00
        -11   -1    0    0    0    0  0.00000000000E+00  0.00000000000E+00  0.45593999997E+02  0.45594000000E+02  0.51100000000E-03 0.  1.
         11   -1    0    0    0    0 -0.00000000000E+00 -0.00000000000E+00 -0.45593999997E+02  0.45594000000E+02  0.51100000000E-03 0. -1.
    9900012    2    1    2    0    0  0.21594748662E+01  0.21949606028E+02  0.37378792716E+02  0.47787277870E+02  0.20000031122E+02 0.  0.
         12    1    1    2    0    0 -0.21594748662E+01 -0.21949606028E+02 -0.37378792716E+02  0.43400722130E+02  0.00000000000E+00 0. -1.
         11    1    3    3    0    0 -0.40485738463E+01  0.45383142212E+01  0.46585893147E+01  0.76609203640E+01  0.51100000000E-03 0. -1.
        -11    1    3    3    0    0  0.90368719265E+01  0.15652236035E+02  0.31949328885E+02  0.36707181362E+02  0.51100000000E-03 0.  1.
        -12    1    3    3    0    0 -0.28288232139E+01  0.17590557721E+01  0.77087451662E+00  0.34191761443E+01  0.00000000000E+00 0.  1.
</event>
<event>
 7    1  0.5559916E-010  0.4778727E+02  0.7816164E-02  0.1312668E+00
        -11   -1    0    0    0    0  0.00000000000E+00  0.00000000000E+00  0.45593999997E+02  0.45594000000E+02  0.51100000000E-03 0.  1.
         11   -1    0    0    0    0 -0.00000000000E+00 -0.00000000000E+00 -0.45593999997E+02  0.45594000000E+02  0.51100000000E-03 0. -1.
    9900012    2    1    2    0    0  0.23893677011E+02 -0.67637387426E+01  0.35594481548E+02  0.47787273283E+02  0.20000010206E+02 0.  0.
         12    1    1    2    0    0 -0.23893677011E+02  0.67637387426E+01 -0.35594481548E+02  0.43400726717E+02  0.00000000000E+00 0. -1.
         11    1    3    3    0    0  0.16438221388E+02 -0.16423192478E+01  0.80661995194E+01  0.18384121133E+02  0.51100000000E-03 0. -1.
        -11    1    3    3    0    0  0.92211313971E+00 -0.30847229310E+01  0.12179556438E+02  0.12597912664E+02  0.51100000000E-03 0.  1.
        -12    1    3    3    0    0  0.65333424832E+01 -0.20366965638E+01  0.15348725591E+02  0.16805239485E+02  0.00000000000E+00 0.  1.
</event>
<event>
 7    1  0.5559916E-010  0.4778727E+02  0.7816164E-02  0.1312668E+00
        -11   -1    0    0    0    0  0.00000000000E+00  0.00000000000E+00  0.45593999997E+02  0.45594000000E+02  0.51100000000E-03 0. -1.
         11   -1    0    0    0    0 -0.00000000000E+00 -0.00000000000E+00 -0.45593999997E+02  0.45594000000E+02  0.51100000000E-03 0.  1.
    9900012    2    1    2    0    0 -0.23577327341E+02 -0.20583672244E+02  0.30067345306E+02  0.47787272110E+02  0.20000004858E+02 0.  0.
         12    1    1    2    0    0  0.23577327341E+02  0.20583672244E+02 -0.30067345306E+02  0.43400727890E+02  0.00000000000E+00 0. -1.
         11    1    3    3    0    0 -0.12398789693E+02 -0.52088194966E+01  0.19497165638E+02  0.23685465049E+02  0.51100000000E-03 0. -1.
        -11    1    3    3    0    0 -0.72298938485E+01 -0.10801068303E+02  0.13354737798E+01  0.13065907240E+02  0.51100000000E-03 0.  1.
        -12    1    3    3    0    0 -0.39486437994E+01 -0.45737844448E+01  0.92347058888E+01  0.11035899821E+02  0.00000000000E+00 0.  1.
</event>
<event>
 7    1  0.5559916E-010  0.4778727E+02  0.7816164E-02  0.1312668E+00
        -11   -1    0    0    0    0  0.00000000000E+00  0.00000000000E+00  0.45593999997E+02  0.45594000000E+02  0.51100000000E-03 0.  1.
         11   -1    0    0    0    0 -0.00000000000E+00 -0.00000000000E+00 -0.45593999997E+02  0.45594000000E+02  0.51100000000E-03 0. -1.
    9900012    2    1    2    0    0  0.32201143404E+01  0.21083407209E+02  0.37798732358E+02  0.47787270009E+02  0.19999995277E+02 0.  0.
         12    1    1    2    0    0 -0.32201143404E+01 -0.21083407209E+02 -0.37798732358E+02  0.43400729991E+02  0.00000000000E+00 0. -1.
         11    1    3    3    0    0  0.39911821876E+01  0.82301667578E+01  0.36644837647E+01  0.98536095741E+01  0.51100000000E-03 0. -1.
        -11    1    3    3    0    0 -0.63598424286E+00  0.22889115843E+01  0.20732656123E+02  0.20868316233E+02  0.51100000000E-03 0.  1.
        -12    1    3    3    0    0 -0.13508360437E+00  0.10564328867E+02  0.13401592470E+02  0.17065344202E+02  0.00000000000E+00 0.  1.
</event>
<event>
 7    1  0.5559916E-010  0.4778727E+02  0.7816164E-02  0.1312668E+00
        -11   -1    0    0    0    0  0.00000000000E+00  0.00000000000E+00  0.45593999997E+02  0.45594000000E+02  0.51100000000E-03 0. -1.
         11   -1    0    0    0    0 -0.00000000000E+00 -0.00000000000E+00 -0.45593999997E+02  0.45594000000E+02  0.51100000000E-03 0.  1.
    9900012    2    1    2    0    0 -0.30296658061E+02 -0.24916675569E+02 -0.18571355642E+02  0.47787268883E+02  0.19999990147E+02 0.  0.
         12    1    1    2    0    0  0.30296658061E+02  0.24916675569E+02  0.18571355642E+02  0.43400731117E+02  0.00000000000E+00 0. -1.
         11    1    3    3    0    0 -0.21220215276E+02 -0.21237693252E+02 -0.11370837831E+02  0.32103474956E+02  0.51100000000E-03 0. -1.
        -11    1    3    3    0    0 -0.37609143313E+00  0.28846327633E+01 -0.24153364040E+01  0.37810582052E+01  0.51100000000E-03 0.  1.
        -12    1    3    3    0    0 -0.87003513519E+01 -0.65636150809E+01 -0.47851814074E+01  0.11902735722E+02  0.00000000000E+00 0.  1.
</event>
<event>
 7    1  0.5559916E-010  0.4778723E+02  0.7816164E-02  0.1312668E+00
        -11   -1    0    0    0    0  0.00000000000E+00  0.00000000000E+00  0.45593999997E+02  0.45594000000E+02  0.51100000000E-03 0.  1.
         11   -1    0    0    0    0 -0.00000000000E+00 -0.00000000000E+00 -0.45593999997E+02  0.45594000000E+02  0.51100000000E-03 0. -1.
    9900012    2    1    2    0    0  0.20211954608E+02  0.38321845519E+02 -0.25573988060E+01  0.47787225333E+02  0.19999791582E+02 0.  0.
         12    1    1    2    0    0 -0.20211954608E+02 -0.38321845519E+02  0.25573988060E+01  0.43400774667E+02  0.00000000000E+00 0. -1.
         11    1    3    3    0    0 -0.28553487495E+01  0.67403546378E+01 -0.29960051176E+01  0.79095792587E+01  0.51100000000E-03 0. -1.
        -11    1    3    3    0    0  0.17253211626E+02  0.26843625929E+02 -0.20489857645E+01  0.31975801903E+02  0.51100000000E-03 0.  1.
         12    1    3    3    0    0  0.58140917314E+01  0.47378649519E+01  0.24875920762E+01  0.79018441709E+01  0.00000000000E+00 0. -1.
</event>
<event>
 7    1  0.5559916E-010  0.4778727E+02  0.7816164E-02  0.1312668E+00
        -11   -1    0    0    0    0  0.00000000000E+00  0.00000000000E+00  0.45593999997E+02  0.45594000000E+02  0.51100000000E-03 0. -1.
         11   -1    0    0    0    0 -0.00000000000E+00 -0.00000000000E+00 -0.45593999997E+02  0.45594000000E+02  0.51100000000E-03 0.  1.
    9900012    2    1    2    0    0  0.17520440812E+02  0.17570751911E+02 -0.35607947774E+02  0.47787272891E+02  0.20000008419E+02 0.  0.
         12    1    1    2    0    0 -0.17520440812E+02 -0.17570751911E+02  0.35607947774E+02  0.43400727109E+02  0.00000000000E+00 0. -1.
         11    1    3    3    0    0  0.71612490142E+01  0.16471029428E+02 -0.20805636922E+02  0.27485502103E+02  0.51100000000E-03 0.  1.
        -11    1    3    3    0    0  0.45475481455E+01 -0.87667392999E+00 -0.40320680469E+00  0.46487984796E+01  0.51100000000E-03 0. -1.
        -12    1    3    3    0    0  0.58116436520E+01  0.19763964121E+01 -0.14399104048E+02  0.15652972308E+02  0.00000000000E+00 0.  1.
</event>
<event>
 7    1  0.5559916E-010  0.4778726E+02  0.7816164E-02  0.1312668E+00
        -11   -1    0    0    0    0  0.00000000000E+00  0.00000000000E+00  0.45593999997E+02  0.45594000000E+02  0.51100000000E-03 0.  1.
         11   -1    0    0    0    0 -0.00000000000E+00 -0.00000000000E+00 -0.45593999997E+02  0.45594000000E+02  0.51100000000E-03 0. -1.
    9900012    2    1    2    0    0 -0.28680345104E+02 -0.15408299203E+02  0.28699234576E+02  0.47787263314E+02  0.19999964753E+02 0.  0.
         12    1    1    2    0    0  0.28680345104E+02  0.15408299203E+02 -0.28699234576E+02  0.43400736686E+02  0.00000000000E+00 0. -1.
         11    1    3    3    0    0 -0.19204394604E+00  0.27800288112E+01 -0.49334593868E-01  0.27870908187E+01  0.51100000000E-03 0. -1.
        -11    1    3    3    0    0 -0.24063065694E+02 -0.17918719303E+02  0.26498093716E+02  0.40028247562E+02  0.51100000000E-03 0.  1.
         12    1    3    3    0    0 -0.44252354638E+01 -0.26960871115E+00  0.22504754546E+01  0.49719249330E+01  0.00000000000E+00 0. -1.
</event>
<event>
 7    1  0.5559916E-010  0.4778727E+02  0.7816164E-02  0.1312668E+00
        -11   -1    0    0    0    0  0.00000000000E+00  0.00000000000E+00  0.45593999997E+02  0.45594000000E+02  0.51100000000E-03 0. -1.
         11   -1    0    0    0    0 -0.00000000000E+00 -0.00000000000E+00 -0.45593999997E+02  0.45594000000E+02  0.51100000000E-03 0.  1.
    9900012    2    1    2    0    0 -0.32501756696E+02  0.11784829313E+02 -0.26236942617E+02  0.47787267884E+02  0.19999985592E+02 0.  0.
         12    1    1    2    0    0  0.32501756696E+02 -0.11784829313E+02  0.26236942617E+02  0.43400732116E+02  0.00000000000E+00 0. -1.
         11    1    3    3    0    0 -0.13996278912E+02 -0.20016562098E+01 -0.75186291287E+01  0.16013501653E+02  0.51100000000E-03 0. -1.
        -11    1    3    3    0    0 -0.49369607852E+01  0.22215780022E+00 -0.89986498439E+01  0.10266383743E+02  0.51100000000E-03 0.  1.
         12    1    3    3    0    0 -0.13568516999E+02  0.13564327723E+02 -0.97196636446E+01  0.21507382488E+02  0.00000000000E+00 0. -1.
</event>
<event>
 7    1  0.5559916E-010  0.4778727E+02  0.7816164E-02  0.1312668E+00
        -11   -1    0    0    0    0  0.00000000000E+00  0.00000000000E+00  0.45593999997E+02  0.45594000000E+02  0.51100000000E-03 0.  1.
         11   -1    0    0    0    0 -0.00000000000E+00 -0.00000000000E+00 -0.45593999997E+02  0.45594000000E+02  0.51100000000E-03 0. -1.
    9900012    2    1    2    0    0  0.11811648398E+02 -0.34995183355E+02  0.22791337083E+02  0.47787274868E+02  0.20000017433E+02 0.  0.
         12    1    1    2    0    0 -0.11811648398E+02  0.34995183355E+02 -0.22791337083E+02  0.43400725132E+02  0.00000000000E+00 0. -1.
         11    1    3    3    0    0  0.35573223920E+01 -0.43825311455E+01  0.31997648933E+01  0.64884218016E+01  0.51100000000E-03 0. -1.
        -11    1    3    3    0    0  0.37351880381E+01 -0.26354260376E+02  0.74161478704E+01  0.27631466106E+02  0.51100000000E-03 0.  1.
        -12    1    3    3    0    0  0.45191379677E+01 -0.42583918336E+01  0.12175424319E+02  0.13667386961E+02  0.00000000000E+00 0.  1.
</event>
<event>
 7    1  0.5559916E-010  0.4778728E+02  0.7816164E-02  0.1312668E+00
        -11   -1    0    0    0    0  0.00000000000E+00  0.00000000000E+00  0.45593999997E+02  0.45594000000E+02  0.51100000000E-03 0.  1.
         11   -1    0    0    0    0 -0.00000000000E+00 -0.00000000000E+00 -0.45593999997E+02  0.45594000000E+02  0.51100000000E-03 0. -1.
    9900012    2    1    2    0    0  0.10709304923E+02  0.85619930657E+01  0.41177978566E+02  0.47787275859E+02  0.20000021950E+02 0.  0.
         12    1    1    2    0    0 -0.10709304923E+02 -0.85619930657E+01 -0.41177978566E+02  0.43400724141E+02  0.00000000000E+00 0. -1.
         11    1    3    3    0    0  0.12317877543E+02  0.92366033696E+01  0.21826930319E+02  0.26710668962E+02  0.51100000000E-03 0. -1.
        -11    1    3    3    0    0  0.25149326047E+01 -0.60124405676E+00  0.14411838569E+02  0.14641976356E+02  0.51100000000E-03 0.  1.
         12    1    3    3    0    0 -0.41235052249E+01 -0.73366247171E-01  0.49392096780E+01  0.64346305402E+01  0.00000000000E+00 0. -1.
</event>
<event>
 7    1  0.5559916E-010  0.4778727E+02  0.7816164E-02  0.1312668E+00
        -11   -1    0    0    0    0  0.00000000000E+00  0.00000000000E+00  0.45593999997E+02  0.45594000000E+02  0.51100000000E-03 0. -1.
         11   -1    0    0    0    0 -0.00000000000E+00 -0.00000000000E+00 -0.45593999997E+02  0.45594000000E+02  0.51100000000E-03 0.  1.
    9900012    2    1    2    0    0  0.77252081350E+01 -0.20784601472E+02 -0.37308779719E+02  0.47787267942E+02  0.19999985855E+02 0.  0.
         12    1    1    2    0    0 -0.77252081350E+01  0.20784601472E+02  0.37308779719E+02  0.43400732058E+02  0.00000000000E+00 0. -1.
         11    1    3    3    0    0  0.89377679576E+01 -0.10801644287E+02 -0.32590818609E+02  0.35478453647E+02  0.51100000000E-03 0. -1.
        -11    1    3    3    0    0  0.13820370754E+01 -0.53207498415E+01 -0.52394950468E+00  0.55222213554E+01  0.51100000000E-03 0.  1.
         12    1    3    3    0    0 -0.25945968980E+01 -0.46622073437E+01 -0.41940116054E+01  0.67865929394E+01  0.00000000000E+00 0. -1.
</event>
<event>
 7    1  0.5559916E-010  0.4778725E+02  0.7816164E-02  0.1312668E+00
        -11   -1    0    0    0    0  0.00000000000E+00  0.00000000000E+00  0.45593999997E+02  0.45594000000E+02  0.51100000000E-03 0.  1.
         11   -1    0    0    0    0 -0.00000000000E+00 -0.00000000000E+00 -0.45593999997E+02  0.45594000000E+02  0.51100000000E-03 0. -1.
    9900012    2    1    2    0    0 -0.98571659065E+00  0.25750093647E+02  0.34922573081E+02  0.47787250345E+02  0.19999905624E+02 0.  0.
         12    1    1    2    0    0  0.98571659065E+00 -0.25750093647E+02 -0.34922573081E+02  0.43400749655E+02  0.00000000000E+00 0. -1.
         11    1    3    3    0    0 -0.43604912731E+01 -0.10446987375E+01  0.41304684463E+01  0.60963964309E+01  0.51100000000E-03 0. -1.
        -11    1    3    3    0    0 -0.32974247154E+00  0.22059819931E+02  0.24997424383E+02  0.33340899981E+02  0.51100000000E-03 0.  1.
         12    1    3    3    0    0  0.37045171540E+01  0.47349724538E+01  0.57946802510E+01  0.83499539336E+01  0.00000000000E+00 0. -1.
</event>
<event>
 7    1  0.5559916E-010  0.4778727E+02  0.7816164E-02  0.1312668E+00
        -11   -1    0    0    0    0  0.00000000000E+00  0.00000000000E+00  0.45593999997E+02  0.45594000000E+02  0.51100000000E-03 0.  1.
         11   -1    0    0    0    0 -0.00000000000E+00 -0.00000000000E+00 -0.45593999997E+02  0.45594000000E+02  0.51100000000E-03 0. -1.
    9900012    2    1    2    0    0  0.29936747335E+02  0.16675916299E+02  0.26633213936E+02  0.47787272933E+02  0.20000008612E+02 0.  0.
         12    1    1    2    0    0 -0.29936747335E+02 -0.16675916299E+02 -0.26633213936E+02  0.43400727067E+02  0.00000000000E+00 0. -1.
         11    1    3    3    0    0  0.30540351078E+01  0.37555379354E+01 -0.29556291712E+01  0.56715905779E+01  0.51100000000E-03 0. -1.
        -11    1    3    3    0    0  0.23975474242E+02  0.11881861870E+02  0.27609454566E+02  0.38448458855E+02  0.51100000000E-03 0.  1.
         12    1    3    3    0    0  0.29072379846E+01  0.10385164929E+01  0.19793885412E+01  0.36672235004E+01  0.00000000000E+00 0. -1.
</event>
<event>
 7    1  0.5559916E-010  0.4778728E+02  0.7816164E-02  0.1312668E+00
        -11   -1    0    0    0    0  0.00000000000E+00  0.00000000000E+00  0.45593999997E+02  0.45594000000E+02  0.51100000000E-03 0. -1.
         11   -1    0    0    0    0 -0.00000000000E+00 -0.00000000000E+00 -0.45593999997E+02  0.45594000000E+02  0.51100000000E-03 0.  1.
    9900012    2    1    2    0    0  0.31888952891E+02 -0.29375392771E+02 -0.19503329884E+01  0.47787276323E+02  0.20000024066E+02 0.  0.
         12    1    1    2    0    0 -0.31888952891E+02  0.29375392771E+02  0.19503329884E+01  0.43400723677E+02  0.00000000000E+00 0. -1.
         11    1    3    3    0    0  0.91620566663E+01 -0.10607113401E+02  0.54013472804E+01  0.15020941707E+02  0.51100000000E-03 0. -1.
        -11    1    3    3    0    0  0.22055489432E+02 -0.20408551316E+02 -0.75492955685E+01  0.30982986376E+02  0.51100000000E-03 0.  1.
        -12    1    3    3    0    0  0.67140679286E+00  0.16402719461E+01  0.19761529974E+00  0.17833482401E+01  0.00000000000E+00 0.  1.
</event>
<event>
 7    1  0.5559916E-010  0.4778727E+02  0.7816164E-02  0.1312668E+00
        -11   -1    0    0    0    0  0.00000000000E+00  0.00000000000E+00  0.45593999997E+02  0.45594000000E+02  0.51100000000E-03 0.  1.
         11   -1    0    0    0    0 -0.00000000000E+00 -0.00000000000E+00 -0.45593999997E+02  0.45594000000E+02  0.51100000000E-03 0. -1.
    9900012    2    1    2    0    0  0.21661096775E+02  0.96916846952E+01  0.36338564335E+02  0.47787272775E+02  0.20000007890E+02 0.  0.
         12    1    1    2    0    0 -0.21661096775E+02 -0.96916846952E+01 -0.36338564335E+02  0.43400727225E+02  0.00000000000E+00 0. -1.
         11    1    3    3    0    0  0.30525775866E+01  0.63764103193E+01  0.20237091169E+02  0.21436340586E+02  0.51100000000E-03 0. -1.
        -11    1    3    3    0    0  0.12188017383E+02  0.63430299824E+01  0.10051034001E+02  0.17023662409E+02  0.51100000000E-03 0.  1.
         12    1    3    3    0    0  0.64205018056E+01 -0.30277556066E+01  0.60504391659E+01  0.93272697800E+01  0.00000000000E+00 0. -1.
</event>
<event>
 7    1  0.5559916E-010  0.4778727E+02  0.7816164E-02  0.1312668E+00
        -11   -1    0    0    0    0  0.00000000000E+00  0.00000000000E+00  0.45593999997E+02  0.45594000000E+02  0.51100000000E-03 0.  1.
         11   -1    0    0    0    0 -0.00000000000E+00 -0.00000000000E+00 -0.45593999997E+02  0.45594000000E+02  0.51100000000E-03 0. -1.
    9900012    2    1    2    0    0  0.34450029887E+02 -0.23917295357E+02  0.11170572125E+02  0.47787271227E+02  0.20000000834E+02 0.  0.
         12    1    1    2    0    0 -0.34450029887E+02  0.23917295357E+02 -0.11170572125E+02  0.43400728773E+02  0.00000000000E+00 0. -1.
         11    1    3    3    0    0  0.15690665594E+02 -0.88770285530E+00  0.37969392310E+01  0.16167923519E+02  0.51100000000E-03 0.  1.
        -11    1    3    3    0    0  0.11180357707E+02 -0.12824909512E+02  0.18277346818E+00  0.17015055358E+02  0.51100000000E-03 0. -1.
         12    1    3    3    0    0  0.75790065860E+01 -0.10204682990E+02  0.71908594263E+01  0.14604292350E+02  0.00000000000E+00 0. -1.
</event>
<event>
 7    1  0.5559916E-010  0.4778727E+02  0.7816164E-02  0.1312668E+00
        -11   -1    0    0    0    0  0.00000000000E+00  0.00000000000E+00  0.45593999997E+02  0.45594000000E+02  0.51100000000E-03 0.  1.
         11   -1    0    0    0    0 -0.00000000000E+00 -0.00000000000E+00 -0.45593999997E+02  0.45594000000E+02  0.51100000000E-03 0. -1.
    9900012    2    1    2    0    0 -0.22685728514E+02 -0.36781451920E+01  0.36816463475E+02  0.47787274049E+02  0.20000013701E+02 0.  0.
         12    1    1    2    0    0  0.22685728514E+02  0.36781451920E+01 -0.36816463475E+02  0.43400725951E+02  0.00000000000E+00 0. -1.
         11    1    3    3    0    0 -0.56409218418E+01 -0.25550239303E+01  0.18362711318E+02  0.19378785146E+02  0.51100000000E-03 0. -1.
        -11    1    3    3    0    0 -0.78149627858E+01  0.44106186096E+01  0.27772610837E+01  0.93936350393E+01  0.51100000000E-03 0.  1.
        -12    1    3    3    0    0 -0.92298438864E+01 -0.55337398713E+01  0.15676491073E+02  0.19014853865E+02  0.00000000000E+00 0.  1.
</event>
<event>
 7    1  0.5559916E-010  0.4778726E+02  0.7816164E-02  0.1312668E+00
        -11   -1    0    0    0    0  0.00000000000E+00  0.00000000000E+00  0.45593999997E+02  0.45594000000E+02  0.51100000000E-03 0.  1.
         11   -1    0    0    0    0 -0.00000000000E+00 -0.00000000000E+00 -0.45593999997E+02  0.45594000000E+02  0.51100000000E-03 0. -1.
    9900012    2    1    2    0    0 -0.48643620126E+01 -0.11604447448E+02  0.41536719583E+02  0.47787259314E+02  0.19999946516E+02 0.  0.
         12    1    1    2    0    0  0.48643620126E+01  0.11604447448E+02 -0.41536719583E+02  0.43400740686E+02  0.00000000000E+00 0. -1.
         11    1    3    3    0    0 -0.63974423092E+01  0.64478684053E+00  0.17794536580E+02  0.18920585364E+02  0.51100000000E-03 0. -1.
        -11    1    3    3    0    0  0.46191888202E+01 -0.10373750064E+02  0.11741731633E+02  0.16334621445E+02  0.51100000000E-03 0.  1.
         12    1    3    3    0    0 -0.30861085236E+01 -0.18754842244E+01  0.12000451370E+02  0.12532052505E+02  0.00000000000E+00 0. -1.
</event>
<event>
 7    1  0.5559916E-010  0.4778722E+02  0.7816164E-02  0.1312668E+00
        -11   -1    0    0    0    0  0.00000000000E+00  0.00000000000E+00  0.45593999997E+02  0.45594000000E+02  0.51100000000E-03 0.  1.
         11   -1    0    0    0    0 -0.00000000000E+00 -0.00000000000E+00 -0.45593999997E+02  0.45594000000E+02  0.51100000000E-03 0. -1.
    9900012    2    1    2    0    0 -0.29724934040E+01  0.39026815143E+02  0.18753652070E+02  0.47787222551E+02  0.19999778896E+02 0.  0.
         12    1    1    2    0    0  0.29724934040E+01 -0.39026815143E+02 -0.18753652070E+02  0.43400777449E+02  0.00000000000E+00 0. -1.
         11    1    3    3    0    0 -0.23858935999E+01  0.82953464612E+01  0.11573754740E+02  0.14438042119E+02  0.51100000000E-03 0. -1.
        -11    1    3    3    0    0  0.15900614510E+01  0.19718197687E+02 -0.42971756101E+00  0.19786871225E+02  0.51100000000E-03 0.  1.
        -12    1    3    3    0    0 -0.21766612550E+01  0.11013270995E+02  0.76096148911E+01  0.13562309207E+02  0.00000000000E+00 0.  1.
</event>
<event>
 7    1  0.5559916E-010  0.4778727E+02  0.7816164E-02  0.1312668E+00
        -11   -1    0    0    0    0  0.00000000000E+00  0.00000000000E+00  0.45593999997E+02  0.45594000000E+02  0.51100000000E-03 0. -1.
         11   -1    0    0    0    0 -0.00000000000E+00 -0.00000000000E+00 -0.45593999997E+02  0.45594000000E+02  0.51100000000E-03 0.  1.
    9900012    2    1    2    0    0  0.22004686409E+02 -0.31038134656E+02 -0.20881836654E+02  0.47787272715E+02  0.20000007615E+02 0.  0.
         12    1    1    2    0    0 -0.22004686409E+02  0.31038134656E+02  0.20881836654E+02  0.43400727285E+02  0.00000000000E+00 0. -1.
         11    1    3    3    0    0  0.10542058210E+02 -0.93023103227E+01  0.18986332217E+01  0.14187063720E+02  0.51100000000E-03 0. -1.
        -11    1    3    3    0    0  0.56509474162E+01 -0.11275771630E+02 -0.13340342010E+02  0.18358675272E+02  0.51100000000E-03 0.  1.
         12    1    3    3    0    0  0.58116807831E+01 -0.10460052703E+02 -0.94401278654E+01  0.15241533722E+02  0.00000000000E+00 0. -1.
</event>
<event>
 7    1  0.5559916E-010  0.4778727E+02  0.7816164E-02  0.1312668E+00
        -11   -1    0    0    0    0  0.00000000000E+00  0.00000000000E+00  0.45593999997E+02  0.45594000000E+02  0.51100000000E-03 0.  1.
         11   -1    0    0    0    0 -0.00000000000E+00 -0.00000000000E+00 -0.45593999997E+02  0.45594000000E+02  0.51100000000E-03 0. -1.
    9900012    2    1    2    0    0 -0.36622725255E+00  0.41285786911E+02  0.13378074878E+02  0.47787271772E+02  0.20000003317E+02 0.  0.
         12    1    1    2    0    0  0.36622725255E+00 -0.41285786911E+02 -0.13378074878E+02  0.43400728228E+02  0.00000000000E+00 0. -1.
         11    1    3    3    0    0 -0.57422998352E+01  0.11841305693E+02  0.10907564590E+02  0.17092849191E+02  0.51100000000E-03 0. -1.
        -11    1    3    3    0    0  0.16691303207E+01  0.14387682223E+02 -0.18386261730E+01  0.14600408976E+02  0.51100000000E-03 0.  1.
        -12    1    3    3    0    0  0.37069422619E+01  0.15056798994E+02  0.43091364612E+01  0.16094013606E+02  0.00000000000E+00 0.  1.
</event>
<event>
 7    1  0.5559916E-010  0.4778727E+02  0.7816164E-02  0.1312668E+00
        -11   -1    0    0    0    0  0.00000000000E+00  0.00000000000E+00  0.45593999997E+02  0.45594000000E+02  0.51100000000E-03 0.  1.
         11   -1    0    0    0    0 -0.00000000000E+00 -0.00000000000E+00 -0.45593999997E+02  0.45594000000E+02  0.51100000000E-03 0. -1.
    9900012    2    1    2    0    0  0.30452330035E+02  0.13706915393E+02  0.27720023983E+02  0.47787266553E+02  0.19999979520E+02 0.  0.
         12    1    1    2    0    0 -0.30452330035E+02 -0.13706915393E+02 -0.27720023983E+02  0.43400733447E+02  0.00000000000E+00 0. -1.
         11    1    3    3    0    0  0.55327866390E+00  0.33844336518E+01  0.11733253446E+02  0.12224145987E+02  0.51100000000E-03 0. -1.
        -11    1    3    3    0    0  0.15289064764E+02  0.66424940032E+01  0.91840465662E+01  0.19032207952E+02  0.51100000000E-03 0.  1.
         12    1    3    3    0    0  0.14609986606E+02  0.36799877384E+01  0.68027239707E+01  0.16530912613E+02  0.00000000000E+00 0. -1.
</event>
<event>
 7    1  0.5559916E-010  0.4778728E+02  0.7816164E-02  0.1312668E+00
        -11   -1    0    0    0    0  0.00000000000E+00  0.00000000000E+00  0.45593999997E+02  0.45594000000E+02  0.51100000000E-03 0.  1.
         11   -1    0    0    0    0 -0.00000000000E+00 -0.00000000000E+00 -0.45593999997E+02  0.45594000000E+02  0.51100000000E-03 0. -1.
    9900012    2    1    2    0    0  0.67109705606E+01  0.34368977672E+02  0.25639014566E+02  0.47787276273E+02  0.20000023841E+02 0.  0.
         12    1    1    2    0    0 -0.67109705606E+01 -0.34368977672E+02 -0.25639014566E+02  0.43400723727E+02  0.00000000000E+00 0. -1.
         11    1    3    3    0    0 -0.42945687677E+01  0.93293314711E+01  0.88993069724E+01  0.13589606744E+02  0.51100000000E-03 0. -1.
        -11    1    3    3    0    0  0.58049835794E+01  0.99935704753E+01  0.66843872207E+00  0.11576532114E+02  0.51100000000E-03 0.  1.
        -12    1    3    3    0    0  0.52005557488E+01  0.15046075726E+02  0.16071268871E+02  0.22621137416E+02  0.00000000000E+00 0.  1.
</event>
<event>
 7    1  0.5559916E-010  0.4778727E+02  0.7816164E-02  0.1312668E+00
        -11   -1    0    0    0    0  0.00000000000E+00  0.00000000000E+00  0.45593999997E+02  0.45594000000E+02  0.51100000000E-03 0.  1.
         11   -1    0    0    0    0 -0.00000000000E+00 -0.00000000000E+00 -0.45593999997E+02  0.45594000000E+02  0.51100000000E-03 0. -1.
    9900012    2    1    2    0    0 -0.39517554059E+02  0.17555299867E+02  0.37145101505E+01  0.47787271689E+02  0.20000002941E+02 0.  0.
         12    1    1    2    0    0  0.39517554059E+02 -0.17555299867E+02 -0.37145101505E+01  0.43400728311E+02  0.00000000000E+00 0. -1.
         11    1    3    3    0    0 -0.17200090129E+02  0.20561681896E+01 -0.62577660095E+00  0.17333854871E+02  0.51100000000E-03 0. -1.
        -11    1    3    3    0    0  0.16052911213E+01  0.19339146688E+01 -0.40526998315E+00  0.25458259074E+01  0.51100000000E-03 0.  1.
        -12    1    3    3    0    0 -0.23922755051E+02  0.13565217009E+02  0.47455567346E+01  0.27907590911E+02  0.00000000000E+00 0.  1.
</event>
<event>
 7    1  0.5559916E-010  0.4778727E+02  0.7816164E-02  0.1312668E+00
        -11   -1    0    0    0    0  0.00000000000E+00  0.00000000000E+00  0.45593999997E+02  0.45594000000E+02  0.51100000000E-03 0. -1.
         11   -1    0    0    0    0 -0.00000000000E+00 -0.00000000000E+00 -0.45593999997E+02  0.45594000000E+02  0.51100000000E-03 0.  1.
    9900012    2    1    2    0    0  0.38847327198E+02  0.49599808234E+01 -0.18705803981E+02  0.47787270251E+02  0.19999996382E+02 0.  0.
         12    1    1    2    0    0 -0.38847327198E+02 -0.49599808234E+01  0.18705803981E+02  0.43400729749E+02  0.00000000000E+00 0. -1.
         11    1    3    3    0    0  0.91232460521E+01  0.82137797358E+01 -0.50165006622E+01  0.13261413018E+02  0.51100000000E-03 0. -1.
        -11    1    3    3    0    0  0.25604573844E+01  0.11185595785E+01 -0.49037538733E+01  0.56439276979E+01  0.51100000000E-03 0.  1.
         12    1    3    3    0    0  0.27163623761E+02 -0.43723584909E+01 -0.87855494453E+01  0.28881929535E+02  0.00000000000E+00 0. -1.
</event>
<event>
 7    1  0.5559916E-010  0.4778727E+02  0.7816164E-02  0.1312668E+00
        -11   -1    0    0    0    0  0.00000000000E+00  0.00000000000E+00  0.45593999997E+02  0.45594000000E+02  0.51100000000E-03 0.  1.
         11   -1    0    0    0    0 -0.00000000000E+00 -0.00000000000E+00 -0.45593999997E+02  0.45594000000E+02  0.51100000000E-03 0. -1.
    9900012    2    1    2    0    0  0.20810810891E+02 -0.14470980077E+02  0.35229598435E+02  0.47787265902E+02  0.19999976555E+02 0.  0.
         12    1    1    2    0    0 -0.20810810891E+02  0.14470980077E+02 -0.35229598435E+02  0.43400734098E+02  0.00000000000E+00 0. -1.
         11    1    3    3    0    0 -0.13830396627E+01 -0.18978551872E+01  0.17570984373E+01  0.29329248541E+01  0.51100000000E-03 0. -1.
        -11    1    3    3    0    0  0.80411200614E+01  0.32042532028E+01  0.92659976639E+01  0.12680124739E+02  0.51100000000E-03 0.  1.
        -12    1    3    3    0    0  0.14152730492E+02 -0.15777378093E+02  0.24206502334E+02  0.32174216309E+02  0.00000000000E+00 0.  1.
</event>
<event>
 7    1  0.5559916E-010  0.4778727E+02  0.7816164E-02  0.1312668E+00
        -11   -1    0    0    0    0  0.00000000000E+00  0.00000000000E+00  0.45593999997E+02  0.45594000000E+02  0.51100000000E-03 0.  1.
         11   -1    0    0    0    0 -0.00000000000E+00 -0.00000000000E+00 -0.45593999997E+02  0.45594000000E+02  0.51100000000E-03 0. -1.
    9900012    2    1    2    0    0  0.67420126796E+01  0.24257204273E+02  0.35351896726E+02  0.47787270787E+02  0.19999998825E+02 0.  0.
         12    1    1    2    0    0 -0.67420126796E+01 -0.24257204273E+02 -0.35351896726E+02  0.43400729213E+02  0.00000000000E+00 0. -1.
         11    1    3    3    0    0  0.84067267274E+01  0.46169683483E+01  0.15342371586E+02  0.18093584972E+02  0.51100000000E-03 0. -1.
        -11    1    3    3    0    0  0.98147935473E+00  0.13679728198E+02  0.18448529593E+02  0.22987964453E+02  0.51100000000E-03 0.  1.
         12    1    3    3    0    0 -0.26461934025E+01  0.59605077263E+01  0.15609955474E+01  0.67057213615E+01  0.00000000000E+00 0. -1.
</event>
<event>
 7    1  0.5559916E-010  0.4778727E+02  0.7816164E-02  0.1312668E+00
        -11   -1    0    0    0    0  0.00000000000E+00  0.00000000000E+00  0.45593999997E+02  0.45594000000E+02  0.51100000000E-03 0.  1.
         11   -1    0    0    0    0 -0.00000000000E+00 -0.00000000000E+00 -0.45593999997E+02  0.45594000000E+02  0.51100000000E-03 0. -1.
    9900012    2    1    2    0    0 -0.78924448229E+01  0.42258976815E+02 -0.59591475842E+01  0.47787271357E+02  0.20000001427E+02 0.  0.
         12    1    1    2    0    0  0.78924448229E+01 -0.42258976815E+02  0.59591475842E+01  0.43400728643E+02  0.00000000000E+00 0. -1.
         11    1    3    3    0    0 -0.76794085904E+01  0.13920348169E+02  0.38231114104E+01  0.16351317701E+02  0.51100000000E-03 0. -1.
        -11    1    3    3    0    0 -0.17687408676E+01  0.11659410629E+02  0.45911682936E+00  0.11801740931E+02  0.51100000000E-03 0.  1.
         12    1    3    3    0    0  0.15557046351E+01  0.16679218017E+02 -0.10241375824E+02  0.19634212725E+02  0.00000000000E+00 0. -1.
</event>
<event>
 7    1  0.5559916E-010  0.4778727E+02  0.7816164E-02  0.1312668E+00
        -11   -1    0    0    0    0  0.00000000000E+00  0.00000000000E+00  0.45593999997E+02  0.45594000000E+02  0.51100000000E-03 0. -1.
         11   -1    0    0    0    0 -0.00000000000E+00 -0.00000000000E+00 -0.45593999997E+02  0.45594000000E+02  0.51100000000E-03 0.  1.
    9900012    2    1    2    0    0 -0.42833091378E+02 -0.49415030909E+01 -0.49529219621E+01  0.47787267221E+02  0.19999982566E+02 0.  0.
         12    1    1    2    0    0  0.42833091378E+02  0.49415030909E+01  0.49529219621E+01  0.43400732779E+02  0.00000000000E+00 0. -1.
         11    1    3    3    0    0  0.10318207228E+00 -0.53285687668E+00  0.11340271306E+01  0.12572194657E+01  0.51100000000E-03 0. -1.
        -11    1    3    3    0    0 -0.20100719333E+01 -0.36397790391E+01  0.22920693485E+01  0.47478376963E+01  0.51100000000E-03 0.  1.
        -12    1    3    3    0    0 -0.40926201517E+02 -0.76886717512E+00 -0.83790184411E+01  0.41782210059E+02  0.00000000000E+00 0.  1.
</event>
<event>
 7    1  0.5559916E-010  0.4778727E+02  0.7816164E-02  0.1312668E+00
        -11   -1    0    0    0    0  0.00000000000E+00  0.00000000000E+00  0.45593999997E+02  0.45594000000E+02  0.51100000000E-03 0.  1.
         11   -1    0    0    0    0 -0.00000000000E+00 -0.00000000000E+00 -0.45593999997E+02  0.45594000000E+02  0.51100000000E-03 0. -1.
    9900012    2    1    2    0    0  0.34434897546E+02  0.26394826980E+02  0.10836057184E+01  0.47787271185E+02  0.20000000642E+02 0.  0.
         12    1    1    2    0    0 -0.34434897546E+02 -0.26394826980E+02 -0.10836057184E+01  0.43400728815E+02  0.00000000000E+00 0. -1.
         11    1    3    3    0    0  0.87103094947E+01  0.56796612626E+01 -0.32767036764E+01  0.10902514884E+02  0.51100000000E-03 0. -1.
        -11    1    3    3    0    0  0.13438342870E+02  0.15455054860E+01 -0.75587266688E+00  0.13548025319E+02  0.51100000000E-03 0.  1.
        -12    1    3    3    0    0  0.12286245181E+02  0.19169660232E+02  0.51161820617E+01  0.23336730982E+02  0.00000000000E+00 0.  1.
</event>
<event>
 7    1  0.5559916E-010  0.4778734E+02  0.7816164E-02  0.1312667E+00
        -11   -1    0    0    0    0  0.00000000000E+00  0.00000000000E+00  0.45593999997E+02  0.45594000000E+02  0.51100000000E-03 0.  1.
         11   -1    0    0    0    0 -0.00000000000E+00 -0.00000000000E+00 -0.45593999997E+02  0.45594000000E+02  0.51100000000E-03 0. -1.
    9900012    2    1    2    0    0  0.21107126637E+02  0.32538812955E+02  0.19476458918E+02  0.47787336464E+02  0.20000298273E+02 0.  0.
         12    1    1    2    0    0 -0.21107126637E+02 -0.32538812955E+02 -0.19476458918E+02  0.43400663536E+02  0.00000000000E+00 0. -1.
         11    1    3    3    0    0  0.18218181985E+01  0.78509039822E+00  0.44250480390E+01  0.48493751031E+01  0.51100000000E-03 0. -1.
        -11    1    3    3    0    0  0.16939499275E+02  0.28299626533E+02  0.67789370178E+01  0.33671493655E+02  0.51100000000E-03 0.  1.
        -12    1    3    3    0    0  0.23458091625E+01  0.34540960232E+01  0.82724738609E+01  0.92664677059E+01  0.00000000000E+00 0.  1.
</event>
<event>
 7    1  0.5559916E-010  0.4778727E+02  0.7816164E-02  0.1312668E+00
        -11   -1    0    0    0    0  0.00000000000E+00  0.00000000000E+00  0.45593999997E+02  0.45594000000E+02  0.51100000000E-03 0.  1.
         11   -1    0    0    0    0 -0.00000000000E+00 -0.00000000000E+00 -0.45593999997E+02  0.45594000000E+02  0.51100000000E-03 0. -1.
    9900012    2    1    2    0    0 -0.29391800852E+00  0.23497820850E+02  0.36488206709E+02  0.47787271880E+02  0.20000003810E+02 0.  0.
         12    1    1    2    0    0  0.29391800852E+00 -0.23497820850E+02 -0.36488206709E+02  0.43400728120E+02  0.00000000000E+00 0. -1.
         11    1    3    3    0    0 -0.64885788924E+00 -0.17476324812E+01 -0.54367629309E+00  0.19418599389E+01  0.51100000000E-03 0. -1.
        -11    1    3    3    0    0  0.36080422658E+01  0.86641607283E+01  0.18641763252E+02  0.20871056215E+02  0.51100000000E-03 0.  1.
         12    1    3    3    0    0 -0.32531023851E+01  0.16581292603E+02  0.18390119750E+02  0.24974355726E+02  0.00000000000E+00 0. -1.
</event>
<event>
 7    1  0.5559916E-010  0.4778727E+02  0.7816164E-02  0.1312668E+00
        -11   -1    0    0    0    0  0.00000000000E+00  0.00000000000E+00  0.45593999997E+02  0.45594000000E+02  0.51100000000E-03 0.  1.
         11   -1    0    0    0    0 -0.00000000000E+00 -0.00000000000E+00 -0.45593999997E+02  0.45594000000E+02  0.51100000000E-03 0. -1.
    9900012    2    1    2    0    0 -0.36726156834E+02 -0.70216900827E+01 -0.22034252294E+02  0.47787274182E+02  0.20000014304E+02 0.  0.
         12    1    1    2    0    0  0.36726156834E+02  0.70216900827E+01  0.22034252294E+02  0.43400725818E+02  0.00000000000E+00 0. -1.
         11    1    3    3    0    0 -0.15837009135E+02  0.15961735010E+01 -0.12735592290E+01  0.15968111396E+02  0.51100000000E-03 0. -1.
        -11    1    3    3    0    0 -0.60362632583E+01 -0.55086264230E+00 -0.16001677255E+01  0.62690079586E+01  0.51100000000E-03 0.  1.
         12    1    3    3    0    0 -0.14852884441E+02 -0.80670009415E+01 -0.19160525339E+02  0.25550154827E+02  0.00000000000E+00 0. -1.
</event>
<event>
 7    1  0.5559916E-010  0.4778727E+02  0.7816164E-02  0.1312668E+00
        -11   -1    0    0    0    0  0.00000000000E+00  0.00000000000E+00  0.45593999997E+02  0.45594000000E+02  0.51100000000E-03 0.  1.
         11   -1    0    0    0    0 -0.00000000000E+00 -0.00000000000E+00 -0.45593999997E+02  0.45594000000E+02  0.51100000000E-03 0. -1.
    9900012    2    1    2    0    0 -0.37770799984E+02  0.21361964902E+02 -0.81028869315E+00  0.47787269088E+02  0.19999991078E+02 0.  0.
         12    1    1    2    0    0  0.37770799984E+02 -0.21361964902E+02  0.81028869315E+00  0.43400730912E+02  0.00000000000E+00 0. -1.
         11    1    3    3    0    0 -0.14003244892E+01  0.27181242537E+01 -0.28104515885E+01  0.41530406362E+01  0.51100000000E-03 0. -1.
        -11    1    3    3    0    0 -0.28971781442E+02  0.13965540979E+02  0.78494512156E+01  0.33106107282E+02  0.51100000000E-03 0.  1.
        -12    1    3    3    0    0 -0.73986940537E+01  0.46782996695E+01 -0.58492883203E+01  0.10528121169E+02  0.00000000000E+00 0.  1.
</event>
<event>
 7    1  0.5559916E-010  0.4778727E+02  0.7816164E-02  0.1312668E+00
        -11   -1    0    0    0    0  0.00000000000E+00  0.00000000000E+00  0.45593999997E+02  0.45594000000E+02  0.51100000000E-03 0.  1.
         11   -1    0    0    0    0 -0.00000000000E+00 -0.00000000000E+00 -0.45593999997E+02  0.45594000000E+02  0.51100000000E-03 0. -1.
    9900012    2    1    2    0    0  0.25119748470E+02  0.14577253841E+02  0.32250970820E+02  0.47787271762E+02  0.20000003271E+02 0.  0.
         12    1    1    2    0    0 -0.25119748470E+02 -0.14577253841E+02 -0.32250970820E+02  0.43400728238E+02  0.00000000000E+00 0. -1.
         11    1    3    3    0    0  0.23813411555E+00 -0.27954614577E+01  0.92853663859E+00  0.29552484106E+01  0.51100000000E-03 0. -1.
        -11    1    3    3    0    0  0.12901282414E+02  0.13782580591E+02  0.23237286422E+02  0.29939507280E+02  0.51100000000E-03 0.  1.
        -12    1    3    3    0    0  0.11980331941E+02  0.35901347075E+01  0.80851477599E+01  0.14892516071E+02  0.00000000000E+00 0.  1.
</event>
<event>
 7    1  0.5559916E-010  0.4778728E+02  0.7816164E-02  0.1312668E+00
        -11   -1    0    0    0    0  0.00000000000E+00  0.00000000000E+00  0.45593999997E+02  0.45594000000E+02  0.51100000000E-03 0. -1.
         11   -1    0    0    0    0 -0.00000000000E+00 -0.00000000000E+00 -0.45593999997E+02  0.45594000000E+02  0.51100000000E-03 0.  1.
    9900012    2    1    2    0    0 -0.15188950254E+02  0.18772801455E+02 -0.36062453813E+02  0.47787275820E+02  0.20000021774E+02 0.  0.
         12    1    1    2    0    0  0.15188950254E+02 -0.18772801455E+02  0.36062453813E+02  0.43400724180E+02  0.00000000000E+00 0. -1.
         11    1    3    3    0    0 -0.11060120250E+02  0.13706680595E+02 -0.31972365459E+02  0.36502486302E+02  0.51100000000E-03 0. -1.
        -11    1    3    3    0    0 -0.20594452630E+01 -0.15705218186E+00 -0.51668331850E+01  0.55643638991E+01  0.51100000000E-03 0.  1.
         12    1    3    3    0    0 -0.20693847413E+01  0.52231730420E+01  0.10767448311E+01  0.57204256193E+01  0.00000000000E+00 0. -1.
</event>
<event>
 7    1  0.5559916E-010  0.4778727E+02  0.7816164E-02  0.1312668E+00
        -11   -1    0    0    0    0  0.00000000000E+00  0.00000000000E+00  0.45593999997E+02  0.45594000000E+02  0.51100000000E-03 0.  1.
         11   -1    0    0    0    0 -0.00000000000E+00 -0.00000000000E+00 -0.45593999997E+02  0.45594000000E+02  0.51100000000E-03 0. -1.
    9900012    2    1    2    0    0 -0.19215953128E+02 -0.10384652460E+02  0.37503722828E+02  0.47787273193E+02  0.20000009798E+02 0.  0.
         12    1    1    2    0    0  0.19215953128E+02  0.10384652460E+02 -0.37503722828E+02  0.43400726807E+02  0.00000000000E+00 0. -1.
         11    1    3    3    0    0 -0.62972408882E+01 -0.31600660631E+01 -0.34672702419E+00  0.70541817539E+01  0.51100000000E-03 0. -1.
        -11    1    3    3    0    0 -0.74433289612E+01 -0.27994601291E+01  0.18277511615E+02  0.19932575201E+02  0.51100000000E-03 0.  1.
         12    1    3    3    0    0 -0.54753832788E+01 -0.44251262683E+01  0.19572938237E+02  0.20800516238E+02  0.00000000000E+00 0. -1.
</event>
<event>
 7    1  0.5559916E-010  0.4778727E+02  0.7816164E-02  0.1312668E+00
        -11   -1    0    0    0    0  0.00000000000E+00  0.00000000000E+00  0.45593999997E+02  0.45594000000E+02  0.51100000000E-03 0.  1.
         11   -1    0    0    0    0 -0.00000000000E+00 -0.00000000000E+00 -0.45593999997E+02  0.45594000000E+02  0.51100000000E-03 0. -1.
    9900012    2    1    2    0    0 -0.62845227768E+00 -0.11749900553E+02  0.41775209328E+02  0.47787271554E+02  0.20000002325E+02 0.  0.
         12    1    1    2    0    0  0.62845227768E+00  0.11749900553E+02 -0.41775209328E+02  0.43400728446E+02  0.00000000000E+00 0. -1.
         11    1    3    3    0    0  0.34827899077E+01  0.22174895249E+01  0.93204060156E+00  0.42327042512E+01  0.51100000000E-03 0. -1.
        -11    1    3    3    0    0 -0.43839469052E+01 -0.79270365241E+01  0.25639875641E+02  0.27193016046E+02  0.51100000000E-03 0.  1.
         12    1    3    3    0    0  0.27270471980E+00 -0.60403535533E+01  0.15203293085E+02  0.16361551257E+02  0.00000000000E+00 0. -1.
</event>
<event>
 7    1  0.5559916E-010  0.4778729E+02  0.7816164E-02  0.1312668E+00
        -11   -1    0    0    0    0  0.00000000000E+00  0.00000000000E+00  0.45593999997E+02  0.45594000000E+02  0.51100000000E-03 0.  1.
         11   -1    0    0    0    0 -0.00000000000E+00 -0.00000000000E+00 -0.45593999997E+02  0.45594000000E+02  0.51100000000E-03 0. -1.
    9900012    2    1    2    0    0  0.39909904285E+02 -0.52442506655E+01  0.16227117764E+02  0.47787285997E+02  0.20000068174E+02 0.  0.
         12    1    1    2    0    0 -0.39909904285E+02  0.52442506655E+01 -0.16227117764E+02  0.43400714003E+02  0.00000000000E+00 0. -1.
         11    1    3    3    0    0  0.54916353580E+01 -0.39630755549E+01  0.96502957240E+01  0.11789496791E+02  0.51100000000E-03 0. -1.
        -11    1    3    3    0    0  0.30824780388E+02 -0.44904670221E+00  0.83010599218E+01  0.31926107264E+02  0.51100000000E-03 0.  1.
         12    1    3    3    0    0  0.35934885387E+01 -0.83212840845E+00 -0.17242378821E+01  0.40716819424E+01  0.00000000000E+00 0. -1.
</event>
<event>
 7    1  0.5559916E-010  0.4778728E+02  0.7816164E-02  0.1312668E+00
        -11   -1    0    0    0    0  0.00000000000E+00  0.00000000000E+00  0.45593999997E+02  0.45594000000E+02  0.51100000000E-03 0. -1.
         11   -1    0    0    0    0 -0.00000000000E+00 -0.00000000000E+00 -0.45593999997E+02  0.45594000000E+02  0.51100000000E-03 0.  1.
    9900012    2    1    2    0    0  0.27600278668E+02  0.20918000897E+02 -0.26158836521E+02  0.47787275672E+02  0.20000021098E+02 0.  0.
         12    1    1    2    0    0 -0.27600278668E+02 -0.20918000897E+02  0.26158836521E+02  0.43400724328E+02  0.00000000000E+00 0. -1.
         11    1    3    3    0    0  0.65840910055E+01  0.10225239726E+02 -0.16180989150E+02  0.20241793200E+02  0.51100000000E-03 0.  1.
        -11    1    3    3    0    0  0.18524098527E+02  0.12671167880E+02 -0.81585062587E+01  0.23880158004E+02  0.51100000000E-03 0. -1.
         12    1    3    3    0    0  0.24920891357E+01 -0.19784067093E+01 -0.18193411121E+01  0.36653244672E+01  0.00000000000E+00 0. -1.
</event>
<event>
 7    1  0.5559916E-010  0.4778727E+02  0.7816164E-02  0.1312668E+00
        -11   -1    0    0    0    0  0.00000000000E+00  0.00000000000E+00  0.45593999997E+02  0.45594000000E+02  0.51100000000E-03 0.  1.
         11   -1    0    0    0    0 -0.00000000000E+00 -0.00000000000E+00 -0.45593999997E+02  0.45594000000E+02  0.51100000000E-03 0. -1.
    9900012    2    1    2    0    0 -0.43301934142E+02  0.83679908125E+00  0.28045716878E+01  0.47787270104E+02  0.19999995713E+02 0.  0.
         12    1    1    2    0    0  0.43301934142E+02 -0.83679908125E+00 -0.28045716878E+01  0.43400729896E+02  0.00000000000E+00 0. -1.
         11    1    3    3    0    0 -0.44338713330E+01 -0.50339963552E+01  0.19011723999E+01  0.69724307854E+01  0.51100000000E-03 0. -1.
        -11    1    3    3    0    0 -0.33516571517E+02  0.86835348634E+01 -0.42135923915E+00  0.34625740250E+02  0.51100000000E-03 0.  1.
        -12    1    3    3    0    0 -0.53514912919E+01 -0.28127394269E+01  0.13247585271E+01  0.61890990690E+01  0.00000000000E+00 0.  1.
</event>
<event>
 7    1  0.5559916E-010  0.4778726E+02  0.7816164E-02  0.1312668E+00
        -11   -1    0    0    0    0  0.00000000000E+00  0.00000000000E+00  0.45593999997E+02  0.45594000000E+02  0.51100000000E-03 0.  1.
         11   -1    0    0    0    0 -0.00000000000E+00 -0.00000000000E+00 -0.45593999997E+02  0.45594000000E+02  0.51100000000E-03 0. -1.
    9900012    2    1    2    0    0 -0.35372016074E+02 -0.17717289056E+02  0.17847761725E+02  0.47787257481E+02  0.19999938158E+02 0.  0.
         12    1    1    2    0    0  0.35372016074E+02  0.17717289056E+02 -0.17847761725E+02  0.43400742519E+02  0.00000000000E+00 0. -1.
         11    1    3    3    0    0  0.44587787043E+00 -0.51665141445E+01 -0.55980209613E+00  0.52158464441E+01  0.51100000000E-03 0. -1.
        -11    1    3    3    0    0 -0.17504768271E+02 -0.44558358504E+01  0.60825365596E+01  0.19059607462E+02  0.51100000000E-03 0.  1.
        -12    1    3    3    0    0 -0.18313125673E+02 -0.80949390611E+01  0.12325027261E+02  0.23511803575E+02  0.00000000000E+00 0.  1.
</event>
<event>
 7    1  0.5559916E-010  0.4778729E+02  0.7816164E-02  0.1312668E+00
        -11   -1    0    0    0    0  0.00000000000E+00  0.00000000000E+00  0.45593999997E+02  0.45594000000E+02  0.51100000000E-03 0.  1.
         11   -1    0    0    0    0 -0.00000000000E+00 -0.00000000000E+00 -0.45593999997E+02  0.45594000000E+02  0.51100000000E-03 0. -1.
    9900012    2    1    2    0    0  0.37357175121E+02 -0.12304407788E+02 -0.18348425471E+02  0.47787289161E+02  0.20000082602E+02 0.  0.
         12    1    1    2    0    0 -0.37357175121E+02  0.12304407788E+02  0.18348425471E+02  0.43400710839E+02  0.00000000000E+00 0. -1.
         11    1    3    3    0    0  0.21779566252E+02 -0.60690947762E+01 -0.84171257551E+00  0.22625028129E+02  0.51100000000E-03 0.  1.
        -11    1    3    3    0    0  0.12876120150E+02 -0.31060687517E+01 -0.15978923740E+02  0.20754954526E+02  0.51100000000E-03 0. -1.
         12    1    3    3    0    0  0.27014887186E+01 -0.31292442600E+01 -0.15277891550E+01  0.44073065060E+01  0.00000000000E+00 0. -1.
</event>
<event>
 7    1  0.5559916E-010  0.4778727E+02  0.7816164E-02  0.1312668E+00
        -11   -1    0    0    0    0  0.00000000000E+00  0.00000000000E+00  0.45593999997E+02  0.45594000000E+02  0.51100000000E-03 0.  1.
         11   -1    0    0    0    0 -0.00000000000E+00 -0.00000000000E+00 -0.45593999997E+02  0.45594000000E+02  0.51100000000E-03 0. -1.
    9900012    2    1    2    0    0  0.41810476771E+02 -0.11594338529E+02 -0.10387628379E+01  0.47787266342E+02  0.19999978562E+02 0.  0.
         12    1    1    2    0    0 -0.41810476771E+02  0.11594338529E+02  0.10387628379E+01  0.43400733658E+02  0.00000000000E+00 0. -1.
         11    1    3    3    0    0 -0.77804491215E+00 -0.21635315291E+01 -0.16842915410E+01  0.28500983876E+01  0.51100000000E-03 0. -1.
        -11    1    3    3    0    0  0.42534607576E+02 -0.89411927687E+01  0.19854902682E+01  0.43509538513E+02  0.51100000000E-03 0.  1.
        -12    1    3    3    0    0  0.53914107660E-01 -0.48961423164E+00 -0.13399615651E+01  0.14276294417E+01  0.00000000000E+00 0.  1.
</event>
<event>
 7    1  0.5559916E-010  0.4778727E+02  0.7816164E-02  0.1312668E+00
        -11   -1    0    0    0    0  0.00000000000E+00  0.00000000000E+00  0.45593999997E+02  0.45594000000E+02  0.51100000000E-03 0. -1.
         11   -1    0    0    0    0 -0.00000000000E+00 -0.00000000000E+00 -0.45593999997E+02  0.45594000000E+02  0.51100000000E-03 0.  1.
    9900012    2    1    2    0    0 -0.33231941707E+02  0.24622720724E+02 -0.13152303811E+02  0.47787269349E+02  0.19999992271E+02 0.  0.
         12    1    1    2    0    0  0.33231941707E+02 -0.24622720724E+02  0.13152303811E+02  0.43400730651E+02  0.00000000000E+00 0. -1.
         11    1    3    3    0    0 -0.11811698185E+01 -0.16197901033E+01  0.43517404337E+00  0.20514041114E+01  0.51100000000E-03 0. -1.
        -11    1    3    3    0    0 -0.23619515107E+02  0.21790540948E+02 -0.42940031964E+01  0.32421407009E+02  0.51100000000E-03 0.  1.
        -12    1    3    3    0    0 -0.84312567818E+01  0.44519698790E+01 -0.92934746580E+01  0.13314458229E+02  0.00000000000E+00 0.  1.
</event>
<event>
 7    1  0.5559916E-010  0.4778727E+02  0.7816164E-02  0.1312668E+00
        -11   -1    0    0    0    0  0.00000000000E+00  0.00000000000E+00  0.45593999997E+02  0.45594000000E+02  0.51100000000E-03 0.  1.
         11   -1    0    0    0    0 -0.00000000000E+00 -0.00000000000E+00 -0.45593999997E+02  0.45594000000E+02  0.51100000000E-03 0. -1.
    9900012    2    1    2    0    0  0.36928279515E+02  0.21294704436E+02  0.81523436508E+01  0.47787274523E+02  0.20000015858E+02 0.  0.
         12    1    1    2    0    0 -0.36928279515E+02 -0.21294704436E+02 -0.81523436508E+01  0.43400725477E+02  0.00000000000E+00 0. -1.
         11    1    3    3    0    0  0.23889202930E+02  0.19174700444E+02  0.36900204593E+01  0.30854163495E+02  0.51100000000E-03 0. -1.
        -11    1    3    3    0    0  0.13363385225E+02 -0.67658705732E+00  0.28222541855E+01  0.13674902327E+02  0.51100000000E-03 0.  1.
         12    1    3    3    0    0 -0.32430863908E+00  0.27965910493E+01  0.16400690060E+01  0.32582087003E+01  0.00000000000E+00 0. -1.
</event>
<event>
 7    1  0.5559916E-010  0.4778727E+02  0.7816164E-02  0.1312668E+00
        -11   -1    0    0    0    0  0.00000000000E+00  0.00000000000E+00  0.45593999997E+02  0.45594000000E+02  0.51100000000E-03 0.  1.
         11   -1    0    0    0    0 -0.00000000000E+00 -0.00000000000E+00 -0.45593999997E+02  0.45594000000E+02  0.51100000000E-03 0. -1.
    9900012    2    1    2    0    0  0.62297628223E+01  0.45048550726E+01  0.42714395200E+02  0.47787271650E+02  0.20000002759E+02 0.  0.
         12    1    1    2    0    0 -0.62297628223E+01 -0.45048550726E+01 -0.42714395200E+02  0.43400728350E+02  0.00000000000E+00 0. -1.
         11    1    3    3    0    0  0.58817439732E+00 -0.76500313297E+00 -0.17215620322E+01  0.19735640367E+01  0.51100000000E-03 0. -1.
        -11    1    3    3    0    0  0.28807164710E+01 -0.10305261273E+01  0.25195663233E+02  0.25380739893E+02  0.51100000000E-03 0.  1.
         12    1    3    3    0    0  0.27608719540E+01  0.63003843328E+01  0.19240293999E+02  0.20432967720E+02  0.00000000000E+00 0. -1.
</event>
<event>
 7    1  0.5665126E-010  0.4778727E+02  0.7816164E-02  0.1312668E+00
        -11   -1    0    0    0    0  0.00000000000E+00  0.00000000000E+00  0.45593999997E+02  0.45594000000E+02  0.51100000000E-03 0.  1.
         11   -1    0    0    0    0 -0.00000000000E+00 -0.00000000000E+00 -0.45593999997E+02  0.45594000000E+02  0.51100000000E-03 0. -1.
    9900012    2    1    2    0    0 -0.70837213270E+01  0.33303689770E+02  0.26912978153E+02  0.47787271282E+02  0.20000001084E+02 0.  0.
         12    1    1    2    0    0  0.70837213270E+01 -0.33303689770E+02 -0.26912978153E+02  0.43400728718E+02  0.00000000000E+00 0. -1.
         11    1    3    3    0    0  0.28266691591E+00 -0.70270157175E+00 -0.66592275242E+00  0.10085353031E+01  0.51100000000E-03 0. -1.
        -11    1    3    3    0    0 -0.93031979801E+01  0.21928865015E+02  0.11162437773E+02  0.26306361034E+02  0.51100000000E-03 0.  1.
        -12    1    3    3    0    0  0.19368097371E+01  0.12077526327E+02  0.16416463132E+02  0.20472374945E+02  0.00000000000E+00 0.  1.
</event>
<event>
 7    1  0.5559916E-010  0.4778728E+02  0.7816164E-02  0.1312668E+00
        -11   -1    0    0    0    0  0.00000000000E+00  0.00000000000E+00  0.45593999997E+02  0.45594000000E+02  0.51100000000E-03 0. -1.
         11   -1    0    0    0    0 -0.00000000000E+00 -0.00000000000E+00 -0.45593999997E+02  0.45594000000E+02  0.51100000000E-03 0.  1.
    9900012    2    1    2    0    0  0.26882154848E+02  0.33336714803E+02 -0.70452889902E+01  0.47787275351E+02  0.20000019635E+02 0.  0.
         12    1    1    2    0    0 -0.26882154848E+02 -0.33336714803E+02  0.70452889902E+01  0.43400724649E+02  0.00000000000E+00 0. -1.
         11    1    3    3    0    0  0.15632869005E+01  0.66853689047E+01 -0.81865491167E+01  0.10684456468E+02  0.51100000000E-03 0. -1.
        -11    1    3    3    0    0  0.18941330827E+02  0.17034697424E+02 -0.28223997573E+00  0.25476157275E+02  0.51100000000E-03 0.  1.
         12    1    3    3    0    0  0.63775371200E+01  0.96166484747E+01  0.14235001022E+01  0.11626661608E+02  0.00000000000E+00 0. -1.
</event>
<event>
 7    1  0.5559916E-010  0.4778727E+02  0.7816164E-02  0.1312668E+00
        -11   -1    0    0    0    0  0.00000000000E+00  0.00000000000E+00  0.45593999997E+02  0.45594000000E+02  0.51100000000E-03 0. -1.
         11   -1    0    0    0    0 -0.00000000000E+00 -0.00000000000E+00 -0.45593999997E+02  0.45594000000E+02  0.51100000000E-03 0.  1.
    9900012    2    1    2    0    0  0.11723510201E+02 -0.19012282072E+02 -0.37211772333E+02  0.47787267735E+02  0.19999984909E+02 0.  0.
         12    1    1    2    0    0 -0.11723510201E+02  0.19012282072E+02  0.37211772333E+02  0.43400732265E+02  0.00000000000E+00 0. -1.
         11    1    3    3    0    0  0.12768648615E+02 -0.78058520997E+01 -0.27375625841E+02  0.31199272506E+02  0.51100000000E-03 0. -1.
        -11    1    3    3    0    0 -0.28912386085E+01 -0.67728983877E+01 -0.91363512476E+01  0.11734748725E+02  0.51100000000E-03 0.  1.
         12    1    3    3    0    0  0.18461001945E+01 -0.44335315842E+01 -0.69979524406E+00  0.48532465031E+01  0.00000000000E+00 0. -1.
</event>
<event>
 7    1  0.5559916E-010  0.4778726E+02  0.7816164E-02  0.1312668E+00
        -11   -1    0    0    0    0  0.00000000000E+00  0.00000000000E+00  0.45593999997E+02  0.45594000000E+02  0.51100000000E-03 0. -1.
         11   -1    0    0    0    0 -0.00000000000E+00 -0.00000000000E+00 -0.45593999997E+02  0.45594000000E+02  0.51100000000E-03 0.  1.
    9900012    2    1    2    0    0  0.82199478642E+01 -0.16971733132E+02 -0.39089856148E+02  0.47787261272E+02  0.19999955445E+02 0.  0.
         12    1    1    2    0    0 -0.82199478642E+01  0.16971733132E+02  0.39089856148E+02  0.43400738728E+02  0.00000000000E+00 0. -1.
         11    1    3    3    0    0  0.28880100167E+01 -0.28731961272E+01 -0.11649231675E+01  0.42370867455E+01  0.51100000000E-03 0. -1.
        -11    1    3    3    0    0  0.97539638354E+01 -0.13567378076E+02 -0.32386462171E+02  0.36443058195E+02  0.51100000000E-03 0.  1.
        -12    1    3    3    0    0 -0.44220259879E+01 -0.53115892943E+00 -0.55384708095E+01  0.71071163318E+01  0.00000000000E+00 0.  1.
</event>
<event>
 7    1  0.5559916E-010  0.4778727E+02  0.7816164E-02  0.1312668E+00
        -11   -1    0    0    0    0  0.00000000000E+00  0.00000000000E+00  0.45593999997E+02  0.45594000000E+02  0.51100000000E-03 0. -1.
         11   -1    0    0    0    0 -0.00000000000E+00 -0.00000000000E+00 -0.45593999997E+02  0.45594000000E+02  0.51100000000E-03 0.  1.
    9900012    2    1    2    0    0  0.34964284452E+02 -0.22918847947E+02  0.11655404496E+02  0.47787271522E+02  0.20000002178E+02 0.  0.
         12    1    1    2    0    0 -0.34964284452E+02  0.22918847947E+02 -0.11655404496E+02  0.43400728478E+02  0.00000000000E+00 0. -1.
         11    1    3    3    0    0  0.97767973284E+01 -0.13370774680E+01 -0.34007709052E+01  0.10437374438E+02  0.51100000000E-03 0.  1.
        -11    1    3    3    0    0  0.25632430834E+02 -0.19927146973E+02  0.14334544474E+02  0.35490729247E+02  0.51100000000E-03 0. -1.
        -12    1    3    3    0    0 -0.44494371011E+00 -0.16546235057E+01  0.72163092692E+00  0.18591678368E+01  0.00000000000E+00 0.  1.
</event>
<event>
 7    1  0.5559916E-010  0.4778727E+02  0.7816164E-02  0.1312668E+00
        -11   -1    0    0    0    0  0.00000000000E+00  0.00000000000E+00  0.45593999997E+02  0.45594000000E+02  0.51100000000E-03 0. -1.
         11   -1    0    0    0    0 -0.00000000000E+00 -0.00000000000E+00 -0.45593999997E+02  0.45594000000E+02  0.51100000000E-03 0.  1.
    9900012    2    1    2    0    0 -0.42611855662E+02  0.54967812521E+01  0.61350145984E+01  0.47787271306E+02  0.20000001192E+02 0.  0.
         12    1    1    2    0    0  0.42611855662E+02 -0.54967812521E+01 -0.61350145984E+01  0.43400728694E+02  0.00000000000E+00 0. -1.
         11    1    3    3    0    0 -0.16520816368E+01 -0.14704774048E+01  0.11305963958E+01  0.24839335748E+01  0.51100000000E-03 0. -1.
        -11    1    3    3    0    0 -0.23198053020E+02  0.10674783595E+01  0.10937637168E+02  0.25669458137E+02  0.51100000000E-03 0.  1.
        -12    1    3    3    0    0 -0.17761721005E+02  0.58997802975E+01 -0.59332189657E+01  0.19633879594E+02  0.00000000000E+00 0.  1.
</event>
<event>
 7    1  0.5559916E-010  0.4778728E+02  0.7816164E-02  0.1312668E+00
        -11   -1    0    0    0    0  0.00000000000E+00  0.00000000000E+00  0.45593999997E+02  0.45594000000E+02  0.51100000000E-03 0.  1.
         11   -1    0    0    0    0 -0.00000000000E+00 -0.00000000000E+00 -0.45593999997E+02  0.45594000000E+02  0.51100000000E-03 0. -1.
    9900012    2    1    2    0    0 -0.85621042782E+01 -0.31898487018E+02  0.28156689800E+02  0.47787282446E+02  0.20000051985E+02 0.  0.
         12    1    1    2    0    0  0.85621042782E+01  0.31898487018E+02 -0.28156689800E+02  0.43400717554E+02  0.00000000000E+00 0. -1.
         11    1    3    3    0    0  0.22950480288E+01 -0.78306538932E+00 -0.15498398027E+01  0.28779229548E+01  0.51100000000E-03 0. -1.
        -11    1    3    3    0    0 -0.42371452845E+01 -0.18057232012E+02  0.20350870590E+02  0.27534977068E+02  0.51100000000E-03 0.  1.
        -12    1    3    3    0    0 -0.66200070225E+01 -0.13058189616E+02  0.93556590128E+01  0.17374382423E+02  0.00000000000E+00 0.  1.
</event>
<event>
 7    1  0.5559916E-010  0.4778727E+02  0.7816164E-02  0.1312668E+00
        -11   -1    0    0    0    0  0.00000000000E+00  0.00000000000E+00  0.45593999997E+02  0.45594000000E+02  0.51100000000E-03 0.  1.
         11   -1    0    0    0    0 -0.00000000000E+00 -0.00000000000E+00 -0.45593999997E+02  0.45594000000E+02  0.51100000000E-03 0. -1.
    9900012    2    1    2    0    0  0.15235233259E+02  0.27954541686E+02 -0.29496694902E+02  0.47787265634E+02  0.19999975331E+02 0.  0.
         12    1    1    2    0    0 -0.15235233259E+02 -0.27954541686E+02  0.29496694902E+02  0.43400734366E+02  0.00000000000E+00 0. -1.
         11    1    3    3    0    0  0.16084968831E+02  0.10258292202E+02 -0.13407262357E+02  0.23317664235E+02  0.51100000000E-03 0.  1.
        -11    1    3    3    0    0  0.69225907325E+00  0.15105949877E+02 -0.11584654052E+02  0.19049229751E+02  0.51100000000E-03 0. -1.
        -12    1    3    3    0    0 -0.15419946446E+01  0.25902996071E+01 -0.45047784929E+01  0.54203716486E+01  0.00000000000E+00 0.  1.
</event>
<event>
 7    1  0.5559916E-010  0.4778727E+02  0.7816164E-02  0.1312668E+00
        -11   -1    0    0    0    0  0.00000000000E+00  0.00000000000E+00  0.45593999997E+02  0.45594000000E+02  0.51100000000E-03 0.  1.
         11   -1    0    0    0    0 -0.00000000000E+00 -0.00000000000E+00 -0.45593999997E+02  0.45594000000E+02  0.51100000000E-03 0. -1.
    9900012    2    1    2    0    0 -0.16112817893E+01 -0.27557612198E+02  0.33490375574E+02  0.47787268726E+02  0.19999989429E+02 0.  0.
         12    1    1    2    0    0  0.16112817893E+01  0.27557612198E+02 -0.33490375574E+02  0.43400731274E+02  0.00000000000E+00 0. -1.
         11    1    3    3    0    0 -0.16827203130E+01 -0.10172901539E+01  0.56098176754E+01  0.59444496399E+01  0.51100000000E-03 0. -1.
        -11    1    3    3    0    0 -0.32325076505E+01  0.79861966960E+00  0.51640337371E+01  0.61444400710E+01  0.51100000000E-03 0.  1.
        -12    1    3    3    0    0  0.33039461741E+01 -0.27338941713E+02  0.22716524161E+02  0.35698379015E+02  0.00000000000E+00 0.  1.
</event>
<event>
 7    1  0.5559916E-010  0.4778728E+02  0.7816164E-02  0.1312668E+00
        -11   -1    0    0    0    0  0.00000000000E+00  0.00000000000E+00  0.45593999997E+02  0.45594000000E+02  0.51100000000E-03 0. -1.
         11   -1    0    0    0    0 -0.00000000000E+00 -0.00000000000E+00 -0.45593999997E+02  0.45594000000E+02  0.51100000000E-03 0.  1.
    9900012    2    1    2    0    0 -0.39465981476E+02  0.30005292877E+01  0.17806057318E+02  0.47787279418E+02  0.20000038177E+02 0.  0.
         12    1    1    2    0    0  0.39465981476E+02 -0.30005292877E+01 -0.17806057318E+02  0.43400720582E+02  0.00000000000E+00 0. -1.
         11    1    3    3    0    0 -0.67625099460E+00 -0.14168719135E+01 -0.12675160795E+01  0.20177806372E+01  0.51100000000E-03 0. -1.
        -11    1    3    3    0    0 -0.31084310091E+02  0.65855171465E+01  0.92412953453E+01  0.33090858403E+02  0.51100000000E-03 0.  1.
        -12    1    3    3    0    0 -0.77054203906E+01 -0.21681159453E+01  0.98322780518E+01  0.12678640378E+02  0.00000000000E+00 0.  1.
</event>
<event>
 7    1  0.5559916E-010  0.4778726E+02  0.7816164E-02  0.1312668E+00
        -11   -1    0    0    0    0  0.00000000000E+00  0.00000000000E+00  0.45593999997E+02  0.45594000000E+02  0.51100000000E-03 0.  1.
         11   -1    0    0    0    0 -0.00000000000E+00 -0.00000000000E+00 -0.45593999997E+02  0.45594000000E+02  0.51100000000E-03 0. -1.
    9900012    2    1    2    0    0  0.12033668493E+02 -0.41529876129E+02  0.37528735620E+01  0.47787264423E+02  0.19999969811E+02 0.  0.
         12    1    1    2    0    0 -0.12033668493E+02  0.41529876129E+02 -0.37528735620E+01  0.43400735577E+02  0.00000000000E+00 0. -1.
         11    1    3    3    0    0 -0.18296062000E+01 -0.12184608268E+02  0.29410226023E+01  0.12667349829E+02  0.51100000000E-03 0. -1.
        -11    1    3    3    0    0  0.32899097812E+01 -0.20815657569E+02  0.32340194274E+01  0.21320740801E+02  0.51100000000E-03 0.  1.
         12    1    3    3    0    0  0.10573364911E+02 -0.85296102923E+01 -0.24221684676E+01  0.13799173793E+02  0.00000000000E+00 0. -1.
</event>
<event>
 7    1  0.5559916E-010  0.4778727E+02  0.7816164E-02  0.1312668E+00
        -11   -1    0    0    0    0  0.00000000000E+00  0.00000000000E+00  0.45593999997E+02  0.45594000000E+02  0.51100000000E-03 0.  1.
         11   -1    0    0    0    0 -0.00000000000E+00 -0.00000000000E+00 -0.45593999997E+02  0.45594000000E+02  0.51100000000E-03 0. -1.
    9900012    2    1    2    0    0  0.48276419241E+01 -0.32926783033E+02  0.27859368288E+02  0.47787267646E+02  0.19999984507E+02 0.  0.
         12    1    1    2    0    0 -0.48276419241E+01  0.32926783033E+02 -0.27859368288E+02  0.43400732354E+02  0.00000000000E+00 0. -1.
         11    1    3    3    0    0  0.16523227651E+01  0.78186705398E+00  0.70929542480E+01  0.73247175260E+01  0.51100000000E-03 0. -1.
        -11    1    3    3    0    0 -0.18911810494E+01 -0.53506190183E+01  0.53051406422E+01  0.77685395755E+01  0.51100000000E-03 0.  1.
         12    1    3    3    0    0  0.50665002083E+01 -0.28358031068E+02  0.15461273398E+02  0.32694010545E+02  0.00000000000E+00 0. -1.
</event>
<event>
 7    1  0.5559916E-010  0.4778727E+02  0.7816164E-02  0.1312668E+00
        -11   -1    0    0    0    0  0.00000000000E+00  0.00000000000E+00  0.45593999997E+02  0.45594000000E+02  0.51100000000E-03 0.  1.
         11   -1    0    0    0    0 -0.00000000000E+00 -0.00000000000E+00 -0.45593999997E+02  0.45594000000E+02  0.51100000000E-03 0. -1.
    9900012    2    1    2    0    0  0.32553202909E+02  0.22801347110E+01  0.28613169179E+02  0.47787268619E+02  0.19999988940E+02 0.  0.
         12    1    1    2    0    0 -0.32553202909E+02 -0.22801347110E+01 -0.28613169179E+02  0.43400731381E+02  0.00000000000E+00 0. -1.
         11    1    3    3    0    0  0.22168518927E+02  0.16023692878E+00  0.84005895932E+01  0.23707357784E+02  0.51100000000E-03 0. -1.
        -11    1    3    3    0    0  0.12351426017E+01  0.29531773374E+01  0.91840490563E+01  0.97259236560E+01  0.51100000000E-03 0.  1.
         12    1    3    3    0    0  0.91495413802E+01 -0.83327955517E+00  0.11028530530E+02  0.14353987179E+02  0.00000000000E+00 0. -1.
</event>
<event>
 7    1  0.5559916E-010  0.4778727E+02  0.7816164E-02  0.1312668E+00
        -11   -1    0    0    0    0  0.00000000000E+00  0.00000000000E+00  0.45593999997E+02  0.45594000000E+02  0.51100000000E-03 0.  1.
         11   -1    0    0    0    0 -0.00000000000E+00 -0.00000000000E+00 -0.45593999997E+02  0.45594000000E+02  0.51100000000E-03 0. -1.
    9900012    2    1    2    0    0 -0.17025261835E+02 -0.75852035017E+00  0.39914762764E+02  0.47787272124E+02  0.20000004923E+02 0.  0.
         12    1    1    2    0    0  0.17025261835E+02  0.75852035017E+00 -0.39914762764E+02  0.43400727876E+02  0.00000000000E+00 0. -1.
         11    1    3    3    0    0 -0.39002072526E+01 -0.49984873383E+01  0.26935765461E+02  0.27671862126E+02  0.51100000000E-03 0. -1.
        -11    1    3    3    0    0 -0.11478900863E+02  0.46013103779E+01  0.76861232815E+01  0.14560690697E+02  0.51100000000E-03 0.  1.
        -12    1    3    3    0    0 -0.16461537192E+01 -0.36134338986E+00  0.52928740213E+01  0.55547193014E+01  0.00000000000E+00 0.  1.
</event>
<event>
 7    1  0.5559916E-010  0.4778729E+02  0.7816164E-02  0.1312668E+00
        -11   -1    0    0    0    0  0.00000000000E+00  0.00000000000E+00  0.45593999997E+02  0.45594000000E+02  0.51100000000E-03 0.  1.
         11   -1    0    0    0    0 -0.00000000000E+00 -0.00000000000E+00 -0.45593999997E+02  0.45594000000E+02  0.51100000000E-03 0. -1.
    9900012    2    1    2    0    0  0.36497703128E+02  0.59761574637E+01  0.22711771611E+02  0.47787293078E+02  0.20000100460E+02 0.  0.
         12    1    1    2    0    0 -0.36497703128E+02 -0.59761574637E+01 -0.22711771611E+02  0.43400706922E+02  0.00000000000E+00 0. -1.
         11    1    3    3    0    0  0.16613146170E+01 -0.34316499590E+01  0.10408128717E+01  0.39521487058E+01  0.51100000000E-03 0. -1.
        -11    1    3    3    0    0  0.24161410476E+02  0.12188866181E+02  0.14924906412E+02  0.30904612061E+02  0.51100000000E-03 0.  1.
        -12    1    3    3    0    0  0.10674978035E+02 -0.27810587581E+01  0.67460523271E+01  0.12930532312E+02  0.00000000000E+00 0.  1.
</event>
<event>
 7    1  0.5559916E-010  0.4778727E+02  0.7816164E-02  0.1312668E+00
        -11   -1    0    0    0    0  0.00000000000E+00  0.00000000000E+00  0.45593999997E+02  0.45594000000E+02  0.51100000000E-03 0.  1.
         11   -1    0    0    0    0 -0.00000000000E+00 -0.00000000000E+00 -0.45593999997E+02  0.45594000000E+02  0.51100000000E-03 0. -1.
    9900012    2    1    2    0    0 -0.97783752148E+01  0.30607142735E+02  0.29175502385E+02  0.47787265586E+02  0.19999975111E+02 0.  0.
         12    1    1    2    0    0  0.97783752148E+01 -0.30607142735E+02 -0.29175502385E+02  0.43400734414E+02  0.00000000000E+00 0. -1.
         11    1    3    3    0    0 -0.33008464621E+01  0.13479963156E+02  0.19090097254E+01  0.14008901186E+02  0.51100000000E-03 0. -1.
        -11    1    3    3    0    0 -0.19917431956E+01  0.14441276088E+02  0.18274366425E+02  0.23376697040E+02  0.51100000000E-03 0.  1.
         12    1    3    3    0    0 -0.44857855571E+01  0.26859034915E+01  0.89921262353E+01  0.10401667360E+02  0.00000000000E+00 0. -1.
</event>
<event>
 7    1  0.5559916E-010  0.4778727E+02  0.7816164E-02  0.1312668E+00
        -11   -1    0    0    0    0  0.00000000000E+00  0.00000000000E+00  0.45593999997E+02  0.45594000000E+02  0.51100000000E-03 0.  1.
         11   -1    0    0    0    0 -0.00000000000E+00 -0.00000000000E+00 -0.45593999997E+02  0.45594000000E+02  0.51100000000E-03 0. -1.
    9900012    2    1    2    0    0  0.30571642362E+02  0.20759306673E+02  0.22760694692E+02  0.47787270131E+02  0.19999995836E+02 0.  0.
         12    1    1    2    0    0 -0.30571642362E+02 -0.20759306673E+02 -0.22760694692E+02  0.43400729869E+02  0.00000000000E+00 0. -1.
         11    1    3    3    0    0  0.19110615886E+01  0.28316071766E+01  0.10516079467E+02  0.11057037723E+02  0.51100000000E-03 0. -1.
        -11    1    3    3    0    0  0.23916922954E+02  0.15979117536E+02  0.12966755385E+02  0.31551357281E+02  0.51100000000E-03 0.  1.
         12    1    3    3    0    0  0.47436578194E+01  0.19485819611E+01 -0.72214015994E+00  0.51788751267E+01  0.00000000000E+00 0. -1.
</event>
<event>
 7    1  0.5559916E-010  0.4778727E+02  0.7816164E-02  0.1312668E+00
        -11   -1    0    0    0    0  0.00000000000E+00  0.00000000000E+00  0.45593999997E+02  0.45594000000E+02  0.51100000000E-03 0. -1.
         11   -1    0    0    0    0 -0.00000000000E+00 -0.00000000000E+00 -0.45593999997E+02  0.45594000000E+02  0.51100000000E-03 0.  1.
    9900012    2    1    2    0    0  0.94560546372E+01  0.28807347149E+02 -0.31053878378E+02  0.47787267501E+02  0.19999983846E+02 0.  0.
         12    1    1    2    0    0 -0.94560546372E+01 -0.28807347149E+02  0.31053878378E+02  0.43400732499E+02  0.00000000000E+00 0. -1.
         11    1    3    3    0    0 -0.35498904423E+01  0.78715818050E+01 -0.15530849141E+02  0.17769940843E+02  0.51100000000E-03 0. -1.
        -11    1    3    3    0    0  0.11063867288E+02  0.17222595212E+02 -0.15739022298E+02  0.25821381999E+02  0.51100000000E-03 0.  1.
         12    1    3    3    0    0  0.19420777920E+01  0.37131701327E+01  0.21599306034E+00  0.41959446596E+01  0.00000000000E+00 0. -1.
</event>
<event>
 7    1  0.5559916E-010  0.4778728E+02  0.7816164E-02  0.1312668E+00
        -11   -1    0    0    0    0  0.00000000000E+00  0.00000000000E+00  0.45593999997E+02  0.45594000000E+02  0.51100000000E-03 0. -1.
         11   -1    0    0    0    0 -0.00000000000E+00 -0.00000000000E+00 -0.45593999997E+02  0.45594000000E+02  0.51100000000E-03 0.  1.
    9900012    2    1    2    0    0  0.39794868721E+02  0.62335967182E+01 -0.16159621511E+02  0.47787277979E+02  0.20000031617E+02 0.  0.
         12    1    1    2    0    0 -0.39794868721E+02 -0.62335967182E+01  0.16159621511E+02  0.43400722021E+02  0.00000000000E+00 0. -1.
         11    1    3    3    0    0  0.47316360067E+01  0.16860224608E+01  0.26765456169E+01  0.56916559751E+01  0.51100000000E-03 0. -1.
        -11    1    3    3    0    0  0.17469044614E+02  0.71044131637E+01 -0.14518836897E+02  0.23799933429E+02  0.51100000000E-03 0.  1.
        -12    1    3    3    0    0  0.17594188101E+02 -0.25568389064E+01 -0.43173302309E+01  0.18295688575E+02  0.00000000000E+00 0.  1.
</event>
<event>
 7    1  0.5559916E-010  0.4778727E+02  0.7816164E-02  0.1312668E+00
        -11   -1    0    0    0    0  0.00000000000E+00  0.00000000000E+00  0.45593999997E+02  0.45594000000E+02  0.51100000000E-03 0. -1.
         11   -1    0    0    0    0 -0.00000000000E+00 -0.00000000000E+00 -0.45593999997E+02  0.45594000000E+02  0.51100000000E-03 0.  1.
    9900012    2    1    2    0    0  0.20970989267E+02  0.84861744576E+01 -0.37038166911E+02  0.47787270100E+02  0.19999995693E+02 0.  0.
         12    1    1    2    0    0 -0.20970989267E+02 -0.84861744576E+01  0.37038166911E+02  0.43400729900E+02  0.00000000000E+00 0. -1.
         11    1    3    3    0    0  0.16544474285E+02  0.12295652212E+02 -0.25816287958E+02  0.33036092640E+02  0.51100000000E-03 0. -1.
        -11    1    3    3    0    0  0.64936103342E+01 -0.37550559957E+01 -0.89953629285E+01  0.11712556304E+02  0.51100000000E-03 0.  1.
         12    1    3    3    0    0 -0.20670953527E+01 -0.54421758396E-01 -0.22265160239E+01  0.30386211559E+01  0.00000000000E+00 0. -1.
</event>
<event>
 7    1  0.5862981E-010  0.4778728E+02  0.7816164E-02  0.1312668E+00
        -11   -1    0    0    0    0  0.00000000000E+00  0.00000000000E+00  0.45593999997E+02  0.45594000000E+02  0.51100000000E-03 0. -1.
         11   -1    0    0    0    0 -0.00000000000E+00 -0.00000000000E+00 -0.45593999997E+02  0.45594000000E+02  0.51100000000E-03 0.  1.
    9900012    2    1    2    0    0  0.18069596558E+02 -0.79612705162E+01 -0.38648811796E+02  0.47787276490E+02  0.20000024827E+02 0.  0.
         12    1    1    2    0    0 -0.18069596558E+02  0.79612705162E+01  0.38648811796E+02  0.43400723510E+02  0.00000000000E+00 0. -1.
         11    1    3    3    0    0  0.10106567354E+02  0.18079234687E+01 -0.62073144288E+01  0.11997584908E+02  0.51100000000E-03 0. -1.
        -11    1    3    3    0    0  0.94610188847E+01 -0.82949398067E+01 -0.24092850954E+02  0.27180551357E+02  0.51100000000E-03 0.  1.
         12    1    3    3    0    0 -0.14979896810E+01 -0.14742541782E+01 -0.83486464132E+01  0.86091402241E+01  0.00000000000E+00 0. -1.
</event>
<event>
 7    1  0.5559916E-010  0.4778727E+02  0.7816164E-02  0.1312668E+00
        -11   -1    0    0    0    0  0.00000000000E+00  0.00000000000E+00  0.45593999997E+02  0.45594000000E+02  0.51100000000E-03 0.  1.
         11   -1    0    0    0    0 -0.00000000000E+00 -0.00000000000E+00 -0.45593999997E+02  0.45594000000E+02  0.51100000000E-03 0. -1.
    9900012    2    1    2    0    0  0.13641205271E+02 -0.29139868192E+02  0.29127457105E+02  0.47787272392E+02  0.20000006143E+02 0.  0.
         12    1    1    2    0    0 -0.13641205271E+02  0.29139868192E+02 -0.29127457105E+02  0.43400727608E+02  0.00000000000E+00 0. -1.
         11    1    3    3    0    0  0.14082534606E+02 -0.21046415503E+02  0.16191453496E+02  0.30057154773E+02  0.51100000000E-03 0. -1.
        -11    1    3    3    0    0 -0.33200557461E+01 -0.13170122965E+00  0.19230122318E+01  0.38390222292E+01  0.51100000000E-03 0.  1.
         12    1    3    3    0    0  0.28787264114E+01 -0.79617514599E+01  0.11012991377E+02  0.13891095390E+02  0.00000000000E+00 0. -1.
</event>
<event>
 7    1  0.5559916E-010  0.4778727E+02  0.7816164E-02  0.1312668E+00
        -11   -1    0    0    0    0  0.00000000000E+00  0.00000000000E+00  0.45593999997E+02  0.45594000000E+02  0.51100000000E-03 0.  1.
         11   -1    0    0    0    0 -0.00000000000E+00 -0.00000000000E+00 -0.45593999997E+02  0.45594000000E+02  0.51100000000E-03 0. -1.
    9900012    2    1    2    0    0 -0.14542432024E+02 -0.36428244870E+02  0.18577515751E+02  0.47787269073E+02  0.19999991013E+02 0.  0.
         12    1    1    2    0    0  0.14542432024E+02  0.36428244870E+02 -0.18577515751E+02  0.43400730927E+02  0.00000000000E+00 0. -1.
         11    1    3    3    0    0 -0.11724897685E+02 -0.76799263705E+01  0.51738282296E+01  0.14940649035E+02  0.51100000000E-03 0. -1.
        -11    1    3    3    0    0 -0.40620603312E+01 -0.72869737240E+01  0.52372795121E+01  0.98503511175E+01  0.51100000000E-03 0.  1.
         12    1    3    3    0    0  0.12445259915E+01 -0.21461344776E+02  0.81664080089E+01  0.22996268921E+02  0.00000000000E+00 0. -1.
</event>
<event>
 7    1  0.5559916E-010  0.4778727E+02  0.7816164E-02  0.1312668E+00
        -11   -1    0    0    0    0  0.00000000000E+00  0.00000000000E+00  0.45593999997E+02  0.45594000000E+02  0.51100000000E-03 0.  1.
         11   -1    0    0    0    0 -0.00000000000E+00 -0.00000000000E+00 -0.45593999997E+02  0.45594000000E+02  0.51100000000E-03 0. -1.
    9900012    2    1    2    0    0 -0.18433790600E+02  0.27218154029E+02  0.28337091547E+02  0.47787270721E+02  0.19999998524E+02 0.  0.
         12    1    1    2    0    0  0.18433790600E+02 -0.27218154029E+02 -0.28337091547E+02  0.43400729279E+02  0.00000000000E+00 0. -1.
         11    1    3    3    0    0 -0.88244733806E+01  0.13047832146E+02  0.59960144591E+01  0.16854359787E+02  0.51100000000E-03 0. -1.
        -11    1    3    3    0    0 -0.67725198497E+01  0.55058452784E+01  0.19531112241E+02  0.21392655351E+02  0.51100000000E-03 0.  1.
         12    1    3    3    0    0 -0.28367973692E+01  0.86644766048E+01  0.28099648469E+01  0.95402555830E+01  0.00000000000E+00 0. -1.
</event>
<event>
 7    1  0.5559916E-010  0.4778727E+02  0.7816164E-02  0.1312668E+00
        -11   -1    0    0    0    0  0.00000000000E+00  0.00000000000E+00  0.45593999997E+02  0.45594000000E+02  0.51100000000E-03 0. -1.
         11   -1    0    0    0    0 -0.00000000000E+00 -0.00000000000E+00 -0.45593999997E+02  0.45594000000E+02  0.51100000000E-03 0.  1.
    9900012    2    1    2    0    0 -0.40780301570E+02 -0.86847553538E+01  0.12048469153E+02  0.47787267510E+02  0.19999983885E+02 0.  0.
         12    1    1    2    0    0  0.40780301570E+02  0.86847553538E+01 -0.12048469153E+02  0.43400732490E+02  0.00000000000E+00 0. -1.
         11    1    3    3    0    0 -0.92678018767E+01 -0.14320488426E+01  0.11072674281E+02  0.14510238851E+02  0.51100000000E-03 0. -1.
        -11    1    3    3    0    0 -0.98930666364E+00 -0.15051756841E+01  0.12905769194E+01  0.22158227728E+01  0.51100000000E-03 0.  1.
         12    1    3    3    0    0 -0.30523193030E+02 -0.57475308271E+01 -0.31478204721E+00  0.31061205886E+02  0.00000000000E+00 0. -1.
</event>
<event>
 7    1  0.5559916E-010  0.4778728E+02  0.7816164E-02  0.1312668E+00
        -11   -1    0    0    0    0  0.00000000000E+00  0.00000000000E+00  0.45593999997E+02  0.45594000000E+02  0.51100000000E-03 0.  1.
         11   -1    0    0    0    0 -0.00000000000E+00 -0.00000000000E+00 -0.45593999997E+02  0.45594000000E+02  0.51100000000E-03 0. -1.
    9900012    2    1    2    0    0  0.23239636403E+02  0.34333226633E+02  0.12836336862E+02  0.47787277711E+02  0.20000030398E+02 0.  0.
         12    1    1    2    0    0 -0.23239636403E+02 -0.34333226633E+02 -0.12836336862E+02  0.43400722289E+02  0.00000000000E+00 0. -1.
         11    1    3    3    0    0  0.71905911993E+01  0.10321798170E+02  0.59948020758E+01  0.13934911964E+02  0.51100000000E-03 0.  1.
        -11    1    3    3    0    0  0.38257003795E+01  0.49879591533E+01  0.91732715102E+01  0.11120459989E+02  0.51100000000E-03 0. -1.
        -12    1    3    3    0    0  0.12223344824E+02  0.19023469309E+02 -0.23317367245E+01  0.22731905758E+02  0.00000000000E+00 0.  1.
</event>
<event>
 7    1  0.5559916E-010  0.4778727E+02  0.7816164E-02  0.1312668E+00
        -11   -1    0    0    0    0  0.00000000000E+00  0.00000000000E+00  0.45593999997E+02  0.45594000000E+02  0.51100000000E-03 0.  1.
         11   -1    0    0    0    0 -0.00000000000E+00 -0.00000000000E+00 -0.45593999997E+02  0.45594000000E+02  0.51100000000E-03 0. -1.
    9900012    2    1    2    0    0 -0.23247560534E+02 -0.26729104808E+02 -0.25074470393E+02  0.47787272125E+02  0.20000004926E+02 0.  0.
         12    1    1    2    0    0  0.23247560534E+02  0.26729104808E+02  0.25074470393E+02  0.43400727875E+02  0.00000000000E+00 0. -1.
         11    1    3    3    0    0 -0.78289242528E+01  0.56645633067E+00 -0.41606117578E+01  0.88838965657E+01  0.51100000000E-03 0. -1.
        -11    1    3    3    0    0 -0.27075745645E+01 -0.14385357160E+02 -0.10397964578E+02  0.17955142112E+02  0.51100000000E-03 0.  1.
        -12    1    3    3    0    0 -0.12711061717E+02 -0.12910203978E+02 -0.10515894057E+02  0.20948233447E+02  0.00000000000E+00 0.  1.
</event>
<event>
 7    1  0.5559916E-010  0.4778727E+02  0.7816164E-02  0.1312668E+00
        -11   -1    0    0    0    0  0.00000000000E+00  0.00000000000E+00  0.45593999997E+02  0.45594000000E+02  0.51100000000E-03 0.  1.
         11   -1    0    0    0    0 -0.00000000000E+00 -0.00000000000E+00 -0.45593999997E+02  0.45594000000E+02  0.51100000000E-03 0. -1.
    9900012    2    1    2    0    0  0.15886060875E+02  0.29225754107E+02  0.27876722331E+02  0.47787270960E+02  0.19999999616E+02 0.  0.
         12    1    1    2    0    0 -0.15886060875E+02 -0.29225754107E+02 -0.27876722331E+02  0.43400729040E+02  0.00000000000E+00 0. -1.
         11    1    3    3    0    0 -0.31092431290E+00  0.10271568855E+00  0.19386786065E+01  0.19661382051E+01  0.51100000000E-03 0. -1.
        -11    1    3    3    0    0 -0.86982889802E+00  0.10817244236E+02  0.14984736247E+02  0.18501667379E+02  0.51100000000E-03 0.  1.
        -12    1    3    3    0    0  0.17066814086E+02  0.18305794183E+02  0.10953307478E+02  0.27319465376E+02  0.00000000000E+00 0.  1.
</event>
<event>
 7    1  0.5559916E-010  0.4778727E+02  0.7816164E-02  0.1312668E+00
        -11   -1    0    0    0    0  0.00000000000E+00  0.00000000000E+00  0.45593999997E+02  0.45594000000E+02  0.51100000000E-03 0.  1.
         11   -1    0    0    0    0 -0.00000000000E+00 -0.00000000000E+00 -0.45593999997E+02  0.45594000000E+02  0.51100000000E-03 0. -1.
    9900012    2    1    2    0    0 -0.11876755401E+01 -0.19664939090E+02  0.38671734618E+02  0.47787268889E+02  0.19999990173E+02 0.  0.
         12    1    1    2    0    0  0.11876755401E+01  0.19664939090E+02 -0.38671734618E+02  0.43400731111E+02  0.00000000000E+00 0. -1.
         11    1    3    3    0    0 -0.95346749511E+01 -0.94949948046E+01  0.26795238746E+02  0.29984158692E+02  0.51100000000E-03 0. -1.
        -11    1    3    3    0    0  0.71260207016E+01 -0.94637030230E+01  0.10768510240E+02  0.16009455300E+02  0.51100000000E-03 0.  1.
         12    1    3    3    0    0  0.12209787094E+01 -0.70624126278E+00  0.11079856316E+01  0.17936548971E+01  0.00000000000E+00 0. -1.
</event>
<event>
 7    1  0.5559916E-010  0.4778728E+02  0.7816164E-02  0.1312668E+00
        -11   -1    0    0    0    0  0.00000000000E+00  0.00000000000E+00  0.45593999997E+02  0.45594000000E+02  0.51100000000E-03 0.  1.
         11   -1    0    0    0    0 -0.00000000000E+00 -0.00000000000E+00 -0.45593999997E+02  0.45594000000E+02  0.51100000000E-03 0. -1.
    9900012    2    1    2    0    0  0.45229093626E+01 -0.23564830917E+02  0.36164407364E+02  0.47787281973E+02  0.20000049829E+02 0.  0.
         12    1    1    2    0    0 -0.45229093626E+01  0.23564830917E+02 -0.36164407364E+02  0.43400718027E+02  0.00000000000E+00 0. -1.
         11    1    3    3    0    0  0.23221443716E+01  0.25870252301E+01  0.14687928475E+01  0.37739113283E+01  0.51100000000E-03 0. -1.
        -11    1    3    3    0    0  0.40673423304E+01 -0.23145825597E+02  0.29284288501E+02  0.37547863713E+02  0.51100000000E-03 0.  1.
         12    1    3    3    0    0 -0.18665773394E+01 -0.30060305502E+01  0.54113260162E+01  0.64655069318E+01  0.00000000000E+00 0. -1.
</event>
<event>
 7    1  0.5559916E-010  0.4778727E+02  0.7816164E-02  0.1312668E+00
        -11   -1    0    0    0    0  0.00000000000E+00  0.00000000000E+00  0.45593999997E+02  0.45594000000E+02  0.51100000000E-03 0.  1.
         11   -1    0    0    0    0 -0.00000000000E+00 -0.00000000000E+00 -0.45593999997E+02  0.45594000000E+02  0.51100000000E-03 0. -1.
    9900012    2    1    2    0    0 -0.39778659523E+02 -0.11547923944E+02  0.12958671996E+02  0.47787268661E+02  0.19999989133E+02 0.  0.
         12    1    1    2    0    0  0.39778659523E+02  0.11547923944E+02 -0.12958671996E+02  0.43400731339E+02  0.00000000000E+00 0. -1.
         11    1    3    3    0    0 -0.34515753338E+01 -0.24909059073E+01 -0.43503203292E+01  0.60863184070E+01  0.51100000000E-03 0. -1.
        -11    1    3    3    0    0 -0.36069989585E+01 -0.17984856855E+01  0.11453412797E+00  0.40321347417E+01  0.51100000000E-03 0.  1.
         12    1    3    3    0    0 -0.32720085231E+02 -0.72585323510E+01  0.17194458197E+02  0.37668815512E+02  0.00000000000E+00 0. -1.
</event>
<event>
 7    1  0.5559916E-010  0.4778727E+02  0.7816164E-02  0.1312668E+00
        -11   -1    0    0    0    0  0.00000000000E+00  0.00000000000E+00  0.45593999997E+02  0.45594000000E+02  0.51100000000E-03 0.  1.
         11   -1    0    0    0    0 -0.00000000000E+00 -0.00000000000E+00 -0.45593999997E+02  0.45594000000E+02  0.51100000000E-03 0. -1.
    9900012    2    1    2    0    0  0.27250846477E+02  0.13054749629E+02  0.31154268563E+02  0.47787267618E+02  0.19999984377E+02 0.  0.
         12    1    1    2    0    0 -0.27250846477E+02 -0.13054749629E+02 -0.31154268563E+02  0.43400732382E+02  0.00000000000E+00 0. -1.
         11    1    3    3    0    0 -0.25777225274E+01  0.20960169071E+01  0.15898612796E+01  0.36831507508E+01  0.51100000000E-03 0. -1.
        -11    1    3    3    0    0  0.29746677004E+02  0.11117236382E+02  0.27431072224E+02  0.41963334724E+02  0.51100000000E-03 0.  1.
        -12    1    3    3    0    0  0.81892000952E-01 -0.15850365991E+00  0.21333350593E+01  0.21407821434E+01  0.00000000000E+00 0.  1.
</event>
<event>
 7    1  0.5559916E-010  0.4778728E+02  0.7816164E-02  0.1312668E+00
        -11   -1    0    0    0    0  0.00000000000E+00  0.00000000000E+00  0.45593999997E+02  0.45594000000E+02  0.51100000000E-03 0. -1.
         11   -1    0    0    0    0 -0.00000000000E+00 -0.00000000000E+00 -0.45593999997E+02  0.45594000000E+02  0.51100000000E-03 0.  1.
    9900012    2    1    2    0    0 -0.15165991532E+02  0.30483548670E+02 -0.26914093049E+02  0.47787280613E+02  0.20000043628E+02 0.  0.
         12    1    1    2    0    0  0.15165991532E+02 -0.30483548670E+02  0.26914093049E+02  0.43400719387E+02  0.00000000000E+00 0. -1.
         11    1    3    3    0    0 -0.33083525291E+01  0.17906147300E+02 -0.56171567464E+01  0.19055911360E+02  0.51100000000E-03 0. -1.
        -11    1    3    3    0    0 -0.47887946690E+01  0.92686684582E+01 -0.16648090439E+02  0.19646874685E+02  0.51100000000E-03 0.  1.
         12    1    3    3    0    0 -0.70688443338E+01  0.33087329116E+01 -0.46488458641E+01  0.90844945684E+01  0.00000000000E+00 0. -1.
</event>
<event>
 7    1  0.5559916E-010  0.4778728E+02  0.7816164E-02  0.1312668E+00
        -11   -1    0    0    0    0  0.00000000000E+00  0.00000000000E+00  0.45593999997E+02  0.45594000000E+02  0.51100000000E-03 0.  1.
         11   -1    0    0    0    0 -0.00000000000E+00 -0.00000000000E+00 -0.45593999997E+02  0.45594000000E+02  0.51100000000E-03 0. -1.
    9900012    2    1    2    0    0 -0.11294093284E+02 -0.27290940612E+02  0.31800486145E+02  0.47787275333E+02  0.20000019551E+02 0.  0.
         12    1    1    2    0    0  0.11294093284E+02  0.27290940612E+02 -0.31800486145E+02  0.43400724667E+02  0.00000000000E+00 0. -1.
         11    1    3    3    0    0 -0.47439552598E+00 -0.61419475477E+01  0.92777677124E+00  0.62297143427E+01  0.51100000000E-03 0. -1.
        -11    1    3    3    0    0 -0.86595180314E+01 -0.11255246737E+02  0.27382970919E+02  0.30846311421E+02  0.51100000000E-03 0.  1.
        -12    1    3    3    0    0 -0.21601797265E+01 -0.98937463277E+01  0.34897384542E+01  0.10711249569E+02  0.00000000000E+00 0.  1.
</event>
<event>
 7    1  0.5559916E-010  0.4778727E+02  0.7816164E-02  0.1312668E+00
        -11   -1    0    0    0    0  0.00000000000E+00  0.00000000000E+00  0.45593999997E+02  0.45594000000E+02  0.51100000000E-03 0.  1.
         11   -1    0    0    0    0 -0.00000000000E+00 -0.00000000000E+00 -0.45593999997E+02  0.45594000000E+02  0.51100000000E-03 0. -1.
    9900012    2    1    2    0    0 -0.39859904423E+02  0.55039954742E+01  0.16263984982E+02  0.47787272422E+02  0.20000006282E+02 0.  0.
         12    1    1    2    0    0  0.39859904423E+02 -0.55039954742E+01 -0.16263984982E+02  0.43400727578E+02  0.00000000000E+00 0. -1.
         11    1    3    3    0    0 -0.60295143051E+00 -0.34174495985E+01  0.23545045119E+01  0.41935908174E+01  0.51100000000E-03 0. -1.
        -11    1    3    3    0    0 -0.25543172845E+02  0.61686466925E+01  0.13633350571E+02  0.29603616824E+02  0.51100000000E-03 0.  1.
         12    1    3    3    0    0 -0.13713780148E+02  0.27527983802E+01  0.27612989941E+00  0.13990064781E+02  0.00000000000E+00 0. -1.
</event>
<event>
 7    1  0.5559916E-010  0.4778729E+02  0.7816164E-02  0.1312668E+00
        -11   -1    0    0    0    0  0.00000000000E+00  0.00000000000E+00  0.45593999997E+02  0.45594000000E+02  0.51100000000E-03 0. -1.
         11   -1    0    0    0    0 -0.00000000000E+00 -0.00000000000E+00 -0.45593999997E+02  0.45594000000E+02  0.51100000000E-03 0.  1.
    9900012    2    1    2    0    0 -0.33824524194E+02  0.24776908758E+02  0.11208382017E+02  0.47787291803E+02  0.20000094645E+02 0.  0.
         12    1    1    2    0    0  0.33824524194E+02 -0.24776908758E+02 -0.11208382017E+02  0.43400708197E+02  0.00000000000E+00 0. -1.
         11    1    3    3    0    0 -0.71548712266E+01  0.42112405907E+01  0.87243122582E+01  0.12043270080E+02  0.51100000000E-03 0. -1.
        -11    1    3    3    0    0 -0.53674288134E+01  0.93811119630E+01 -0.26817129618E+01  0.11135804344E+02  0.51100000000E-03 0.  1.
         12    1    3    3    0    0 -0.21302224154E+02  0.11184556205E+02  0.51657827206E+01  0.24608217378E+02  0.00000000000E+00 0. -1.
</event>
<event>
 7    1  0.5559916E-010  0.4778728E+02  0.7816164E-02  0.1312668E+00
        -11   -1    0    0    0    0  0.00000000000E+00  0.00000000000E+00  0.45593999997E+02  0.45594000000E+02  0.51100000000E-03 0.  1.
         11   -1    0    0    0    0 -0.00000000000E+00 -0.00000000000E+00 -0.45593999997E+02  0.45594000000E+02  0.51100000000E-03 0. -1.
    9900012    2    1    2    0    0 -0.30140228107E+02  0.30326649197E+02 -0.74487511682E+01  0.47787275399E+02  0.20000019856E+02 0.  0.
         12    1    1    2    0    0  0.30140228107E+02 -0.30326649197E+02  0.74487511682E+01  0.43400724601E+02  0.00000000000E+00 0. -1.
         11    1    3    3    0    0  0.69645581103E+00  0.15436399802E+01 -0.40209480209E+01  0.43630148216E+01  0.51100000000E-03 0. -1.
        -11    1    3    3    0    0 -0.30010051725E+02  0.25599277125E+02 -0.12226234196E+01  0.39464173653E+02  0.51100000000E-03 0.  1.
        -12    1    3    3    0    0 -0.82663219348E+00  0.31837320919E+01 -0.22051797277E+01  0.39600869243E+01  0.00000000000E+00 0.  1.
</event>
<event>
 7    1  0.5559916E-010  0.4778727E+02  0.7816164E-02  0.1312668E+00
        -11   -1    0    0    0    0  0.00000000000E+00  0.00000000000E+00  0.45593999997E+02  0.45594000000E+02  0.51100000000E-03 0. -1.
         11   -1    0    0    0    0 -0.00000000000E+00 -0.00000000000E+00 -0.45593999997E+02  0.45594000000E+02  0.51100000000E-03 0.  1.
    9900012    2    1    2    0    0  0.22440786777E+02  0.29351293894E+02  0.22771387122E+02  0.47787269178E+02  0.19999991488E+02 0.  0.
         12    1    1    2    0    0 -0.22440786777E+02 -0.29351293894E+02 -0.22771387122E+02  0.43400730822E+02  0.00000000000E+00 0. -1.
         11    1    3    3    0    0  0.26500404739E+01  0.65345857496E+01  0.78528819392E+01  0.10554206765E+02  0.51100000000E-03 0. -1.
        -11    1    3    3    0    0  0.26284829105E+01  0.56279603709E+01  0.10995177172E+02  0.12628411684E+02  0.51100000000E-03 0.  1.
        -12    1    3    3    0    0  0.17162263393E+02  0.17188747774E+02  0.39233280110E+01  0.24604650729E+02  0.00000000000E+00 0.  1.
</event>
<event>
 7    1  0.5559916E-010  0.4778727E+02  0.7816164E-02  0.1312668E+00
        -11   -1    0    0    0    0  0.00000000000E+00  0.00000000000E+00  0.45593999997E+02  0.45594000000E+02  0.51100000000E-03 0.  1.
         11   -1    0    0    0    0 -0.00000000000E+00 -0.00000000000E+00 -0.45593999997E+02  0.45594000000E+02  0.51100000000E-03 0. -1.
    9900012    2    1    2    0    0  0.24243762213E+01  0.41122282879E+02  0.13663952012E+02  0.47787270354E+02  0.19999996851E+02 0.  0.
         12    1    1    2    0    0 -0.24243762213E+01 -0.41122282879E+02 -0.13663952012E+02  0.43400729646E+02  0.00000000000E+00 0. -1.
         11    1    3    3    0    0  0.31828510410E+01  0.13955519813E+01  0.22262099349E+01  0.41272408480E+01  0.51100000000E-03 0. -1.
        -11    1    3    3    0    0 -0.46135717301E+01  0.31776464368E+02  0.13082737609E+02  0.34672564882E+02  0.51100000000E-03 0.  1.
        -12    1    3    3    0    0  0.38550969104E+01  0.79502665292E+01 -0.16449955316E+01  0.89874646243E+01  0.00000000000E+00 0.  1.
</event>
<event>
 7    1  0.5559916E-010  0.4778728E+02  0.7816164E-02  0.1312668E+00
        -11   -1    0    0    0    0  0.00000000000E+00  0.00000000000E+00  0.45593999997E+02  0.45594000000E+02  0.51100000000E-03 0.  1.
         11   -1    0    0    0    0 -0.00000000000E+00 -0.00000000000E+00 -0.45593999997E+02  0.45594000000E+02  0.51100000000E-03 0. -1.
    9900012    2    1    2    0    0 -0.95829253895E+01 -0.34948872276E+02  0.23882352892E+02  0.47787275213E+02  0.20000019007E+02 0.  0.
         12    1    1    2    0    0  0.95829253895E+01  0.34948872276E+02 -0.23882352892E+02  0.43400724787E+02  0.00000000000E+00 0. -1.
         11    1    3    3    0    0 -0.79554977683E+00  0.13597463589E+01  0.12738606778E+01  0.20259641891E+01  0.51100000000E-03 0. -1.
        -11    1    3    3    0    0 -0.28726425236E+01 -0.32139310275E+02  0.16250394032E+02  0.36128418821E+02  0.51100000000E-03 0.  1.
        -12    1    3    3    0    0 -0.59147330891E+01 -0.41693083598E+01  0.63580981816E+01  0.96328922034E+01  0.00000000000E+00 0.  1.
</event>
<event>
 7    1  0.5559916E-010  0.4778727E+02  0.7816164E-02  0.1312668E+00
        -11   -1    0    0    0    0  0.00000000000E+00  0.00000000000E+00  0.45593999997E+02  0.45594000000E+02  0.51100000000E-03 0.  1.
         11   -1    0    0    0    0 -0.00000000000E+00 -0.00000000000E+00 -0.45593999997E+02  0.45594000000E+02  0.51100000000E-03 0. -1.
    9900012    2    1    2    0    0  0.50463754150E+01 -0.15841147067E+02  0.40090090074E+02  0.47787272271E+02  0.20000005593E+02 0.  0.
         12    1    1    2    0    0 -0.50463754150E+01  0.15841147067E+02 -0.40090090074E+02  0.43400727729E+02  0.00000000000E+00 0. -1.
         11    1    3    3    0    0  0.80980182302E+01 -0.10540188560E+01  0.11988805028E+02  0.14505871269E+02  0.51100000000E-03 0. -1.
        -11    1    3    3    0    0  0.32174769241E+01 -0.45554514283E+01  0.11678530220E+02  0.12941884091E+02  0.51100000000E-03 0.  1.
         12    1    3    3    0    0 -0.62691197392E+01 -0.10231676783E+02  0.16422754827E+02  0.20339516912E+02  0.00000000000E+00 0. -1.
</event>
<event>
 7    1  0.5559916E-010  0.4778732E+02  0.7816164E-02  0.1312668E+00
        -11   -1    0    0    0    0  0.00000000000E+00  0.00000000000E+00  0.45593999997E+02  0.45594000000E+02  0.51100000000E-03 0. -1.
         11   -1    0    0    0    0 -0.00000000000E+00 -0.00000000000E+00 -0.45593999997E+02  0.45594000000E+02  0.51100000000E-03 0.  1.
    9900012    2    1    2    0    0 -0.32440007643E+02 -0.58123429007E+00 -0.28825813316E+02  0.47787315184E+02  0.20000201247E+02 0.  0.
         12    1    1    2    0    0  0.32440007643E+02  0.58123429007E+00  0.28825813316E+02  0.43400684816E+02  0.00000000000E+00 0. -1.
         11    1    3    3    0    0 -0.15524343802E+01 -0.38306670449E+01 -0.97195291626E+01  0.10561880037E+02  0.51100000000E-03 0. -1.
        -11    1    3    3    0    0 -0.63984350163E+01 -0.23118911632E+01 -0.47680365187E+01  0.83077664816E+01  0.51100000000E-03 0.  1.
         12    1    3    3    0    0 -0.24489138246E+02  0.55613239180E+01 -0.14338247635E+02  0.28917668665E+02  0.00000000000E+00 0. -1.
</event>
<event>
 7    1  0.6254950E-010  0.4778727E+02  0.7816164E-02  0.1312668E+00
        -11   -1    0    0    0    0  0.00000000000E+00  0.00000000000E+00  0.45593999997E+02  0.45594000000E+02  0.51100000000E-03 0. -1.
         11   -1    0    0    0    0 -0.00000000000E+00 -0.00000000000E+00 -0.45593999997E+02  0.45594000000E+02  0.51100000000E-03 0.  1.
    9900012    2    1    2    0    0 -0.95562011632E+00  0.89328204709E+01 -0.42460744131E+02  0.47787270933E+02  0.19999999493E+02 0.  0.
         12    1    1    2    0    0  0.95562011632E+00 -0.89328204709E+01  0.42460744131E+02  0.43400729067E+02  0.00000000000E+00 0. -1.
         11    1    3    3    0    0 -0.26779906865E+01  0.71543526166E+01 -0.35461085128E+02  0.36274577243E+02  0.51100000000E-03 0. -1.
        -11    1    3    3    0    0  0.16765159961E+01  0.28755035209E+01 -0.87974733737E+01  0.94061025088E+01  0.51100000000E-03 0.  1.
         12    1    3    3    0    0  0.45854574001E-01 -0.10970356666E+01  0.17978143703E+01  0.21065911815E+01  0.00000000000E+00 0. -1.
</event>
<event>
 7    1  0.5559916E-010  0.4778727E+02  0.7816164E-02  0.1312668E+00
        -11   -1    0    0    0    0  0.00000000000E+00  0.00000000000E+00  0.45593999997E+02  0.45594000000E+02  0.51100000000E-03 0.  1.
         11   -1    0    0    0    0 -0.00000000000E+00 -0.00000000000E+00 -0.45593999997E+02  0.45594000000E+02  0.51100000000E-03 0. -1.
    9900012    2    1    2    0    0  0.36573400877E+02  0.80458525263E+01  0.21937949908E+02  0.47787273730E+02  0.20000012245E+02 0.  0.
         12    1    1    2    0    0 -0.36573400877E+02 -0.80458525263E+01 -0.21937949908E+02  0.43400726270E+02  0.00000000000E+00 0. -1.
         11    1    3    3    0    0  0.19849795899E+02 -0.14942924235E+01  0.16424382216E+02  0.25807123795E+02  0.51100000000E-03 0. -1.
        -11    1    3    3    0    0  0.14757399746E+02  0.69398384438E+01  0.77209335888E+01  0.18043143314E+02  0.51100000000E-03 0.  1.
         12    1    3    3    0    0  0.19662052310E+01  0.26003065060E+01 -0.22073658972E+01  0.39370066217E+01  0.00000000000E+00 0. -1.
</event>
<event>
 7    1  0.5559916E-010  0.4778726E+02  0.7816164E-02  0.1312668E+00
        -11   -1    0    0    0    0  0.00000000000E+00  0.00000000000E+00  0.45593999997E+02  0.45594000000E+02  0.51100000000E-03 0.  1.
         11   -1    0    0    0    0 -0.00000000000E+00 -0.00000000000E+00 -0.45593999997E+02  0.45594000000E+02  0.51100000000E-03 0. -1.
    9900012    2    1    2    0    0  0.63562112456E+01 -0.31748403216E+02  0.28900891679E+02  0.47787261896E+02  0.19999958288E+02 0.  0.
         12    1    1    2    0    0 -0.63562112456E+01  0.31748403216E+02 -0.28900891679E+02  0.43400738104E+02  0.00000000000E+00 0. -1.
         11    1    3    3    0    0  0.21362860030E+00  0.50041458844E+00  0.22662568209E+01  0.23306591725E+01  0.51100000000E-03 0. -1.
        -11    1    3    3    0    0 -0.42092971606E+01 -0.59527572356E+01  0.11078987818E+01  0.73743434463E+01  0.51100000000E-03 0.  1.
        -12    1    3    3    0    0  0.10351879806E+02 -0.26296060569E+02  0.25526736076E+02  0.38082259277E+02  0.00000000000E+00 0.  1.
</event>
<event>
 7    1  0.5559916E-010  0.4778727E+02  0.7816164E-02  0.1312668E+00
        -11   -1    0    0    0    0  0.00000000000E+00  0.00000000000E+00  0.45593999997E+02  0.45594000000E+02  0.51100000000E-03 0.  1.
         11   -1    0    0    0    0 -0.00000000000E+00 -0.00000000000E+00 -0.45593999997E+02  0.45594000000E+02  0.51100000000E-03 0. -1.
    9900012    2    1    2    0    0  0.38148362887E+02 -0.12788244037E+02  0.16272255514E+02  0.47787273324E+02  0.20000010393E+02 0.  0.
         12    1    1    2    0    0 -0.38148362887E+02  0.12788244037E+02 -0.16272255514E+02  0.43400726676E+02  0.00000000000E+00 0. -1.
         11    1    3    3    0    0 -0.10290804299E+01 -0.15393810393E+01  0.39084673543E+01  0.43249066852E+01  0.51100000000E-03 0. -1.
        -11    1    3    3    0    0  0.11316252021E+02 -0.73571213131E+01  0.31503717890E+01  0.13860362062E+02  0.51100000000E-03 0.  1.
         12    1    3    3    0    0  0.27861191295E+02 -0.38917416850E+01  0.92134163710E+01  0.29602004577E+02  0.00000000000E+00 0. -1.
</event>
<event>
 7    1  0.5559916E-010  0.4778727E+02  0.7816164E-02  0.1312668E+00
        -11   -1    0    0    0    0  0.00000000000E+00  0.00000000000E+00  0.45593999997E+02  0.45594000000E+02  0.51100000000E-03 0.  1.
         11   -1    0    0    0    0 -0.00000000000E+00 -0.00000000000E+00 -0.45593999997E+02  0.45594000000E+02  0.51100000000E-03 0. -1.
    9900012    2    1    2    0    0  0.22944244803E+02 -0.20577659843E+02  0.30557236508E+02  0.47787272388E+02  0.20000006128E+02 0.  0.
         12    1    1    2    0    0 -0.22944244803E+02  0.20577659843E+02 -0.30557236508E+02  0.43400727612E+02  0.00000000000E+00 0. -1.
         11    1    3    3    0    0  0.16878879126E+01 -0.34643986799E+00 -0.76955320604E+00  0.18871138243E+01  0.51100000000E-03 0. -1.
        -11    1    3    3    0    0  0.23130436805E+02 -0.18751041366E+02  0.31690442394E+02  0.43484512168E+02  0.51100000000E-03 0.  1.
        -12    1    3    3    0    0 -0.18740799142E+01 -0.14801786096E+01 -0.36365268014E+00  0.24156463965E+01  0.00000000000E+00 0.  1.
</event>
<event>
 7    1  0.5559916E-010  0.4778727E+02  0.7816164E-02  0.1312668E+00
        -11   -1    0    0    0    0  0.00000000000E+00  0.00000000000E+00  0.45593999997E+02  0.45594000000E+02  0.51100000000E-03 0.  1.
         11   -1    0    0    0    0 -0.00000000000E+00 -0.00000000000E+00 -0.45593999997E+02  0.45594000000E+02  0.51100000000E-03 0. -1.
    9900012    2    1    2    0    0 -0.39684893400E+02 -0.24680443309E+01  0.17396586593E+02  0.47787271526E+02  0.20000002194E+02 0.  0.
         12    1    1    2    0    0  0.39684893400E+02  0.24680443309E+01 -0.17396586593E+02  0.43400728474E+02  0.00000000000E+00 0. -1.
         11    1    3    3    0    0 -0.88914126396E+00  0.52576287416E+00  0.20527044511E+01  0.22979544408E+01  0.51100000000E-03 0. -1.
        -11    1    3    3    0    0 -0.27189781387E+02  0.63366741734E+01  0.10548951626E+02  0.29844899600E+02  0.51100000000E-03 0.  1.
        -12    1    3    3    0    0 -0.11605970750E+02 -0.93304813785E+01  0.47949305157E+01  0.15644417485E+02  0.00000000000E+00 0.  1.
</event>
<event>
 7    1  0.5559916E-010  0.4778727E+02  0.7816164E-02  0.1312668E+00
        -11   -1    0    0    0    0  0.00000000000E+00  0.00000000000E+00  0.45593999997E+02  0.45594000000E+02  0.51100000000E-03 0.  1.
         11   -1    0    0    0    0 -0.00000000000E+00 -0.00000000000E+00 -0.45593999997E+02  0.45594000000E+02  0.51100000000E-03 0. -1.
    9900012    2    1    2    0    0  0.52203636175E+01  0.20431836603E+02  0.37932984077E+02  0.47787269312E+02  0.19999992103E+02 0.  0.
         12    1    1    2    0    0 -0.52203636175E+01 -0.20431836603E+02 -0.37932984077E+02  0.43400730688E+02  0.00000000000E+00 0. -1.
         11    1    3    3    0    0  0.38087557747E+01  0.59489665206E+01  0.61848165642E+01  0.93887581398E+01  0.51100000000E-03 0. -1.
        -11    1    3    3    0    0  0.35149504473E+01 -0.20206790634E+01  0.25397229507E+01  0.47841627743E+01  0.51100000000E-03 0.  1.
        -12    1    3    3    0    0 -0.21033426046E+01  0.16503549145E+02  0.29208444562E+02  0.33614348398E+02  0.00000000000E+00 0.  1.
</event>
<event>
 7    1  0.5559916E-010  0.4778727E+02  0.7816164E-02  0.1312668E+00
        -11   -1    0    0    0    0  0.00000000000E+00  0.00000000000E+00  0.45593999997E+02  0.45594000000E+02  0.51100000000E-03 0.  1.
         11   -1    0    0    0    0 -0.00000000000E+00 -0.00000000000E+00 -0.45593999997E+02  0.45594000000E+02  0.51100000000E-03 0. -1.
    9900012    2    1    2    0    0 -0.17355632781E+02 -0.25897178770E+02  0.30195054050E+02  0.47787272511E+02  0.20000006688E+02 0.  0.
         12    1    1    2    0    0  0.17355632781E+02  0.25897178770E+02 -0.30195054050E+02  0.43400727489E+02  0.00000000000E+00 0. -1.
         11    1    3    3    0    0  0.25684841168E+01 -0.20618834302E+00  0.63402259700E+01  0.68438359056E+01  0.51100000000E-03 0. -1.
        -11    1    3    3    0    0 -0.18586981455E+02 -0.23258274595E+02  0.23881419190E+02  0.38167334195E+02  0.51100000000E-03 0.  1.
         12    1    3    3    0    0 -0.13371354420E+01 -0.24327158315E+01 -0.26591109843E-01  0.27761024106E+01  0.00000000000E+00 0. -1.
</event>
<event>
 7    1  0.5559916E-010  0.4778728E+02  0.7816164E-02  0.1312668E+00
        -11   -1    0    0    0    0  0.00000000000E+00  0.00000000000E+00  0.45593999997E+02  0.45594000000E+02  0.51100000000E-03 0.  1.
         11   -1    0    0    0    0 -0.00000000000E+00 -0.00000000000E+00 -0.45593999997E+02  0.45594000000E+02  0.51100000000E-03 0. -1.
    9900012    2    1    2    0    0 -0.55189996578E+00 -0.23011484305E+02  0.36793884064E+02  0.47787275259E+02  0.20000019216E+02 0.  0.
         12    1    1    2    0    0  0.55189996578E+00  0.23011484305E+02 -0.36793884064E+02  0.43400724741E+02  0.00000000000E+00 0. -1.
         11    1    3    3    0    0  0.56806565461E+01 -0.27203349040E+01  0.23386086585E+01  0.67185691559E+01  0.51100000000E-03 0. -1.
        -11    1    3    3    0    0 -0.71753808818E+01 -0.11862682859E+02  0.21748183270E+02  0.25791332095E+02  0.51100000000E-03 0.  1.
        -12    1    3    3    0    0  0.94282436990E+00 -0.84284665424E+01  0.12707092136E+02  0.15277374008E+02  0.00000000000E+00 0.  1.
</event>
<event>
 7    1  0.5559916E-010  0.4778728E+02  0.7816164E-02  0.1312668E+00
        -11   -1    0    0    0    0  0.00000000000E+00  0.00000000000E+00  0.45593999997E+02  0.45594000000E+02  0.51100000000E-03 0.  1.
         11   -1    0    0    0    0 -0.00000000000E+00 -0.00000000000E+00 -0.45593999997E+02  0.45594000000E+02  0.51100000000E-03 0. -1.
    9900012    2    1    2    0    0 -0.31057766247E+02  0.20750798171E+02  0.22100733166E+02  0.47787275634E+02  0.20000020927E+02 0.  0.
         12    1    1    2    0    0  0.31057766247E+02 -0.20750798171E+02 -0.22100733166E+02  0.43400724366E+02  0.00000000000E+00 0. -1.
         11    1    3    3    0    0 -0.18384513961E+02  0.95998716837E+01  0.32674322254E+01  0.20995809190E+02  0.51100000000E-03 0. -1.
        -11    1    3    3    0    0 -0.81939663297E+01  0.11005142368E+02  0.17243541325E+02  0.22036196597E+02  0.51100000000E-03 0.  1.
        -12    1    3    3    0    0 -0.44792859567E+01  0.14578411926E+00  0.15897596153E+01  0.47552698479E+01  0.00000000000E+00 0.  1.
</event>
<event>
 7    1  0.5559916E-010  0.4778727E+02  0.7816164E-02  0.1312668E+00
        -11   -1    0    0    0    0  0.00000000000E+00  0.00000000000E+00  0.45593999997E+02  0.45594000000E+02  0.51100000000E-03 0.  1.
         11   -1    0    0    0    0 -0.00000000000E+00 -0.00000000000E+00 -0.45593999997E+02  0.45594000000E+02  0.51100000000E-03 0. -1.
    9900012    2    1    2    0    0 -0.30802389518E+02 -0.29210726193E+01  0.30435234276E+02  0.47787270160E+02  0.19999995966E+02 0.  0.
         12    1    1    2    0    0  0.30802389518E+02  0.29210726193E+01 -0.30435234276E+02  0.43400729840E+02  0.00000000000E+00 0. -1.
         11    1    3    3    0    0 -0.94681014569E+01  0.42875161090E+01  0.15102002703E+01  0.10502782712E+02  0.51100000000E-03 0. -1.
        -11    1    3    3    0    0 -0.13991263934E+02 -0.17142413954E+01  0.20154886080E+02  0.24594989799E+02  0.51100000000E-03 0.  1.
         12    1    3    3    0    0 -0.73430241275E+01 -0.54943473329E+01  0.87701479248E+01  0.12689497649E+02  0.00000000000E+00 0. -1.
</event>
<event>
 7    1  0.5559916E-010  0.4778727E+02  0.7816164E-02  0.1312668E+00
        -11   -1    0    0    0    0  0.00000000000E+00  0.00000000000E+00  0.45593999997E+02  0.45594000000E+02  0.51100000000E-03 0. -1.
         11   -1    0    0    0    0 -0.00000000000E+00 -0.00000000000E+00 -0.45593999997E+02  0.45594000000E+02  0.51100000000E-03 0.  1.
    9900012    2    1    2    0    0 -0.13279046061E+02  0.39914642505E+02 -0.10682290888E+02  0.47787273172E+02  0.20000009699E+02 0.  0.
         12    1    1    2    0    0  0.13279046061E+02 -0.39914642505E+02  0.10682290888E+02  0.43400726828E+02  0.00000000000E+00 0. -1.
         11    1    3    3    0    0 -0.34348431721E+01  0.51914790811E+00  0.20025116727E+01  0.40097026608E+01  0.51100000000E-03 0. -1.
        -11    1    3    3    0    0 -0.54411608934E+01  0.35759522437E+02 -0.10508813941E+02  0.37666760513E+02  0.51100000000E-03 0.  1.
        -12    1    3    3    0    0 -0.44030419955E+01  0.36359721596E+01 -0.21759886196E+01  0.61108099981E+01  0.00000000000E+00 0.  1.
</event>
<event>
 7    1  0.5559916E-010  0.4778725E+02  0.7816164E-02  0.1312668E+00
        -11   -1    0    0    0    0  0.00000000000E+00  0.00000000000E+00  0.45593999997E+02  0.45594000000E+02  0.51100000000E-03 0. -1.
         11   -1    0    0    0    0 -0.00000000000E+00 -0.00000000000E+00 -0.45593999997E+02  0.45594000000E+02  0.51100000000E-03 0.  1.
    9900012    2    1    2    0    0 -0.12396867377E+02 -0.46871262633E+01 -0.41327634295E+02  0.47787253119E+02  0.19999918273E+02 0.  0.
         12    1    1    2    0    0  0.12396867377E+02  0.46871262633E+01  0.41327634295E+02  0.43400746881E+02  0.00000000000E+00 0. -1.
         11    1    3    3    0    0 -0.50360980493E+01 -0.11156449372E+02 -0.19150142258E+02  0.22727881444E+02  0.51100000000E-03 0. -1.
        -11    1    3    3    0    0 -0.51397642488E+01  0.40283083620E+01 -0.20160149739E+02  0.21191415303E+02  0.51100000000E-03 0.  1.
         12    1    3    3    0    0 -0.22210050789E+01  0.24410147468E+01 -0.20173422984E+01  0.38679563730E+01  0.00000000000E+00 0. -1.
</event>
<event>
 7    1  0.5559916E-010  0.4778727E+02  0.7816164E-02  0.1312668E+00
        -11   -1    0    0    0    0  0.00000000000E+00  0.00000000000E+00  0.45593999997E+02  0.45594000000E+02  0.51100000000E-03 0.  1.
         11   -1    0    0    0    0 -0.00000000000E+00 -0.00000000000E+00 -0.45593999997E+02  0.45594000000E+02  0.51100000000E-03 0. -1.
    9900012    2    1    2    0    0  0.28837704817E+02 -0.32430311929E+02 -0.53390110169E+00  0.47787269576E+02  0.19999993306E+02 0.  0.
         12    1    1    2    0    0 -0.28837704817E+02  0.32430311929E+02  0.53390110169E+00  0.43400730424E+02  0.00000000000E+00 0. -1.
         11    1    3    3    0    0  0.17772253997E+02 -0.11865968502E+02 -0.77114652949E+01  0.22718294784E+02  0.51100000000E-03 0. -1.
        -11    1    3    3    0    0  0.11654835850E+02 -0.18953669348E+02  0.70860137117E+01  0.23351410472E+02  0.51100000000E-03 0.  1.
         12    1    3    3    0    0 -0.58938503086E+00 -0.16106740794E+01  0.91550481548E-01  0.17175643205E+01  0.00000000000E+00 0. -1.
</event>
<event>
 7    1  0.5559916E-010  0.4778727E+02  0.7816164E-02  0.1312668E+00
        -11   -1    0    0    0    0  0.00000000000E+00  0.00000000000E+00  0.45593999997E+02  0.45594000000E+02  0.51100000000E-03 0.  1.
         11   -1    0    0    0    0 -0.00000000000E+00 -0.00000000000E+00 -0.45593999997E+02  0.45594000000E+02  0.51100000000E-03 0. -1.
    9900012    2    1    2    0    0 -0.26059923861E+02  0.26128646180E+02  0.22842887847E+02  0.47787270651E+02  0.19999998205E+02 0.  0.
         12    1    1    2    0    0  0.26059923861E+02 -0.26128646180E+02 -0.22842887847E+02  0.43400729349E+02  0.00000000000E+00 0. -1.
         11    1    3    3    0    0 -0.81041476564E+01  0.12905659026E+02  0.14384929042E+00  0.15239879823E+02  0.51100000000E-03 0. -1.
        -11    1    3    3    0    0 -0.45596673044E+01  0.20741912840E+01  0.93013105999E+01  0.10564431577E+02  0.51100000000E-03 0.  1.
         12    1    3    3    0    0 -0.13396108901E+02  0.11148795871E+02  0.13397727956E+02  0.21982959251E+02  0.00000000000E+00 0. -1.
</event>
<event>
 7    1  0.5559916E-010  0.4778727E+02  0.7816164E-02  0.1312668E+00
        -11   -1    0    0    0    0  0.00000000000E+00  0.00000000000E+00  0.45593999997E+02  0.45594000000E+02  0.51100000000E-03 0.  1.
         11   -1    0    0    0    0 -0.00000000000E+00 -0.00000000000E+00 -0.45593999997E+02  0.45594000000E+02  0.51100000000E-03 0. -1.
    9900012    2    1    2    0    0  0.41423206743E+02 -0.12902421365E+02  0.11263649351E+01  0.47787271528E+02  0.20000002203E+02 0.  0.
         12    1    1    2    0    0 -0.41423206743E+02  0.12902421365E+02 -0.11263649351E+01  0.43400728472E+02  0.00000000000E+00 0. -1.
         11    1    3    3    0    0  0.14292554554E+02 -0.10782460710E+02  0.74020159628E+01  0.19373394520E+02  0.51100000000E-03 0. -1.
        -11    1    3    3    0    0  0.24189459962E+02 -0.34142161574E+01 -0.48867247551E+01  0.24913187759E+02  0.51100000000E-03 0.  1.
        -12    1    3    3    0    0  0.29411922270E+01  0.12942555027E+01 -0.13889262726E+01  0.35006892483E+01  0.00000000000E+00 0.  1.
</event>
<event>
 7    1  0.5559916E-010  0.4778727E+02  0.7816164E-02  0.1312668E+00
        -11   -1    0    0    0    0  0.00000000000E+00  0.00000000000E+00  0.45593999997E+02  0.45594000000E+02  0.51100000000E-03 0.  1.
         11   -1    0    0    0    0 -0.00000000000E+00 -0.00000000000E+00 -0.45593999997E+02  0.45594000000E+02  0.51100000000E-03 0. -1.
    9900012    2    1    2    0    0 -0.20485093241E+02 -0.26792365258E+02  0.27315813465E+02  0.47787267904E+02  0.19999985683E+02 0.  0.
         12    1    1    2    0    0  0.20485093241E+02  0.26792365258E+02 -0.27315813465E+02  0.43400732096E+02  0.00000000000E+00 0. -1.
         11    1    3    3    0    0 -0.48736559830E+00 -0.60945536762E+01  0.46396615817E+01  0.76751266825E+01  0.51100000000E-03 0.  1.
        -11    1    3    3    0    0 -0.59601784887E+01 -0.14174559418E+02  0.40646145815E+01  0.15904809156E+02  0.51100000000E-03 0. -1.
        -12    1    3    3    0    0 -0.14037549154E+02 -0.65232521632E+01  0.18611537302E+02  0.24207332066E+02  0.00000000000E+00 0.  1.
</event>
<event>
 7    1  0.5559916E-010  0.4778727E+02  0.7816164E-02  0.1312668E+00
        -11   -1    0    0    0    0  0.00000000000E+00  0.00000000000E+00  0.45593999997E+02  0.45594000000E+02  0.51100000000E-03 0. -1.
         11   -1    0    0    0    0 -0.00000000000E+00 -0.00000000000E+00 -0.45593999997E+02  0.45594000000E+02  0.51100000000E-03 0.  1.
    9900012    2    1    2    0    0 -0.33694621490E+02  0.27348054459E+02 -0.61592357942E+00  0.47787274638E+02  0.20000016386E+02 0.  0.
         12    1    1    2    0    0  0.33694621490E+02 -0.27348054459E+02  0.61592357942E+00  0.43400725362E+02  0.00000000000E+00 0. -1.
         11    1    3    3    0    0 -0.17389017435E+02  0.92260785862E+01  0.77101537916E+01  0.21141071997E+02  0.51100000000E-03 0. -1.
        -11    1    3    3    0    0 -0.46248525364E+01  0.80579038247E+01 -0.59836446973E+01  0.11050931144E+02  0.51100000000E-03 0.  1.
         12    1    3    3    0    0 -0.11680751518E+02  0.10064072048E+02 -0.23424326737E+01  0.15595271497E+02  0.00000000000E+00 0. -1.
</event>
<event>
 7    1  0.5559916E-010  0.4778726E+02  0.7816164E-02  0.1312668E+00
        -11   -1    0    0    0    0  0.00000000000E+00  0.00000000000E+00  0.45593999997E+02  0.45594000000E+02  0.51100000000E-03 0.  1.
         11   -1    0    0    0    0 -0.00000000000E+00 -0.00000000000E+00 -0.45593999997E+02  0.45594000000E+02  0.51100000000E-03 0. -1.
    9900012    2    1    2    0    0  0.20120343731E+02 -0.20064200414E+02  0.32805848864E+02  0.47787261644E+02  0.19999957140E+02 0.  0.
         12    1    1    2    0    0 -0.20120343731E+02  0.20064200414E+02 -0.32805848864E+02  0.43400738356E+02  0.00000000000E+00 0. -1.
         11    1    3    3    0    0  0.16964764533E+01 -0.56733755265E+01  0.96453686966E+01  0.11318054593E+02  0.51100000000E-03 0. -1.
        -11    1    3    3    0    0  0.18031971012E+02 -0.16123815988E+02  0.24356527676E+02  0.34327392288E+02  0.51100000000E-03 0.  1.
        -12    1    3    3    0    0  0.39189626639E+00  0.17329911007E+01 -0.11960475077E+01  0.21418147631E+01  0.00000000000E+00 0.  1.
</event>
<event>
 7    1  0.5559916E-010  0.4778727E+02  0.7816164E-02  0.1312668E+00
        -11   -1    0    0    0    0  0.00000000000E+00  0.00000000000E+00  0.45593999997E+02  0.45594000000E+02  0.51100000000E-03 0.  1.
         11   -1    0    0    0    0 -0.00000000000E+00 -0.00000000000E+00 -0.45593999997E+02  0.45594000000E+02  0.51100000000E-03 0. -1.
    9900012    2    1    2    0    0 -0.28557987682E+02  0.32157174172E+02 -0.58292995836E+01  0.47787271379E+02  0.20000001526E+02 0.  0.
         12    1    1    2    0    0  0.28557987682E+02 -0.32157174172E+02  0.58292995836E+01  0.43400728621E+02  0.00000000000E+00 0. -1.
         11    1    3    3    0    0  0.19548941795E+01  0.17408216613E+01 -0.37903283614E+01  0.46063717455E+01  0.51100000000E-03 0. -1.
        -11    1    3    3    0    0 -0.13714853323E+02  0.14211016194E+02  0.18833785361E-01  0.19749697160E+02  0.51100000000E-03 0.  1.
         12    1    3    3    0    0 -0.16798028538E+02  0.16205336317E+02 -0.20578050076E+01  0.23431202474E+02  0.00000000000E+00 0. -1.
</event>
<event>
 7    1  0.5559916E-010  0.4778728E+02  0.7816164E-02  0.1312668E+00
        -11   -1    0    0    0    0  0.00000000000E+00  0.00000000000E+00  0.45593999997E+02  0.45594000000E+02  0.51100000000E-03 0.  1.
         11   -1    0    0    0    0 -0.00000000000E+00 -0.00000000000E+00 -0.45593999997E+02  0.45594000000E+02  0.51100000000E-03 0. -1.
    9900012    2    1    2    0    0  0.14113994324E+02  0.44296682451E+01  0.40801911767E+02  0.47787276499E+02  0.20000024870E+02 0.  0.
         12    1    1    2    0    0 -0.14113994324E+02 -0.44296682451E+01 -0.40801911767E+02  0.43400723501E+02  0.00000000000E+00 0. -1.
         11    1    3    3    0    0  0.32629933868E+01  0.84413603288E+01  0.12283956468E+02  0.15257761199E+02  0.51100000000E-03 0. -1.
        -11    1    3    3    0    0  0.67350357680E+01 -0.72838386447E+01  0.22158137556E+02  0.24277521958E+02  0.51100000000E-03 0.  1.
        -12    1    3    3    0    0  0.41159651691E+01  0.32721465610E+01  0.63598177440E+01  0.82519933427E+01  0.00000000000E+00 0.  1.
</event>
<event>
 7    1  0.5559916E-010  0.4778727E+02  0.7816164E-02  0.1312668E+00
        -11   -1    0    0    0    0  0.00000000000E+00  0.00000000000E+00  0.45593999997E+02  0.45594000000E+02  0.51100000000E-03 0.  1.
         11   -1    0    0    0    0 -0.00000000000E+00 -0.00000000000E+00 -0.45593999997E+02  0.45594000000E+02  0.51100000000E-03 0. -1.
    9900012    2    1    2    0    0  0.25072950002E+02 -0.23022595880E+02  0.26924533711E+02  0.47787271222E+02  0.20000000811E+02 0.  0.
         12    1    1    2    0    0 -0.25072950002E+02  0.23022595880E+02 -0.26924533711E+02  0.43400728778E+02  0.00000000000E+00 0. -1.
         11    1    3    3    0    0 -0.52901380567E+00 -0.53366626893E+01  0.88019309602E+01  0.10306978857E+02  0.51100000000E-03 0. -1.
        -11    1    3    3    0    0  0.19859157699E+02 -0.17735637810E+02  0.17107764450E+02  0.31648295338E+02  0.51100000000E-03 0.  1.
         12    1    3    3    0    0  0.57428061088E+01  0.49704619197E-01  0.10148383007E+01  0.58319970275E+01  0.00000000000E+00 0. -1.
</event>
<event>
 7    1  0.5559916E-010  0.4778727E+02  0.7816164E-02  0.1312668E+00
        -11   -1    0    0    0    0  0.00000000000E+00  0.00000000000E+00  0.45593999997E+02  0.45594000000E+02  0.51100000000E-03 0.  1.
         11   -1    0    0    0    0 -0.00000000000E+00 -0.00000000000E+00 -0.45593999997E+02  0.45594000000E+02  0.51100000000E-03 0. -1.
    9900012    2    1    2    0    0 -0.29497711151E+02 -0.26237839680E+02  0.18030089869E+02  0.47787270341E+02  0.19999996795E+02 0.  0.
         12    1    1    2    0    0  0.29497711151E+02  0.26237839680E+02 -0.18030089869E+02  0.43400729659E+02  0.00000000000E+00 0. -1.
         11    1    3    3    0    0  0.17207815227E+00 -0.99960801796E+00  0.29396446322E+01  0.31097166920E+01  0.51100000000E-03 0. -1.
        -11    1    3    3    0    0 -0.16666178712E+02 -0.18217457068E+02  0.16706165540E+02  0.29811628976E+02  0.51100000000E-03 0.  1.
        -12    1    3    3    0    0 -0.13003610592E+02 -0.70207745938E+01 -0.16157203027E+01  0.14865924674E+02  0.00000000000E+00 0.  1.
</event>
<event>
 7    1  0.5559916E-010  0.4778727E+02  0.7816164E-02  0.1312668E+00
        -11   -1    0    0    0    0  0.00000000000E+00  0.00000000000E+00  0.45593999997E+02  0.45594000000E+02  0.51100000000E-03 0. -1.
         11   -1    0    0    0    0 -0.00000000000E+00 -0.00000000000E+00 -0.45593999997E+02  0.45594000000E+02  0.51100000000E-03 0.  1.
    9900012    2    1    2    0    0 -0.38900551302E+02 -0.42770352036E+01 -0.18763719949E+02  0.47787272955E+02  0.20000008710E+02 0.  0.
         12    1    1    2    0    0  0.38900551302E+02  0.42770352036E+01  0.18763719949E+02  0.43400727045E+02  0.00000000000E+00 0. -1.
         11    1    3    3    0    0 -0.15479406618E+02  0.54668045213E+01 -0.58832701226E+01  0.17438774284E+02  0.51100000000E-03 0. -1.
        -11    1    3    3    0    0 -0.24416843226E+02 -0.94431391780E+01 -0.13117369208E+02  0.29281743217E+02  0.51100000000E-03 0.  1.
         12    1    3    3    0    0  0.99569854184E+00 -0.30070054687E+00  0.23691938160E+00  0.10667554539E+01  0.00000000000E+00 0. -1.
</event>
<event>
 7    1  0.5559916E-010  0.4778727E+02  0.7816164E-02  0.1312668E+00
        -11   -1    0    0    0    0  0.00000000000E+00  0.00000000000E+00  0.45593999997E+02  0.45594000000E+02  0.51100000000E-03 0.  1.
         11   -1    0    0    0    0 -0.00000000000E+00 -0.00000000000E+00 -0.45593999997E+02  0.45594000000E+02  0.51100000000E-03 0. -1.
    9900012    2    1    2    0    0  0.40086829956E+01  0.34987801051E+02  0.25365487286E+02  0.47787266055E+02  0.19999977251E+02 0.  0.
         12    1    1    2    0    0 -0.40086829956E+01 -0.34987801051E+02 -0.25365487286E+02  0.43400733945E+02  0.00000000000E+00 0. -1.
         11    1    3    3    0    0  0.34321292321E+01  0.47553870641E+01 -0.76620869596E+00  0.59144140219E+01  0.51100000000E-03 0. -1.
        -11    1    3    3    0    0 -0.18996693086E+01 -0.43284456180E+00  0.17260245075E+01  0.26029327226E+01  0.51100000000E-03 0.  1.
        -12    1    3    3    0    0  0.24762230721E+01  0.30665258549E+02  0.24405671474E+02  0.39269919310E+02  0.00000000000E+00 0.  1.
</event>
<event>
 7    1  0.5559916E-010  0.4778727E+02  0.7816164E-02  0.1312668E+00
        -11   -1    0    0    0    0  0.00000000000E+00  0.00000000000E+00  0.45593999997E+02  0.45594000000E+02  0.51100000000E-03 0.  1.
         11   -1    0    0    0    0 -0.00000000000E+00 -0.00000000000E+00 -0.45593999997E+02  0.45594000000E+02  0.51100000000E-03 0. -1.
    9900012    2    1    2    0    0 -0.14682396073E+02 -0.26311883653E+02  0.31236763564E+02  0.47787269894E+02  0.19999994753E+02 0.  0.
         12    1    1    2    0    0  0.14682396073E+02  0.26311883653E+02 -0.31236763564E+02  0.43400730106E+02  0.00000000000E+00 0. -1.
         11    1    3    3    0    0 -0.80088996190E+01 -0.18487179516E+02  0.71947623872E+01  0.21393524386E+02  0.51100000000E-03 0. -1.
        -11    1    3    3    0    0 -0.63141408030E+01 -0.57434515042E+01  0.16712539312E+02  0.18766048592E+02  0.51100000000E-03 0.  1.
         12    1    3    3    0    0 -0.35935565079E+00 -0.20812526322E+01  0.73294618652E+01  0.76276969156E+01  0.00000000000E+00 0. -1.
</event>
<event>
 7    1  0.5559916E-010  0.4778727E+02  0.7816164E-02  0.1312668E+00
        -11   -1    0    0    0    0  0.00000000000E+00  0.00000000000E+00  0.45593999997E+02  0.45594000000E+02  0.51100000000E-03 0. -1.
         11   -1    0    0    0    0 -0.00000000000E+00 -0.00000000000E+00 -0.45593999997E+02  0.45594000000E+02  0.51100000000E-03 0.  1.
    9900012    2    1    2    0    0 -0.41986172401E+02 -0.65732056054E+00  0.10970528969E+02  0.47787271330E+02  0.20000001301E+02 0.  0.
         12    1    1    2    0    0  0.41986172401E+02  0.65732056054E+00 -0.10970528969E+02  0.43400728670E+02  0.00000000000E+00 0. -1.
         11    1    3    3    0    0 -0.22821554119E+02 -0.79617586156E+01  0.83321619578E+01  0.25566342246E+02  0.51100000000E-03 0. -1.
        -11    1    3    3    0    0 -0.17291884675E+02  0.46539032090E+01  0.45209059849E+01  0.18469073660E+02  0.51100000000E-03 0.  1.
         12    1    3    3    0    0 -0.18727336075E+01  0.26505348461E+01 -0.18825389734E+01  0.37518554238E+01  0.00000000000E+00 0. -1.
</event>
<event>
 7    1  0.5559916E-010  0.4778727E+02  0.7816164E-02  0.1312668E+00
        -11   -1    0    0    0    0  0.00000000000E+00  0.00000000000E+00  0.45593999997E+02  0.45594000000E+02  0.51100000000E-03 0. -1.
         11   -1    0    0    0    0 -0.00000000000E+00 -0.00000000000E+00 -0.45593999997E+02  0.45594000000E+02  0.51100000000E-03 0.  1.
    9900012    2    1    2    0    0  0.22525419203E+02 -0.22358064389E+02 -0.29603137533E+02  0.47787270682E+02  0.19999998348E+02 0.  0.
         12    1    1    2    0    0 -0.22525419203E+02  0.22358064389E+02  0.29603137533E+02  0.43400729318E+02  0.00000000000E+00 0. -1.
         11    1    3    3    0    0  0.80577342171E+01 -0.12640933712E+02 -0.25284430084E+02  0.29394262889E+02  0.51100000000E-03 0. -1.
        -11    1    3    3    0    0  0.11093433462E+02 -0.91909037391E+01 -0.40644126225E+01  0.14968514547E+02  0.51100000000E-03 0.  1.
         12    1    3    3    0    0  0.33742515239E+01 -0.52622693780E+00 -0.25429482711E+00  0.34244932466E+01  0.00000000000E+00 0. -1.
</event>
<event>
 7    1  0.5559916E-010  0.4778727E+02  0.7816164E-02  0.1312668E+00
        -11   -1    0    0    0    0  0.00000000000E+00  0.00000000000E+00  0.45593999997E+02  0.45594000000E+02  0.51100000000E-03 0. -1.
         11   -1    0    0    0    0 -0.00000000000E+00 -0.00000000000E+00 -0.45593999997E+02  0.45594000000E+02  0.51100000000E-03 0.  1.
    9900012    2    1    2    0    0 -0.11749726252E+02 -0.82952903169E+01 -0.40948208456E+02  0.47787266317E+02  0.19999978447E+02 0.  0.
         12    1    1    2    0    0  0.11749726252E+02  0.82952903169E+01  0.40948208456E+02  0.43400733683E+02  0.00000000000E+00 0. -1.
         11    1    3    3    0    0 -0.79468899469E+00 -0.10624998938E+01  0.18088449783E+01  0.22432915636E+01  0.51100000000E-03 0. -1.
        -11    1    3    3    0    0 -0.73688363171E+01  0.25655854343E+00 -0.19291550669E+02  0.20652590599E+02  0.51100000000E-03 0.  1.
         12    1    3    3    0    0 -0.35862009401E+01 -0.74893489665E+01 -0.23465502765E+02  0.24891384155E+02  0.00000000000E+00 0. -1.
</event>
<event>
 7    1  0.5559916E-010  0.4778727E+02  0.7816164E-02  0.1312668E+00
        -11   -1    0    0    0    0  0.00000000000E+00  0.00000000000E+00  0.45593999997E+02  0.45594000000E+02  0.51100000000E-03 0.  1.
         11   -1    0    0    0    0 -0.00000000000E+00 -0.00000000000E+00 -0.45593999997E+02  0.45594000000E+02  0.51100000000E-03 0. -1.
    9900012    2    1    2    0    0 -0.12802995191E+02  0.40590307741E+02  0.84931507956E+01  0.47787269836E+02  0.19999994489E+02 0.  0.
         12    1    1    2    0    0  0.12802995191E+02 -0.40590307741E+02 -0.84931507956E+01  0.43400730164E+02  0.00000000000E+00 0. -1.
         11    1    3    3    0    0  0.39585028989E+00  0.10668008894E+01 -0.40698251406E+00  0.12084687077E+01  0.51100000000E-03 0. -1.
        -11    1    3    3    0    0 -0.14672998839E+02  0.18955523475E+02 -0.36132229059E+00  0.23973721430E+02  0.51100000000E-03 0.  1.
        -12    1    3    3    0    0  0.14741533590E+01  0.20567983377E+02  0.92614556002E+01  0.22605079698E+02  0.00000000000E+00 0.  1.
</event>
<event>
 7    1  0.5559916E-010  0.4778727E+02  0.7816164E-02  0.1312668E+00
        -11   -1    0    0    0    0  0.00000000000E+00  0.00000000000E+00  0.45593999997E+02  0.45594000000E+02  0.51100000000E-03 0.  1.
         11   -1    0    0    0    0 -0.00000000000E+00 -0.00000000000E+00 -0.45593999997E+02  0.45594000000E+02  0.51100000000E-03 0. -1.
    9900012    2    1    2    0    0  0.27689130201E+02 -0.19198902002E+02  0.27355762042E+02  0.47787268598E+02  0.19999988845E+02 0.  0.
         12    1    1    2    0    0 -0.27689130201E+02  0.19198902002E+02 -0.27355762042E+02  0.43400731402E+02  0.00000000000E+00 0. -1.
         11    1    3    3    0    0  0.19594302920E+02 -0.53284233800E+01  0.85648054354E+01  0.22038255263E+02  0.51100000000E-03 0. -1.
        -11    1    3    3    0    0  0.89088635271E+01 -0.96905290280E+01  0.15693640266E+02  0.20483274817E+02  0.51100000000E-03 0.  1.
         12    1    3    3    0    0 -0.81403624628E+00 -0.41799495942E+01  0.30973163407E+01  0.52657385175E+01  0.00000000000E+00 0. -1.
</event>
<event>
 7    1  0.5559916E-010  0.4778727E+02  0.7816164E-02  0.1312668E+00
        -11   -1    0    0    0    0  0.00000000000E+00  0.00000000000E+00  0.45593999997E+02  0.45594000000E+02  0.51100000000E-03 0.  1.
         11   -1    0    0    0    0 -0.00000000000E+00 -0.00000000000E+00 -0.45593999997E+02  0.45594000000E+02  0.51100000000E-03 0. -1.
    9900012    2    1    2    0    0 -0.10976033228E+02  0.34498257077E+02  0.23937846955E+02  0.47787267706E+02  0.19999984779E+02 0.  0.
         12    1    1    2    0    0  0.10976033228E+02 -0.34498257077E+02 -0.23937846955E+02  0.43400732294E+02  0.00000000000E+00 0. -1.
         11    1    3    3    0    0 -0.11668588732E+02  0.14967073634E+02  0.72131512699E+01  0.20302679815E+02  0.51100000000E-03 0. -1.
        -11    1    3    3    0    0  0.96397433282E+00  0.82751386953E+01  0.13339573183E+02  0.15727408556E+02  0.51100000000E-03 0.  1.
        -12    1    3    3    0    0 -0.27141882857E+00  0.11256044748E+02  0.33851225031E+01  0.11757179335E+02  0.00000000000E+00 0.  1.
</event>
<event>
 7    1  0.5559916E-010  0.4778725E+02  0.7816164E-02  0.1312668E+00
        -11   -1    0    0    0    0  0.00000000000E+00  0.00000000000E+00  0.45593999997E+02  0.45594000000E+02  0.51100000000E-03 0.  1.
         11   -1    0    0    0    0 -0.00000000000E+00 -0.00000000000E+00 -0.45593999997E+02  0.45594000000E+02  0.51100000000E-03 0. -1.
    9900012    2    1    2    0    0  0.11499646021E+02 -0.27448433990E+02  0.31590610308E+02  0.47787250620E+02  0.19999906877E+02 0.  0.
         12    1    1    2    0    0 -0.11499646021E+02  0.27448433990E+02 -0.31590610308E+02  0.43400749380E+02  0.00000000000E+00 0. -1.
         11    1    3    3    0    0  0.35654478164E+01 -0.57395461384E+00 -0.91181320406E+00  0.37246806052E+01  0.51100000000E-03 0. -1.
        -11    1    3    3    0    0  0.53785061748E+01 -0.20119478303E+02  0.16724197926E+02  0.26709933216E+02  0.51100000000E-03 0.  1.
        -12    1    3    3    0    0  0.25556920295E+01 -0.67550010737E+01  0.15778225586E+02  0.17352636799E+02  0.00000000000E+00 0.  1.
</event>
<event>
 7    1  0.5559916E-010  0.4778728E+02  0.7816164E-02  0.1312668E+00
        -11   -1    0    0    0    0  0.00000000000E+00  0.00000000000E+00  0.45593999997E+02  0.45594000000E+02  0.51100000000E-03 0. -1.
         11   -1    0    0    0    0 -0.00000000000E+00 -0.00000000000E+00 -0.45593999997E+02  0.45594000000E+02  0.51100000000E-03 0.  1.
    9900012    2    1    2    0    0  0.26577497690E+02 -0.18621334048E+02 -0.28818483763E+02  0.47787280287E+02  0.20000042139E+02 0.  0.
         12    1    1    2    0    0 -0.26577497690E+02  0.18621334048E+02  0.28818483763E+02  0.43400719713E+02  0.00000000000E+00 0. -1.
         11    1    3    3    0    0  0.73949377974E+01  0.19157494171E+01 -0.12654264629E+02  0.14781258892E+02  0.51100000000E-03 0. -1.
        -11    1    3    3    0    0  0.39469624202E+01 -0.11424068197E+01 -0.25203583120E+01  0.48203539258E+01  0.51100000000E-03 0.  1.
         12    1    3    3    0    0  0.15235597473E+02 -0.19394676646E+02 -0.13643860822E+02  0.28185667469E+02  0.00000000000E+00 0. -1.
</event>
<event>
 7    1  0.5559916E-010  0.4778727E+02  0.7816164E-02  0.1312668E+00
        -11   -1    0    0    0    0  0.00000000000E+00  0.00000000000E+00  0.45593999997E+02  0.45594000000E+02  0.51100000000E-03 0.  1.
         11   -1    0    0    0    0 -0.00000000000E+00 -0.00000000000E+00 -0.45593999997E+02  0.45594000000E+02  0.51100000000E-03 0. -1.
    9900012    2    1    2    0    0 -0.36949530271E+01 -0.46155908939E+01  0.42996128158E+02  0.47787269663E+02  0.19999993703E+02 0.  0.
         12    1    1    2    0    0  0.36949530271E+01  0.46155908939E+01 -0.42996128158E+02  0.43400730337E+02  0.00000000000E+00 0. -1.
         11    1    3    3    0    0  0.99851550554E+00  0.47085582732E+01  0.38023757006E+01  0.61339722412E+01  0.51100000000E-03 0. -1.
        -11    1    3    3    0    0 -0.44898171308E+00 -0.90306596673E+00  0.22163286774E+02  0.22186220805E+02  0.51100000000E-03 0.  1.
         12    1    3    3    0    0 -0.42444868195E+01 -0.84210832003E+01  0.17030465683E+02  0.19467076617E+02  0.00000000000E+00 0. -1.
</event>
<event>
 7    1  0.5559916E-010  0.4778727E+02  0.7816164E-02  0.1312668E+00
        -11   -1    0    0    0    0  0.00000000000E+00  0.00000000000E+00  0.45593999997E+02  0.45594000000E+02  0.51100000000E-03 0.  1.
         11   -1    0    0    0    0 -0.00000000000E+00 -0.00000000000E+00 -0.45593999997E+02  0.45594000000E+02  0.51100000000E-03 0. -1.
    9900012    2    1    2    0    0  0.32621404743E+02  0.36793483540E+01  0.28388895983E+02  0.47787273430E+02  0.20000010876E+02 0.  0.
         12    1    1    2    0    0 -0.32621404743E+02 -0.36793483540E+01 -0.28388895983E+02  0.43400726570E+02  0.00000000000E+00 0. -1.
         11    1    3    3    0    0  0.17441363134E+02 -0.15976929238E+01  0.51329109287E+01  0.18251042313E+02  0.51100000000E-03 0. -1.
        -11    1    3    3    0    0  0.13400213905E+02  0.72917083942E+01  0.21352076470E+02  0.26242063826E+02  0.51100000000E-03 0.  1.
         12    1    3    3    0    0  0.17798277034E+01 -0.20146671163E+01  0.19039085842E+01  0.32941672909E+01  0.00000000000E+00 0. -1.
</event>
<event>
 7    1  0.5559916E-010  0.4778727E+02  0.7816164E-02  0.1312668E+00
        -11   -1    0    0    0    0  0.00000000000E+00  0.00000000000E+00  0.45593999997E+02  0.45594000000E+02  0.51100000000E-03 0.  1.
         11   -1    0    0    0    0 -0.00000000000E+00 -0.00000000000E+00 -0.45593999997E+02  0.45594000000E+02  0.51100000000E-03 0. -1.
    9900012    2    1    2    0    0  0.15949757046E+02 -0.29808000351E+02  0.27216018924E+02  0.47787270503E+02  0.19999997533E+02 0.  0.
         12    1    1    2    0    0 -0.15949757046E+02  0.29808000351E+02 -0.27216018924E+02  0.43400729497E+02  0.00000000000E+00 0. -1.
         11    1    3    3    0    0  0.36890095163E+01 -0.34880228528E+00  0.26806787232E+01  0.45734552500E+01  0.51100000000E-03 0. -1.
        -11    1    3    3    0    0  0.43223214862E+01 -0.26823774891E+02  0.17887828340E+02  0.32529552186E+02  0.51100000000E-03 0.  1.
        -12    1    3    3    0    0  0.79384260434E+01 -0.26354231752E+01  0.66475118606E+01  0.10684263068E+02  0.00000000000E+00 0.  1.
</event>
<event>
 7    1  0.5559916E-010  0.4778728E+02  0.7816164E-02  0.1312668E+00
        -11   -1    0    0    0    0  0.00000000000E+00  0.00000000000E+00  0.45593999997E+02  0.45594000000E+02  0.51100000000E-03 0. -1.
         11   -1    0    0    0    0 -0.00000000000E+00 -0.00000000000E+00 -0.45593999997E+02  0.45594000000E+02  0.51100000000E-03 0.  1.
    9900012    2    1    2    0    0 -0.95788210191E+01  0.27055495095E+02 -0.32555630492E+02  0.47787277614E+02  0.20000029952E+02 0.  0.
         12    1    1    2    0    0  0.95788210191E+01 -0.27055495095E+02  0.32555630492E+02  0.43400722386E+02  0.00000000000E+00 0. -1.
         11    1    3    3    0    0 -0.98282425795E+01  0.82334855536E+01 -0.89662157067E+01  0.15645371869E+02  0.51100000000E-03 0. -1.
        -11    1    3    3    0    0  0.50852989555E+01  0.12348596368E+02 -0.17553386267E+02  0.22056052852E+02  0.51100000000E-03 0.  1.
        -12    1    3    3    0    0 -0.48358773952E+01  0.64734131738E+01 -0.60360285182E+01  0.10085852893E+02  0.00000000000E+00 0.  1.
</event>
<event>
 7    1  0.5559916E-010  0.4778727E+02  0.7816164E-02  0.1312668E+00
        -11   -1    0    0    0    0  0.00000000000E+00  0.00000000000E+00  0.45593999997E+02  0.45594000000E+02  0.51100000000E-03 0.  1.
         11   -1    0    0    0    0 -0.00000000000E+00 -0.00000000000E+00 -0.45593999997E+02  0.45594000000E+02  0.51100000000E-03 0. -1.
    9900012    2    1    2    0    0 -0.42645274635E+02  0.57187795633E+01  0.56832364797E+01  0.47787273448E+02  0.20000010959E+02 0.  0.
         12    1    1    2    0    0  0.42645274635E+02 -0.57187795633E+01 -0.56832364797E+01  0.43400726552E+02  0.00000000000E+00 0. -1.
         11    1    3    3    0    0 -0.44138179115E+01  0.68106054572E+01  0.21032237549E+01  0.83838944216E+01  0.51100000000E-03 0. -1.
        -11    1    3    3    0    0 -0.59412916019E+01 -0.17997008357E+01  0.34563371759E+01  0.71052189222E+01  0.51100000000E-03 0.  1.
         12    1    3    3    0    0 -0.32290165121E+02  0.70787494187E+00  0.12367554892E+00  0.32298160104E+02  0.00000000000E+00 0. -1.
</event>
<event>
 7    1  0.5559916E-010  0.4778727E+02  0.7816164E-02  0.1312668E+00
        -11   -1    0    0    0    0  0.00000000000E+00  0.00000000000E+00  0.45593999997E+02  0.45594000000E+02  0.51100000000E-03 0.  1.
         11   -1    0    0    0    0 -0.00000000000E+00 -0.00000000000E+00 -0.45593999997E+02  0.45594000000E+02  0.51100000000E-03 0. -1.
    9900012    2    1    2    0    0 -0.27939950991E+02 -0.32024450391E+02  0.87986880068E+01  0.47787271955E+02  0.20000004152E+02 0.  0.
         12    1    1    2    0    0  0.27939950991E+02  0.32024450391E+02 -0.87986880068E+01  0.43400728045E+02  0.00000000000E+00 0. -1.
         11    1    3    3    0    0 -0.42891948769E+00 -0.55671638428E+01  0.10063063536E+01  0.56736177099E+01  0.51100000000E-03 0. -1.
        -11    1    3    3    0    0 -0.73684306026E+01 -0.75678934056E+01  0.98241451183E+01  0.14424999401E+02  0.51100000000E-03 0.  1.
        -12    1    3    3    0    0 -0.20142600900E+02 -0.18889393142E+02 -0.20317634651E+01  0.27688654844E+02  0.00000000000E+00 0.  1.
</event>
<event>
 7    1  0.5559916E-010  0.4778721E+02  0.7816164E-02  0.1312668E+00
        -11   -1    0    0    0    0  0.00000000000E+00  0.00000000000E+00  0.45593999997E+02  0.45594000000E+02  0.51100000000E-03 0.  1.
         11   -1    0    0    0    0 -0.00000000000E+00 -0.00000000000E+00 -0.45593999997E+02  0.45594000000E+02  0.51100000000E-03 0. -1.
    9900012    2    1    2    0    0  0.85416847340E+01  0.36533890341E+02 -0.21816127722E+02  0.47787205649E+02  0.19999701834E+02 0.  0.
         12    1    1    2    0    0 -0.85416847340E+01 -0.36533890341E+02  0.21816127722E+02  0.43400794351E+02  0.00000000000E+00 0. -1.
         11    1    3    3    0    0  0.69485339938E+01  0.66020363918E+01 -0.68664076933E+01  0.11790528574E+02  0.51100000000E-03 0. -1.
        -11    1    3    3    0    0  0.73788393975E+00  0.31200313006E+02 -0.14095898368E+02  0.34244683608E+02  0.51100000000E-03 0.  1.
         12    1    3    3    0    0  0.85526680046E+00 -0.12684590569E+01 -0.85382166044E+00  0.17519934665E+01  0.00000000000E+00 0. -1.
</event>
<event>
 7    1  0.5559916E-010  0.4778728E+02  0.7816164E-02  0.1312668E+00
        -11   -1    0    0    0    0  0.00000000000E+00  0.00000000000E+00  0.45593999997E+02  0.45594000000E+02  0.51100000000E-03 0.  1.
         11   -1    0    0    0    0 -0.00000000000E+00 -0.00000000000E+00 -0.45593999997E+02  0.45594000000E+02  0.51100000000E-03 0. -1.
    9900012    2    1    2    0    0  0.14534170616E+02 -0.15601841052E+02  0.37801631224E+02  0.47787275548E+02  0.20000020535E+02 0.  0.
         12    1    1    2    0    0 -0.14534170616E+02  0.15601841052E+02 -0.37801631224E+02  0.43400724452E+02  0.00000000000E+00 0. -1.
         11    1    3    3    0    0  0.73341086338E+01 -0.34375635442E-01  0.43019658922E+01  0.85027784833E+01  0.51100000000E-03 0. -1.
        -11    1    3    3    0    0 -0.40025909560E+00 -0.53218047098E+01  0.20046133094E+02  0.20744379118E+02  0.51100000000E-03 0.  1.
        -12    1    3    3    0    0  0.76003210781E+01 -0.10245660706E+02  0.13453532239E+02  0.18540117947E+02  0.00000000000E+00 0.  1.
</event>
<event>
 7    1  0.5559916E-010  0.4778727E+02  0.7816164E-02  0.1312668E+00
        -11   -1    0    0    0    0  0.00000000000E+00  0.00000000000E+00  0.45593999997E+02  0.45594000000E+02  0.51100000000E-03 0.  1.
         11   -1    0    0    0    0 -0.00000000000E+00 -0.00000000000E+00 -0.45593999997E+02  0.45594000000E+02  0.51100000000E-03 0. -1.
    9900012    2    1    2    0    0  0.15676134557E+02 -0.35868653451E+02  0.18743576226E+02  0.47787272532E+02  0.20000006782E+02 0.  0.
         12    1    1    2    0    0 -0.15676134557E+02  0.35868653451E+02 -0.18743576226E+02  0.43400727468E+02  0.00000000000E+00 0. -1.
         11    1    3    3    0    0  0.32119612079E+01 -0.30525609803E+01  0.81621295741E+01  0.92873668381E+01  0.51100000000E-03 0. -1.
        -11    1    3    3    0    0  0.14286819236E+02 -0.26148760648E+02  0.10482457402E+02  0.31587225278E+02  0.51100000000E-03 0.  1.
        -12    1    3    3    0    0 -0.18226458869E+01 -0.66673318228E+01  0.98989249901E-01  0.69126804161E+01  0.00000000000E+00 0.  1.
</event>
<event>
 7    1  0.5559916E-010  0.4778728E+02  0.7816164E-02  0.1312668E+00
        -11   -1    0    0    0    0  0.00000000000E+00  0.00000000000E+00  0.45593999997E+02  0.45594000000E+02  0.51100000000E-03 0.  1.
         11   -1    0    0    0    0 -0.00000000000E+00 -0.00000000000E+00 -0.45593999997E+02  0.45594000000E+02  0.51100000000E-03 0. -1.
    9900012    2    1    2    0    0 -0.35879963032E+02 -0.77317296149E+01  0.23161851660E+02  0.47787276938E+02  0.20000026870E+02 0.  0.
         12    1    1    2    0    0  0.35879963032E+02  0.77317296149E+01 -0.23161851660E+02  0.43400723062E+02  0.00000000000E+00 0. -1.
         11    1    3    3    0    0 -0.26667785363E+01  0.30831235164E+01 -0.59577771760E-01  0.40768748020E+01  0.51100000000E-03 0. -1.
        -11    1    3    3    0    0 -0.21357681415E+02 -0.43459102120E+01  0.20524606181E+02  0.29938218888E+02  0.51100000000E-03 0.  1.
         12    1    3    3    0    0 -0.11855503080E+02 -0.64689429193E+01  0.26968232504E+01  0.13772183248E+02  0.00000000000E+00 0. -1.
</event>
<event>
 7    1  0.5559916E-010  0.4778727E+02  0.7816164E-02  0.1312668E+00
        -11   -1    0    0    0    0  0.00000000000E+00  0.00000000000E+00  0.45593999997E+02  0.45594000000E+02  0.51100000000E-03 0. -1.
         11   -1    0    0    0    0 -0.00000000000E+00 -0.00000000000E+00 -0.45593999997E+02  0.45594000000E+02  0.51100000000E-03 0.  1.
    9900012    2    1    2    0    0  0.12913285906E+02 -0.13852239672E+02 -0.39051067322E+02  0.47787270100E+02  0.19999995695E+02 0.  0.
         12    1    1    2    0    0 -0.12913285906E+02  0.13852239672E+02  0.39051067322E+02  0.43400729900E+02  0.00000000000E+00 0. -1.
         11    1    3    3    0    0 -0.23576776529E+01 -0.28047788640E+01  0.49535881533E+00  0.36974057132E+01  0.51100000000E-03 0. -1.
        -11    1    3    3    0    0  0.54381276153E+01 -0.64798306755E+01 -0.20444732255E+02  0.22125743259E+02  0.51100000000E-03 0.  1.
         12    1    3    3    0    0  0.98328359437E+01 -0.45676301326E+01 -0.19101693883E+02  0.21964121128E+02  0.00000000000E+00 0. -1.
</event>
<event>
 7    1  0.5559916E-010  0.4778727E+02  0.7816164E-02  0.1312668E+00
        -11   -1    0    0    0    0  0.00000000000E+00  0.00000000000E+00  0.45593999997E+02  0.45594000000E+02  0.51100000000E-03 0. -1.
         11   -1    0    0    0    0 -0.00000000000E+00 -0.00000000000E+00 -0.45593999997E+02  0.45594000000E+02  0.51100000000E-03 0.  1.
    9900012    2    1    2    0    0  0.25991745046E+02  0.26601459584E+02  0.22369949859E+02  0.47787272826E+02  0.20000008122E+02 0.  0.
         12    1    1    2    0    0 -0.25991745046E+02 -0.26601459584E+02 -0.22369949859E+02  0.43400727174E+02  0.00000000000E+00 0. -1.
         11    1    3    3    0    0  0.98015814082E+01  0.72879011074E+01  0.15425009218E+02  0.19675248672E+02  0.51100000000E-03 0. -1.
        -11    1    3    3    0    0  0.25833184776E+01  0.95785926680E+01 -0.19200347657E+00  0.99226930545E+01  0.51100000000E-03 0.  1.
        -12    1    3    3    0    0  0.13606845160E+02  0.97349658087E+01  0.71369441176E+01  0.18189331100E+02  0.00000000000E+00 0.  1.
</event>
<event>
 7    1  0.5559916E-010  0.4778726E+02  0.7816164E-02  0.1312668E+00
        -11   -1    0    0    0    0  0.00000000000E+00  0.00000000000E+00  0.45593999997E+02  0.45594000000E+02  0.51100000000E-03 0.  1.
         11   -1    0    0    0    0 -0.00000000000E+00 -0.00000000000E+00 -0.45593999997E+02  0.45594000000E+02  0.51100000000E-03 0. -1.
    9900012    2    1    2    0    0  0.18822487259E+02  0.30760054933E+02  0.24148646108E+02  0.47787261355E+02  0.19999955822E+02 0.  0.
         12    1    1    2    0    0 -0.18822487259E+02 -0.30760054933E+02 -0.24148646108E+02  0.43400738645E+02  0.00000000000E+00 0. -1.
         11    1    3    3    0    0  0.73954574978E+01  0.21387050077E+02  0.18810363734E+02  0.29426662853E+02  0.51100000000E-03 0. -1.
        -11    1    3    3    0    0  0.49759939739E+01  0.46664573845E+01  0.74492136615E+01  0.10100847736E+02  0.51100000000E-03 0.  1.
         12    1    3    3    0    0  0.64510357871E+01  0.47065474707E+01 -0.21109312869E+01  0.82597507662E+01  0.00000000000E+00 0. -1.
</event>
<event>
 7    1  0.5559916E-010  0.4778727E+02  0.7816164E-02  0.1312668E+00
        -11   -1    0    0    0    0  0.00000000000E+00  0.00000000000E+00  0.45593999997E+02  0.45594000000E+02  0.51100000000E-03 0. -1.
         11   -1    0    0    0    0 -0.00000000000E+00 -0.00000000000E+00 -0.45593999997E+02  0.45594000000E+02  0.51100000000E-03 0.  1.
    9900012    2    1    2    0    0 -0.83163733904E+01  0.35404225232E+02  0.23685486137E+02  0.47787268621E+02  0.19999988953E+02 0.  0.
         12    1    1    2    0    0  0.83163733904E+01 -0.35404225232E+02 -0.23685486137E+02  0.43400731379E+02  0.00000000000E+00 0. -1.
         11    1    3    3    0    0 -0.47895182820E+01  0.14789179989E+02  0.17962204143E+02  0.23755001748E+02  0.51100000000E-03 0. -1.
        -11    1    3    3    0    0 -0.45244221816E+01  0.14682284004E+02 -0.50637407355E+00  0.15371931389E+02  0.51100000000E-03 0.  1.
        -12    1    3    3    0    0  0.99756707314E+00  0.59327612385E+01  0.62296560681E+01  0.86603354846E+01  0.00000000000E+00 0.  1.
</event>
<event>
 7    1  0.5559916E-010  0.4778727E+02  0.7816164E-02  0.1312668E+00
        -11   -1    0    0    0    0  0.00000000000E+00  0.00000000000E+00  0.45593999997E+02  0.45594000000E+02  0.51100000000E-03 0.  1.
         11   -1    0    0    0    0 -0.00000000000E+00 -0.00000000000E+00 -0.45593999997E+02  0.45594000000E+02  0.51100000000E-03 0. -1.
    9900012    2    1    2    0    0 -0.25087246153E+02 -0.25806824425E+02  0.24254093636E+02  0.47787272304E+02  0.20000005745E+02 0.  0.
         12    1    1    2    0    0  0.25087246153E+02  0.25806824425E+02 -0.24254093636E+02  0.43400727696E+02  0.00000000000E+00 0. -1.
         11    1    3    3    0    0 -0.22449337774E+01  0.19699226030E+01 -0.93937998703E+00  0.31309356026E+01  0.51100000000E-03 0. -1.
        -11    1    3    3    0    0 -0.10332241664E+02 -0.10319926246E+02  0.14819127066E+02  0.20805350821E+02  0.51100000000E-03 0.  1.
         12    1    3    3    0    0 -0.12510070711E+02 -0.17456820781E+02  0.10374346557E+02  0.23850985881E+02  0.00000000000E+00 0. -1.
</event>
<event>
 7    1  0.5559916E-010  0.4778727E+02  0.7816164E-02  0.1312668E+00
        -11   -1    0    0    0    0  0.00000000000E+00  0.00000000000E+00  0.45593999997E+02  0.45594000000E+02  0.51100000000E-03 0.  1.
         11   -1    0    0    0    0 -0.00000000000E+00 -0.00000000000E+00 -0.45593999997E+02  0.45594000000E+02  0.51100000000E-03 0. -1.
    9900012    2    1    2    0    0 -0.29770974949E+02 -0.28510503745E+02  0.13581751441E+02  0.47787265612E+02  0.19999975231E+02 0.  0.
         12    1    1    2    0    0  0.29770974949E+02  0.28510503745E+02 -0.13581751441E+02  0.43400734388E+02  0.00000000000E+00 0. -1.
         11    1    3    3    0    0  0.15447372994E+01 -0.35854222049E+01  0.50920704151E+01  0.64164356994E+01  0.51100000000E-03 0. -1.
        -11    1    3    3    0    0 -0.18078188046E+02 -0.11256319142E+02  0.63508676309E+01  0.22222941380E+02  0.51100000000E-03 0.  1.
         12    1    3    3    0    0 -0.13237524203E+02 -0.13668762398E+02  0.21388133947E+01  0.19147888533E+02  0.00000000000E+00 0. -1.
</event>
<event>
 7    1  0.5559916E-010  0.4778727E+02  0.7816164E-02  0.1312668E+00
        -11   -1    0    0    0    0  0.00000000000E+00  0.00000000000E+00  0.45593999997E+02  0.45594000000E+02  0.51100000000E-03 0. -1.
         11   -1    0    0    0    0 -0.00000000000E+00 -0.00000000000E+00 -0.45593999997E+02  0.45594000000E+02  0.51100000000E-03 0.  1.
    9900012    2    1    2    0    0  0.21633208049E+02 -0.26299480655E+02 -0.26906596291E+02  0.47787270776E+02  0.19999998778E+02 0.  0.
         12    1    1    2    0    0 -0.21633208049E+02  0.26299480655E+02  0.26906596291E+02  0.43400729224E+02  0.00000000000E+00 0. -1.
         11    1    3    3    0    0  0.68573696412E+01 -0.19647179906E+02 -0.11787758795E+02  0.23916238298E+02  0.51100000000E-03 0. -1.
        -11    1    3    3    0    0  0.10308301557E+02 -0.51986383143E+01 -0.15302837077E+02  0.19169343864E+02  0.51100000000E-03 0.  1.
        -12    1    3    3    0    0  0.44675368508E+01 -0.14536624347E+01  0.18399958078E+00  0.47016886150E+01  0.00000000000E+00 0.  1.
</event>
<event>
 7    1  0.5559916E-010  0.4778727E+02  0.7816164E-02  0.1312668E+00
        -11   -1    0    0    0    0  0.00000000000E+00  0.00000000000E+00  0.45593999997E+02  0.45594000000E+02  0.51100000000E-03 0.  1.
         11   -1    0    0    0    0 -0.00000000000E+00 -0.00000000000E+00 -0.45593999997E+02  0.45594000000E+02  0.51100000000E-03 0. -1.
    9900012    2    1    2    0    0 -0.29274494824E+02 -0.31713949209E+02  0.45664763818E+01  0.47787270419E+02  0.19999997148E+02 0.  0.
         12    1    1    2    0    0  0.29274494824E+02  0.31713949209E+02 -0.45664763818E+01  0.43400729581E+02  0.00000000000E+00 0. -1.
         11    1    3    3    0    0 -0.64715431253E+01 -0.51281415142E+01  0.60563526570E+01  0.10240025077E+02  0.51100000000E-03 0. -1.
        -11    1    3    3    0    0 -0.15677648372E+02 -0.23043251931E+02 -0.58434820537E+01  0.28476769494E+02  0.51100000000E-03 0.  1.
        -12    1    3    3    0    0 -0.71253033266E+01 -0.35425557638E+01  0.43536057785E+01  0.90704758481E+01  0.00000000000E+00 0.  1.
</event>
<event>
 7    1  0.5559916E-010  0.4778727E+02  0.7816164E-02  0.1312668E+00
        -11   -1    0    0    0    0  0.00000000000E+00  0.00000000000E+00  0.45593999997E+02  0.45594000000E+02  0.51100000000E-03 0.  1.
         11   -1    0    0    0    0 -0.00000000000E+00 -0.00000000000E+00 -0.45593999997E+02  0.45594000000E+02  0.51100000000E-03 0. -1.
    9900012    2    1    2    0    0 -0.36626813908E+02 -0.87484998836E+01  0.21576920463E+02  0.47787271390E+02  0.20000001574E+02 0.  0.
         12    1    1    2    0    0  0.36626813908E+02  0.87484998836E+01 -0.21576920463E+02  0.43400728610E+02  0.00000000000E+00 0. -1.
         11    1    3    3    0    0 -0.13982033584E+02  0.54092890668E+01  0.69224860519E+01  0.16512979282E+02  0.51100000000E-03 0. -1.
        -11    1    3    3    0    0 -0.23090184474E+02 -0.13354079160E+02  0.13860663226E+02  0.30060040495E+02  0.51100000000E-03 0.  1.
         12    1    3    3    0    0  0.44540415066E+00 -0.80370979005E+00  0.79377118539E+00  0.12142516126E+01  0.00000000000E+00 0. -1.
</event>
<event>
 7    1  0.5559916E-010  0.4778725E+02  0.7816164E-02  0.1312668E+00
        -11   -1    0    0    0    0  0.00000000000E+00  0.00000000000E+00  0.45593999997E+02  0.45594000000E+02  0.51100000000E-03 0. -1.
         11   -1    0    0    0    0 -0.00000000000E+00 -0.00000000000E+00 -0.45593999997E+02  0.45594000000E+02  0.51100000000E-03 0.  1.
    9900012    2    1    2    0    0 -0.23559380740E+02 -0.35590496040E+02  0.78674709975E+01  0.47787251975E+02  0.19999913052E+02 0.  0.
         12    1    1    2    0    0  0.23559380740E+02  0.35590496040E+02 -0.78674709975E+01  0.43400748025E+02  0.00000000000E+00 0. -1.
         11    1    3    3    0    0 -0.76540626008E+01 -0.28501478435E+02  0.28222306614E+01  0.29645976682E+02  0.51100000000E-03 0. -1.
        -11    1    3    3    0    0 -0.12640872515E+02 -0.54406642877E+01  0.41882702888E+01  0.14385203999E+02  0.51100000000E-03 0.  1.
        -12    1    3    3    0    0 -0.32644456246E+01 -0.16483533179E+01  0.85697004733E+00  0.37560712930E+01  0.00000000000E+00 0.  1.
</event>
<event>
 7    1  0.5559916E-010  0.4778727E+02  0.7816164E-02  0.1312668E+00
        -11   -1    0    0    0    0  0.00000000000E+00  0.00000000000E+00  0.45593999997E+02  0.45594000000E+02  0.51100000000E-03 0.  1.
         11   -1    0    0    0    0 -0.00000000000E+00 -0.00000000000E+00 -0.45593999997E+02  0.45594000000E+02  0.51100000000E-03 0. -1.
    9900012    2    1    2    0    0  0.94671792416E+01 -0.52404620319E+01  0.42030149107E+02  0.47787270063E+02  0.19999995524E+02 0.  0.
         12    1    1    2    0    0 -0.94671792416E+01  0.52404620319E+01 -0.42030149107E+02  0.43400729937E+02  0.00000000000E+00 0. -1.
         11    1    3    3    0    0  0.70631840766E+01 -0.69929825018E+01  0.10966088003E+02  0.14800184455E+02  0.51100000000E-03 0. -1.
        -11    1    3    3    0    0 -0.90393087238E-01  0.18157062705E+01  0.30332409378E+02  0.30386839571E+02  0.51100000000E-03 0.  1.
        -12    1    3    3    0    0  0.24943882523E+01 -0.63185800621E-01  0.73165172630E+00  0.26002460359E+01  0.00000000000E+00 0.  1.
</event>
<event>
 7    1  0.5559916E-010  0.4778727E+02  0.7816164E-02  0.1312668E+00
        -11   -1    0    0    0    0  0.00000000000E+00  0.00000000000E+00  0.45593999997E+02  0.45594000000E+02  0.51100000000E-03 0. -1.
         11   -1    0    0    0    0 -0.00000000000E+00 -0.00000000000E+00 -0.45593999997E+02  0.45594000000E+02  0.51100000000E-03 0.  1.
    9900012    2    1    2    0    0 -0.25578221694E+02 -0.34603390696E+02 -0.56553993107E+01  0.47787267126E+02  0.19999982132E+02 0.  0.
         12    1    1    2    0    0  0.25578221694E+02  0.34603390696E+02  0.56553993107E+01  0.43400732874E+02  0.00000000000E+00 0. -1.
         11    1    3    3    0    0 -0.70793213670E+01 -0.92900649899E+01 -0.10566648317E+02  0.15750433501E+02  0.51100000000E-03 0. -1.
        -11    1    3    3    0    0 -0.12606539989E+02 -0.18323464469E+02  0.53800205625E+01  0.22882718854E+02  0.51100000000E-03 0.  1.
        -12    1    3    3    0    0 -0.58923603377E+01 -0.69898612371E+01 -0.46877155591E+00  0.91541147706E+01  0.00000000000E+00 0.  1.
</event>
<event>
 7    1  0.5559916E-010  0.4778727E+02  0.7816164E-02  0.1312668E+00
        -11   -1    0    0    0    0  0.00000000000E+00  0.00000000000E+00  0.45593999997E+02  0.45594000000E+02  0.51100000000E-03 0. -1.
         11   -1    0    0    0    0 -0.00000000000E+00 -0.00000000000E+00 -0.45593999997E+02  0.45594000000E+02  0.51100000000E-03 0.  1.
    9900012    2    1    2    0    0  0.28169673956E+02 -0.32816229639E+02  0.36314769956E+01  0.47787273235E+02  0.20000009990E+02 0.  0.
         12    1    1    2    0    0 -0.28169673956E+02  0.32816229639E+02 -0.36314769956E+01  0.43400726765E+02  0.00000000000E+00 0. -1.
         11    1    3    3    0    0  0.40246924273E+01 -0.44115241502E+01  0.75977883007E+01  0.96636474369E+01  0.51100000000E-03 0. -1.
        -11    1    3    3    0    0  0.17812176743E+02 -0.17034720190E+02 -0.48486250361E+00  0.24651377734E+02  0.51100000000E-03 0.  1.
         12    1    3    3    0    0  0.63328047855E+01 -0.11369985299E+02 -0.34814488015E+01  0.13472248064E+02  0.00000000000E+00 0. -1.
</event>
<event>
 7    1  0.5559916E-010  0.4778727E+02  0.7816164E-02  0.1312668E+00
        -11   -1    0    0    0    0  0.00000000000E+00  0.00000000000E+00  0.45593999997E+02  0.45594000000E+02  0.51100000000E-03 0.  1.
         11   -1    0    0    0    0 -0.00000000000E+00 -0.00000000000E+00 -0.45593999997E+02  0.45594000000E+02  0.51100000000E-03 0. -1.
    9900012    2    1    2    0    0 -0.18116553137E+02 -0.86550219245E+00  0.39429233691E+02  0.47787273496E+02  0.20000011176E+02 0.  0.
         12    1    1    2    0    0  0.18116553137E+02  0.86550219245E+00 -0.39429233691E+02  0.43400726504E+02  0.00000000000E+00 0. -1.
         11    1    3    3    0    0  0.21479830441E+01  0.39725450352E-01  0.24562122540E+01  0.32631868116E+01  0.51100000000E-03 0. -1.
        -11    1    3    3    0    0 -0.58786311960E+01  0.42964403662E+01  0.21776146591E+02  0.22961233964E+02  0.51100000000E-03 0.  1.
        -12    1    3    3    0    0 -0.14385904985E+02 -0.52016680090E+01  0.15196874846E+02  0.21562852720E+02  0.00000000000E+00 0.  1.
</event>
<event>
 7    1  0.5559916E-010  0.4778726E+02  0.7816164E-02  0.1312668E+00
        -11   -1    0    0    0    0  0.00000000000E+00  0.00000000000E+00  0.45593999997E+02  0.45594000000E+02  0.51100000000E-03 0.  1.
         11   -1    0    0    0    0 -0.00000000000E+00 -0.00000000000E+00 -0.45593999997E+02  0.45594000000E+02  0.51100000000E-03 0. -1.
    9900012    2    1    2    0    0  0.21426265589E+02  0.11154669192E+02  0.36057075660E+02  0.47787260295E+02  0.19999950987E+02 0.  0.
         12    1    1    2    0    0 -0.21426265589E+02 -0.11154669192E+02 -0.36057075660E+02  0.43400739705E+02  0.00000000000E+00 0. -1.
         11    1    3    3    0    0 -0.22299010477E+01  0.21323255083E+01  0.87298855215E+01  0.92590589281E+01  0.51100000000E-03 0. -1.
        -11    1    3    3    0    0  0.15591829086E+02  0.97464473250E+01  0.14760794530E+02  0.23579215957E+02  0.51100000000E-03 0.  1.
         12    1    3    3    0    0  0.80643375500E+01 -0.72410364150E+00  0.12566395608E+02  0.14948985410E+02  0.00000000000E+00 0. -1.
</event>
<event>
 7    1  0.5559916E-010  0.4778725E+02  0.7816164E-02  0.1312668E+00
        -11   -1    0    0    0    0  0.00000000000E+00  0.00000000000E+00  0.45593999997E+02  0.45594000000E+02  0.51100000000E-03 0.  1.
         11   -1    0    0    0    0 -0.00000000000E+00 -0.00000000000E+00 -0.45593999997E+02  0.45594000000E+02  0.51100000000E-03 0. -1.
    9900012    2    1    2    0    0 -0.41186116997E+02 -0.42312505632E+01  0.13016347969E+02  0.47787250823E+02  0.19999907803E+02 0.  0.
         12    1    1    2    0    0  0.41186116997E+02  0.42312505632E+01 -0.13016347969E+02  0.43400749177E+02  0.00000000000E+00 0. -1.
         11    1    3    3    0    0 -0.21220225434E+01  0.23799118180E+01 -0.25996193173E+01  0.41139981517E+01  0.51100000000E-03 0. -1.
        -11    1    3    3    0    0 -0.34994020666E+02 -0.76923287494E+01  0.11125512990E+02  0.37517068696E+02  0.51100000000E-03 0.  1.
        -12    1    3    3    0    0 -0.40700737877E+01  0.10811663682E+01  0.44904542966E+01  0.61561839757E+01  0.00000000000E+00 0.  1.
</event>
<event>
 7    1  0.5559916E-010  0.4778727E+02  0.7816164E-02  0.1312668E+00
        -11   -1    0    0    0    0  0.00000000000E+00  0.00000000000E+00  0.45593999997E+02  0.45594000000E+02  0.51100000000E-03 0.  1.
         11   -1    0    0    0    0 -0.00000000000E+00 -0.00000000000E+00 -0.45593999997E+02  0.45594000000E+02  0.51100000000E-03 0. -1.
    9900012    2    1    2    0    0 -0.16550538737E+02  0.11386203749E+02  0.38471515304E+02  0.47787268922E+02  0.19999990324E+02 0.  0.
         12    1    1    2    0    0  0.16550538737E+02 -0.11386203749E+02 -0.38471515304E+02  0.43400731078E+02  0.00000000000E+00 0. -1.
         11    1    3    3    0    0 -0.82406315669E+00 -0.33471940193E+01  0.17571546189E+01  0.38691575963E+01  0.51100000000E-03 0. -1.
        -11    1    3    3    0    0 -0.66654137176E+01  0.68701739717E+01  0.26451313852E+02  0.28130037952E+02  0.51100000000E-03 0.  1.
         12    1    3    3    0    0 -0.90610618628E+01  0.78632237968E+01  0.10263046834E+02  0.15788073374E+02  0.00000000000E+00 0. -1.
</event>
<event>
 7    1  0.5559916E-010  0.4778727E+02  0.7816164E-02  0.1312668E+00
        -11   -1    0    0    0    0  0.00000000000E+00  0.00000000000E+00  0.45593999997E+02  0.45594000000E+02  0.51100000000E-03 0.  1.
         11   -1    0    0    0    0 -0.00000000000E+00 -0.00000000000E+00 -0.45593999997E+02  0.45594000000E+02  0.51100000000E-03 0. -1.
    9900012    2    1    2    0    0 -0.84207092632E+01  0.37489799449E+02  0.20179936245E+02  0.47787271503E+02  0.20000002090E+02 0.  0.
         12    1    1    2    0    0  0.84207092632E+01 -0.37489799449E+02 -0.20179936245E+02  0.43400728497E+02  0.00000000000E+00 0. -1.
         11    1    3    3    0    0 -0.13142479838E+02  0.20356563136E+02  0.13910538308E+02  0.27939533197E+02  0.51100000000E-03 0. -1.
        -11    1    3    3    0    0  0.26562636020E+01  0.77390016963E+01 -0.32010554594E+00  0.81884278955E+01  0.51100000000E-03 0.  1.
         12    1    3    3    0    0  0.20655069727E+01  0.93942346172E+01  0.65895034831E+01  0.11659310411E+02  0.00000000000E+00 0. -1.
</event>
<event>
 7    1  0.5559916E-010  0.4778727E+02  0.7816164E-02  0.1312668E+00
        -11   -1    0    0    0    0  0.00000000000E+00  0.00000000000E+00  0.45593999997E+02  0.45594000000E+02  0.51100000000E-03 0.  1.
         11   -1    0    0    0    0 -0.00000000000E+00 -0.00000000000E+00 -0.45593999997E+02  0.45594000000E+02  0.51100000000E-03 0. -1.
    9900012    2    1    2    0    0 -0.43087455523E+02 -0.42284579086E+01  0.30355795804E+01  0.47787269325E+02  0.19999992161E+02 0.  0.
         12    1    1    2    0    0  0.43087455523E+02  0.42284579086E+01 -0.30355795804E+01  0.43400730675E+02  0.00000000000E+00 0. -1.
         11    1    3    3    0    0 -0.10028582246E+02 -0.18381278951E+01 -0.53266527386E+01  0.11503234575E+02  0.51100000000E-03 0. -1.
        -11    1    3    3    0    0 -0.30393729729E+02  0.10588654367E+01  0.50936669419E+01  0.30835781910E+02  0.51100000000E-03 0.  1.
         12    1    3    3    0    0 -0.26651435481E+01 -0.34491954502E+01  0.32685653772E+01  0.54482528402E+01  0.00000000000E+00 0. -1.
</event>
<event>
 7    1  0.5559916E-010  0.4778727E+02  0.7816164E-02  0.1312668E+00
        -11   -1    0    0    0    0  0.00000000000E+00  0.00000000000E+00  0.45593999997E+02  0.45594000000E+02  0.51100000000E-03 0. -1.
         11   -1    0    0    0    0 -0.00000000000E+00 -0.00000000000E+00 -0.45593999997E+02  0.45594000000E+02  0.51100000000E-03 0.  1.
    9900012    2    1    2    0    0  0.21308257112E+02 -0.36318483667E+02 -0.10514244862E+02  0.47787269338E+02  0.19999992219E+02 0.  0.
         12    1    1    2    0    0 -0.21308257112E+02  0.36318483667E+02  0.10514244862E+02  0.43400730662E+02  0.00000000000E+00 0. -1.
         11    1    3    3    0    0  0.28750586831E+00 -0.46013298519E+01 -0.61933309344E+01  0.77208966030E+01  0.51100000000E-03 0. -1.
        -11    1    3    3    0    0  0.20806283935E+02 -0.25882837947E+02 -0.73920320956E+00  0.33217001264E+02  0.51100000000E-03 0.  1.
         12    1    3    3    0    0  0.21446730865E+00 -0.58343158680E+01 -0.35817107177E+01  0.68493714704E+01  0.00000000000E+00 0. -1.
</event>
<event>
 7    1  0.5559916E-010  0.4778727E+02  0.7816164E-02  0.1312668E+00
        -11   -1    0    0    0    0  0.00000000000E+00  0.00000000000E+00  0.45593999997E+02  0.45594000000E+02  0.51100000000E-03 0. -1.
         11   -1    0    0    0    0 -0.00000000000E+00 -0.00000000000E+00 -0.45593999997E+02  0.45594000000E+02  0.51100000000E-03 0.  1.
    9900012    2    1    2    0    0  0.95444178882E+01  0.39469338734E+00 -0.42336413742E+02  0.47787267008E+02  0.19999981596E+02 0.  0.
         12    1    1    2    0    0 -0.95444178882E+01 -0.39469338734E+00  0.42336413742E+02  0.43400732992E+02  0.00000000000E+00 0. -1.
         11    1    3    3    0    0  0.85358750682E+01 -0.51234724122E+00 -0.34638449314E+02  0.35678366471E+02  0.51100000000E-03 0.  1.
        -11    1    3    3    0    0  0.22503410594E+01  0.13091583108E+01  0.13738217317E+01  0.29436910127E+01  0.51100000000E-03 0. -1.
        -12    1    3    3    0    0 -0.12417982395E+01 -0.40211768225E+00 -0.90717861595E+01  0.91652095242E+01  0.00000000000E+00 0.  1.
</event>
<event>
 7    1  0.5559916E-010  0.4778727E+02  0.7816164E-02  0.1312668E+00
        -11   -1    0    0    0    0  0.00000000000E+00  0.00000000000E+00  0.45593999997E+02  0.45594000000E+02  0.51100000000E-03 0.  1.
         11   -1    0    0    0    0 -0.00000000000E+00 -0.00000000000E+00 -0.45593999997E+02  0.45594000000E+02  0.51100000000E-03 0. -1.
    9900012    2    1    2    0    0  0.38481401946E+02  0.26282502985E+01  0.19897175467E+02  0.47787267438E+02  0.19999983557E+02 0.  0.
         12    1    1    2    0    0 -0.38481401946E+02 -0.26282502985E+01 -0.19897175467E+02  0.43400732562E+02  0.00000000000E+00 0. -1.
         11    1    3    3    0    0  0.92125345289E+01 -0.62327245140E+01  0.33401134160E+01  0.11613526820E+02  0.51100000000E-03 0. -1.
        -11    1    3    3    0    0  0.12471927486E+02  0.85496888607E+01  0.56414236395E+01  0.16139139252E+02  0.51100000000E-03 0.  1.
        -12    1    3    3    0    0  0.16796939931E+02  0.31128595183E+00  0.10915638411E+02  0.20034601366E+02  0.00000000000E+00 0.  1.
</event>
<event>
 7    1  0.6737234E-010  0.4778727E+02  0.7816164E-02  0.1312668E+00
        -11   -1    0    0    0    0  0.00000000000E+00  0.00000000000E+00  0.45593999997E+02  0.45594000000E+02  0.51100000000E-03 0. -1.
         11   -1    0    0    0    0 -0.00000000000E+00 -0.00000000000E+00 -0.45593999997E+02  0.45594000000E+02  0.51100000000E-03 0.  1.
    9900012    2    1    2    0    0  0.14924898414E+02  0.47525208503E+01 -0.40475723300E+02  0.47787271622E+02  0.20000002635E+02 0.  0.
         12    1    1    2    0    0 -0.14924898414E+02 -0.47525208503E+01  0.40475723300E+02  0.43400728378E+02  0.00000000000E+00 0. -1.
         11    1    3    3    0    0 -0.61345145745E+00 -0.49738076840E+01 -0.57646640068E+01  0.76384839426E+01  0.51100000000E-03 0. -1.
        -11    1    3    3    0    0  0.81281338372E+01  0.37787736321E+01 -0.25017958239E+02  0.26575250226E+02  0.51100000000E-03 0.  1.
         12    1    3    3    0    0  0.74102160338E+01  0.59475549023E+01 -0.96931010536E+01  0.13573537454E+02  0.00000000000E+00 0. -1.
</event>
<event>
 7    1  0.5559916E-010  0.4778727E+02  0.7816164E-02  0.1312668E+00
        -11   -1    0    0    0    0  0.00000000000E+00  0.00000000000E+00  0.45593999997E+02  0.45594000000E+02  0.51100000000E-03 0.  1.
         11   -1    0    0    0    0 -0.00000000000E+00 -0.00000000000E+00 -0.45593999997E+02  0.45594000000E+02  0.51100000000E-03 0. -1.
    9900012    2    1    2    0    0  0.17690584381E+02 -0.23118693839E+02  0.32189943780E+02  0.47787271191E+02  0.20000000669E+02 0.  0.
         12    1    1    2    0    0 -0.17690584381E+02  0.23118693839E+02 -0.32189943780E+02  0.43400728809E+02  0.00000000000E+00 0. -1.
         11    1    3    3    0    0  0.60908376747E+00 -0.71504835115E+01  0.17919261947E+02  0.19302858505E+02  0.51100000000E-03 0. -1.
        -11    1    3    3    0    0  0.92160147798E+01 -0.13613164241E+02  0.93504531090E+01  0.18912539298E+02  0.51100000000E-03 0.  1.
         12    1    3    3    0    0  0.78654858335E+01 -0.23550460866E+01  0.49202287239E+01  0.95718733883E+01  0.00000000000E+00 0. -1.
</event>
<event>
 7    1  0.5559916E-010  0.4778729E+02  0.7816164E-02  0.1312668E+00
        -11   -1    0    0    0    0  0.00000000000E+00  0.00000000000E+00  0.45593999997E+02  0.45594000000E+02  0.51100000000E-03 0.  1.
         11   -1    0    0    0    0 -0.00000000000E+00 -0.00000000000E+00 -0.45593999997E+02  0.45594000000E+02  0.51100000000E-03 0. -1.
    9900012    2    1    2    0    0  0.24524314049E+02 -0.55685349539E+01  0.35371893442E+02  0.47787292555E+02  0.20000098073E+02 0.  0.
         12    1    1    2    0    0 -0.24524314049E+02  0.55685349539E+01 -0.35371893442E+02  0.43400707445E+02  0.00000000000E+00 0. -1.
         11    1    3    3    0    0  0.10795807452E+02  0.56188825996E+01  0.91624474284E+01  0.15233901120E+02  0.51100000000E-03 0. -1.
        -11    1    3    3    0    0  0.12026148072E+02 -0.12325100006E+02  0.22734178009E+02  0.28519803253E+02  0.51100000000E-03 0.  1.
        -12    1    3    3    0    0  0.17023585255E+01  0.11376824523E+01  0.34752680048E+01  0.40335881813E+01  0.00000000000E+00 0.  1.
</event>
<event>
 7    1  0.5559916E-010  0.4778727E+02  0.7816164E-02  0.1312668E+00
        -11   -1    0    0    0    0  0.00000000000E+00  0.00000000000E+00  0.45593999997E+02  0.45594000000E+02  0.51100000000E-03 0. -1.
         11   -1    0    0    0    0 -0.00000000000E+00 -0.00000000000E+00 -0.45593999997E+02  0.45594000000E+02  0.51100000000E-03 0.  1.
    9900012    2    1    2    0    0 -0.30106420925E+02 -0.18680403749E+02  0.25065301470E+02  0.47787269558E+02  0.19999993224E+02 0.  0.
         12    1    1    2    0    0  0.30106420925E+02  0.18680403749E+02 -0.25065301470E+02  0.43400730442E+02  0.00000000000E+00 0. -1.
         11    1    3    3    0    0 -0.40507509923E+01 -0.58810550485E+00  0.15932987506E+00  0.40963200505E+01  0.51100000000E-03 0. -1.
        -11    1    3    3    0    0  0.16571202861E+01  0.12510535000E+01  0.18361198017E+01  0.27717356818E+01  0.51100000000E-03 0.  1.
        -12    1    3    3    0    0 -0.27712790218E+02 -0.19343351744E+02  0.23069851793E+02  0.40919213826E+02  0.00000000000E+00 0.  1.
</event>
<event>
 7    1  0.5559916E-010  0.4778728E+02  0.7816164E-02  0.1312668E+00
        -11   -1    0    0    0    0  0.00000000000E+00  0.00000000000E+00  0.45593999997E+02  0.45594000000E+02  0.51100000000E-03 0.  1.
         11   -1    0    0    0    0 -0.00000000000E+00 -0.00000000000E+00 -0.45593999997E+02  0.45594000000E+02  0.51100000000E-03 0. -1.
    9900012    2    1    2    0    0 -0.42264119310E+02 -0.92723623141E+01  0.33748648337E+01  0.47787283456E+02  0.20000056588E+02 0.  0.
         12    1    1    2    0    0  0.42264119310E+02  0.92723623141E+01 -0.33748648337E+01  0.43400716544E+02  0.00000000000E+00 0. -1.
         11    1    3    3    0    0 -0.11532252051E+02 -0.11472707524E+02  0.20664420263E+01  0.16397744912E+02  0.51100000000E-03 0. -1.
        -11    1    3    3    0    0 -0.24118731432E+02 -0.30516922251E+00  0.23766081926E+01  0.24237462757E+02  0.51100000000E-03 0.  1.
         12    1    3    3    0    0 -0.66131358270E+01  0.25055144323E+01 -0.10681853852E+01  0.71520757864E+01  0.00000000000E+00 0. -1.
</event>
<event>
 7    1  0.5559916E-010  0.4778729E+02  0.7816164E-02  0.1312668E+00
        -11   -1    0    0    0    0  0.00000000000E+00  0.00000000000E+00  0.45593999997E+02  0.45594000000E+02  0.51100000000E-03 0.  1.
         11   -1    0    0    0    0 -0.00000000000E+00 -0.00000000000E+00 -0.45593999997E+02  0.45594000000E+02  0.51100000000E-03 0. -1.
    9900012    2    1    2    0    0  0.27295665846E+02 -0.70980286822E+01  0.32987664141E+02  0.47787292971E+02  0.20000099970E+02 0.  0.
         12    1    1    2    0    0 -0.27295665846E+02  0.70980286822E+01 -0.32987664141E+02  0.43400707029E+02  0.00000000000E+00 0. -1.
         11    1    3    3    0    0  0.20588701153E+02 -0.11356365209E+02  0.15504874319E+02  0.28164920980E+02  0.51100000000E-03 0. -1.
        -11    1    3    3    0    0  0.17405350402E+01  0.34657510989E+01  0.78450591380E+01  0.87513339581E+01  0.51100000000E-03 0.  1.
         12    1    3    3    0    0  0.49664296530E+01  0.79258542776E+00  0.96377306842E+01  0.10871038032E+02  0.00000000000E+00 0. -1.
</event>
<event>
 7    1  0.5559916E-010  0.4778727E+02  0.7816164E-02  0.1312668E+00
        -11   -1    0    0    0    0  0.00000000000E+00  0.00000000000E+00  0.45593999997E+02  0.45594000000E+02  0.51100000000E-03 0.  1.
         11   -1    0    0    0    0 -0.00000000000E+00 -0.00000000000E+00 -0.45593999997E+02  0.45594000000E+02  0.51100000000E-03 0. -1.
    9900012    2    1    2    0    0  0.69352483668E+01 -0.33390422201E+02  0.26844092656E+02  0.47787271030E+02  0.19999999932E+02 0.  0.
         12    1    1    2    0    0 -0.69352483668E+01  0.33390422201E+02 -0.26844092656E+02  0.43400728970E+02  0.00000000000E+00 0. -1.
         11    1    3    3    0    0  0.10869404692E+02 -0.12231604330E+02  0.11788408234E+02  0.20167366506E+02  0.51100000000E-03 0. -1.
        -11    1    3    3    0    0 -0.54981659154E+01 -0.14861068718E+02  0.13795867879E+02  0.21009692112E+02  0.51100000000E-03 0.  1.
         12    1    3    3    0    0  0.15640095899E+01 -0.62977491537E+01  0.12598165433E+01  0.66102124113E+01  0.00000000000E+00 0. -1.
</event>
<event>
 7    1  0.5559916E-010  0.4778727E+02  0.7816164E-02  0.1312668E+00
        -11   -1    0    0    0    0  0.00000000000E+00  0.00000000000E+00  0.45593999997E+02  0.45594000000E+02  0.51100000000E-03 0.  1.
         11   -1    0    0    0    0 -0.00000000000E+00 -0.00000000000E+00 -0.45593999997E+02  0.45594000000E+02  0.51100000000E-03 0. -1.
    9900012    2    1    2    0    0  0.87630756886E+01 -0.23219438117E+02  0.35604623348E+02  0.47787274133E+02  0.20000014084E+02 0.  0.
         12    1    1    2    0    0 -0.87630756886E+01  0.23219438117E+02 -0.35604623348E+02  0.43400725867E+02  0.00000000000E+00 0. -1.
         11    1    3    3    0    0  0.11871700586E+02 -0.13632464809E+02  0.18853807108E+02  0.26119866276E+02  0.51100000000E-03 0. -1.
        -11    1    3    3    0    0 -0.35528452983E+01  0.46425745254E+00  0.56040102222E+01  0.66515543693E+01  0.51100000000E-03 0.  1.
        -12    1    3    3    0    0  0.44422040130E+00 -0.10051230761E+02  0.11146806018E+02  0.15015853488E+02  0.00000000000E+00 0.  1.
</event>
<event>
 7    1  0.5559916E-010  0.4778729E+02  0.7816164E-02  0.1312668E+00
        -11   -1    0    0    0    0  0.00000000000E+00  0.00000000000E+00  0.45593999997E+02  0.45594000000E+02  0.51100000000E-03 0.  1.
         11   -1    0    0    0    0 -0.00000000000E+00 -0.00000000000E+00 -0.45593999997E+02  0.45594000000E+02  0.51100000000E-03 0. -1.
    9900012    2    1    2    0    0  0.23264810595E+02  0.10251451450E+02  0.35174963424E+02  0.47787288937E+02  0.20000081580E+02 0.  0.
         12    1    1    2    0    0 -0.23264810595E+02 -0.10251451450E+02 -0.35174963424E+02  0.43400711063E+02  0.00000000000E+00 0. -1.
         11    1    3    3    0    0  0.60758269463E+01  0.77538779675E+01  0.11245573437E+02  0.14949957151E+02  0.51100000000E-03 0. -1.
        -11    1    3    3    0    0  0.14892131163E+02 -0.37462395115E+01  0.13391303762E+02  0.20374908533E+02  0.51100000000E-03 0.  1.
        -12    1    3    3    0    0  0.22968524865E+01  0.62438129941E+01  0.10538086225E+02  0.12462423253E+02  0.00000000000E+00 0.  1.
</event>
<event>
 7    1  0.5559916E-010  0.4778727E+02  0.7816164E-02  0.1312668E+00
        -11   -1    0    0    0    0  0.00000000000E+00  0.00000000000E+00  0.45593999997E+02  0.45594000000E+02  0.51100000000E-03 0.  1.
         11   -1    0    0    0    0 -0.00000000000E+00 -0.00000000000E+00 -0.45593999997E+02  0.45594000000E+02  0.51100000000E-03 0. -1.
    9900012    2    1    2    0    0  0.18277247045E+02 -0.17746182734E+02  0.35137428342E+02  0.47787266923E+02  0.19999981208E+02 0.  0.
         12    1    1    2    0    0 -0.18277247045E+02  0.17746182734E+02 -0.35137428342E+02  0.43400733077E+02  0.00000000000E+00 0. -1.
         11    1    3    3    0    0  0.84898998572E+01 -0.16873805487E+02  0.13733604058E+02  0.23354134364E+02  0.51100000000E-03 0. -1.
        -11    1    3    3    0    0  0.28986570816E+01  0.24501231315E+01  0.45500620576E+01  0.59252325882E+01  0.51100000000E-03 0.  1.
         12    1    3    3    0    0  0.68886901064E+01 -0.33225003778E+01  0.16853762226E+02  0.18507899971E+02  0.00000000000E+00 0. -1.
</event>
<event>
 7    1  0.5559916E-010  0.4778727E+02  0.7816164E-02  0.1312668E+00
        -11   -1    0    0    0    0  0.00000000000E+00  0.00000000000E+00  0.45593999997E+02  0.45594000000E+02  0.51100000000E-03 0. -1.
         11   -1    0    0    0    0 -0.00000000000E+00 -0.00000000000E+00 -0.45593999997E+02  0.45594000000E+02  0.51100000000E-03 0.  1.
    9900012    2    1    2    0    0 -0.41650038682E+02 -0.82406925475E+01 -0.89993809195E+01  0.47787267370E+02  0.19999983247E+02 0.  0.
         12    1    1    2    0    0  0.41650038682E+02  0.82406925475E+01  0.89993809195E+01  0.43400732630E+02  0.00000000000E+00 0. -1.
         11    1    3    3    0    0 -0.31098229367E+01 -0.52523966371E+01 -0.44504289464E+01  0.75541370917E+01  0.51100000000E-03 0. -1.
        -11    1    3    3    0    0 -0.33405391079E+02 -0.30279883770E+01 -0.74154288060E+01  0.34352255404E+02  0.51100000000E-03 0.  1.
        -12    1    3    3    0    0 -0.51348246667E+01  0.39692466617E-01  0.28664768328E+01  0.58808748739E+01  0.00000000000E+00 0.  1.
</event>
<event>
 7    1  0.5559916E-010  0.4778727E+02  0.7816164E-02  0.1312668E+00
        -11   -1    0    0    0    0  0.00000000000E+00  0.00000000000E+00  0.45593999997E+02  0.45594000000E+02  0.51100000000E-03 0.  1.
         11   -1    0    0    0    0 -0.00000000000E+00 -0.00000000000E+00 -0.45593999997E+02  0.45594000000E+02  0.51100000000E-03 0. -1.
    9900012    2    1    2    0    0  0.71219294457E+01 -0.38750005067E+02  0.18202700542E+02  0.47787273292E+02  0.20000010248E+02 0.  0.
         12    1    1    2    0    0 -0.71219294457E+01  0.38750005067E+02 -0.18202700542E+02  0.43400726708E+02  0.00000000000E+00 0. -1.
         11    1    3    3    0    0  0.82559781478E+00 -0.21450686810E+02  0.16284682986E+02  0.26944470242E+02  0.51100000000E-03 0. -1.
        -11    1    3    3    0    0  0.88533713954E+01 -0.14024632656E+02  0.18426995256E+01  0.16687361925E+02  0.51100000000E-03 0.  1.
         12    1    3    3    0    0 -0.25570397645E+01 -0.32746856004E+01  0.75318030217E-01  0.41554411252E+01  0.00000000000E+00 0. -1.
</event>
<event>
 7    1  0.5559916E-010  0.4778727E+02  0.7816164E-02  0.1312668E+00
        -11   -1    0    0    0    0  0.00000000000E+00  0.00000000000E+00  0.45593999997E+02  0.45594000000E+02  0.51100000000E-03 0. -1.
         11   -1    0    0    0    0 -0.00000000000E+00 -0.00000000000E+00 -0.45593999997E+02  0.45594000000E+02  0.51100000000E-03 0.  1.
    9900012    2    1    2    0    0 -0.31907650407E+02 -0.17364871761E+02 -0.23748395911E+02  0.47787271503E+02  0.20000002089E+02 0.  0.
         12    1    1    2    0    0  0.31907650407E+02  0.17364871761E+02  0.23748395911E+02  0.43400728497E+02  0.00000000000E+00 0. -1.
         11    1    3    3    0    0 -0.76440627564E+01 -0.15742249804E+01 -0.36367428599E+01  0.86102136213E+01  0.51100000000E-03 0. -1.
        -11    1    3    3    0    0 -0.26734294404E+02 -0.13807044162E+02 -0.19741009136E+02  0.35987003317E+02  0.51100000000E-03 0.  1.
        -12    1    3    3    0    0  0.24707067538E+01 -0.19836026187E+01 -0.37064391490E+00  0.31900545644E+01  0.00000000000E+00 0.  1.
</event>
<event>
 7    1  0.5559916E-010  0.4778727E+02  0.7816164E-02  0.1312668E+00
        -11   -1    0    0    0    0  0.00000000000E+00  0.00000000000E+00  0.45593999997E+02  0.45594000000E+02  0.51100000000E-03 0. -1.
         11   -1    0    0    0    0 -0.00000000000E+00 -0.00000000000E+00 -0.45593999997E+02  0.45594000000E+02  0.51100000000E-03 0.  1.
    9900012    2    1    2    0    0 -0.31246005181E+02  0.27915407041E+02  0.11315502562E+02  0.47787269727E+02  0.19999993991E+02 0.  0.
         12    1    1    2    0    0  0.31246005181E+02 -0.27915407041E+02 -0.11315502562E+02  0.43400730273E+02  0.00000000000E+00 0. -1.
         11    1    3    3    0    0 -0.14204982889E+02  0.96922986634E+01  0.87617114846E+01  0.19299994318E+02  0.51100000000E-03 0. -1.
        -11    1    3    3    0    0 -0.85604997491E+01  0.17934773643E+02  0.22003594621E+01  0.19994495332E+02  0.51100000000E-03 0.  1.
        -12    1    3    3    0    0 -0.84805225431E+01  0.28833473466E+00  0.35343161506E+00  0.84927800766E+01  0.00000000000E+00 0.  1.
</event>
<event>
 7    1  0.5559916E-010  0.4778726E+02  0.7816164E-02  0.1312668E+00
        -11   -1    0    0    0    0  0.00000000000E+00  0.00000000000E+00  0.45593999997E+02  0.45594000000E+02  0.51100000000E-03 0. -1.
         11   -1    0    0    0    0 -0.00000000000E+00 -0.00000000000E+00 -0.45593999997E+02  0.45594000000E+02  0.51100000000E-03 0.  1.
    9900012    2    1    2    0    0 -0.16877109376E+02 -0.25309270691E+02 -0.30955257114E+02  0.47787263292E+02  0.19999964654E+02 0.  0.
         12    1    1    2    0    0  0.16877109376E+02  0.25309270691E+02  0.30955257114E+02  0.43400736708E+02  0.00000000000E+00 0. -1.
         11    1    3    3    0    0 -0.88244928936E+01 -0.61296215634E+01 -0.13216098807E+01  0.10825460188E+02  0.51100000000E-03 0. -1.
        -11    1    3    3    0    0 -0.80761260838E+01 -0.10639588573E+02 -0.20401946427E+02  0.24385735088E+02  0.51100000000E-03 0.  1.
         12    1    3    3    0    0  0.23509601460E-01 -0.85400605539E+01 -0.92317008068E+01  0.12576068016E+02  0.00000000000E+00 0. -1.
</event>
<event>
 7    1  0.5559916E-010  0.4778727E+02  0.7816164E-02  0.1312668E+00
        -11   -1    0    0    0    0  0.00000000000E+00  0.00000000000E+00  0.45593999997E+02  0.45594000000E+02  0.51100000000E-03 0.  1.
         11   -1    0    0    0    0 -0.00000000000E+00 -0.00000000000E+00 -0.45593999997E+02  0.45594000000E+02  0.51100000000E-03 0. -1.
    9900012    2    1    2    0    0 -0.36013669394E+02 -0.88290349286E+01  0.22554092872E+02  0.47787270210E+02  0.19999996196E+02 0.  0.
         12    1    1    2    0    0  0.36013669394E+02  0.88290349286E+01 -0.22554092872E+02  0.43400729790E+02  0.00000000000E+00 0. -1.
         11    1    3    3    0    0 -0.19061548553E+02 -0.85785421228E+01  0.93278993519E+01  0.22889817054E+02  0.51100000000E-03 0. -1.
        -11    1    3    3    0    0 -0.21518471208E+01  0.34257400058E+01 -0.86157786173E+00  0.41362370933E+01  0.51100000000E-03 0.  1.
        -12    1    3    3    0    0 -0.14800273721E+02 -0.36762328116E+01  0.14087771382E+02  0.20761216063E+02  0.00000000000E+00 0.  1.
</event>
<event>
 7    1  0.5559916E-010  0.4778727E+02  0.7816164E-02  0.1312668E+00
        -11   -1    0    0    0    0  0.00000000000E+00  0.00000000000E+00  0.45593999997E+02  0.45594000000E+02  0.51100000000E-03 0. -1.
         11   -1    0    0    0    0 -0.00000000000E+00 -0.00000000000E+00 -0.45593999997E+02  0.45594000000E+02  0.51100000000E-03 0.  1.
    9900012    2    1    2    0    0  0.42517303737E+02  0.11690650436E+01 -0.86333963339E+01  0.47787270025E+02  0.19999995352E+02 0.  0.
         12    1    1    2    0    0 -0.42517303737E+02 -0.11690650436E+01  0.86333963339E+01  0.43400729975E+02  0.00000000000E+00 0. -1.
         11    1    3    3    0    0  0.59569323055E+01 -0.33296384995E+01 -0.50367966863E+01  0.84817955735E+01  0.51100000000E-03 0. -1.
        -11    1    3    3    0    0  0.21015239398E+02  0.75480157245E+01  0.21979844162E+01  0.22437556999E+02  0.51100000000E-03 0.  1.
        -12    1    3    3    0    0  0.15545132033E+02 -0.30493121813E+01 -0.57945840638E+01  0.16867917452E+02  0.00000000000E+00 0.  1.
</event>
<event>
 7    1  0.5559916E-010  0.4778727E+02  0.7816164E-02  0.1312668E+00
        -11   -1    0    0    0    0  0.00000000000E+00  0.00000000000E+00  0.45593999997E+02  0.45594000000E+02  0.51100000000E-03 0.  1.
         11   -1    0    0    0    0 -0.00000000000E+00 -0.00000000000E+00 -0.45593999997E+02  0.45594000000E+02  0.51100000000E-03 0. -1.
    9900012    2    1    2    0    0 -0.28317095811E+02  0.81405023922E+01  0.31866872870E+02  0.47787270964E+02  0.19999999633E+02 0.  0.
         12    1    1    2    0    0  0.28317095811E+02 -0.81405023922E+01 -0.31866872870E+02  0.43400729036E+02  0.00000000000E+00 0. -1.
         11    1    3    3    0    0 -0.94931255089E+01  0.35724038942E+01  0.31321458724E+01  0.10615641268E+02  0.51100000000E-03 0. -1.
        -11    1    3    3    0    0 -0.19587524240E+02  0.23690226448E+01  0.28719350938E+02  0.34843715254E+02  0.51100000000E-03 0.  1.
        -12    1    3    3    0    0  0.76355393790E+00  0.21990758532E+01  0.15376059203E-01  0.23279144416E+01  0.00000000000E+00 0.  1.
</event>
<event>
 7    1  0.5559916E-010  0.4778727E+02  0.7816164E-02  0.1312668E+00
        -11   -1    0    0    0    0  0.00000000000E+00  0.00000000000E+00  0.45593999997E+02  0.45594000000E+02  0.51100000000E-03 0.  1.
         11   -1    0    0    0    0 -0.00000000000E+00 -0.00000000000E+00 -0.45593999997E+02  0.45594000000E+02  0.51100000000E-03 0. -1.
    9900012    2    1    2    0    0  0.21958270132E+02  0.99941654564E+01  0.36077339933E+02  0.47787269281E+02  0.19999991958E+02 0.  0.
         12    1    1    2    0    0 -0.21958270132E+02 -0.99941654564E+01 -0.36077339933E+02  0.43400730719E+02  0.00000000000E+00 0. -1.
         11    1    3    3    0    0  0.10606343321E+02  0.12543373792E+02  0.21439288092E+02  0.27008772998E+02  0.51100000000E-03 0. -1.
        -11    1    3    3    0    0  0.86671617898E+01 -0.51127659372E+01  0.69152466712E+01  0.12209861007E+02  0.51100000000E-03 0.  1.
        -12    1    3    3    0    0  0.26847650215E+01  0.25635576021E+01  0.77228051700E+01  0.85686352761E+01  0.00000000000E+00 0.  1.
</event>
<event>
 7    1  0.5559916E-010  0.4778732E+02  0.7816164E-02  0.1312668E+00
        -11   -1    0    0    0    0  0.00000000000E+00  0.00000000000E+00  0.45593999997E+02  0.45594000000E+02  0.51100000000E-03 0.  1.
         11   -1    0    0    0    0 -0.00000000000E+00 -0.00000000000E+00 -0.45593999997E+02  0.45594000000E+02  0.51100000000E-03 0. -1.
    9900012    2    1    2    0    0 -0.43344332987E+02  0.22066749191E+01  0.13669801979E+00  0.47787316795E+02  0.20000208594E+02 0.  0.
         12    1    1    2    0    0  0.43344332987E+02 -0.22066749191E+01 -0.13669801979E+00  0.43400683205E+02  0.00000000000E+00 0. -1.
         11    1    3    3    0    0 -0.11769859413E+01  0.53865101899E+00 -0.45295300242E+00  0.13713524382E+01  0.51100000000E-03 0. -1.
        -11    1    3    3    0    0 -0.31403790017E+02  0.23755279464E+01  0.89816344128E+01  0.32749212471E+02  0.51100000000E-03 0.  1.
        -12    1    3    3    0    0 -0.10763557029E+02 -0.70750404630E+00 -0.83919833906E+01  0.13666751886E+02  0.00000000000E+00 0.  1.
</event>
<event>
 7    1  0.5559916E-010  0.4778727E+02  0.7816164E-02  0.1312668E+00
        -11   -1    0    0    0    0  0.00000000000E+00  0.00000000000E+00  0.45593999997E+02  0.45594000000E+02  0.51100000000E-03 0.  1.
         11   -1    0    0    0    0 -0.00000000000E+00 -0.00000000000E+00 -0.45593999997E+02  0.45594000000E+02  0.51100000000E-03 0. -1.
    9900012    2    1    2    0    0 -0.27563821922E+02 -0.19818403827E+02  0.27038678051E+02  0.47787268210E+02  0.19999987077E+02 0.  0.
         12    1    1    2    0    0  0.27563821922E+02  0.19818403827E+02 -0.27038678051E+02  0.43400731790E+02  0.00000000000E+00 0. -1.
         11    1    3    3    0    0 -0.11183658174E+02 -0.84685714444E+01  0.45486134530E+01  0.14747230149E+02  0.51100000000E-03 0.  1.
        -11    1    3    3    0    0 -0.14529384649E+02 -0.37765735946E+01  0.19681763169E+02  0.24753531629E+02  0.51100000000E-03 0. -1.
        -12    1    3    3    0    0 -0.18507790986E+01 -0.75732587879E+01  0.28083014286E+01  0.82865064324E+01  0.00000000000E+00 0.  1.
</event>
<event>
 7    1  0.5559916E-010  0.4778727E+02  0.7816164E-02  0.1312668E+00
        -11   -1    0    0    0    0  0.00000000000E+00  0.00000000000E+00  0.45593999997E+02  0.45594000000E+02  0.51100000000E-03 0.  1.
         11   -1    0    0    0    0 -0.00000000000E+00 -0.00000000000E+00 -0.45593999997E+02  0.45594000000E+02  0.51100000000E-03 0. -1.
    9900012    2    1    2    0    0  0.37151106618E+02 -0.17433847532E+02  0.14123712424E+02  0.47787274023E+02  0.20000013579E+02 0.  0.
         12    1    1    2    0    0 -0.37151106618E+02  0.17433847532E+02 -0.14123712424E+02  0.43400725977E+02  0.00000000000E+00 0. -1.
         11    1    3    3    0    0  0.68850356829E+01 -0.76372427817E+01 -0.32499041517E+01  0.10783926507E+02  0.51100000000E-03 0. -1.
        -11    1    3    3    0    0  0.10318240159E+02 -0.61892311379E+01  0.91990357893E+01  0.15145788912E+02  0.51100000000E-03 0.  1.
         12    1    3    3    0    0  0.19947830776E+02 -0.36073736120E+01  0.81745807867E+01  0.21857558603E+02  0.00000000000E+00 0. -1.
</event>
<event>
 7    1  0.5559916E-010  0.4778724E+02  0.7816164E-02  0.1312668E+00
        -11   -1    0    0    0    0  0.00000000000E+00  0.00000000000E+00  0.45593999997E+02  0.45594000000E+02  0.51100000000E-03 0.  1.
         11   -1    0    0    0    0 -0.00000000000E+00 -0.00000000000E+00 -0.45593999997E+02  0.45594000000E+02  0.51100000000E-03 0. -1.
    9900012    2    1    2    0    0 -0.10590866478E+02 -0.35071242428E+02  0.23269460686E+02  0.47787236196E+02  0.19999841110E+02 0.  0.
         12    1    1    2    0    0  0.10590866478E+02  0.35071242428E+02 -0.23269460686E+02  0.43400763804E+02  0.00000000000E+00 0. -1.
         11    1    3    3    0    0 -0.48275862952E+01 -0.37304124302E+01  0.14783866796E+01  0.62775149361E+01  0.51100000000E-03 0. -1.
        -11    1    3    3    0    0  0.31210027421E+01 -0.21855297755E+02  0.16088471211E+02  0.27317276662E+02  0.51100000000E-03 0.  1.
        -12    1    3    3    0    0 -0.88842829246E+01 -0.94855322430E+01  0.57026027954E+01  0.14192444598E+02  0.00000000000E+00 0.  1.
</event>
<event>
 7    1  0.5559916E-010  0.4778727E+02  0.7816164E-02  0.1312668E+00
        -11   -1    0    0    0    0  0.00000000000E+00  0.00000000000E+00  0.45593999997E+02  0.45594000000E+02  0.51100000000E-03 0. -1.
         11   -1    0    0    0    0 -0.00000000000E+00 -0.00000000000E+00 -0.45593999997E+02  0.45594000000E+02  0.51100000000E-03 0.  1.
    9900012    2    1    2    0    0 -0.86527860670E+01  0.21236764316E+02 -0.36847693467E+02  0.47787269832E+02  0.19999994471E+02 0.  0.
         12    1    1    2    0    0  0.86527860670E+01 -0.21236764316E+02  0.36847693467E+02  0.43400730168E+02  0.00000000000E+00 0. -1.
         11    1    3    3    0    0 -0.18834715383E+01 -0.23859349542E+01 -0.92332048889E+00  0.31768965403E+01  0.51100000000E-03 0. -1.
        -11    1    3    3    0    0 -0.89985984028E+01  0.18497393775E+02 -0.30736456224E+02  0.36984565580E+02  0.51100000000E-03 0.  1.
         12    1    3    3    0    0  0.22292838741E+01  0.51253054946E+01 -0.51879167542E+01  0.76258077115E+01  0.00000000000E+00 0. -1.
</event>
<event>
 7    1  0.5559916E-010  0.4778729E+02  0.7816164E-02  0.1312668E+00
        -11   -1    0    0    0    0  0.00000000000E+00  0.00000000000E+00  0.45593999997E+02  0.45594000000E+02  0.51100000000E-03 0.  1.
         11   -1    0    0    0    0 -0.00000000000E+00 -0.00000000000E+00 -0.45593999997E+02  0.45594000000E+02  0.51100000000E-03 0. -1.
    9900012    2    1    2    0    0  0.78170446444E+01 -0.21840040923E+02  0.36681445128E+02  0.47787285822E+02  0.20000067377E+02 0.  0.
         12    1    1    2    0    0 -0.78170446444E+01  0.21840040923E+02 -0.36681445128E+02  0.43400714178E+02  0.00000000000E+00 0. -1.
         11    1    3    3    0    0  0.38634124897E+01 -0.31825950513E+01 -0.52373467768E+00  0.50328089174E+01  0.51100000000E-03 0. -1.
        -11    1    3    3    0    0  0.43785597676E+01 -0.51040624449E+01  0.18240573986E+02  0.19440724747E+02  0.51100000000E-03 0.  1.
        -12    1    3    3    0    0 -0.42492761295E+00 -0.13553383427E+02  0.18964605819E+02  0.23313752158E+02  0.00000000000E+00 0.  1.
</event>
<event>
 7    1  0.5559916E-010  0.4778726E+02  0.7816164E-02  0.1312668E+00
        -11   -1    0    0    0    0  0.00000000000E+00  0.00000000000E+00  0.45593999997E+02  0.45594000000E+02  0.51100000000E-03 0.  1.
         11   -1    0    0    0    0 -0.00000000000E+00 -0.00000000000E+00 -0.45593999997E+02  0.45594000000E+02  0.51100000000E-03 0. -1.
    9900012    2    1    2    0    0 -0.43084997993E+02 -0.33764863292E+00 -0.52146702506E+01  0.47787264471E+02  0.19999970029E+02 0.  0.
         12    1    1    2    0    0  0.43084997993E+02  0.33764863292E+00  0.52146702506E+01  0.43400735529E+02  0.00000000000E+00 0. -1.
         11    1    3    3    0    0  0.20944815249E+01  0.51664844128E+00 -0.18128235852E+00  0.21648653595E+01  0.51100000000E-03 0. -1.
        -11    1    3    3    0    0 -0.27153899501E+02 -0.21109251968E+01 -0.39482189793E+01  0.27520514106E+02  0.51100000000E-03 0.  1.
         12    1    3    3    0    0 -0.18025580017E+02  0.12566281226E+01 -0.10851689128E+01  0.18101885006E+02  0.00000000000E+00 0. -1.
</event>
<event>
 7    1  0.5559916E-010  0.4778728E+02  0.7816164E-02  0.1312668E+00
        -11   -1    0    0    0    0  0.00000000000E+00  0.00000000000E+00  0.45593999997E+02  0.45594000000E+02  0.51100000000E-03 0.  1.
         11   -1    0    0    0    0 -0.00000000000E+00 -0.00000000000E+00 -0.45593999997E+02  0.45594000000E+02  0.51100000000E-03 0. -1.
    9900012    2    1    2    0    0 -0.15738681911E+02 -0.16063168208E+02  0.37119959899E+02  0.47787275305E+02  0.20000019425E+02 0.  0.
         12    1    1    2    0    0  0.15738681911E+02  0.16063168208E+02 -0.37119959899E+02  0.43400724695E+02  0.00000000000E+00 0. -1.
         11    1    3    3    0    0  0.27068442908E+01  0.86175878798E+00  0.37717884032E+01  0.47218663940E+01  0.51100000000E-03 0.  1.
        -11    1    3    3    0    0 -0.12740124495E+02 -0.11110235930E+02  0.13575868905E+02  0.21680690288E+02  0.51100000000E-03 0. -1.
        -12    1    3    3    0    0 -0.57054017060E+01 -0.58146910656E+01  0.19772302591E+02  0.21384718623E+02  0.00000000000E+00 0.  1.
</event>
<event>
 7    1  0.5559916E-010  0.4778727E+02  0.7816164E-02  0.1312668E+00
        -11   -1    0    0    0    0  0.00000000000E+00  0.00000000000E+00  0.45593999997E+02  0.45594000000E+02  0.51100000000E-03 0.  1.
         11   -1    0    0    0    0 -0.00000000000E+00 -0.00000000000E+00 -0.45593999997E+02  0.45594000000E+02  0.51100000000E-03 0. -1.
    9900012    2    1    2    0    0  0.10834817626E+02 -0.35088482546E+02 -0.23130677376E+02  0.47787272860E+02  0.20000008278E+02 0.  0.
         12    1    1    2    0    0 -0.10834817626E+02  0.35088482546E+02  0.23130677376E+02  0.43400727140E+02  0.00000000000E+00 0. -1.
         11    1    3    3    0    0 -0.87210357933E-01  0.98614241415E+00  0.27661075199E+00  0.10279086909E+01  0.51100000000E-03 0. -1.
        -11    1    3    3    0    0  0.14520591932E+02 -0.26433376493E+02 -0.18212516136E+02  0.35231615449E+02  0.51100000000E-03 0.  1.
        -12    1    3    3    0    0 -0.35985639483E+01 -0.96412484671E+01 -0.51947719927E+01  0.11527748720E+02  0.00000000000E+00 0.  1.
</event>
<event>
 7    1  0.5559916E-010  0.4778727E+02  0.7816164E-02  0.1312668E+00
        -11   -1    0    0    0    0  0.00000000000E+00  0.00000000000E+00  0.45593999997E+02  0.45594000000E+02  0.51100000000E-03 0.  1.
         11   -1    0    0    0    0 -0.00000000000E+00 -0.00000000000E+00 -0.45593999997E+02  0.45594000000E+02  0.51100000000E-03 0. -1.
    9900012    2    1    2    0    0  0.43910930099E+01 -0.23248197402E+01  0.43115392678E+02  0.47787267628E+02  0.19999984423E+02 0.  0.
         12    1    1    2    0    0 -0.43910930099E+01  0.23248197402E+01 -0.43115392678E+02  0.43400732372E+02  0.00000000000E+00 0. -1.
         11    1    3    3    0    0 -0.11424619663E+01  0.45305187453E+00 -0.42356184732E+00  0.12999539396E+01  0.51100000000E-03 0. -1.
        -11    1    3    3    0    0  0.55783224636E+01  0.20245383209E+01  0.40205744738E+02  0.40641337910E+02  0.51100000000E-03 0.  1.
        -12    1    3    3    0    0 -0.44767487437E-01 -0.48024099356E+01  0.33332097876E+01  0.58459757788E+01  0.00000000000E+00 0.  1.
</event>
<event>
 7    1  0.5559916E-010  0.4778727E+02  0.7816164E-02  0.1312668E+00
        -11   -1    0    0    0    0  0.00000000000E+00  0.00000000000E+00  0.45593999997E+02  0.45594000000E+02  0.51100000000E-03 0. -1.
         11   -1    0    0    0    0 -0.00000000000E+00 -0.00000000000E+00 -0.45593999997E+02  0.45594000000E+02  0.51100000000E-03 0.  1.
    9900012    2    1    2    0    0 -0.34925813350E+02 -0.47226791639E+01 -0.25327990717E+02  0.47787271315E+02  0.20000001233E+02 0.  0.
         12    1    1    2    0    0  0.34925813350E+02  0.47226791639E+01  0.25327990717E+02  0.43400728685E+02  0.00000000000E+00 0. -1.
         11    1    3    3    0    0 -0.77469055373E+01 -0.58842525968E+01 -0.60154554316E+01  0.11437861616E+02  0.51100000000E-03 0. -1.
        -11    1    3    3    0    0 -0.12273978894E+02  0.75057468309E+01 -0.69837473372E+01  0.15992483250E+02  0.51100000000E-03 0.  1.
        -12    1    3    3    0    0 -0.14904928919E+02 -0.63441733980E+01 -0.12328787948E+02  0.20356926449E+02  0.00000000000E+00 0.  1.
</event>
<event>
 7    1  0.5559916E-010  0.4778727E+02  0.7816164E-02  0.1312668E+00
        -11   -1    0    0    0    0  0.00000000000E+00  0.00000000000E+00  0.45593999997E+02  0.45594000000E+02  0.51100000000E-03 0. -1.
         11   -1    0    0    0    0 -0.00000000000E+00 -0.00000000000E+00 -0.45593999997E+02  0.45594000000E+02  0.51100000000E-03 0.  1.
    9900012    2    1    2    0    0 -0.27272662553E+02 -0.28450322180E+01 -0.33641209361E+02  0.47787270762E+02  0.19999998714E+02 0.  0.
         12    1    1    2    0    0  0.27272662553E+02  0.28450322180E+01  0.33641209361E+02  0.43400729238E+02  0.00000000000E+00 0. -1.
         11    1    3    3    0    0 -0.15296740988E+02  0.24650968371E+00 -0.25591314260E+02  0.29815539869E+02  0.51100000000E-03 0. -1.
        -11    1    3    3    0    0 -0.13196783559E+02 -0.42871192699E+01 -0.84100775536E+01  0.16225408859E+02  0.51100000000E-03 0.  1.
         12    1    3    3    0    0  0.12208619932E+01  0.11955773681E+01  0.36018245187E+00  0.17463220345E+01  0.00000000000E+00 0. -1.
</event>
<event>
 7    1  0.5559916E-010  0.4778727E+02  0.7816164E-02  0.1312668E+00
        -11   -1    0    0    0    0  0.00000000000E+00  0.00000000000E+00  0.45593999997E+02  0.45594000000E+02  0.51100000000E-03 0.  1.
         11   -1    0    0    0    0 -0.00000000000E+00 -0.00000000000E+00 -0.45593999997E+02  0.45594000000E+02  0.51100000000E-03 0. -1.
    9900012    2    1    2    0    0 -0.72612803793E+00 -0.61554570427E+01  0.42955863534E+02  0.47787272757E+02  0.20000007807E+02 0.  0.
         12    1    1    2    0    0  0.72612803793E+00  0.61554570427E+01 -0.42955863534E+02  0.43400727243E+02  0.00000000000E+00 0. -1.
         11    1    3    3    0    0 -0.28649059119E+01 -0.93281587695E+01  0.12595744134E+02  0.15933455447E+02  0.51100000000E-03 0. -1.
        -11    1    3    3    0    0 -0.14942892471E+01  0.48713220844E+01  0.21988063193E+02  0.22570724455E+02  0.51100000000E-03 0.  1.
         12    1    3    3    0    0  0.36330671211E+01 -0.16986203576E+01  0.83720562065E+01  0.92830928548E+01  0.00000000000E+00 0. -1.
</event>
<event>
 7    1  0.5559916E-010  0.4778727E+02  0.7816164E-02  0.1312668E+00
        -11   -1    0    0    0    0  0.00000000000E+00  0.00000000000E+00  0.45593999997E+02  0.45594000000E+02  0.51100000000E-03 0. -1.
         11   -1    0    0    0    0 -0.00000000000E+00 -0.00000000000E+00 -0.45593999997E+02  0.45594000000E+02  0.51100000000E-03 0.  1.
    9900012    2    1    2    0    0  0.16692759180E+01 -0.26901003186E+02 -0.34017238633E+02  0.47787274445E+02  0.20000015504E+02 0.  0.
         12    1    1    2    0    0 -0.16692759180E+01  0.26901003186E+02  0.34017238633E+02  0.43400725555E+02  0.00000000000E+00 0. -1.
         11    1    3    3    0    0  0.34825148964E+01 -0.57002296731E+01  0.70386674458E+00  0.67168412952E+01  0.51100000000E-03 0. -1.
        -11    1    3    3    0    0 -0.31739781492E+01 -0.18410729488E+02 -0.31294216729E+02  0.36446633569E+02  0.51100000000E-03 0.  1.
         12    1    3    3    0    0  0.13607391708E+01 -0.27900440256E+01 -0.34268886485E+01  0.46237995810E+01  0.00000000000E+00 0. -1.
</event>
<event>
 7    1  0.5559916E-010  0.4778727E+02  0.7816164E-02  0.1312668E+00
        -11   -1    0    0    0    0  0.00000000000E+00  0.00000000000E+00  0.45593999997E+02  0.45594000000E+02  0.51100000000E-03 0.  1.
         11   -1    0    0    0    0 -0.00000000000E+00 -0.00000000000E+00 -0.45593999997E+02  0.45594000000E+02  0.51100000000E-03 0. -1.
    9900012    2    1    2    0    0 -0.40470248558E+02  0.36509742929E+01  0.15246406522E+02  0.47787267938E+02  0.19999985838E+02 0.  0.
         12    1    1    2    0    0  0.40470248558E+02 -0.36509742929E+01 -0.15246406522E+02  0.43400732062E+02  0.00000000000E+00 0. -1.
         11    1    3    3    0    0 -0.11038382863E+02 -0.60103647197E+01 -0.71345984317E-01  0.12568829333E+02  0.51100000000E-03 0. -1.
        -11    1    3    3    0    0 -0.21664565088E+02  0.78429278389E+01  0.14443465527E+02  0.27193355700E+02  0.51100000000E-03 0.  1.
         12    1    3    3    0    0 -0.77673006066E+01  0.18184111737E+01  0.87428697984E+00  0.80250829051E+01  0.00000000000E+00 0. -1.
</event>
<event>
 7    1  0.5559916E-010  0.4778727E+02  0.7816164E-02  0.1312668E+00
        -11   -1    0    0    0    0  0.00000000000E+00  0.00000000000E+00  0.45593999997E+02  0.45594000000E+02  0.51100000000E-03 0.  1.
         11   -1    0    0    0    0 -0.00000000000E+00 -0.00000000000E+00 -0.45593999997E+02  0.45594000000E+02  0.51100000000E-03 0. -1.
    9900012    2    1    2    0    0  0.42536796249E+02  0.86050618075E+01  0.44434224012E+00  0.47787267703E+02  0.19999984766E+02 0.  0.
         12    1    1    2    0    0 -0.42536796249E+02 -0.86050618075E+01 -0.44434224012E+00  0.43400732297E+02  0.00000000000E+00 0. -1.
         11    1    3    3    0    0  0.15439915518E+02  0.36451413442E+00  0.77575893696E+01  0.17283056873E+02  0.51100000000E-03 0. -1.
        -11    1    3    3    0    0  0.59788117603E+01  0.43296383154E+00  0.17326425452E+01  0.62398476099E+01  0.51100000000E-03 0.  1.
         12    1    3    3    0    0  0.21118068971E+02  0.78075838416E+01 -0.90458896747E+01  0.24264363221E+02  0.00000000000E+00 0. -1.
</event>
<event>
 7    1  0.5559916E-010  0.4778727E+02  0.7816164E-02  0.1312668E+00
        -11   -1    0    0    0    0  0.00000000000E+00  0.00000000000E+00  0.45593999997E+02  0.45594000000E+02  0.51100000000E-03 0.  1.
         11   -1    0    0    0    0 -0.00000000000E+00 -0.00000000000E+00 -0.45593999997E+02  0.45594000000E+02  0.51100000000E-03 0. -1.
    9900012    2    1    2    0    0  0.18760107353E+01  0.39174746653E+02  0.18586093828E+02  0.47787273331E+02  0.20000010424E+02 0.  0.
         12    1    1    2    0    0 -0.18760107353E+01 -0.39174746653E+02 -0.18586093828E+02  0.43400726669E+02  0.00000000000E+00 0. -1.
         11    1    3    3    0    0  0.69554862150E+01  0.13125370693E+02  0.11867844178E+02  0.19013149924E+02  0.51100000000E-03 0. -1.
        -11    1    3    3    0    0 -0.58058294309E+01  0.11415553760E+02  0.38723602549E+00  0.12812980724E+02  0.51100000000E-03 0.  1.
        -12    1    3    3    0    0  0.72635395128E+00  0.14633822199E+02  0.63310136251E+01  0.15961142683E+02  0.00000000000E+00 0.  1.
</event>
<event>
 7    1  0.6099928E-010  0.4778727E+02  0.7816164E-02  0.1312668E+00
        -11   -1    0    0    0    0  0.00000000000E+00  0.00000000000E+00  0.45593999997E+02  0.45594000000E+02  0.51100000000E-03 0. -1.
         11   -1    0    0    0    0 -0.00000000000E+00 -0.00000000000E+00 -0.45593999997E+02  0.45594000000E+02  0.51100000000E-03 0.  1.
    9900012    2    1    2    0    0  0.19965239376E+02  0.29179626016E+02 -0.25170655199E+02  0.47787271425E+02  0.20000001733E+02 0.  0.
         12    1    1    2    0    0 -0.19965239376E+02 -0.29179626016E+02  0.25170655199E+02  0.43400728575E+02  0.00000000000E+00 0. -1.
         11    1    3    3    0    0  0.78403473582E+00 -0.53058944076E+00  0.17449779701E+01  0.19852415467E+01  0.51100000000E-03 0. -1.
        -11    1    3    3    0    0  0.16422839374E+02  0.28129558677E+02 -0.20083780056E+02  0.38266694998E+02  0.51100000000E-03 0.  1.
        -12    1    3    3    0    0  0.27583652660E+01  0.15806567793E+01 -0.68318531131E+01  0.75353348799E+01  0.00000000000E+00 0.  1.
</event>
<event>
 7    1  0.5559916E-010  0.4778727E+02  0.7816164E-02  0.1312668E+00
        -11   -1    0    0    0    0  0.00000000000E+00  0.00000000000E+00  0.45593999997E+02  0.45594000000E+02  0.51100000000E-03 0.  1.
         11   -1    0    0    0    0 -0.00000000000E+00 -0.00000000000E+00 -0.45593999997E+02  0.45594000000E+02  0.51100000000E-03 0. -1.
    9900012    2    1    2    0    0  0.38158837226E+02 -0.14150155138E+02  0.15076452550E+02  0.47787272237E+02  0.20000005436E+02 0.  0.
         12    1    1    2    0    0 -0.38158837226E+02  0.14150155138E+02 -0.15076452550E+02  0.43400727763E+02  0.00000000000E+00 0. -1.
         11    1    3    3    0    0  0.21312239332E+02 -0.14079259586E+02  0.54199687007E+01  0.26111552172E+02  0.51100000000E-03 0. -1.
        -11    1    3    3    0    0  0.99492907327E+01 -0.15057198943E+01  0.10544044825E+02  0.14575062951E+02  0.51100000000E-03 0.  1.
         12    1    3    3    0    0  0.68973071615E+01  0.14348243421E+01 -0.88756097521E+00  0.71006571145E+01  0.00000000000E+00 0. -1.
</event>
<event>
 7    1  0.5559916E-010  0.4778727E+02  0.7816164E-02  0.1312668E+00
        -11   -1    0    0    0    0  0.00000000000E+00  0.00000000000E+00  0.45593999997E+02  0.45594000000E+02  0.51100000000E-03 0.  1.
         11   -1    0    0    0    0 -0.00000000000E+00 -0.00000000000E+00 -0.45593999997E+02  0.45594000000E+02  0.51100000000E-03 0. -1.
    9900012    2    1    2    0    0  0.25800308747E+01  0.28775950080E+02  0.32386898393E+02  0.47787273625E+02  0.20000011766E+02 0.  0.
         12    1    1    2    0    0 -0.25800308747E+01 -0.28775950080E+02 -0.32386898393E+02  0.43400726375E+02  0.00000000000E+00 0. -1.
         11    1    3    3    0    0 -0.47644927992E+01 -0.26262164485E+00  0.47512037630E+01  0.67337433290E+01  0.51100000000E-03 0. -1.
        -11    1    3    3    0    0 -0.68109147495E+00  0.16214825238E+01  0.20748229874E+01  0.27199231354E+01  0.51100000000E-03 0.  1.
         12    1    3    3    0    0  0.80256151489E+01  0.27417089201E+02  0.25560871643E+02  0.38333607161E+02  0.00000000000E+00 0. -1.
</event>
<event>
 7    1  0.5952846E-010  0.4778727E+02  0.7816164E-02  0.1312668E+00
        -11   -1    0    0    0    0  0.00000000000E+00  0.00000000000E+00  0.45593999997E+02  0.45594000000E+02  0.51100000000E-03 0. -1.
         11   -1    0    0    0    0 -0.00000000000E+00 -0.00000000000E+00 -0.45593999997E+02  0.45594000000E+02  0.51100000000E-03 0.  1.
    9900012    2    1    2    0    0 -0.17793833456E+02 -0.38600513778E+01 -0.39396738175E+02  0.47787268617E+02  0.19999988933E+02 0.  0.
         12    1    1    2    0    0  0.17793833456E+02  0.38600513778E+01  0.39396738175E+02  0.43400731383E+02  0.00000000000E+00 0. -1.
         11    1    3    3    0    0 -0.69767133880E-01  0.16812486556E+00  0.36467823598E+00  0.40758299806E+00  0.51100000000E-03 0. -1.
        -11    1    3    3    0    0 -0.16511042820E+02 -0.19952376843E+01 -0.14669472916E+02  0.22176314940E+02  0.51100000000E-03 0.  1.
        -12    1    3    3    0    0 -0.12130235019E+01 -0.20329385591E+01 -0.25091943495E+02  0.25203370679E+02  0.00000000000E+00 0.  1.
</event>
<event>
 7    1  0.5559916E-010  0.4778727E+02  0.7816164E-02  0.1312668E+00
        -11   -1    0    0    0    0  0.00000000000E+00  0.00000000000E+00  0.45593999997E+02  0.45594000000E+02  0.51100000000E-03 0.  1.
         11   -1    0    0    0    0 -0.00000000000E+00 -0.00000000000E+00 -0.45593999997E+02  0.45594000000E+02  0.51100000000E-03 0. -1.
    9900012    2    1    2    0    0 -0.22845456634E+02  0.24839115803E+02  0.27289678802E+02  0.47787272681E+02  0.20000007463E+02 0.  0.
         12    1    1    2    0    0  0.22845456634E+02 -0.24839115803E+02 -0.27289678802E+02  0.43400727319E+02  0.00000000000E+00 0. -1.
         11    1    3    3    0    0 -0.19118315298E+01 -0.98007297589E+00 -0.17762344679E+01  0.27875889192E+01  0.51100000000E-03 0. -1.
        -11    1    3    3    0    0 -0.77662404403E+00  0.60046190369E+01  0.43894421218E+01  0.74783552393E+01  0.51100000000E-03 0.  1.
         12    1    3    3    0    0 -0.20157001060E+02  0.19814569742E+02  0.24676471148E+02  0.37521328523E+02  0.00000000000E+00 0. -1.
</event>
<event>
 7    1  0.5559916E-010  0.4778728E+02  0.7816164E-02  0.1312668E+00
        -11   -1    0    0    0    0  0.00000000000E+00  0.00000000000E+00  0.45593999997E+02  0.45594000000E+02  0.51100000000E-03 0.  1.
         11   -1    0    0    0    0 -0.00000000000E+00 -0.00000000000E+00 -0.45593999997E+02  0.45594000000E+02  0.51100000000E-03 0. -1.
    9900012    2    1    2    0    0 -0.23965596753E+02  0.11468301960E+02  0.34318377661E+02  0.47787276241E+02  0.20000023691E+02 0.  0.
         12    1    1    2    0    0  0.23965596753E+02 -0.11468301960E+02 -0.34318377661E+02  0.43400723759E+02  0.00000000000E+00 0. -1.
         11    1    3    3    0    0 -0.87863109530E+01  0.72280862524E+01  0.25780541769E+02  0.28179439760E+02  0.51100000000E-03 0. -1.
        -11    1    3    3    0    0 -0.94260185999E+01  0.12850451240E+01  0.83517566068E+00  0.95498003257E+01  0.51100000000E-03 0.  1.
        -12    1    3    3    0    0 -0.57532671997E+01  0.29551705835E+01  0.77026602317E+01  0.10058036155E+02  0.00000000000E+00 0.  1.
</event>
<event>
 7    1  0.5559916E-010  0.4778726E+02  0.7816164E-02  0.1312668E+00
        -11   -1    0    0    0    0  0.00000000000E+00  0.00000000000E+00  0.45593999997E+02  0.45594000000E+02  0.51100000000E-03 0.  1.
         11   -1    0    0    0    0 -0.00000000000E+00 -0.00000000000E+00 -0.45593999997E+02  0.45594000000E+02  0.51100000000E-03 0. -1.
    9900012    2    1    2    0    0 -0.46847868758E+01  0.43033603622E+02 -0.31282106617E+01  0.47787263017E+02  0.19999963399E+02 0.  0.
         12    1    1    2    0    0  0.46847868758E+01 -0.43033603622E+02  0.31282106617E+01  0.43400736983E+02  0.00000000000E+00 0. -1.
         11    1    3    3    0    0  0.13594189980E+01  0.28832762042E+02  0.42825796877E+01  0.29180758661E+02  0.51100000000E-03 0. -1.
        -11    1    3    3    0    0 -0.75787244216E+01  0.13173579160E+02 -0.63039391369E+01  0.16453568022E+02  0.51100000000E-03 0.  1.
        -12    1    3    3    0    0  0.15345185478E+01  0.10272624192E+01 -0.11068512126E+01  0.21529363340E+01  0.00000000000E+00 0.  1.
</event>
<event>
 7    1  0.5559916E-010  0.4778728E+02  0.7816164E-02  0.1312668E+00
        -11   -1    0    0    0    0  0.00000000000E+00  0.00000000000E+00  0.45593999997E+02  0.45594000000E+02  0.51100000000E-03 0. -1.
         11   -1    0    0    0    0 -0.00000000000E+00 -0.00000000000E+00 -0.45593999997E+02  0.45594000000E+02  0.51100000000E-03 0.  1.
    9900012    2    1    2    0    0 -0.28636151864E+02 -0.31888713350E+02  0.68339556690E+01  0.47787283614E+02  0.20000057312E+02 0.  0.
         12    1    1    2    0    0  0.28636151864E+02  0.31888713350E+02 -0.68339556690E+01  0.43400716386E+02  0.00000000000E+00 0. -1.
         11    1    3    3    0    0 -0.24233904295E+01 -0.12671765602E+01  0.36558973730E+01  0.45655386836E+01  0.51100000000E-03 0. -1.
        -11    1    3    3    0    0 -0.16069286787E+01 -0.10234658956E+02 -0.27579429001E+01  0.10720854118E+02  0.51100000000E-03 0.  1.
        -12    1    3    3    0    0 -0.24605832756E+02 -0.20386877834E+02  0.59360011960E+01  0.32500890813E+02  0.00000000000E+00 0.  1.
</event>
<event>
 7    1  0.5559916E-010  0.4778727E+02  0.7816164E-02  0.1312668E+00
        -11   -1    0    0    0    0  0.00000000000E+00  0.00000000000E+00  0.45593999997E+02  0.45594000000E+02  0.51100000000E-03 0.  1.
         11   -1    0    0    0    0 -0.00000000000E+00 -0.00000000000E+00 -0.45593999997E+02  0.45594000000E+02  0.51100000000E-03 0. -1.
    9900012    2    1    2    0    0  0.34215611710E+00  0.18162718081E+02  0.39416008450E+02  0.47787272806E+02  0.20000008030E+02 0.  0.
         12    1    1    2    0    0 -0.34215611710E+00 -0.18162718081E+02 -0.39416008450E+02  0.43400727194E+02  0.00000000000E+00 0. -1.
         11    1    3    3    0    0 -0.55268031547E+01  0.51043444644E+01  0.16422397432E+02  0.18063638150E+02  0.51100000000E-03 0. -1.
        -11    1    3    3    0    0  0.49469272565E+01 -0.64616846718E+00  0.47606361397E+01  0.68958886073E+01  0.51100000000E-03 0.  1.
        -12    1    3    3    0    0  0.92203201533E+00  0.13704542083E+02  0.18232974878E+02  0.22827746048E+02  0.00000000000E+00 0.  1.
</event>
<event>
 7    1  0.5559916E-010  0.4778727E+02  0.7816164E-02  0.1312668E+00
        -11   -1    0    0    0    0  0.00000000000E+00  0.00000000000E+00  0.45593999997E+02  0.45594000000E+02  0.51100000000E-03 0.  1.
         11   -1    0    0    0    0 -0.00000000000E+00 -0.00000000000E+00 -0.45593999997E+02  0.45594000000E+02  0.51100000000E-03 0. -1.
    9900012    2    1    2    0    0  0.81942185368E+01 -0.42316265658E+02  0.50805057828E+01  0.47787273097E+02  0.20000009360E+02 0.  0.
         12    1    1    2    0    0 -0.81942185368E+01  0.42316265658E+02 -0.50805057828E+01  0.43400726903E+02  0.00000000000E+00 0. -1.
         11    1    3    3    0    0  0.41905216237E+01 -0.97490818318E+01 -0.23922224545E+01  0.10877858088E+02  0.51100000000E-03 0. -1.
        -11    1    3    3    0    0  0.75652417661E+01 -0.25014265392E+02  0.67516587060E+00  0.26141962537E+02  0.51100000000E-03 0.  1.
        -12    1    3    3    0    0 -0.35615448530E+01 -0.75529184343E+01  0.67975623668E+01  0.10767452472E+02  0.00000000000E+00 0.  1.
</event>
<event>
 7    1  0.5559916E-010  0.4778723E+02  0.7816164E-02  0.1312668E+00
        -11   -1    0    0    0    0  0.00000000000E+00  0.00000000000E+00  0.45593999997E+02  0.45594000000E+02  0.51100000000E-03 0. -1.
         11   -1    0    0    0    0 -0.00000000000E+00 -0.00000000000E+00 -0.45593999997E+02  0.45594000000E+02  0.51100000000E-03 0.  1.
    9900012    2    1    2    0    0  0.24081588475E+02  0.32223278824E+01 -0.35962761453E+02  0.47787233742E+02  0.19999829922E+02 0.  0.
         12    1    1    2    0    0 -0.24081588475E+02 -0.32223278824E+01  0.35962761453E+02  0.43400766258E+02  0.00000000000E+00 0. -1.
         11    1    3    3    0    0  0.38477275449E+01  0.42727394070E+01 -0.14925367311E+02  0.15994620937E+02  0.51100000000E-03 0. -1.
        -11    1    3    3    0    0  0.19499175110E+02 -0.32362556031E+01 -0.21739665844E+02  0.29382039609E+02  0.51100000000E-03 0.  1.
        -12    1    3    3    0    0  0.73468582013E+00  0.21858440785E+01  0.70227170196E+00  0.24105731960E+01  0.00000000000E+00 0.  1.
</event>
<event>
 7    1  0.5559916E-010  0.4778727E+02  0.7816164E-02  0.1312668E+00
        -11   -1    0    0    0    0  0.00000000000E+00  0.00000000000E+00  0.45593999997E+02  0.45594000000E+02  0.51100000000E-03 0.  1.
         11   -1    0    0    0    0 -0.00000000000E+00 -0.00000000000E+00 -0.45593999997E+02  0.45594000000E+02  0.51100000000E-03 0. -1.
    9900012    2    1    2    0    0 -0.18232698658E+01  0.36548095710E+02  0.23335282367E+02  0.47787274013E+02  0.20000013536E+02 0.  0.
         12    1    1    2    0    0  0.18232698658E+01 -0.36548095710E+02 -0.23335282367E+02  0.43400725987E+02  0.00000000000E+00 0. -1.
         11    1    3    3    0    0 -0.22664582053E+01  0.64117508732E+01  0.85975677883E+00  0.68546746120E+01  0.51100000000E-03 0. -1.
        -11    1    3    3    0    0  0.28522027804E+01  0.31099151512E+02  0.18860500053E+02  0.36483019996E+02  0.51100000000E-03 0.  1.
        -12    1    3    3    0    0 -0.24090144408E+01 -0.96280667545E+00  0.36150255346E+01  0.44495794056E+01  0.00000000000E+00 0.  1.
</event>
<event>
 7    1  0.5559916E-010  0.4778727E+02  0.7816164E-02  0.1312668E+00
        -11   -1    0    0    0    0  0.00000000000E+00  0.00000000000E+00  0.45593999997E+02  0.45594000000E+02  0.51100000000E-03 0.  1.
         11   -1    0    0    0    0 -0.00000000000E+00 -0.00000000000E+00 -0.45593999997E+02  0.45594000000E+02  0.51100000000E-03 0. -1.
    9900012    2    1    2    0    0 -0.51867042966E+01  0.30617465859E+02  0.30319831861E+02  0.47787270499E+02  0.19999997514E+02 0.  0.
         12    1    1    2    0    0  0.51867042966E+01 -0.30617465859E+02 -0.30319831861E+02  0.43400729501E+02  0.00000000000E+00 0. -1.
         11    1    3    3    0    0 -0.53877585447E+01  0.41045446780E+01  0.12146765607E+02  0.13907521135E+02  0.51100000000E-03 0. -1.
        -11    1    3    3    0    0  0.21120559384E+01  0.21099068332E+02  0.89504551226E+01  0.23016127214E+02  0.51100000000E-03 0.  1.
        -12    1    3    3    0    0 -0.19110016902E+01  0.54138528495E+01  0.92226111322E+01  0.10863622151E+02  0.00000000000E+00 0.  1.
</event>
<event>
 7    1  0.5559916E-010  0.4778727E+02  0.7816164E-02  0.1312668E+00
        -11   -1    0    0    0    0  0.00000000000E+00  0.00000000000E+00  0.45593999997E+02  0.45594000000E+02  0.51100000000E-03 0. -1.
         11   -1    0    0    0    0 -0.00000000000E+00 -0.00000000000E+00 -0.45593999997E+02  0.45594000000E+02  0.51100000000E-03 0.  1.
    9900012    2    1    2    0    0  0.34165094099E+02  0.22461893139E+02 -0.14554482896E+02  0.47787271083E+02  0.20000000175E+02 0.  0.
         12    1    1    2    0    0 -0.34165094099E+02 -0.22461893139E+02  0.14554482896E+02  0.43400728917E+02  0.00000000000E+00 0. -1.
         11    1    3    3    0    0  0.63999127859E+01  0.56850438270E+00  0.39848711763E+00  0.64374585936E+01  0.51100000000E-03 0. -1.
        -11    1    3    3    0    0  0.16865263469E+02  0.55964895519E+01 -0.12192730276E+02  0.21550417143E+02  0.51100000000E-03 0.  1.
        -12    1    3    3    0    0  0.10899917844E+02  0.16296899205E+02 -0.27602397385E+01  0.19799395347E+02  0.00000000000E+00 0.  1.
</event>
<event>
 7    1  0.5559916E-010  0.4778727E+02  0.7816164E-02  0.1312668E+00
        -11   -1    0    0    0    0  0.00000000000E+00  0.00000000000E+00  0.45593999997E+02  0.45594000000E+02  0.51100000000E-03 0.  1.
         11   -1    0    0    0    0 -0.00000000000E+00 -0.00000000000E+00 -0.45593999997E+02  0.45594000000E+02  0.51100000000E-03 0. -1.
    9900012    2    1    2    0    0  0.10410869284E+02 -0.50349366479E+00  0.42130556756E+02  0.47787268235E+02  0.19999987192E+02 0.  0.
         12    1    1    2    0    0 -0.10410869284E+02  0.50349366479E+00 -0.42130556756E+02  0.43400731765E+02  0.00000000000E+00 0. -1.
         11    1    3    3    0    0  0.85741762967E+01 -0.21742625792E+01  0.44264893172E+01  0.98912954089E+01  0.51100000000E-03 0. -1.
        -11    1    3    3    0    0  0.15375215077E+01 -0.43637259478E+00  0.20167811571E+02  0.20231040934E+02  0.51100000000E-03 0.  1.
         12    1    3    3    0    0  0.29917147931E+00  0.21071415092E+01  0.17536255868E+02  0.17664931893E+02  0.00000000000E+00 0. -1.
</event>
<event>
 7    1  0.5559916E-010  0.4778729E+02  0.7816164E-02  0.1312668E+00
        -11   -1    0    0    0    0  0.00000000000E+00  0.00000000000E+00  0.45593999997E+02  0.45594000000E+02  0.51100000000E-03 0.  1.
         11   -1    0    0    0    0 -0.00000000000E+00 -0.00000000000E+00 -0.45593999997E+02  0.45594000000E+02  0.51100000000E-03 0. -1.
    9900012    2    1    2    0    0 -0.20954177052E+02 -0.18719576942E+02  0.33077512501E+02  0.47787286526E+02  0.20000070585E+02 0.  0.
         12    1    1    2    0    0  0.20954177052E+02  0.18719576942E+02 -0.33077512501E+02  0.43400713474E+02  0.00000000000E+00 0. -1.
         11    1    3    3    0    0 -0.51937361379E+01  0.24999809867E+01  0.36116413571E+01  0.68021139036E+01  0.51100000000E-03 0. -1.
        -11    1    3    3    0    0 -0.12366571142E+02 -0.18103648728E+02  0.17148262077E+02  0.27834099081E+02  0.51100000000E-03 0.  1.
         12    1    3    3    0    0 -0.33938697722E+01 -0.31159092006E+01  0.12317609067E+02  0.13151073541E+02  0.00000000000E+00 0. -1.
</event>
<event>
 7    1  0.5559916E-010  0.4778727E+02  0.7816164E-02  0.1312668E+00
        -11   -1    0    0    0    0  0.00000000000E+00  0.00000000000E+00  0.45593999997E+02  0.45594000000E+02  0.51100000000E-03 0.  1.
         11   -1    0    0    0    0 -0.00000000000E+00 -0.00000000000E+00 -0.45593999997E+02  0.45594000000E+02  0.51100000000E-03 0. -1.
    9900012    2    1    2    0    0  0.41599240204E+02 -0.70398283346E+01  0.10176796359E+02  0.47787272441E+02  0.20000006369E+02 0.  0.
         12    1    1    2    0    0 -0.41599240204E+02  0.70398283346E+01 -0.10176796359E+02  0.43400727559E+02  0.00000000000E+00 0. -1.
         11    1    3    3    0    0  0.19760867082E+02  0.12912429821E+01  0.90321753579E+01  0.21765554627E+02  0.51100000000E-03 0. -1.
        -11    1    3    3    0    0  0.17995147371E+02 -0.66989041638E+01 -0.37748966394E+01  0.19569120849E+02  0.51100000000E-03 0.  1.
        -12    1    3    3    0    0  0.38432257507E+01 -0.16321671529E+01  0.49195176400E+01  0.64525969653E+01  0.00000000000E+00 0.  1.
</event>
<event>
 7    1  0.5559916E-010  0.4778727E+02  0.7816164E-02  0.1312668E+00
        -11   -1    0    0    0    0  0.00000000000E+00  0.00000000000E+00  0.45593999997E+02  0.45594000000E+02  0.51100000000E-03 0.  1.
         11   -1    0    0    0    0 -0.00000000000E+00 -0.00000000000E+00 -0.45593999997E+02  0.45594000000E+02  0.51100000000E-03 0. -1.
    9900012    2    1    2    0    0 -0.42919390939E+02  0.46083064189E+01  0.45069662009E+01  0.47787270156E+02  0.19999995950E+02 0.  0.
         12    1    1    2    0    0  0.42919390939E+02 -0.46083064189E+01 -0.45069662009E+01  0.43400729844E+02  0.00000000000E+00 0. -1.
         11    1    3    3    0    0  0.56633046002E+00  0.39673988939E+00 -0.29499636616E+00  0.75176847962E+00  0.51100000000E-03 0. -1.
        -11    1    3    3    0    0 -0.21112402954E+02  0.69325501293E+01 -0.44666249840E+01  0.22665933663E+02  0.51100000000E-03 0.  1.
        -12    1    3    3    0    0 -0.22373318445E+02 -0.27209835997E+01  0.92685875511E+01  0.24369568014E+02  0.00000000000E+00 0.  1.
</event>
<event>
 7    1  0.5559916E-010  0.4778727E+02  0.7816164E-02  0.1312668E+00
        -11   -1    0    0    0    0  0.00000000000E+00  0.00000000000E+00  0.45593999997E+02  0.45594000000E+02  0.51100000000E-03 0.  1.
         11   -1    0    0    0    0 -0.00000000000E+00 -0.00000000000E+00 -0.45593999997E+02  0.45594000000E+02  0.51100000000E-03 0. -1.
    9900012    2    1    2    0    0  0.29300643961E+02  0.23052470487E+01  0.31934016282E+02  0.47787270785E+02  0.19999998818E+02 0.  0.
         12    1    1    2    0    0 -0.29300643961E+02 -0.23052470487E+01 -0.31934016282E+02  0.43400729215E+02  0.00000000000E+00 0. -1.
         11    1    3    3    0    0  0.18820118041E+02  0.14642457355E+00  0.23044973244E+02  0.29753807745E+02  0.51100000000E-03 0. -1.
        -11    1    3    3    0    0  0.19703405135E+00  0.44657749630E+01  0.52235782886E+01  0.68751537318E+01  0.51100000000E-03 0.  1.
         12    1    3    3    0    0  0.10283491869E+02 -0.23069524878E+01  0.36654647488E+01  0.11158309309E+02  0.00000000000E+00 0. -1.
</event>
<event>
 7    1  0.5559916E-010  0.4778731E+02  0.7816164E-02  0.1312668E+00
        -11   -1    0    0    0    0  0.00000000000E+00  0.00000000000E+00  0.45593999997E+02  0.45594000000E+02  0.51100000000E-03 0.  1.
         11   -1    0    0    0    0 -0.00000000000E+00 -0.00000000000E+00 -0.45593999997E+02  0.45594000000E+02  0.51100000000E-03 0. -1.
    9900012    2    1    2    0    0  0.34616722432E+02  0.66037533874E+01  0.25331650327E+02  0.47787314072E+02  0.20000196180E+02 0.  0.
         12    1    1    2    0    0 -0.34616722432E+02 -0.66037533874E+01 -0.25331650327E+02  0.43400685928E+02  0.00000000000E+00 0. -1.
         11    1    3    3    0    0  0.13172600912E+02 -0.17787989734E+01  0.72950298521E+01  0.15162420696E+02  0.51100000000E-03 0. -1.
        -11    1    3    3    0    0  0.19485725779E+02  0.10048962777E+02  0.98342365286E+01  0.24028886166E+02  0.51100000000E-03 0.  1.
        -12    1    3    3    0    0  0.19583957413E+01 -0.16664104158E+01  0.82023839461E+01  0.85960072099E+01  0.00000000000E+00 0.  1.
</event>
<event>
 7    1  0.5559916E-010  0.4778727E+02  0.7816164E-02  0.1312668E+00
        -11   -1    0    0    0    0  0.00000000000E+00  0.00000000000E+00  0.45593999997E+02  0.45594000000E+02  0.51100000000E-03 0. -1.
         11   -1    0    0    0    0 -0.00000000000E+00 -0.00000000000E+00 -0.45593999997E+02  0.45594000000E+02  0.51100000000E-03 0.  1.
    9900012    2    1    2    0    0 -0.76321995580E+01  0.19096562342E+02 -0.38219031645E+02  0.47787267941E+02  0.19999985852E+02 0.  0.
         12    1    1    2    0    0  0.76321995580E+01 -0.19096562342E+02  0.38219031645E+02  0.43400732059E+02  0.00000000000E+00 0. -1.
         11    1    3    3    0    0 -0.37657278365E+01  0.91260330556E+01 -0.29648099310E+02  0.31248599623E+02  0.51100000000E-03 0. -1.
        -11    1    3    3    0    0  0.53940159648E+00  0.93246334963E+01 -0.40106669131E+01  0.10164900062E+02  0.51100000000E-03 0.  1.
        -12    1    3    3    0    0 -0.44058733180E+01  0.64589578992E+00 -0.45602654217E+01  0.63737682561E+01  0.00000000000E+00 0.  1.
</event>
<event>
 7    1  0.5559916E-010  0.4778727E+02  0.7816164E-02  0.1312668E+00
        -11   -1    0    0    0    0  0.00000000000E+00  0.00000000000E+00  0.45593999997E+02  0.45594000000E+02  0.51100000000E-03 0.  1.
         11   -1    0    0    0    0 -0.00000000000E+00 -0.00000000000E+00 -0.45593999997E+02  0.45594000000E+02  0.51100000000E-03 0. -1.
    9900012    2    1    2    0    0 -0.16021955946E+02 -0.39095039697E+02  0.99246227957E+01  0.47787270295E+02  0.19999996585E+02 0.  0.
         12    1    1    2    0    0  0.16021955946E+02  0.39095039697E+02 -0.99246227957E+01  0.43400729705E+02  0.00000000000E+00 0. -1.
         11    1    3    3    0    0 -0.65458233806E+00 -0.64127585673E+01  0.19770070081E+01  0.67424407637E+01  0.51100000000E-03 0. -1.
        -11    1    3    3    0    0 -0.74747867363E+01 -0.18144536018E+02  0.13244810624E+02  0.23675338072E+02  0.51100000000E-03 0.  1.
        -12    1    3    3    0    0 -0.78925868713E+01 -0.14537745112E+02 -0.52971948365E+01  0.17369491460E+02  0.00000000000E+00 0.  1.
</event>
<event>
 7    1  0.5559916E-010  0.4778727E+02  0.7816164E-02  0.1312668E+00
        -11   -1    0    0    0    0  0.00000000000E+00  0.00000000000E+00  0.45593999997E+02  0.45594000000E+02  0.51100000000E-03 0.  1.
         11   -1    0    0    0    0 -0.00000000000E+00 -0.00000000000E+00 -0.45593999997E+02  0.45594000000E+02  0.51100000000E-03 0. -1.
    9900012    2    1    2    0    0 -0.39753750796E+02  0.76579390216E+01  0.15640284163E+02  0.47787271653E+02  0.20000002773E+02 0.  0.
         12    1    1    2    0    0  0.39753750796E+02 -0.76579390216E+01 -0.15640284163E+02  0.43400728347E+02  0.00000000000E+00 0. -1.
         11    1    3    3    0    0 -0.18219933118E+02  0.98940785246E+01 -0.20890217610E+00  0.20734087707E+02  0.51100000000E-03 0. -1.
        -11    1    3    3    0    0 -0.17961497521E+02 -0.25122667384E+01  0.11755324160E+02  0.21612832385E+02  0.51100000000E-03 0.  1.
         12    1    3    3    0    0 -0.35723201568E+01  0.27612723539E+00  0.40938621791E+01  0.54403515598E+01  0.00000000000E+00 0. -1.
</event>
<event>
 7    1  0.5559916E-010  0.4778727E+02  0.7816164E-02  0.1312668E+00
        -11   -1    0    0    0    0  0.00000000000E+00  0.00000000000E+00  0.45593999997E+02  0.45594000000E+02  0.51100000000E-03 0.  1.
         11   -1    0    0    0    0 -0.00000000000E+00 -0.00000000000E+00 -0.45593999997E+02  0.45594000000E+02  0.51100000000E-03 0. -1.
    9900012    2    1    2    0    0 -0.29880387846E+02 -0.29878098668E+02  0.99037780787E+01  0.47787272148E+02  0.20000005032E+02 0.  0.
         12    1    1    2    0    0  0.29880387846E+02  0.29878098668E+02 -0.99037780787E+01  0.43400727852E+02  0.00000000000E+00 0. -1.
         11    1    3    3    0    0 -0.13415275792E+02 -0.89112164323E+01 -0.81931364826E+00  0.16126086878E+02  0.51100000000E-03 0. -1.
        -11    1    3    3    0    0 -0.59804873278E+01 -0.11981019833E+02  0.11749495029E+02  0.17814648428E+02  0.51100000000E-03 0.  1.
        -12    1    3    3    0    0 -0.10484624726E+02 -0.89858624035E+01 -0.10264033025E+01  0.13846536842E+02  0.00000000000E+00 0.  1.
</event>
<event>
 7    1  0.5559916E-010  0.4778727E+02  0.7816164E-02  0.1312668E+00
        -11   -1    0    0    0    0  0.00000000000E+00  0.00000000000E+00  0.45593999997E+02  0.45594000000E+02  0.51100000000E-03 0.  1.
         11   -1    0    0    0    0 -0.00000000000E+00 -0.00000000000E+00 -0.45593999997E+02  0.45594000000E+02  0.51100000000E-03 0. -1.
    9900012    2    1    2    0    0 -0.12290287836E+02 -0.34928658919E+02  0.22639802674E+02  0.47787273576E+02  0.20000011544E+02 0.  0.
         12    1    1    2    0    0  0.12290287836E+02  0.34928658919E+02 -0.22639802674E+02  0.43400726424E+02  0.00000000000E+00 0. -1.
         11    1    3    3    0    0 -0.33423664683E+01 -0.17333374526E+01  0.21134954350E+01  0.43177234219E+01  0.51100000000E-03 0. -1.
        -11    1    3    3    0    0  0.29679986562E+01 -0.42307690697E+01 -0.12576679191E+01  0.53188487288E+01  0.51100000000E-03 0.  1.
        -12    1    3    3    0    0 -0.11915920024E+02 -0.28964552397E+02  0.21783975158E+02  0.38150701426E+02  0.00000000000E+00 0.  1.
</event>
<event>
 7    1  0.5559916E-010  0.4778727E+02  0.7816164E-02  0.1312668E+00
        -11   -1    0    0    0    0  0.00000000000E+00  0.00000000000E+00  0.45593999997E+02  0.45594000000E+02  0.51100000000E-03 0.  1.
         11   -1    0    0    0    0 -0.00000000000E+00 -0.00000000000E+00 -0.45593999997E+02  0.45594000000E+02  0.51100000000E-03 0. -1.
    9900012    2    1    2    0    0 -0.36625664160E+02  0.17228379264E+02 -0.15664190386E+02  0.47787272038E+02  0.20000004528E+02 0.  0.
         12    1    1    2    0    0  0.36625664160E+02 -0.17228379264E+02  0.15664190386E+02  0.43400727962E+02  0.00000000000E+00 0. -1.
         11    1    3    3    0    0 -0.40406530120E+01 -0.92170440344E+00 -0.25540208940E+01  0.48682069347E+01  0.51100000000E-03 0. -1.
        -11    1    3    3    0    0 -0.53805833420E+01  0.16785015778E+01  0.38992713868E+01  0.68536386143E+01  0.51100000000E-03 0.  1.
        -12    1    3    3    0    0 -0.27204427806E+02  0.16471582090E+02 -0.17009440879E+02  0.36065426489E+02  0.00000000000E+00 0.  1.
</event>
<event>
 7    1  0.5559916E-010  0.4778727E+02  0.7816164E-02  0.1312668E+00
        -11   -1    0    0    0    0  0.00000000000E+00  0.00000000000E+00  0.45593999997E+02  0.45594000000E+02  0.51100000000E-03 0. -1.
         11   -1    0    0    0    0 -0.00000000000E+00 -0.00000000000E+00 -0.45593999997E+02  0.45594000000E+02  0.51100000000E-03 0.  1.
    9900012    2    1    2    0    0 -0.69935944955E+01  0.30956138121E+02 -0.29604576226E+02  0.47787265158E+02  0.19999973162E+02 0.  0.
         12    1    1    2    0    0  0.69935944955E+01 -0.30956138121E+02  0.29604576226E+02  0.43400734842E+02  0.00000000000E+00 0. -1.
         11    1    3    3    0    0 -0.61111997711E+01  0.15823952363E+02 -0.14579119163E+02  0.22367274015E+02  0.51100000000E-03 0. -1.
        -11    1    3    3    0    0 -0.64869193636E+01  0.12503820863E+02 -0.12115699439E+02  0.18579984719E+02  0.51100000000E-03 0.  1.
         12    1    3    3    0    0  0.56045246392E+01  0.26283648945E+01 -0.29097576234E+01  0.68400064237E+01  0.00000000000E+00 0. -1.
</event>
<event>
 7    1  0.5559916E-010  0.4778728E+02  0.7816164E-02  0.1312668E+00
        -11   -1    0    0    0    0  0.00000000000E+00  0.00000000000E+00  0.45593999997E+02  0.45594000000E+02  0.51100000000E-03 0.  1.
         11   -1    0    0    0    0 -0.00000000000E+00 -0.00000000000E+00 -0.45593999997E+02  0.45594000000E+02  0.51100000000E-03 0. -1.
    9900012    2    1    2    0    0  0.35793785556E+02  0.10192386988E+00  0.24544184614E+02  0.47787280291E+02  0.20000042158E+02 0.  0.
         12    1    1    2    0    0 -0.35793785556E+02 -0.10192386988E+00 -0.24544184614E+02  0.43400719709E+02  0.00000000000E+00 0. -1.
         11    1    3    3    0    0  0.22026376828E+02  0.70128314438E+01  0.17287568330E+02  0.28865223021E+02  0.51100000000E-03 0. -1.
        -11    1    3    3    0    0  0.10192855279E+02 -0.57113189477E+01  0.11435633086E+01  0.11739727431E+02  0.51100000000E-03 0.  1.
         12    1    3    3    0    0  0.35745534494E+01 -0.11995886262E+01  0.61130529755E+01  0.71823298390E+01  0.00000000000E+00 0. -1.
</event>
<event>
 7    1  0.5559916E-010  0.4778731E+02  0.7816164E-02  0.1312668E+00
        -11   -1    0    0    0    0  0.00000000000E+00  0.00000000000E+00  0.45593999997E+02  0.45594000000E+02  0.51100000000E-03 0.  1.
         11   -1    0    0    0    0 -0.00000000000E+00 -0.00000000000E+00 -0.45593999997E+02  0.45594000000E+02  0.51100000000E-03 0. -1.
    9900012    2    1    2    0    0 -0.92271647194E+00 -0.30027868076E+02  0.31322452485E+02  0.47787305345E+02  0.20000156389E+02 0.  0.
         12    1    1    2    0    0  0.92271647194E+00  0.30027868076E+02 -0.31322452485E+02  0.43400694655E+02  0.00000000000E+00 0. -1.
         11    1    3    3    0    0  0.45182781623E+01 -0.23645271001E+02  0.14665426995E+02  0.28188444928E+02  0.51100000000E-03 0. -1.
        -11    1    3    3    0    0 -0.59235789761E+01 -0.45048229832E+01  0.88910187077E+01  0.11594500072E+02  0.51100000000E-03 0.  1.
         12    1    3    3    0    0  0.48258434192E+00 -0.18777740914E+01  0.77660067823E+01  0.80043603447E+01  0.00000000000E+00 0. -1.
</event>
<event>
 7    1  0.5559916E-010  0.4778727E+02  0.7816164E-02  0.1312668E+00
        -11   -1    0    0    0    0  0.00000000000E+00  0.00000000000E+00  0.45593999997E+02  0.45594000000E+02  0.51100000000E-03 0.  1.
         11   -1    0    0    0    0 -0.00000000000E+00 -0.00000000000E+00 -0.45593999997E+02  0.45594000000E+02  0.51100000000E-03 0. -1.
    9900012    2    1    2    0    0 -0.25683559477E+02 -0.15406092926E+02  0.31410671712E+02  0.47787271618E+02  0.20000002615E+02 0.  0.
         12    1    1    2    0    0  0.25683559477E+02  0.15406092926E+02 -0.31410671712E+02  0.43400728382E+02  0.00000000000E+00 0. -1.
         11    1    3    3    0    0 -0.14064341834E+02 -0.74128547562E+01  0.19307402283E+02  0.25010635939E+02  0.51100000000E-03 0. -1.
        -11    1    3    3    0    0 -0.13115226226E+02 -0.93998851528E+01  0.12812595520E+02  0.20604116192E+02  0.51100000000E-03 0.  1.
         12    1    3    3    0    0  0.14960085835E+01  0.14066469832E+01 -0.70932609060E+00  0.21725194867E+01  0.00000000000E+00 0. -1.
</event>
<event>
 7    1  0.5559916E-010  0.4778726E+02  0.7816164E-02  0.1312668E+00
        -11   -1    0    0    0    0  0.00000000000E+00  0.00000000000E+00  0.45593999997E+02  0.45594000000E+02  0.51100000000E-03 0.  1.
         11   -1    0    0    0    0 -0.00000000000E+00 -0.00000000000E+00 -0.45593999997E+02  0.45594000000E+02  0.51100000000E-03 0. -1.
    9900012    2    1    2    0    0  0.33688472097E+02 -0.26014117285E+02  0.84838884073E+01  0.47787264835E+02  0.19999971691E+02 0.  0.
         12    1    1    2    0    0 -0.33688472097E+02  0.26014117285E+02 -0.84838884073E+01  0.43400735165E+02  0.00000000000E+00 0. -1.
         11    1    3    3    0    0  0.22758763061E+02 -0.24764854771E+02  0.40299932345E+01  0.33874771935E+02  0.51100000000E-03 0. -1.
        -11    1    3    3    0    0  0.11898524032E+02 -0.12858283432E+01  0.33182529984E+01  0.12419300781E+02  0.51100000000E-03 0.  1.
        -12    1    3    3    0    0 -0.96881499684E+00  0.36565828963E-01  0.11356421744E+01  0.14931921197E+01  0.00000000000E+00 0.  1.
</event>
<event>
 7    1  0.5559916E-010  0.4778727E+02  0.7816164E-02  0.1312668E+00
        -11   -1    0    0    0    0  0.00000000000E+00  0.00000000000E+00  0.45593999997E+02  0.45594000000E+02  0.51100000000E-03 0.  1.
         11   -1    0    0    0    0 -0.00000000000E+00 -0.00000000000E+00 -0.45593999997E+02  0.45594000000E+02  0.51100000000E-03 0. -1.
    9900012    2    1    2    0    0 -0.19796414897E+01  0.27461965346E+02  0.33549140217E+02  0.47787270394E+02  0.19999997032E+02 0.  0.
         12    1    1    2    0    0  0.19796414897E+01 -0.27461965346E+02 -0.33549140217E+02  0.43400729606E+02  0.00000000000E+00 0. -1.
         11    1    3    3    0    0  0.11479387734E+01  0.14943518047E+02  0.57362972200E+01  0.16047791160E+02  0.51100000000E-03 0. -1.
        -11    1    3    3    0    0 -0.49071883207E+01  0.89405853469E+01  0.13747345526E+02  0.17117361737E+02  0.51100000000E-03 0.  1.
         12    1    3    3    0    0  0.17796080576E+01  0.35778619517E+01  0.14065497471E+02  0.14622117497E+02  0.00000000000E+00 0. -1.
</event>
<event>
 7    1  0.5559916E-010  0.4778727E+02  0.7816164E-02  0.1312668E+00
        -11   -1    0    0    0    0  0.00000000000E+00  0.00000000000E+00  0.45593999997E+02  0.45594000000E+02  0.51100000000E-03 0.  1.
         11   -1    0    0    0    0 -0.00000000000E+00 -0.00000000000E+00 -0.45593999997E+02  0.45594000000E+02  0.51100000000E-03 0. -1.
    9900012    2    1    2    0    0 -0.72248777002E+01  0.28281994114E+01  0.42701588988E+02  0.47787271068E+02  0.20000000108E+02 0.  0.
         12    1    1    2    0    0  0.72248777002E+01 -0.28281994114E+01 -0.42701588988E+02  0.43400728932E+02  0.00000000000E+00 0. -1.
         11    1    3    3    0    0 -0.34600106655E+01 -0.71611226008E+01  0.12248356323E+02  0.14603957805E+02  0.51100000000E-03 0. -1.
        -11    1    3    3    0    0 -0.76166341634E-02  0.40386683190E+01  0.21073401772E+02  0.21456914091E+02  0.51100000000E-03 0.  1.
         12    1    3    3    0    0 -0.37572504005E+01  0.59506536932E+01  0.93798308937E+01  0.11726399172E+02  0.00000000000E+00 0. -1.
</event>
<event>
 7    1  0.5559916E-010  0.4778727E+02  0.7816164E-02  0.1312668E+00
        -11   -1    0    0    0    0  0.00000000000E+00  0.00000000000E+00  0.45593999997E+02  0.45594000000E+02  0.51100000000E-03 0. -1.
         11   -1    0    0    0    0 -0.00000000000E+00 -0.00000000000E+00 -0.45593999997E+02  0.45594000000E+02  0.51100000000E-03 0.  1.
    9900012    2    1    2    0    0 -0.11269807811E+02  0.15747132714E+02 -0.38841249870E+02  0.47787269035E+02  0.19999990839E+02 0.  0.
         12    1    1    2    0    0  0.11269807811E+02 -0.15747132714E+02  0.38841249870E+02  0.43400730965E+02  0.00000000000E+00 0. -1.
         11    1    3    3    0    0 -0.23835283775E+01 -0.77204818206E+00 -0.81115850350E+00  0.26334852004E+01  0.51100000000E-03 0. -1.
        -11    1    3    3    0    0  0.36781317735E+01  0.74043639040E+01 -0.89097023928E+01  0.12154672153E+02  0.51100000000E-03 0.  1.
        -12    1    3    3    0    0 -0.12564411207E+02  0.91148169920E+01 -0.29120388974E+02  0.32999111681E+02  0.00000000000E+00 0.  1.
</event>
<event>
 7    1  0.5559916E-010  0.4778728E+02  0.7816164E-02  0.1312668E+00
        -11   -1    0    0    0    0  0.00000000000E+00  0.00000000000E+00  0.45593999997E+02  0.45594000000E+02  0.51100000000E-03 0.  1.
         11   -1    0    0    0    0 -0.00000000000E+00 -0.00000000000E+00 -0.45593999997E+02  0.45594000000E+02  0.51100000000E-03 0. -1.
    9900012    2    1    2    0    0  0.13808660629E+02 -0.38904161105E+02  0.13394403596E+02  0.47787275268E+02  0.20000019255E+02 0.  0.
         12    1    1    2    0    0 -0.13808660629E+02  0.38904161105E+02 -0.13394403596E+02  0.43400724732E+02  0.00000000000E+00 0. -1.
         11    1    3    3    0    0  0.31412493363E+00 -0.22181856707E+01  0.23121631194E+01  0.32194907510E+01  0.51100000000E-03 0. -1.
        -11    1    3    3    0    0  0.40119376798E+01 -0.20095204603E+02 -0.31609742810E+01  0.20734142149E+02  0.51100000000E-03 0.  1.
        -12    1    3    3    0    0  0.94825980154E+01 -0.16590770830E+02  0.14243214757E+02  0.23833642367E+02  0.00000000000E+00 0.  1.
</event>
<event>
 7    1  0.5559916E-010  0.4778727E+02  0.7816164E-02  0.1312668E+00
        -11   -1    0    0    0    0  0.00000000000E+00  0.00000000000E+00  0.45593999997E+02  0.45594000000E+02  0.51100000000E-03 0.  1.
         11   -1    0    0    0    0 -0.00000000000E+00 -0.00000000000E+00 -0.45593999997E+02  0.45594000000E+02  0.51100000000E-03 0. -1.
    9900012    2    1    2    0    0 -0.22866535904E+02 -0.32230893434E+02  0.17941966361E+02  0.47787272901E+02  0.20000008466E+02 0.  0.
         12    1    1    2    0    0  0.22866535904E+02  0.32230893434E+02 -0.17941966361E+02  0.43400727099E+02  0.00000000000E+00 0. -1.
         11    1    3    3    0    0 -0.24336844103E+02 -0.22927713137E+02  0.11649788055E+02  0.35407337835E+02  0.51100000000E-03 0. -1.
        -11    1    3    3    0    0  0.12188411344E+01 -0.70860022110E+01  0.70041750835E+01  0.10037702422E+02  0.51100000000E-03 0.  1.
         12    1    3    3    0    0  0.25146706478E+00 -0.22171780858E+01 -0.71199677749E+00  0.23422326443E+01  0.00000000000E+00 0. -1.
</event>
<event>
 7    1  0.5559916E-010  0.4778727E+02  0.7816164E-02  0.1312668E+00
        -11   -1    0    0    0    0  0.00000000000E+00  0.00000000000E+00  0.45593999997E+02  0.45594000000E+02  0.51100000000E-03 0.  1.
         11   -1    0    0    0    0 -0.00000000000E+00 -0.00000000000E+00 -0.45593999997E+02  0.45594000000E+02  0.51100000000E-03 0. -1.
    9900012    2    1    2    0    0  0.65903361567E+01  0.42720315949E+01  0.42684192216E+02  0.47787273627E+02  0.20000011774E+02 0.  0.
         12    1    1    2    0    0 -0.65903361567E+01 -0.42720315949E+01 -0.42684192216E+02  0.43400726373E+02  0.00000000000E+00 0. -1.
         11    1    3    3    0    0 -0.38436332691E+01  0.50341519682E+01  0.76706786430E+01  0.99476386068E+01  0.51100000000E-03 0. -1.
        -11    1    3    3    0    0  0.58431905373E+01 -0.49782131634E+01  0.14589948818E+02  0.16486118061E+02  0.51100000000E-03 0.  1.
        -12    1    3    3    0    0  0.45907788885E+01  0.42160927900E+01  0.20423564755E+02  0.21353516959E+02  0.00000000000E+00 0.  1.
</event>
<event>
 7    1  0.5559916E-010  0.4778728E+02  0.7816164E-02  0.1312668E+00
        -11   -1    0    0    0    0  0.00000000000E+00  0.00000000000E+00  0.45593999997E+02  0.45594000000E+02  0.51100000000E-03 0. -1.
         11   -1    0    0    0    0 -0.00000000000E+00 -0.00000000000E+00 -0.45593999997E+02  0.45594000000E+02  0.51100000000E-03 0.  1.
    9900012    2    1    2    0    0 -0.32332639712E+02 -0.20433614263E+02  0.20510736609E+02  0.47787279973E+02  0.20000040709E+02 0.  0.
         12    1    1    2    0    0  0.32332639712E+02  0.20433614263E+02 -0.20510736609E+02  0.43400720027E+02  0.00000000000E+00 0. -1.
         11    1    3    3    0    0 -0.13170182773E+01  0.11323812907E+01 -0.10260151857E+01  0.20173080957E+01  0.51100000000E-03 0. -1.
        -11    1    3    3    0    0 -0.20744634901E+02 -0.21318436021E+02  0.18608229021E+02  0.35086774989E+02  0.51100000000E-03 0.  1.
        -12    1    3    3    0    0 -0.10270986535E+02 -0.24755953177E+00  0.29285227736E+01  0.10683196888E+02  0.00000000000E+00 0.  1.
</event>
<event>
 7    1  0.5559916E-010  0.4778727E+02  0.7816164E-02  0.1312668E+00
        -11   -1    0    0    0    0  0.00000000000E+00  0.00000000000E+00  0.45593999997E+02  0.45594000000E+02  0.51100000000E-03 0.  1.
         11   -1    0    0    0    0 -0.00000000000E+00 -0.00000000000E+00 -0.45593999997E+02  0.45594000000E+02  0.51100000000E-03 0. -1.
    9900012    2    1    2    0    0  0.18400662510E+02 -0.80466595079E+01  0.38474539177E+02  0.47787271032E+02  0.19999999942E+02 0.  0.
         12    1    1    2    0    0 -0.18400662510E+02  0.80466595079E+01 -0.38474539177E+02  0.43400728968E+02  0.00000000000E+00 0. -1.
         11    1    3    3    0    0  0.29989586049E+01  0.65135568062E+00  0.48782009957E+01  0.57632336541E+01  0.51100000000E-03 0. -1.
        -11    1    3    3    0    0  0.73269261471E+01 -0.34471203320E+01  0.31011648856E+02  0.32051347091E+02  0.51100000000E-03 0.  1.
        -12    1    3    3    0    0  0.80747777584E+01 -0.52508948565E+01  0.25846893262E+01  0.99726902867E+01  0.00000000000E+00 0.  1.
</event>
<event>
 7    1  0.5559916E-010  0.4778726E+02  0.7816164E-02  0.1312668E+00
        -11   -1    0    0    0    0  0.00000000000E+00  0.00000000000E+00  0.45593999997E+02  0.45594000000E+02  0.51100000000E-03 0. -1.
         11   -1    0    0    0    0 -0.00000000000E+00 -0.00000000000E+00 -0.45593999997E+02  0.45594000000E+02  0.51100000000E-03 0.  1.
    9900012    2    1    2    0    0 -0.10238343983E+02  0.11769136829E+02 -0.40500472708E+02  0.47787256241E+02  0.19999932507E+02 0.  0.
         12    1    1    2    0    0  0.10238343983E+02 -0.11769136829E+02  0.40500472708E+02  0.43400743759E+02  0.00000000000E+00 0. -1.
         11    1    3    3    0    0 -0.15241361102E+02  0.46686330303E+01 -0.25805837081E+02  0.30332102636E+02  0.51100000000E-03 0. -1.
        -11    1    3    3    0    0  0.19604731230E+01  0.41350109796E+01 -0.10639349742E+02  0.11581775938E+02  0.51100000000E-03 0.  1.
         12    1    3    3    0    0  0.30425439953E+01  0.29654928190E+01 -0.40552858842E+01  0.58733776675E+01  0.00000000000E+00 0. -1.
</event>
<event>
 7    1  0.5559916E-010  0.4778727E+02  0.7816164E-02  0.1312668E+00
        -11   -1    0    0    0    0  0.00000000000E+00  0.00000000000E+00  0.45593999997E+02  0.45594000000E+02  0.51100000000E-03 0.  1.
         11   -1    0    0    0    0 -0.00000000000E+00 -0.00000000000E+00 -0.45593999997E+02  0.45594000000E+02  0.51100000000E-03 0. -1.
    9900012    2    1    2    0    0  0.22459057193E+01 -0.41466237173E+02  0.12614697283E+02  0.47787268378E+02  0.19999987841E+02 0.  0.
         12    1    1    2    0    0 -0.22459057193E+01  0.41466237173E+02 -0.12614697283E+02  0.43400731622E+02  0.00000000000E+00 0. -1.
         11    1    3    3    0    0  0.10400640680E+01 -0.15605288847E+01  0.70890885175E+01  0.73329502886E+01  0.51100000000E-03 0. -1.
        -11    1    3    3    0    0  0.13276245085E+01 -0.16814423618E+02  0.38594411919E+01  0.17302679417E+02  0.51100000000E-03 0.  1.
         12    1    3    3    0    0 -0.12178285714E+00 -0.23091284671E+02  0.16661675732E+01  0.23151638672E+02  0.00000000000E+00 0. -1.
</event>
<event>
 7    1  0.5559916E-010  0.4778727E+02  0.7816164E-02  0.1312668E+00
        -11   -1    0    0    0    0  0.00000000000E+00  0.00000000000E+00  0.45593999997E+02  0.45594000000E+02  0.51100000000E-03 0.  1.
         11   -1    0    0    0    0 -0.00000000000E+00 -0.00000000000E+00 -0.45593999997E+02  0.45594000000E+02  0.51100000000E-03 0. -1.
    9900012    2    1    2    0    0 -0.25511564118E+02  0.19111160591E+02  0.29454146075E+02  0.47787273233E+02  0.20000009980E+02 0.  0.
         12    1    1    2    0    0  0.25511564118E+02 -0.19111160591E+02 -0.29454146075E+02  0.43400726767E+02  0.00000000000E+00 0. -1.
         11    1    3    3    0    0 -0.71008277956E+01  0.52240599932E+01  0.19292564409E+02  0.21211214014E+02  0.51100000000E-03 0.  1.
        -11    1    3    3    0    0 -0.17338468195E+02  0.90090747785E+01  0.76258436471E+01  0.20974732401E+02  0.51100000000E-03 0. -1.
         12    1    3    3    0    0 -0.10722681279E+01  0.48780258192E+01  0.25357380181E+01  0.56013268184E+01  0.00000000000E+00 0. -1.
</event>
<event>
 7    1  0.5559916E-010  0.4778727E+02  0.7816164E-02  0.1312668E+00
        -11   -1    0    0    0    0  0.00000000000E+00  0.00000000000E+00  0.45593999997E+02  0.45594000000E+02  0.51100000000E-03 0.  1.
         11   -1    0    0    0    0 -0.00000000000E+00 -0.00000000000E+00 -0.45593999997E+02  0.45594000000E+02  0.51100000000E-03 0. -1.
    9900012    2    1    2    0    0 -0.94715197875E+01  0.56318825535E+01  0.41978512626E+02  0.47787270623E+02  0.19999998078E+02 0.  0.
         12    1    1    2    0    0  0.94715197875E+01 -0.56318825535E+01 -0.41978512626E+02  0.43400729377E+02  0.00000000000E+00 0. -1.
         11    1    3    3    0    0 -0.72087131216E+01  0.23265615242E+00  0.27873049565E+01  0.77323180830E+01  0.51100000000E-03 0. -1.
        -11    1    3    3    0    0 -0.17929165047E+01 -0.58277742606E-01  0.33733577236E+01  0.38206659734E+01  0.51100000000E-03 0.  1.
         12    1    3    3    0    0 -0.46989016114E+00  0.54575041437E+01  0.35817849946E+02  0.36234286566E+02  0.00000000000E+00 0. -1.
</event>
<event>
 7    1  0.5559916E-010  0.4778727E+02  0.7816164E-02  0.1312668E+00
        -11   -1    0    0    0    0  0.00000000000E+00  0.00000000000E+00  0.45593999997E+02  0.45594000000E+02  0.51100000000E-03 0.  1.
         11   -1    0    0    0    0 -0.00000000000E+00 -0.00000000000E+00 -0.45593999997E+02  0.45594000000E+02  0.51100000000E-03 0. -1.
    9900012    2    1    2    0    0 -0.29824692940E+02 -0.17103621492E+02  0.26487309478E+02  0.47787265669E+02  0.19999975491E+02 0.  0.
         12    1    1    2    0    0  0.29824692940E+02  0.17103621492E+02 -0.26487309478E+02  0.43400734331E+02  0.00000000000E+00 0. -1.
         11    1    3    3    0    0  0.20123444863E+01 -0.53456677828E+01  0.33689663322E+01  0.66314122767E+01  0.51100000000E-03 0. -1.
        -11    1    3    3    0    0 -0.12515866092E+02 -0.56646792065E+01  0.10463041980E+02  0.17268779409E+02  0.51100000000E-03 0.  1.
         12    1    3    3    0    0 -0.19321171333E+02 -0.60932745025E+01  0.12655301166E+02  0.23887073983E+02  0.00000000000E+00 0. -1.
</event>
<event>
 7    1  0.5559916E-010  0.4778726E+02  0.7816164E-02  0.1312668E+00
        -11   -1    0    0    0    0  0.00000000000E+00  0.00000000000E+00  0.45593999997E+02  0.45594000000E+02  0.51100000000E-03 0. -1.
         11   -1    0    0    0    0 -0.00000000000E+00 -0.00000000000E+00 -0.45593999997E+02  0.45594000000E+02  0.51100000000E-03 0.  1.
    9900012    2    1    2    0    0 -0.19648526048E+02 -0.38458410010E+02  0.43023498903E+01  0.47787261631E+02  0.19999957082E+02 0.  0.
         12    1    1    2    0    0  0.19648526048E+02  0.38458410010E+02 -0.43023498903E+01  0.43400738369E+02  0.00000000000E+00 0. -1.
         11    1    3    3    0    0 -0.10289795276E+02 -0.30267426781E+02 -0.24102713817E+01  0.32059420131E+02  0.51100000000E-03 0.  1.
        -11    1    3    3    0    0 -0.53428366162E+01 -0.52986667149E+01  0.76055690603E+01  0.10698899619E+02  0.51100000000E-03 0. -1.
         12    1    3    3    0    0 -0.40158941560E+01 -0.28923165140E+01 -0.89294778831E+00  0.50289418809E+01  0.00000000000E+00 0. -1.
</event>
<event>
 7    1  0.5559916E-010  0.4778727E+02  0.7816164E-02  0.1312668E+00
        -11   -1    0    0    0    0  0.00000000000E+00  0.00000000000E+00  0.45593999997E+02  0.45594000000E+02  0.51100000000E-03 0.  1.
         11   -1    0    0    0    0 -0.00000000000E+00 -0.00000000000E+00 -0.45593999997E+02  0.45594000000E+02  0.51100000000E-03 0. -1.
    9900012    2    1    2    0    0 -0.19951055884E+02  0.97020205353E+01  0.37302139680E+02  0.47787268922E+02  0.19999990323E+02 0.  0.
         12    1    1    2    0    0  0.19951055884E+02 -0.97020205353E+01 -0.37302139680E+02  0.43400731078E+02  0.00000000000E+00 0. -1.
         11    1    3    3    0    0 -0.13119871955E+02  0.81696959248E+01  0.10282047185E+02  0.18563282743E+02  0.51100000000E-03 0. -1.
        -11    1    3    3    0    0 -0.75187470704E+01  0.32240282172E+01  0.15181645004E+02  0.17245528717E+02  0.51100000000E-03 0.  1.
         12    1    3    3    0    0  0.68756314055E+00 -0.16917036067E+01  0.11838447491E+02  0.11978457462E+02  0.00000000000E+00 0. -1.
</event>
<event>
 7    1  0.5559916E-010  0.4778727E+02  0.7816164E-02  0.1312668E+00
        -11   -1    0    0    0    0  0.00000000000E+00  0.00000000000E+00  0.45593999997E+02  0.45594000000E+02  0.51100000000E-03 0.  1.
         11   -1    0    0    0    0 -0.00000000000E+00 -0.00000000000E+00 -0.45593999997E+02  0.45594000000E+02  0.51100000000E-03 0. -1.
    9900012    2    1    2    0    0  0.10972216519E+02  0.36935891443E+02  0.19974329672E+02  0.47787268924E+02  0.19999990333E+02 0.  0.
         12    1    1    2    0    0 -0.10972216519E+02 -0.36935891443E+02 -0.19974329672E+02  0.43400731076E+02  0.00000000000E+00 0. -1.
         11    1    3    3    0    0  0.63124244746E+01  0.43956591571E+01  0.38294732335E+01  0.85926356655E+01  0.51100000000E-03 0. -1.
        -11    1    3    3    0    0 -0.35388243418E+01  0.14348025135E+02  0.24172732191E+01  0.14974388571E+02  0.51100000000E-03 0.  1.
        -12    1    3    3    0    0  0.81986163860E+01  0.18192207151E+02  0.13727583220E+02  0.24220244688E+02  0.00000000000E+00 0.  1.
</event>
<event>
 7    1  0.5559916E-010  0.4778727E+02  0.7816164E-02  0.1312668E+00
        -11   -1    0    0    0    0  0.00000000000E+00  0.00000000000E+00  0.45593999997E+02  0.45594000000E+02  0.51100000000E-03 0. -1.
         11   -1    0    0    0    0 -0.00000000000E+00 -0.00000000000E+00 -0.45593999997E+02  0.45594000000E+02  0.51100000000E-03 0.  1.
    9900012    2    1    2    0    0  0.17031617096E+02  0.31266254578E+02 -0.24818717250E+02  0.47787269797E+02  0.19999994311E+02 0.  0.
         12    1    1    2    0    0 -0.17031617096E+02 -0.31266254578E+02  0.24818717250E+02  0.43400730203E+02  0.00000000000E+00 0. -1.
         11    1    3    3    0    0  0.10609970513E+02  0.10010539344E+02 -0.10752662690E+02  0.18121868762E+02  0.51100000000E-03 0. -1.
        -11    1    3    3    0    0  0.17451597615E+01  0.18589504860E+02 -0.15303913719E+02  0.24141769797E+02  0.51100000000E-03 0.  1.
        -12    1    3    3    0    0  0.46764868221E+01  0.26662103741E+01  0.12378591590E+01  0.55236312380E+01  0.00000000000E+00 0.  1.
</event>
<event>
 7    1  0.5559916E-010  0.4778727E+02  0.7816164E-02  0.1312668E+00
        -11   -1    0    0    0    0  0.00000000000E+00  0.00000000000E+00  0.45593999997E+02  0.45594000000E+02  0.51100000000E-03 0. -1.
         11   -1    0    0    0    0 -0.00000000000E+00 -0.00000000000E+00 -0.45593999997E+02  0.45594000000E+02  0.51100000000E-03 0.  1.
    9900012    2    1    2    0    0  0.38996990187E+02 -0.18730792429E+02 -0.34663241937E+01  0.47787271526E+02  0.20000002194E+02 0.  0.
         12    1    1    2    0    0 -0.38996990187E+02  0.18730792429E+02  0.34663241937E+01  0.43400728474E+02  0.00000000000E+00 0. -1.
         11    1    3    3    0    0  0.16499468547E+02 -0.67241084461E+01  0.63471037802E+01  0.18913799814E+02  0.51100000000E-03 0. -1.
        -11    1    3    3    0    0  0.19816045490E+02 -0.12239193728E+02 -0.57346243495E+01  0.23986651260E+02  0.51100000000E-03 0.  1.
         12    1    3    3    0    0  0.26814761498E+01  0.23250974465E+00 -0.40788036244E+01  0.48868204520E+01  0.00000000000E+00 0. -1.
</event>
<event>
 7    1  0.5559916E-010  0.4778727E+02  0.7816164E-02  0.1312668E+00
        -11   -1    0    0    0    0  0.00000000000E+00  0.00000000000E+00  0.45593999997E+02  0.45594000000E+02  0.51100000000E-03 0.  1.
         11   -1    0    0    0    0 -0.00000000000E+00 -0.00000000000E+00 -0.45593999997E+02  0.45594000000E+02  0.51100000000E-03 0. -1.
    9900012    2    1    2    0    0 -0.14319196318E+02  0.27474492318E+02  0.30393029642E+02  0.47787270028E+02  0.19999995365E+02 0.  0.
         12    1    1    2    0    0  0.14319196318E+02 -0.27474492318E+02 -0.30393029642E+02  0.43400729972E+02  0.00000000000E+00 0. -1.
         11    1    3    3    0    0 -0.11670561813E+01  0.20424775117E+02  0.21883690084E+02  0.29957125207E+02  0.51100000000E-03 0.  1.
        -11    1    3    3    0    0 -0.64171525140E+01  0.28870231075E+01  0.13694032798E+01  0.71686828926E+01  0.51100000000E-03 0. -1.
         12    1    3    3    0    0 -0.67349876226E+01  0.41626940931E+01  0.71399362779E+01  0.10661461928E+02  0.00000000000E+00 0. -1.
</event>
<event>
 7    1  0.5559916E-010  0.4778727E+02  0.7816164E-02  0.1312668E+00
        -11   -1    0    0    0    0  0.00000000000E+00  0.00000000000E+00  0.45593999997E+02  0.45594000000E+02  0.51100000000E-03 0.  1.
         11   -1    0    0    0    0 -0.00000000000E+00 -0.00000000000E+00 -0.45593999997E+02  0.45594000000E+02  0.51100000000E-03 0. -1.
    9900012    2    1    2    0    0 -0.33717199812E+02  0.23212973096E+02  0.14419843631E+02  0.47787267593E+02  0.19999984263E+02 0.  0.
         12    1    1    2    0    0  0.33717199812E+02 -0.23212973096E+02 -0.14419843631E+02  0.43400732407E+02  0.00000000000E+00 0. -1.
         11    1    3    3    0    0 -0.70004292485E+01  0.61859728802E+01 -0.36113051133E+01  0.10015677462E+02  0.51100000000E-03 0. -1.
        -11    1    3    3    0    0 -0.27401455210E+02  0.16689045417E+02  0.18331112460E+02  0.36951233658E+02  0.51100000000E-03 0.  1.
        -12    1    3    3    0    0  0.68468464686E+00  0.33795479850E+00 -0.29996371587E+00  0.82035647271E+00  0.00000000000E+00 0.  1.
</event>
<event>
 7    1  0.5559916E-010  0.4778727E+02  0.7816164E-02  0.1312668E+00
        -11   -1    0    0    0    0  0.00000000000E+00  0.00000000000E+00  0.45593999997E+02  0.45594000000E+02  0.51100000000E-03 0.  1.
         11   -1    0    0    0    0 -0.00000000000E+00 -0.00000000000E+00 -0.45593999997E+02  0.45594000000E+02  0.51100000000E-03 0. -1.
    9900012    2    1    2    0    0  0.91410952439E+01  0.42396142023E+02  0.16220881801E+01  0.47787266703E+02  0.19999980204E+02 0.  0.
         12    1    1    2    0    0 -0.91410952439E+01 -0.42396142023E+02 -0.16220881801E+01  0.43400733297E+02  0.00000000000E+00 0. -1.
         11    1    3    3    0    0  0.21807470787E+01  0.71456287436E+01 -0.41875455910E+01  0.85645318787E+01  0.51100000000E-03 0. -1.
        -11    1    3    3    0    0 -0.32258499901E+01  0.20896132533E+02  0.41112026390E+01  0.21539648335E+02  0.51100000000E-03 0.  1.
        -12    1    3    3    0    0  0.10186198155E+02  0.14354380747E+02  0.16984311320E+01  0.17683086489E+02  0.00000000000E+00 0.  1.
</event>
<event>
 7    1  0.5559916E-010  0.4778727E+02  0.7816164E-02  0.1312668E+00
        -11   -1    0    0    0    0  0.00000000000E+00  0.00000000000E+00  0.45593999997E+02  0.45594000000E+02  0.51100000000E-03 0. -1.
         11   -1    0    0    0    0 -0.00000000000E+00 -0.00000000000E+00 -0.45593999997E+02  0.45594000000E+02  0.51100000000E-03 0.  1.
    9900012    2    1    2    0    0  0.14688832581E+02  0.30798297403E+02 -0.26820262692E+02  0.47787269403E+02  0.19999992516E+02 0.  0.
         12    1    1    2    0    0 -0.14688832581E+02 -0.30798297403E+02  0.26820262692E+02  0.43400730597E+02  0.00000000000E+00 0. -1.
         11    1    3    3    0    0 -0.41657521092E+01  0.45794713978E+01 -0.26792589093E+01  0.67456265449E+01  0.51100000000E-03 0. -1.
        -11    1    3    3    0    0  0.77380560319E+01  0.15814342279E+02 -0.99251712830E+01  0.20210887119E+02  0.51100000000E-03 0.  1.
         12    1    3    3    0    0  0.11116528658E+02  0.10404483726E+02 -0.14215832500E+02  0.20830755739E+02  0.00000000000E+00 0. -1.
</event>
<event>
 7    1  0.5559916E-010  0.4778727E+02  0.7816164E-02  0.1312668E+00
        -11   -1    0    0    0    0  0.00000000000E+00  0.00000000000E+00  0.45593999997E+02  0.45594000000E+02  0.51100000000E-03 0. -1.
         11   -1    0    0    0    0 -0.00000000000E+00 -0.00000000000E+00 -0.45593999997E+02  0.45594000000E+02  0.51100000000E-03 0.  1.
    9900012    2    1    2    0    0 -0.15154417475E+02 -0.89820393923E+01 -0.39664716912E+02  0.47787272260E+02  0.20000005542E+02 0.  0.
         12    1    1    2    0    0  0.15154417475E+02  0.89820393923E+01  0.39664716912E+02  0.43400727740E+02  0.00000000000E+00 0. -1.
         11    1    3    3    0    0 -0.55336043563E+01 -0.36681862552E+01 -0.13637927714E+00  0.66404041400E+01  0.51100000000E-03 0. -1.
        -11    1    3    3    0    0 -0.58936501145E+01 -0.43362274704E+01 -0.29753061752E+02  0.30639560445E+02  0.51100000000E-03 0.  1.
         12    1    3    3    0    0 -0.37271630043E+01 -0.97762566666E+00 -0.97752758823E+01  0.10507307675E+02  0.00000000000E+00 0. -1.
</event>
<event>
 7    1  0.5559916E-010  0.4778727E+02  0.7816164E-02  0.1312668E+00
        -11   -1    0    0    0    0  0.00000000000E+00  0.00000000000E+00  0.45593999997E+02  0.45594000000E+02  0.51100000000E-03 0.  1.
         11   -1    0    0    0    0 -0.00000000000E+00 -0.00000000000E+00 -0.45593999997E+02  0.45594000000E+02  0.51100000000E-03 0. -1.
    9900012    2    1    2    0    0 -0.15823498887E+02 -0.34365684604E+02  0.21265932632E+02  0.47787270904E+02  0.19999999361E+02 0.  0.
         12    1    1    2    0    0  0.15823498887E+02  0.34365684604E+02 -0.21265932632E+02  0.43400729096E+02  0.00000000000E+00 0. -1.
         11    1    3    3    0    0 -0.21385661184E+01 -0.98170198392E+01 -0.14328213742E+01  0.10148907376E+02  0.51100000000E-03 0. -1.
        -11    1    3    3    0    0 -0.15241242680E+02 -0.21090625346E+02  0.21187426935E+02  0.33556177022E+02  0.51100000000E-03 0.  1.
        -12    1    3    3    0    0  0.15563099119E+01 -0.34580394183E+01  0.15113270715E+01  0.40821865070E+01  0.00000000000E+00 0.  1.
</event>
<event>
 7    1  0.5559916E-010  0.4778727E+02  0.7816164E-02  0.1312668E+00
        -11   -1    0    0    0    0  0.00000000000E+00  0.00000000000E+00  0.45593999997E+02  0.45594000000E+02  0.51100000000E-03 0.  1.
         11   -1    0    0    0    0 -0.00000000000E+00 -0.00000000000E+00 -0.45593999997E+02  0.45594000000E+02  0.51100000000E-03 0. -1.
    9900012    2    1    2    0    0 -0.13649855286E+02 -0.36416160423E+02  0.19265718909E+02  0.47787271730E+02  0.20000003127E+02 0.  0.
         12    1    1    2    0    0  0.13649855286E+02  0.36416160423E+02 -0.19265718909E+02  0.43400728270E+02  0.00000000000E+00 0. -1.
         11    1    3    3    0    0 -0.14581180923E+02 -0.22137218227E+02  0.16990397139E+02  0.31485565949E+02  0.51100000000E-03 0.  1.
        -11    1    3    3    0    0  0.41602979927E+01 -0.65111366572E+01  0.12506738114E+01  0.78273344888E+01  0.51100000000E-03 0. -1.
        -12    1    3    3    0    0 -0.32289723556E+01 -0.77678055387E+01  0.10246479584E+01  0.84743712923E+01  0.00000000000E+00 0.  1.
</event>
<event>
 7    1  0.5559916E-010  0.4778727E+02  0.7816164E-02  0.1312668E+00
        -11   -1    0    0    0    0  0.00000000000E+00  0.00000000000E+00  0.45593999997E+02  0.45594000000E+02  0.51100000000E-03 0.  1.
         11   -1    0    0    0    0 -0.00000000000E+00 -0.00000000000E+00 -0.45593999997E+02  0.45594000000E+02  0.51100000000E-03 0. -1.
    9900012    2    1    2    0    0 -0.65230520198E+01 -0.25188638484E+02  0.34736232008E+02  0.47787268089E+02  0.19999986525E+02 0.  0.
         12    1    1    2    0    0  0.65230520198E+01  0.25188638484E+02 -0.34736232008E+02  0.43400731911E+02  0.00000000000E+00 0. -1.
         11    1    3    3    0    0 -0.34435788677E+01 -0.23917091356E+01  0.60311470049E+01  0.73452870919E+01  0.51100000000E-03 0. -1.
        -11    1    3    3    0    0 -0.16459533880E+00 -0.42550079559E+01  0.18687247773E+02  0.19166257171E+02  0.51100000000E-03 0.  1.
        -12    1    3    3    0    0 -0.29148778133E+01 -0.18541921392E+02  0.10017837229E+02  0.21275723826E+02  0.00000000000E+00 0.  1.
</event>
<event>
 7    1  0.5559916E-010  0.4778727E+02  0.7816164E-02  0.1312668E+00
        -11   -1    0    0    0    0  0.00000000000E+00  0.00000000000E+00  0.45593999997E+02  0.45594000000E+02  0.51100000000E-03 0. -1.
         11   -1    0    0    0    0 -0.00000000000E+00 -0.00000000000E+00 -0.45593999997E+02  0.45594000000E+02  0.51100000000E-03 0.  1.
    9900012    2    1    2    0    0 -0.21993265969E+02  0.10930541711E+02 -0.35783276829E+02  0.47787269699E+02  0.19999993865E+02 0.  0.
         12    1    1    2    0    0  0.21993265969E+02 -0.10930541711E+02  0.35783276829E+02  0.43400730301E+02  0.00000000000E+00 0. -1.
         11    1    3    3    0    0 -0.91126291423E+01  0.22864046203E+01 -0.22182807603E+02  0.24090342658E+02  0.51100000000E-03 0. -1.
        -11    1    3    3    0    0 -0.11281298193E+02  0.14883276746E+01 -0.11238987421E+02  0.15993675209E+02  0.51100000000E-03 0.  1.
         12    1    3    3    0    0 -0.15993386340E+01  0.71558094166E+01 -0.23614818046E+01  0.77032518320E+01  0.00000000000E+00 0. -1.
</event>
<event>
 7    1  0.5559916E-010  0.4778727E+02  0.7816164E-02  0.1312668E+00
        -11   -1    0    0    0    0  0.00000000000E+00  0.00000000000E+00  0.45593999997E+02  0.45594000000E+02  0.51100000000E-03 0.  1.
         11   -1    0    0    0    0 -0.00000000000E+00 -0.00000000000E+00 -0.45593999997E+02  0.45594000000E+02  0.51100000000E-03 0. -1.
    9900012    2    1    2    0    0  0.31472071172E+02 -0.28044868571E+02  0.10325569152E+02  0.47787270798E+02  0.19999998876E+02 0.  0.
         12    1    1    2    0    0 -0.31472071172E+02  0.28044868571E+02 -0.10325569152E+02  0.43400729202E+02  0.00000000000E+00 0. -1.
         11    1    3    3    0    0  0.23441698852E+02 -0.23140644806E+02  0.16648986190E+01  0.32981427725E+02  0.51100000000E-03 0. -1.
        -11    1    3    3    0    0  0.93637824152E+01 -0.33285859090E+01  0.69821487447E+01  0.12145382111E+02  0.51100000000E-03 0.  1.
        -12    1    3    3    0    0 -0.13334100958E+01 -0.15756378559E+01  0.16785217878E+01  0.26604609617E+01  0.00000000000E+00 0.  1.
</event>
<event>
 7    1  0.5559916E-010  0.4778727E+02  0.7816164E-02  0.1312668E+00
        -11   -1    0    0    0    0  0.00000000000E+00  0.00000000000E+00  0.45593999997E+02  0.45594000000E+02  0.51100000000E-03 0.  1.
         11   -1    0    0    0    0 -0.00000000000E+00 -0.00000000000E+00 -0.45593999997E+02  0.45594000000E+02  0.51100000000E-03 0. -1.
    9900012    2    1    2    0    0  0.93501302586E+01 -0.15308532165E+02  0.39520213475E+02  0.47787269983E+02  0.19999995160E+02 0.  0.
         12    1    1    2    0    0 -0.93501302586E+01  0.15308532165E+02 -0.39520213475E+02  0.43400730017E+02  0.00000000000E+00 0. -1.
         11    1    3    3    0    0 -0.57224853518E+01 -0.37789773904E+01  0.80950160485E+01  0.10609278666E+02  0.51100000000E-03 0. -1.
        -11    1    3    3    0    0  0.99744594462E+01 -0.81887037410E+01  0.25962487692E+02  0.28993024638E+02  0.51100000000E-03 0.  1.
         12    1    3    3    0    0  0.50981561642E+01 -0.33408510336E+01  0.54627097343E+01  0.81849666795E+01  0.00000000000E+00 0. -1.
</event>
<event>
 7    1  0.5559916E-010  0.4778727E+02  0.7816164E-02  0.1312668E+00
        -11   -1    0    0    0    0  0.00000000000E+00  0.00000000000E+00  0.45593999997E+02  0.45594000000E+02  0.51100000000E-03 0.  1.
         11   -1    0    0    0    0 -0.00000000000E+00 -0.00000000000E+00 -0.45593999997E+02  0.45594000000E+02  0.51100000000E-03 0. -1.
    9900012    2    1    2    0    0 -0.29138747619E+02 -0.30955234316E+02  0.87366972525E+01  0.47787273932E+02  0.20000013166E+02 0.  0.
         12    1    1    2    0    0  0.29138747619E+02  0.30955234316E+02 -0.87366972525E+01  0.43400726068E+02  0.00000000000E+00 0. -1.
         11    1    3    3    0    0 -0.10312433418E+02 -0.57090931700E+01  0.13004605505E+01  0.11858803723E+02  0.51100000000E-03 0. -1.
        -11    1    3    3    0    0 -0.18879999618E+02 -0.26157485169E+02  0.41589162954E+01  0.32526373929E+02  0.51100000000E-03 0.  1.
        -12    1    3    3    0    0  0.53685417250E-01  0.91134402385E+00  0.32773204066E+01  0.34020962804E+01  0.00000000000E+00 0.  1.
</event>
<event>
 7    1  0.5559916E-010  0.4778727E+02  0.7816164E-02  0.1312668E+00
        -11   -1    0    0    0    0  0.00000000000E+00  0.00000000000E+00  0.45593999997E+02  0.45594000000E+02  0.51100000000E-03 0. -1.
         11   -1    0    0    0    0 -0.00000000000E+00 -0.00000000000E+00 -0.45593999997E+02  0.45594000000E+02  0.51100000000E-03 0.  1.
    9900012    2    1    2    0    0 -0.29134284837E+01 -0.39318250835E+02 -0.18144154771E+02  0.47787271129E+02  0.20000000384E+02 0.  0.
         12    1    1    2    0    0  0.29134284837E+01  0.39318250835E+02  0.18144154771E+02  0.43400728871E+02  0.00000000000E+00 0. -1.
         11    1    3    3    0    0 -0.52583321299E+01 -0.12209595412E+02  0.11730646847E+01  0.13345424607E+02  0.51100000000E-03 0. -1.
        -11    1    3    3    0    0  0.55340150015E+01 -0.14876294971E+02 -0.10905222281E+02  0.19257552995E+02  0.51100000000E-03 0.  1.
        -12    1    3    3    0    0 -0.31891113554E+01 -0.12232360451E+02 -0.84119971741E+01  0.15184293527E+02  0.00000000000E+00 0.  1.
</event>
<event>
 7    1  0.5559916E-010  0.4778727E+02  0.7816164E-02  0.1312668E+00
        -11   -1    0    0    0    0  0.00000000000E+00  0.00000000000E+00  0.45593999997E+02  0.45594000000E+02  0.51100000000E-03 0. -1.
         11   -1    0    0    0    0 -0.00000000000E+00 -0.00000000000E+00 -0.45593999997E+02  0.45594000000E+02  0.51100000000E-03 0.  1.
    9900012    2    1    2    0    0 -0.25652965745E+02  0.30346718774E+02  0.17453519274E+02  0.47787270434E+02  0.19999997215E+02 0.  0.
         12    1    1    2    0    0  0.25652965745E+02 -0.30346718774E+02 -0.17453519274E+02  0.43400729566E+02  0.00000000000E+00 0. -1.
         11    1    3    3    0    0 -0.58400898750E+01  0.17647647895E+02  0.97063254708E+01  0.20970428712E+02  0.51100000000E-03 0. -1.
        -11    1    3    3    0    0 -0.11823656523E+02  0.26469230577E+01  0.62239221412E+00  0.12132288638E+02  0.51100000000E-03 0.  1.
        -12    1    3    3    0    0 -0.79892193463E+01  0.10052147821E+02  0.71248015891E+01  0.14684553084E+02  0.00000000000E+00 0.  1.
</event>
<event>
 7    1  0.5559916E-010  0.4778727E+02  0.7816164E-02  0.1312668E+00
        -11   -1    0    0    0    0  0.00000000000E+00  0.00000000000E+00  0.45593999997E+02  0.45594000000E+02  0.51100000000E-03 0. -1.
         11   -1    0    0    0    0 -0.00000000000E+00 -0.00000000000E+00 -0.45593999997E+02  0.45594000000E+02  0.51100000000E-03 0.  1.
    9900012    2    1    2    0    0  0.43722138624E+01  0.41995711905E+02  0.10043251897E+02  0.47787274417E+02  0.20000015378E+02 0.  0.
         12    1    1    2    0    0 -0.43722138624E+01 -0.41995711905E+02 -0.10043251897E+02  0.43400725583E+02  0.00000000000E+00 0. -1.
         11    1    3    3    0    0 -0.42095307077E+00  0.54892431947E+01  0.52523102706E+01  0.76089260595E+01  0.51100000000E-03 0. -1.
        -11    1    3    3    0    0  0.70005127325E+01  0.36309324125E+02  0.62812627704E+01  0.37507711996E+02  0.51100000000E-03 0.  1.
        -12    1    3    3    0    0 -0.22073457994E+01  0.19714458516E+00 -0.14903211438E+01  0.26706363618E+01  0.00000000000E+00 0.  1.
</event>
<event>
 7    1  0.5559916E-010  0.4778727E+02  0.7816164E-02  0.1312668E+00
        -11   -1    0    0    0    0  0.00000000000E+00  0.00000000000E+00  0.45593999997E+02  0.45594000000E+02  0.51100000000E-03 0. -1.
         11   -1    0    0    0    0 -0.00000000000E+00 -0.00000000000E+00 -0.45593999997E+02  0.45594000000E+02  0.51100000000E-03 0.  1.
    9900012    2    1    2    0    0 -0.32111944263E+02  0.21079939954E+02 -0.20201043896E+02  0.47787274115E+02  0.20000014001E+02 0.  0.
         12    1    1    2    0    0  0.32111944263E+02 -0.21079939954E+02  0.20201043896E+02  0.43400725885E+02  0.00000000000E+00 0. -1.
         11    1    3    3    0    0 -0.60062498804E+01 -0.17497809081E+01  0.14463497684E+01  0.64209577763E+01  0.51100000000E-03 0. -1.
        -11    1    3    3    0    0 -0.15945170824E+02  0.12725206634E+02 -0.16146693984E+02  0.26017207448E+02  0.51100000000E-03 0.  1.
        -12    1    3    3    0    0 -0.10160523559E+02  0.10104514229E+02 -0.55006996796E+01  0.15349108891E+02  0.00000000000E+00 0.  1.
</event>
<event>
 7    1  0.5559916E-010  0.4778727E+02  0.7816164E-02  0.1312668E+00
        -11   -1    0    0    0    0  0.00000000000E+00  0.00000000000E+00  0.45593999997E+02  0.45594000000E+02  0.51100000000E-03 0.  1.
         11   -1    0    0    0    0 -0.00000000000E+00 -0.00000000000E+00 -0.45593999997E+02  0.45594000000E+02  0.51100000000E-03 0. -1.
    9900012    2    1    2    0    0  0.25074987305E+02  0.29345857001E+02  0.19841605830E+02  0.47787266903E+02  0.19999981116E+02 0.  0.
         12    1    1    2    0    0 -0.25074987305E+02 -0.29345857001E+02 -0.19841605830E+02  0.43400733097E+02  0.00000000000E+00 0. -1.
         11    1    3    3    0    0  0.97825599082E+01  0.13821542333E+01  0.11241554075E+01  0.99434679224E+01  0.51100000000E-03 0. -1.
        -11    1    3    3    0    0  0.12948695139E+02  0.22588388565E+02  0.11286157200E+02  0.28377479598E+02  0.51100000000E-03 0.  1.
        -12    1    3    3    0    0  0.23437322574E+01  0.53753142036E+01  0.74312932228E+01  0.94663193822E+01  0.00000000000E+00 0.  1.
</event>
<event>
 7    1  0.5559916E-010  0.4778727E+02  0.7816164E-02  0.1312668E+00
        -11   -1    0    0    0    0  0.00000000000E+00  0.00000000000E+00  0.45593999997E+02  0.45594000000E+02  0.51100000000E-03 0.  1.
         11   -1    0    0    0    0 -0.00000000000E+00 -0.00000000000E+00 -0.45593999997E+02  0.45594000000E+02  0.51100000000E-03 0. -1.
    9900012    2    1    2    0    0 -0.26876127902E+02 -0.24577840294E+00  0.34076922024E+02  0.47787271059E+02  0.20000000065E+02 0.  0.
         12    1    1    2    0    0  0.26876127902E+02  0.24577840294E+00 -0.34076922024E+02  0.43400728941E+02  0.00000000000E+00 0. -1.
         11    1    3    3    0    0 -0.18849913907E+00 -0.15002870694E+01  0.40953233491E+00  0.15665599926E+01  0.51100000000E-03 0. -1.
        -11    1    3    3    0    0  0.12291011726E+01 -0.75315218093E+00  0.83713026042E+01  0.84945061923E+01  0.51100000000E-03 0.  1.
        -12    1    3    3    0    0 -0.27916729936E+02  0.20076608474E+01  0.25296087085E+02  0.37726204874E+02  0.00000000000E+00 0.  1.
</event>
<event>
 7    1  0.5559916E-010  0.4778726E+02  0.7816164E-02  0.1312668E+00
        -11   -1    0    0    0    0  0.00000000000E+00  0.00000000000E+00  0.45593999997E+02  0.45594000000E+02  0.51100000000E-03 0.  1.
         11   -1    0    0    0    0 -0.00000000000E+00 -0.00000000000E+00 -0.45593999997E+02  0.45594000000E+02  0.51100000000E-03 0. -1.
    9900012    2    1    2    0    0  0.25593005181E+02  0.27128206614E+02  0.22196455131E+02  0.47787261197E+02  0.19999955100E+02 0.  0.
         12    1    1    2    0    0 -0.25593005181E+02 -0.27128206614E+02 -0.22196455131E+02  0.43400738803E+02  0.00000000000E+00 0. -1.
         11    1    3    3    0    0 -0.60844816452E+00  0.90346125342E+01  0.83193951701E+01  0.12296616163E+02  0.51100000000E-03 0. -1.
        -11    1    3    3    0    0  0.86798202972E+01  0.27015244325E+01  0.19568144194E+01  0.92987438713E+01  0.51100000000E-03 0.  1.
         12    1    3    3    0    0  0.17521633048E+02  0.15392069648E+02  0.11920245541E+02  0.26191901162E+02  0.00000000000E+00 0. -1.
</event>
<event>
 7    1  0.5559916E-010  0.4778728E+02  0.7816164E-02  0.1312668E+00
        -11   -1    0    0    0    0  0.00000000000E+00  0.00000000000E+00  0.45593999997E+02  0.45594000000E+02  0.51100000000E-03 0. -1.
         11   -1    0    0    0    0 -0.00000000000E+00 -0.00000000000E+00 -0.45593999997E+02  0.45594000000E+02  0.51100000000E-03 0.  1.
    9900012    2    1    2    0    0 -0.14608413758E+01  0.34651844911E+02 -0.26090960494E+02  0.47787278431E+02  0.20000033676E+02 0.  0.
         12    1    1    2    0    0  0.14608413758E+01 -0.34651844911E+02  0.26090960494E+02  0.43400721569E+02  0.00000000000E+00 0. -1.
         11    1    3    3    0    0 -0.44287689417E+01  0.73033961392E+01  0.16108476367E+01  0.86918594026E+01  0.51100000000E-03 0. -1.
        -11    1    3    3    0    0  0.30611551176E+01  0.27026970683E+02 -0.27038403595E+02  0.38352354350E+02  0.51100000000E-03 0.  1.
        -12    1    3    3    0    0 -0.93227551766E-01  0.32147808874E+00 -0.66340453581E+00  0.74306467826E+00  0.00000000000E+00 0.  1.
</event>
<event>
 7    1  0.5559916E-010  0.4778727E+02  0.7816164E-02  0.1312668E+00
        -11   -1    0    0    0    0  0.00000000000E+00  0.00000000000E+00  0.45593999997E+02  0.45594000000E+02  0.51100000000E-03 0. -1.
         11   -1    0    0    0    0 -0.00000000000E+00 -0.00000000000E+00 -0.45593999997E+02  0.45594000000E+02  0.51100000000E-03 0.  1.
    9900012    2    1    2    0    0 -0.98166271474E+01  0.29537717763E+02 -0.30245337357E+02  0.47787269925E+02  0.19999994896E+02 0.  0.
         12    1    1    2    0    0  0.98166271474E+01 -0.29537717763E+02  0.30245337357E+02  0.43400730075E+02  0.00000000000E+00 0. -1.
         11    1    3    3    0    0  0.13002218338E+01  0.84624985361E+01 -0.18306648875E+02  0.20209845412E+02  0.51100000000E-03 0. -1.
        -11    1    3    3    0    0 -0.75677466941E+01  0.11992580478E+02 -0.10664089471E+02  0.17743043173E+02  0.51100000000E-03 0.  1.
         12    1    3    3    0    0 -0.35491022871E+01  0.90826387494E+01 -0.12745990113E+01  0.98343813398E+01  0.00000000000E+00 0. -1.
</event>
<event>
 7    1  0.5559916E-010  0.4778727E+02  0.7816164E-02  0.1312668E+00
        -11   -1    0    0    0    0  0.00000000000E+00  0.00000000000E+00  0.45593999997E+02  0.45594000000E+02  0.51100000000E-03 0.  1.
         11   -1    0    0    0    0 -0.00000000000E+00 -0.00000000000E+00 -0.45593999997E+02  0.45594000000E+02  0.51100000000E-03 0. -1.
    9900012    2    1    2    0    0 -0.21537851993E+02 -0.11036181915E+02  0.36027026025E+02  0.47787274385E+02  0.20000015230E+02 0.  0.
         12    1    1    2    0    0  0.21537851993E+02  0.11036181915E+02 -0.36027026025E+02  0.43400725615E+02  0.00000000000E+00 0. -1.
         11    1    3    3    0    0 -0.51583637407E+01 -0.88366405511E+01  0.14240649049E+02  0.17535421817E+02  0.51100000000E-03 0.  1.
        -11    1    3    3    0    0 -0.14777152729E+02  0.22303814165E+01  0.11235019647E+02  0.18696644372E+02  0.51100000000E-03 0. -1.
        -12    1    3    3    0    0 -0.16023355238E+01 -0.44299227801E+01  0.10551357329E+02  0.11555208196E+02  0.00000000000E+00 0.  1.
</event>
<event>
 7    1  0.5559916E-010  0.4778727E+02  0.7816164E-02  0.1312668E+00
        -11   -1    0    0    0    0  0.00000000000E+00  0.00000000000E+00  0.45593999997E+02  0.45594000000E+02  0.51100000000E-03 0.  1.
         11   -1    0    0    0    0 -0.00000000000E+00 -0.00000000000E+00 -0.45593999997E+02  0.45594000000E+02  0.51100000000E-03 0. -1.
    9900012    2    1    2    0    0  0.32284063937E+01 -0.13541200161E+02  0.41107626867E+02  0.47787266179E+02  0.19999977814E+02 0.  0.
         12    1    1    2    0    0 -0.32284063937E+01  0.13541200161E+02 -0.41107626867E+02  0.43400733821E+02  0.00000000000E+00 0. -1.
         11    1    3    3    0    0 -0.20539510099E+01  0.39437418653E+01  0.30558915172E+01  0.53953950622E+01  0.51100000000E-03 0. -1.
        -11    1    3    3    0    0  0.51481944749E+01 -0.11998933666E+02  0.29049444195E+02  0.31848838656E+02  0.51100000000E-03 0.  1.
         12    1    3    3    0    0  0.13416292880E+00 -0.54860083604E+01  0.90022911547E+01  0.10543032460E+02  0.00000000000E+00 0. -1.
</event>
<event>
 7    1  0.5559916E-010  0.4778727E+02  0.7816164E-02  0.1312668E+00
        -11   -1    0    0    0    0  0.00000000000E+00  0.00000000000E+00  0.45593999997E+02  0.45594000000E+02  0.51100000000E-03 0.  1.
         11   -1    0    0    0    0 -0.00000000000E+00 -0.00000000000E+00 -0.45593999997E+02  0.45594000000E+02  0.51100000000E-03 0. -1.
    9900012    2    1    2    0    0 -0.17941536361E+02 -0.37250115086E+02 -0.13196734178E+02  0.47787267357E+02  0.19999983190E+02 0.  0.
         12    1    1    2    0    0  0.17941536361E+02  0.37250115086E+02  0.13196734178E+02  0.43400732643E+02  0.00000000000E+00 0. -1.
         11    1    3    3    0    0 -0.25859072597E+00 -0.50588935960E+01 -0.79869623031E+01  0.94578454561E+01  0.51100000000E-03 0. -1.
        -11    1    3    3    0    0 -0.13354006634E+02 -0.28392027695E+02 -0.72795942702E+01  0.32209148123E+02  0.51100000000E-03 0.  1.
         12    1    3    3    0    0 -0.43289390016E+01 -0.37991937951E+01  0.20698223953E+01  0.61202737782E+01  0.00000000000E+00 0. -1.
</event>
<event>
 7    1  0.5559916E-010  0.4778727E+02  0.7816164E-02  0.1312668E+00
        -11   -1    0    0    0    0  0.00000000000E+00  0.00000000000E+00  0.45593999997E+02  0.45594000000E+02  0.51100000000E-03 0.  1.
         11   -1    0    0    0    0 -0.00000000000E+00 -0.00000000000E+00 -0.45593999997E+02  0.45594000000E+02  0.51100000000E-03 0. -1.
    9900012    2    1    2    0    0  0.21163105229E+02 -0.22147821541E+02  0.30744433724E+02  0.47787271585E+02  0.20000002463E+02 0.  0.
         12    1    1    2    0    0 -0.21163105229E+02  0.22147821541E+02 -0.30744433724E+02  0.43400728415E+02  0.00000000000E+00 0. -1.
         11    1    3    3    0    0  0.28939747894E+01 -0.29365146532E+01 -0.83813125063E+00  0.42072167338E+01  0.51100000000E-03 0. -1.
        -11    1    3    3    0    0  0.19332579393E+02 -0.12045301325E+02  0.24356672090E+02  0.33347944248E+02  0.51100000000E-03 0.  1.
        -12    1    3    3    0    0 -0.10634489538E+01 -0.71660055630E+01  0.72258928848E+01  0.10232110603E+02  0.00000000000E+00 0.  1.
</event>
<event>
 7    1  0.5559916E-010  0.4778727E+02  0.7816164E-02  0.1312668E+00
        -11   -1    0    0    0    0  0.00000000000E+00  0.00000000000E+00  0.45593999997E+02  0.45594000000E+02  0.51100000000E-03 0.  1.
         11   -1    0    0    0    0 -0.00000000000E+00 -0.00000000000E+00 -0.45593999997E+02  0.45594000000E+02  0.51100000000E-03 0. -1.
    9900012    2    1    2    0    0 -0.22774198238E+02 -0.36606171447E+02 -0.49947587802E+01  0.47787268340E+02  0.19999987667E+02 0.  0.
         12    1    1    2    0    0  0.22774198238E+02  0.36606171447E+02  0.49947587802E+01  0.43400731660E+02  0.00000000000E+00 0. -1.
         11    1    3    3    0    0 -0.40723172872E+01 -0.19139959947E+02  0.13421278091E+01  0.19614360611E+02  0.51100000000E-03 0. -1.
        -11    1    3    3    0    0 -0.96355505052E+00 -0.27627359496E+01  0.21378428874E+01  0.36237440217E+01  0.51100000000E-03 0.  1.
         12    1    3    3    0    0 -0.17738325900E+02 -0.14703475551E+02 -0.84747294767E+01  0.24549163707E+02  0.00000000000E+00 0. -1.
</event>
<event>
 7    1  0.5559916E-010  0.4778729E+02  0.7816164E-02  0.1312668E+00
        -11   -1    0    0    0    0  0.00000000000E+00  0.00000000000E+00  0.45593999997E+02  0.45594000000E+02  0.51100000000E-03 0.  1.
         11   -1    0    0    0    0 -0.00000000000E+00 -0.00000000000E+00 -0.45593999997E+02  0.45594000000E+02  0.51100000000E-03 0. -1.
    9900012    2    1    2    0    0 -0.36630988132E+02 -0.23255929020E+02  0.97699863866E+00  0.47787285116E+02  0.20000064159E+02 0.  0.
         12    1    1    2    0    0  0.36630988132E+02  0.23255929020E+02 -0.97699863866E+00  0.43400714884E+02  0.00000000000E+00 0. -1.
         11    1    3    3    0    0 -0.18349890911E+01 -0.10558466122E+01  0.49694913692E+01  0.54016517624E+01  0.51100000000E-03 0. -1.
        -11    1    3    3    0    0 -0.16996574265E+02 -0.71567791257E+01  0.12987709498E+01  0.18487558802E+02  0.51100000000E-03 0.  1.
         12    1    3    3    0    0 -0.17799424776E+02 -0.15043303282E+02 -0.52912636804E+01  0.23898074552E+02  0.00000000000E+00 0. -1.
</event>
<event>
 7    1  0.5559916E-010  0.4778727E+02  0.7816164E-02  0.1312668E+00
        -11   -1    0    0    0    0  0.00000000000E+00  0.00000000000E+00  0.45593999997E+02  0.45594000000E+02  0.51100000000E-03 0.  1.
         11   -1    0    0    0    0 -0.00000000000E+00 -0.00000000000E+00 -0.45593999997E+02  0.45594000000E+02  0.51100000000E-03 0. -1.
    9900012    2    1    2    0    0 -0.11027262462E+02  0.41647526853E+02  0.52446841751E+01  0.47787265876E+02  0.19999976435E+02 0.  0.
         12    1    1    2    0    0  0.11027262462E+02 -0.41647526853E+02 -0.52446841751E+01  0.43400734124E+02  0.00000000000E+00 0. -1.
         11    1    3    3    0    0 -0.11570135762E+01  0.12159488829E+02  0.98700298099E+01  0.15703800104E+02  0.51100000000E-03 0. -1.
        -11    1    3    3    0    0 -0.99374870534E+00  0.37500863253E+01  0.15306376166E+01  0.41705558036E+01  0.51100000000E-03 0.  1.
         12    1    3    3    0    0 -0.88765001805E+01  0.25737951699E+02 -0.61559832515E+01  0.27912909969E+02  0.00000000000E+00 0. -1.
</event>
<event>
 7    1  0.5559916E-010  0.4778727E+02  0.7816164E-02  0.1312668E+00
        -11   -1    0    0    0    0  0.00000000000E+00  0.00000000000E+00  0.45593999997E+02  0.45594000000E+02  0.51100000000E-03 0.  1.
         11   -1    0    0    0    0 -0.00000000000E+00 -0.00000000000E+00 -0.45593999997E+02  0.45594000000E+02  0.51100000000E-03 0. -1.
    9900012    2    1    2    0    0  0.33124855807E+02 -0.10785345909E+02  0.25885197744E+02  0.47787271655E+02  0.20000002785E+02 0.  0.
         12    1    1    2    0    0 -0.33124855807E+02  0.10785345909E+02 -0.25885197744E+02  0.43400728345E+02  0.00000000000E+00 0. -1.
         11    1    3    3    0    0  0.10334024322E+02 -0.86890313148E+01  0.36232319979E+01  0.13979239402E+02  0.51100000000E-03 0. -1.
        -11    1    3    3    0    0  0.19648074839E+02  0.25717859469E+01  0.17233315170E+02  0.26261151533E+02  0.51100000000E-03 0.  1.
        -12    1    3    3    0    0  0.31427566461E+01 -0.46681005407E+01  0.50286505755E+01  0.75468807202E+01  0.00000000000E+00 0.  1.
</event>
<event>
 7    1  0.5559916E-010  0.4778727E+02  0.7816164E-02  0.1312668E+00
        -11   -1    0    0    0    0  0.00000000000E+00  0.00000000000E+00  0.45593999997E+02  0.45594000000E+02  0.51100000000E-03 0. -1.
         11   -1    0    0    0    0 -0.00000000000E+00 -0.00000000000E+00 -0.45593999997E+02  0.45594000000E+02  0.51100000000E-03 0.  1.
    9900012    2    1    2    0    0  0.23082120854E+02 -0.14145164540E+02 -0.33922756184E+02  0.47787269936E+02  0.19999994944E+02 0.  0.
         12    1    1    2    0    0 -0.23082120854E+02  0.14145164540E+02  0.33922756184E+02  0.43400730064E+02  0.00000000000E+00 0. -1.
         11    1    3    3    0    0  0.14376202404E+02 -0.46578904526E+01 -0.15912355936E+02  0.21944799173E+02  0.51100000000E-03 0. -1.
        -11    1    3    3    0    0 -0.32180299805E+01 -0.24454620611E+01 -0.15428422818E+01  0.43262413496E+01  0.51100000000E-03 0.  1.
        -12    1    3    3    0    0  0.11923948431E+02 -0.70418120267E+01 -0.16467557966E+02  0.21516229413E+02  0.00000000000E+00 0.  1.
</event>
<event>
 7    1  0.5559916E-010  0.4778723E+02  0.7816164E-02  0.1312668E+00
        -11   -1    0    0    0    0  0.00000000000E+00  0.00000000000E+00  0.45593999997E+02  0.45594000000E+02  0.51100000000E-03 0.  1.
         11   -1    0    0    0    0 -0.00000000000E+00 -0.00000000000E+00 -0.45593999997E+02  0.45594000000E+02  0.51100000000E-03 0. -1.
    9900012    2    1    2    0    0  0.14516297669E+02 -0.18575694364E+02  0.36439641915E+02  0.47787230168E+02  0.19999813626E+02 0.  0.
         12    1    1    2    0    0 -0.14516297669E+02  0.18575694364E+02 -0.36439641915E+02  0.43400769832E+02  0.00000000000E+00 0. -1.
         11    1    3    3    0    0  0.97096398520E+01 -0.64966005901E+01  0.32929879208E+01  0.12137820850E+02  0.51100000000E-03 0. -1.
        -11    1    3    3    0    0  0.25162805704E+01 -0.80137413885E+01  0.22846649934E+02  0.24341756970E+02  0.51100000000E-03 0.  1.
         12    1    3    3    0    0  0.22903772463E+01 -0.40653523855E+01  0.10300004061E+02  0.11307652347E+02  0.00000000000E+00 0. -1.
</event>
<event>
 7    1  0.5559916E-010  0.4778727E+02  0.7816164E-02  0.1312668E+00
        -11   -1    0    0    0    0  0.00000000000E+00  0.00000000000E+00  0.45593999997E+02  0.45594000000E+02  0.51100000000E-03 0.  1.
         11   -1    0    0    0    0 -0.00000000000E+00 -0.00000000000E+00 -0.45593999997E+02  0.45594000000E+02  0.51100000000E-03 0. -1.
    9900012    2    1    2    0    0 -0.13968882898E+02  0.32180080526E+02  0.25552613872E+02  0.47787270193E+02  0.19999996120E+02 0.  0.
         12    1    1    2    0    0  0.13968882898E+02 -0.32180080526E+02 -0.25552613872E+02  0.43400729807E+02  0.00000000000E+00 0. -1.
         11    1    3    3    0    0 -0.58670017231E+01  0.64281834361E+01  0.29614467488E+01  0.91931180028E+01  0.51100000000E-03 0. -1.
        -11    1    3    3    0    0 -0.13089646819E+01 -0.21066400747E+00  0.78784218372E+01  0.79891988816E+01  0.51100000000E-03 0.  1.
        -12    1    3    3    0    0 -0.67929164927E+01  0.25962561097E+02  0.14712745286E+02  0.30604953309E+02  0.00000000000E+00 0.  1.
</event>
<event>
 7    1  0.5559916E-010  0.4778727E+02  0.7816164E-02  0.1312668E+00
        -11   -1    0    0    0    0  0.00000000000E+00  0.00000000000E+00  0.45593999997E+02  0.45594000000E+02  0.51100000000E-03 0.  1.
         11   -1    0    0    0    0 -0.00000000000E+00 -0.00000000000E+00 -0.45593999997E+02  0.45594000000E+02  0.51100000000E-03 0. -1.
    9900012    2    1    2    0    0 -0.19932724351E+02  0.29508251314E+02  0.24810743671E+02  0.47787269624E+02  0.19999993523E+02 0.  0.
         12    1    1    2    0    0  0.19932724351E+02 -0.29508251314E+02 -0.24810743671E+02  0.43400730376E+02  0.00000000000E+00 0. -1.
         11    1    3    3    0    0  0.18050283656E+01 -0.49965329714E+00  0.28453493865E+01  0.34064342369E+01  0.51100000000E-03 0. -1.
        -11    1    3    3    0    0 -0.17151119691E+02  0.21545488627E+02  0.21145845086E+02  0.34720537891E+02  0.51100000000E-03 0.  1.
         12    1    3    3    0    0 -0.45866330265E+01  0.84624159844E+01  0.81954919869E+00  0.96602974955E+01  0.00000000000E+00 0. -1.
</event>
<event>
 7    1  0.5559916E-010  0.4778727E+02  0.7816164E-02  0.1312668E+00
        -11   -1    0    0    0    0  0.00000000000E+00  0.00000000000E+00  0.45593999997E+02  0.45594000000E+02  0.51100000000E-03 0.  1.
         11   -1    0    0    0    0 -0.00000000000E+00 -0.00000000000E+00 -0.45593999997E+02  0.45594000000E+02  0.51100000000E-03 0. -1.
    9900012    2    1    2    0    0  0.13687154637E+01 -0.42214494148E+02 -0.99843073193E+01  0.47787270849E+02  0.19999999109E+02 0.  0.
         12    1    1    2    0    0 -0.13687154637E+01  0.42214494148E+02  0.99843073193E+01  0.43400729151E+02  0.00000000000E+00 0. -1.
         11    1    3    3    0    0 -0.10677002208E+01 -0.30612624396E+01  0.23371625058E+01  0.39967036825E+01  0.51100000000E-03 0. -1.
        -11    1    3    3    0    0  0.56359074109E+01 -0.37553223885E+02 -0.13023677215E+02  0.40145040105E+02  0.51100000000E-03 0.  1.
        -12    1    3    3    0    0 -0.31994917264E+01 -0.16000078228E+01  0.70220739020E+00  0.36455270619E+01  0.00000000000E+00 0.  1.
</event>
<event>
 7    1  0.5559916E-010  0.4778727E+02  0.7816164E-02  0.1312668E+00
        -11   -1    0    0    0    0  0.00000000000E+00  0.00000000000E+00  0.45593999997E+02  0.45594000000E+02  0.51100000000E-03 0. -1.
         11   -1    0    0    0    0 -0.00000000000E+00 -0.00000000000E+00 -0.45593999997E+02  0.45594000000E+02  0.51100000000E-03 0.  1.
    9900012    2    1    2    0    0 -0.18386884925E+01 -0.42286228353E+02 -0.95977924410E+01  0.47787268400E+02  0.19999987941E+02 0.  0.
         12    1    1    2    0    0  0.18386884925E+01  0.42286228353E+02  0.95977924410E+01  0.43400731600E+02  0.00000000000E+00 0. -1.
         11    1    3    3    0    0  0.90174714529E+00 -0.94473477598E+01 -0.10708318910E+02  0.14308515708E+02  0.51100000000E-03 0. -1.
        -11    1    3    3    0    0  0.12198181430E+01 -0.18323862726E+02 -0.30303278942E+00  0.18366919465E+02  0.51100000000E-03 0.  1.
         12    1    3    3    0    0 -0.39602537807E+01 -0.14515017867E+02  0.14135592589E+01  0.15111833227E+02  0.00000000000E+00 0. -1.
</event>
<event>
 7    1  0.5716589E-010  0.4778727E+02  0.7816164E-02  0.1312668E+00
        -11   -1    0    0    0    0  0.00000000000E+00  0.00000000000E+00  0.45593999997E+02  0.45594000000E+02  0.51100000000E-03 0. -1.
         11   -1    0    0    0    0 -0.00000000000E+00 -0.00000000000E+00 -0.45593999997E+02  0.45594000000E+02  0.51100000000E-03 0.  1.
    9900012    2    1    2    0    0  0.10161850764E+02  0.33658725746E+02 -0.25445041752E+02  0.47787272131E+02  0.20000004956E+02 0.  0.
         12    1    1    2    0    0 -0.10161850764E+02 -0.33658725746E+02  0.25445041752E+02  0.43400727869E+02  0.00000000000E+00 0. -1.
         11    1    3    3    0    0  0.19556973756E+01  0.73255187193E+01  0.22420634406E+01  0.79066317396E+01  0.51100000000E-03 0. -1.
        -11    1    3    3    0    0  0.85424389893E+01  0.16238971439E+02 -0.15247110133E+02  0.23856903089E+02  0.51100000000E-03 0.  1.
         12    1    3    3    0    0 -0.33628560076E+00  0.10094235587E+02 -0.12439995059E+02  0.16023737303E+02  0.00000000000E+00 0. -1.
</event>
<event>
 7    1  0.5559916E-010  0.4778727E+02  0.7816164E-02  0.1312668E+00
        -11   -1    0    0    0    0  0.00000000000E+00  0.00000000000E+00  0.45593999997E+02  0.45594000000E+02  0.51100000000E-03 0.  1.
         11   -1    0    0    0    0 -0.00000000000E+00 -0.00000000000E+00 -0.45593999997E+02  0.45594000000E+02  0.51100000000E-03 0. -1.
    9900012    2    1    2    0    0  0.22764255108E+02 -0.10789847145E+02  0.35341070335E+02  0.47787270001E+02  0.19999995242E+02 0.  0.
         12    1    1    2    0    0 -0.22764255108E+02  0.10789847145E+02 -0.35341070335E+02  0.43400729999E+02  0.00000000000E+00 0. -1.
         11    1    3    3    0    0  0.82272687094E+00 -0.13220353211E+01  0.24604157963E+00  0.15764496866E+01  0.51100000000E-03 0. -1.
        -11    1    3    3    0    0  0.14780106373E+02 -0.73117953472E+01  0.84356653240E+01  0.18522266204E+02  0.51100000000E-03 0.  1.
        -12    1    3    3    0    0  0.71614218633E+01 -0.21560164768E+01  0.26659363432E+02  0.27688554110E+02  0.00000000000E+00 0.  1.
</event>
<event>
 7    1  0.5559916E-010  0.4778727E+02  0.7816164E-02  0.1312668E+00
        -11   -1    0    0    0    0  0.00000000000E+00  0.00000000000E+00  0.45593999997E+02  0.45594000000E+02  0.51100000000E-03 0.  1.
         11   -1    0    0    0    0 -0.00000000000E+00 -0.00000000000E+00 -0.45593999997E+02  0.45594000000E+02  0.51100000000E-03 0. -1.
    9900012    2    1    2    0    0 -0.24135370774E+02 -0.50709439337E+01  0.35712637290E+02  0.47787273543E+02  0.20000011394E+02 0.  0.
         12    1    1    2    0    0  0.24135370774E+02  0.50709439337E+01 -0.35712637290E+02  0.43400726457E+02  0.00000000000E+00 0. -1.
         11    1    3    3    0    0 -0.61542275323E+01  0.98764497920E+00  0.38543402978E+01  0.73284308359E+01  0.51100000000E-03 0. -1.
        -11    1    3    3    0    0  0.45089290858E+00 -0.98738247763E+00  0.14793831892E+02  0.14833600065E+02  0.51100000000E-03 0.  1.
        -12    1    3    3    0    0 -0.18432036150E+02 -0.50712064352E+01  0.17064465100E+02  0.25625242643E+02  0.00000000000E+00 0.  1.
</event>
<event>
 7    1  0.5559916E-010  0.4778727E+02  0.7816164E-02  0.1312668E+00
        -11   -1    0    0    0    0  0.00000000000E+00  0.00000000000E+00  0.45593999997E+02  0.45594000000E+02  0.51100000000E-03 0. -1.
         11   -1    0    0    0    0 -0.00000000000E+00 -0.00000000000E+00 -0.45593999997E+02  0.45594000000E+02  0.51100000000E-03 0.  1.
    9900012    2    1    2    0    0  0.35475023918E+02  0.14155634370E+02 -0.20609802982E+02  0.47787270912E+02  0.19999999397E+02 0.  0.
         12    1    1    2    0    0 -0.35475023918E+02 -0.14155634370E+02  0.20609802982E+02  0.43400729088E+02  0.00000000000E+00 0. -1.
         11    1    3    3    0    0  0.15712428958E+02  0.10869251979E+02 -0.36793891723E+01  0.19456591873E+02  0.51100000000E-03 0. -1.
        -11    1    3    3    0    0  0.33816767919E+01  0.13641439125E+01  0.11826888706E+01  0.38334553297E+01  0.51100000000E-03 0.  1.
         12    1    3    3    0    0  0.16380918168E+02  0.19222384778E+01 -0.18113102680E+02  0.24497223710E+02  0.00000000000E+00 0. -1.
</event>
<event>
 7    1  0.5559916E-010  0.4778727E+02  0.7816164E-02  0.1312668E+00
        -11   -1    0    0    0    0  0.00000000000E+00  0.00000000000E+00  0.45593999997E+02  0.45594000000E+02  0.51100000000E-03 0.  1.
         11   -1    0    0    0    0 -0.00000000000E+00 -0.00000000000E+00 -0.45593999997E+02  0.45594000000E+02  0.51100000000E-03 0. -1.
    9900012    2    1    2    0    0  0.26800162258E+02 -0.33773194465E+02  0.49745232098E+01  0.47787271405E+02  0.20000001646E+02 0.  0.
         12    1    1    2    0    0 -0.26800162258E+02  0.33773194465E+02 -0.49745232098E+01  0.43400728595E+02  0.00000000000E+00 0. -1.
         11    1    3    3    0    0  0.10999843765E+02 -0.17673957408E+02  0.70579318031E+01  0.21981349706E+02  0.51100000000E-03 0. -1.
        -11    1    3    3    0    0  0.51430786322E+01 -0.13675303562E+02  0.32595455298E+00  0.14614083343E+02  0.51100000000E-03 0.  1.
         12    1    3    3    0    0  0.10657239860E+02 -0.24239334952E+01 -0.24093631463E+01  0.11191838356E+02  0.00000000000E+00 0. -1.
</event>
<event>
 7    1  0.5559916E-010  0.4778727E+02  0.7816164E-02  0.1312668E+00
        -11   -1    0    0    0    0  0.00000000000E+00  0.00000000000E+00  0.45593999997E+02  0.45594000000E+02  0.51100000000E-03 0. -1.
         11   -1    0    0    0    0 -0.00000000000E+00 -0.00000000000E+00 -0.45593999997E+02  0.45594000000E+02  0.51100000000E-03 0.  1.
    9900012    2    1    2    0    0  0.14949455601E+02 -0.36100616505E+02 -0.18891334356E+02  0.47787271336E+02  0.20000001330E+02 0.  0.
         12    1    1    2    0    0 -0.14949455601E+02  0.36100616505E+02  0.18891334356E+02  0.43400728664E+02  0.00000000000E+00 0. -1.
         11    1    3    3    0    0 -0.32820533569E+01 -0.55675769933E+01 -0.31331596720E+01  0.71823727002E+01  0.51100000000E-03 0. -1.
        -11    1    3    3    0    0  0.14592411559E+02 -0.15817034719E+02 -0.52248080129E+01  0.22145330917E+02  0.51100000000E-03 0.  1.
        -12    1    3    3    0    0  0.36390973990E+01 -0.14716004793E+02 -0.10533366671E+02  0.18459567719E+02  0.00000000000E+00 0.  1.
</event>
<event>
 7    1  0.5559916E-010  0.4778727E+02  0.7816164E-02  0.1312668E+00
        -11   -1    0    0    0    0  0.00000000000E+00  0.00000000000E+00  0.45593999997E+02  0.45594000000E+02  0.51100000000E-03 0. -1.
         11   -1    0    0    0    0 -0.00000000000E+00 -0.00000000000E+00 -0.45593999997E+02  0.45594000000E+02  0.51100000000E-03 0.  1.
    9900012    2    1    2    0    0 -0.34991581785E+02  0.52360714363E+01  0.25135551372E+02  0.47787272095E+02  0.20000004789E+02 0.  0.
         12    1    1    2    0    0  0.34991581785E+02 -0.52360714363E+01 -0.25135551372E+02  0.43400727905E+02  0.00000000000E+00 0. -1.
         11    1    3    3    0    0 -0.10255878684E+02  0.92129068315E+01  0.85635401118E+01  0.16229446059E+02  0.51100000000E-03 0. -1.
        -11    1    3    3    0    0 -0.23979567846E+02 -0.55806299378E+01  0.13680389319E+02  0.28165868650E+02  0.51100000000E-03 0.  1.
        -12    1    3    3    0    0 -0.75613525417E+00  0.16037945426E+01  0.28916219412E+01  0.33919573860E+01  0.00000000000E+00 0.  1.
</event>
<event>
 7    1  0.5559916E-010  0.4778727E+02  0.7816164E-02  0.1312668E+00
        -11   -1    0    0    0    0  0.00000000000E+00  0.00000000000E+00  0.45593999997E+02  0.45594000000E+02  0.51100000000E-03 0.  1.
         11   -1    0    0    0    0 -0.00000000000E+00 -0.00000000000E+00 -0.45593999997E+02  0.45594000000E+02  0.51100000000E-03 0. -1.
    9900012    2    1    2    0    0  0.20063009361E+02 -0.32416739885E+02  0.20742574400E+02  0.47787265420E+02  0.19999974355E+02 0.  0.
         12    1    1    2    0    0 -0.20063009361E+02  0.32416739885E+02 -0.20742574400E+02  0.43400734580E+02  0.00000000000E+00 0. -1.
         11    1    3    3    0    0  0.34848668474E+01 -0.22084394410E+02  0.14822305501E+02  0.26824718340E+02  0.51100000000E-03 0. -1.
        -11    1    3    3    0    0  0.12288499630E+02 -0.74086089100E+01  0.64738660060E+01  0.15741843934E+02  0.51100000000E-03 0.  1.
        -12    1    3    3    0    0  0.42896428841E+01 -0.29237365643E+01 -0.55359710764E+00  0.52207031450E+01  0.00000000000E+00 0.  1.
</event>
<event>
 7    1  0.5559916E-010  0.4778727E+02  0.7816164E-02  0.1312668E+00
        -11   -1    0    0    0    0  0.00000000000E+00  0.00000000000E+00  0.45593999997E+02  0.45594000000E+02  0.51100000000E-03 0. -1.
         11   -1    0    0    0    0 -0.00000000000E+00 -0.00000000000E+00 -0.45593999997E+02  0.45594000000E+02  0.51100000000E-03 0.  1.
    9900012    2    1    2    0    0  0.13892424886E+02  0.16170830579E+02 -0.37803812660E+02  0.47787268641E+02  0.19999989042E+02 0.  0.
         12    1    1    2    0    0 -0.13892424886E+02 -0.16170830579E+02  0.37803812660E+02  0.43400731359E+02  0.00000000000E+00 0. -1.
         11    1    3    3    0    0 -0.56282379709E+00 -0.26774400624E+01 -0.72380990389E+01  0.77379282675E+01  0.51100000000E-03 0. -1.
        -11    1    3    3    0    0  0.13015981280E+02  0.12411625536E+02 -0.16049515697E+02  0.24105003038E+02  0.51100000000E-03 0.  1.
         12    1    3    3    0    0  0.14392674031E+01  0.64366451054E+01 -0.14516197925E+02  0.15944337335E+02  0.00000000000E+00 0. -1.
</event>
<event>
 7    1  0.5559916E-010  0.4778727E+02  0.7816164E-02  0.1312668E+00
        -11   -1    0    0    0    0  0.00000000000E+00  0.00000000000E+00  0.45593999997E+02  0.45594000000E+02  0.51100000000E-03 0.  1.
         11   -1    0    0    0    0 -0.00000000000E+00 -0.00000000000E+00 -0.45593999997E+02  0.45594000000E+02  0.51100000000E-03 0. -1.
    9900012    2    1    2    0    0 -0.22183689901E+01  0.37501132524E+02  0.21734010830E+02  0.47787270417E+02  0.19999997139E+02 0.  0.
         12    1    1    2    0    0  0.22183689901E+01 -0.37501132524E+02 -0.21734010830E+02  0.43400729583E+02  0.00000000000E+00 0. -1.
         11    1    3    3    0    0 -0.76505655073E+01  0.14368229721E+02  0.58872594581E+01  0.17310026056E+02  0.51100000000E-03 0. -1.
        -11    1    3    3    0    0  0.32393860318E+01  0.22934492165E+02  0.16175291153E+02  0.28251099039E+02  0.51100000000E-03 0.  1.
        -12    1    3    3    0    0  0.21928104854E+01  0.19841063855E+00 -0.32853978119E+00  0.22261453219E+01  0.00000000000E+00 0.  1.
</event>
<event>
 7    1  0.5559916E-010  0.4778727E+02  0.7816164E-02  0.1312668E+00
        -11   -1    0    0    0    0  0.00000000000E+00  0.00000000000E+00  0.45593999997E+02  0.45594000000E+02  0.51100000000E-03 0. -1.
         11   -1    0    0    0    0 -0.00000000000E+00 -0.00000000000E+00 -0.45593999997E+02  0.45594000000E+02  0.51100000000E-03 0.  1.
    9900012    2    1    2    0    0 -0.77587872280E+00 -0.35266289950E+01 -0.43250253618E+02  0.47787268003E+02  0.19999986132E+02 0.  0.
         12    1    1    2    0    0  0.77587872280E+00  0.35266289950E+01  0.43250253618E+02  0.43400731997E+02  0.00000000000E+00 0. -1.
         11    1    3    3    0    0  0.56438698257E+01 -0.59113146078E+01 -0.22590384690E+02  0.24023371697E+02  0.51100000000E-03 0. -1.
        -11    1    3    3    0    0 -0.60488660993E+01 -0.26642901813E+01 -0.10393442661E+02  0.12317096811E+02  0.51100000000E-03 0.  1.
         12    1    3    3    0    0 -0.37088244920E+00  0.50489757941E+01 -0.10266426267E+02  0.11446799494E+02  0.00000000000E+00 0. -1.
</event>
<event>
 7    1  0.5559916E-010  0.4778725E+02  0.7816164E-02  0.1312668E+00
        -11   -1    0    0    0    0  0.00000000000E+00  0.00000000000E+00  0.45593999997E+02  0.45594000000E+02  0.51100000000E-03 0.  1.
         11   -1    0    0    0    0 -0.00000000000E+00 -0.00000000000E+00 -0.45593999997E+02  0.45594000000E+02  0.51100000000E-03 0. -1.
    9900012    2    1    2    0    0 -0.33809898904E+02 -0.21776308117E+02  0.16318944051E+02  0.47787253531E+02  0.19999920150E+02 0.  0.
         12    1    1    2    0    0  0.33809898904E+02  0.21776308117E+02 -0.16318944051E+02  0.43400746469E+02  0.00000000000E+00 0. -1.
         11    1    3    3    0    0 -0.12344808506E+01 -0.17489598192E+00  0.41475745547E+01  0.43309244421E+01  0.51100000000E-03 0. -1.
        -11    1    3    3    0    0 -0.14283364073E+02 -0.52681525610E+01 -0.16392392207E+01  0.15311924312E+02  0.51100000000E-03 0.  1.
        -12    1    3    3    0    0 -0.18292053980E+02 -0.16333259574E+02  0.13810608717E+02  0.28144404777E+02  0.00000000000E+00 0.  1.
</event>
<event>
 7    1  0.5559916E-010  0.4778727E+02  0.7816164E-02  0.1312668E+00
        -11   -1    0    0    0    0  0.00000000000E+00  0.00000000000E+00  0.45593999997E+02  0.45594000000E+02  0.51100000000E-03 0.  1.
         11   -1    0    0    0    0 -0.00000000000E+00 -0.00000000000E+00 -0.45593999997E+02  0.45594000000E+02  0.51100000000E-03 0. -1.
    9900012    2    1    2    0    0 -0.28528299727E+02 -0.28314045705E+02 -0.16372977727E+02  0.47787268795E+02  0.19999989744E+02 0.  0.
         12    1    1    2    0    0  0.28528299727E+02  0.28314045705E+02  0.16372977727E+02  0.43400731205E+02  0.00000000000E+00 0. -1.
         11    1    3    3    0    0 -0.59090627611E+01 -0.16867583525E+01  0.37481731929E+01  0.71979843706E+01  0.51100000000E-03 0. -1.
        -11    1    3    3    0    0 -0.80582551268E+01 -0.10034897829E+02 -0.10029604358E+02  0.16316482892E+02  0.51100000000E-03 0.  1.
         12    1    3    3    0    0 -0.14560981839E+02 -0.16592389523E+02 -0.10091546562E+02  0.24272801532E+02  0.00000000000E+00 0. -1.
</event>
<event>
 7    1  0.5559916E-010  0.4778727E+02  0.7816164E-02  0.1312668E+00
        -11   -1    0    0    0    0  0.00000000000E+00  0.00000000000E+00  0.45593999997E+02  0.45594000000E+02  0.51100000000E-03 0.  1.
         11   -1    0    0    0    0 -0.00000000000E+00 -0.00000000000E+00 -0.45593999997E+02  0.45594000000E+02  0.51100000000E-03 0. -1.
    9900012    2    1    2    0    0  0.22392956811E+02 -0.16301053678E+02  0.33413386403E+02  0.47787271243E+02  0.20000000906E+02 0.  0.
         12    1    1    2    0    0 -0.22392956811E+02  0.16301053678E+02 -0.33413386403E+02  0.43400728757E+02  0.00000000000E+00 0. -1.
         11    1    3    3    0    0  0.12995772931E+02 -0.13042645835E+02  0.15470742171E+02  0.24048795979E+02  0.51100000000E-03 0. -1.
        -11    1    3    3    0    0  0.28327808163E+01 -0.22922593496E+01  0.16565984091E+02  0.16962043782E+02  0.51100000000E-03 0.  1.
        -12    1    3    3    0    0  0.65644030635E+01 -0.96614849256E+00  0.13766601403E+01  0.67764314821E+01  0.00000000000E+00 0.  1.
</event>
<event>
 7    1  0.5559916E-010  0.4778726E+02  0.7816164E-02  0.1312668E+00
        -11   -1    0    0    0    0  0.00000000000E+00  0.00000000000E+00  0.45593999997E+02  0.45594000000E+02  0.51100000000E-03 0.  1.
         11   -1    0    0    0    0 -0.00000000000E+00 -0.00000000000E+00 -0.45593999997E+02  0.45594000000E+02  0.51100000000E-03 0. -1.
    9900012    2    1    2    0    0 -0.33114309741E+02 -0.25858014513E+02 -0.10882526407E+02  0.47787264923E+02  0.19999972092E+02 0.  0.
         12    1    1    2    0    0  0.33114309741E+02  0.25858014513E+02  0.10882526407E+02  0.43400735077E+02  0.00000000000E+00 0. -1.
         11    1    3    3    0    0 -0.17543435015E+02 -0.65561689665E+01 -0.63726213631E+01  0.19782966586E+02  0.51100000000E-03 0. -1.
        -11    1    3    3    0    0 -0.11204956672E+02 -0.19449645895E+02 -0.62528180441E+01  0.23301019574E+02  0.51100000000E-03 0.  1.
        -12    1    3    3    0    0 -0.43659180538E+01  0.14780034803E+00  0.17429130001E+01  0.47032787629E+01  0.00000000000E+00 0.  1.
</event>
<event>
 7    1  0.5559916E-010  0.4778727E+02  0.7816164E-02  0.1312668E+00
        -11   -1    0    0    0    0  0.00000000000E+00  0.00000000000E+00  0.45593999997E+02  0.45594000000E+02  0.51100000000E-03 0.  1.
         11   -1    0    0    0    0 -0.00000000000E+00 -0.00000000000E+00 -0.45593999997E+02  0.45594000000E+02  0.51100000000E-03 0. -1.
    9900012    2    1    2    0    0  0.10443472802E+02 -0.40233406906E+02  0.12483185109E+02  0.47787273440E+02  0.20000010923E+02 0.  0.
         12    1    1    2    0    0 -0.10443472802E+02  0.40233406906E+02 -0.12483185109E+02  0.43400726560E+02  0.00000000000E+00 0. -1.
         11    1    3    3    0    0  0.23434309556E+01 -0.23450397921E+02  0.12009670029E+02  0.26450803499E+02  0.51100000000E-03 0. -1.
        -11    1    3    3    0    0  0.13337078658E+01 -0.13896464467E+02  0.68497683185E+00  0.13977113253E+02  0.51100000000E-03 0.  1.
         12    1    3    3    0    0  0.67663339808E+01 -0.28865445183E+01 -0.21146175186E+00  0.73593566884E+01  0.00000000000E+00 0. -1.
</event>
<event>
 7    1  0.5559916E-010  0.4778727E+02  0.7816164E-02  0.1312668E+00
        -11   -1    0    0    0    0  0.00000000000E+00  0.00000000000E+00  0.45593999997E+02  0.45594000000E+02  0.51100000000E-03 0. -1.
         11   -1    0    0    0    0 -0.00000000000E+00 -0.00000000000E+00 -0.45593999997E+02  0.45594000000E+02  0.51100000000E-03 0.  1.
    9900012    2    1    2    0    0  0.21271782761E+02  0.28292743252E+02 -0.25112846897E+02  0.47787272565E+02  0.20000006935E+02 0.  0.
         12    1    1    2    0    0 -0.21271782761E+02 -0.28292743252E+02  0.25112846897E+02  0.43400727435E+02  0.00000000000E+00 0. -1.
         11    1    3    3    0    0  0.56543748548E+01  0.12348530008E+01  0.10155391408E+00  0.57885343906E+01  0.51100000000E-03 0. -1.
        -11    1    3    3    0    0  0.12986851064E+02  0.24950228770E+02 -0.16395046125E+02  0.32557176689E+02  0.51100000000E-03 0.  1.
        -12    1    3    3    0    0  0.26305568426E+01  0.21076614815E+01 -0.88193546858E+01  0.94415614862E+01  0.00000000000E+00 0.  1.
</event>
<event>
 7    1  0.5559916E-010  0.4778727E+02  0.7816164E-02  0.1312668E+00
        -11   -1    0    0    0    0  0.00000000000E+00  0.00000000000E+00  0.45593999997E+02  0.45594000000E+02  0.51100000000E-03 0. -1.
         11   -1    0    0    0    0 -0.00000000000E+00 -0.00000000000E+00 -0.45593999997E+02  0.45594000000E+02  0.51100000000E-03 0.  1.
    9900012    2    1    2    0    0 -0.37174250875E+02  0.13222212965E+02 -0.18079586766E+02  0.47787270726E+02  0.19999998550E+02 0.  0.
         12    1    1    2    0    0  0.37174250875E+02 -0.13222212965E+02  0.18079586766E+02  0.43400729274E+02  0.00000000000E+00 0. -1.
         11    1    3    3    0    0 -0.19967446605E+02 -0.29132923168E+01 -0.84867544973E+01  0.21890893043E+02  0.51100000000E-03 0. -1.
        -11    1    3    3    0    0 -0.40815761737E+01  0.66875466162E+01 -0.38988508499E+01  0.87512046038E+01  0.51100000000E-03 0.  1.
         12    1    3    3    0    0 -0.13125228096E+02  0.94479586659E+01 -0.56939814192E+01  0.17145173080E+02  0.00000000000E+00 0. -1.
</event>
<event>
 7    1  0.5559916E-010  0.4778731E+02  0.7816164E-02  0.1312668E+00
        -11   -1    0    0    0    0  0.00000000000E+00  0.00000000000E+00  0.45593999997E+02  0.45594000000E+02  0.51100000000E-03 0.  1.
         11   -1    0    0    0    0 -0.00000000000E+00 -0.00000000000E+00 -0.45593999997E+02  0.45594000000E+02  0.51100000000E-03 0. -1.
    9900012    2    1    2    0    0  0.36680491534E+02 -0.65406826188E+01  0.22257152015E+02  0.47787311018E+02  0.20000182255E+02 0.  0.
         12    1    1    2    0    0 -0.36680491534E+02  0.65406826188E+01 -0.22257152015E+02  0.43400688982E+02  0.00000000000E+00 0. -1.
         11    1    3    3    0    0  0.10132447875E+02 -0.40076633284E+01  0.57501508091E+01  0.12320393658E+02  0.51100000000E-03 0. -1.
        -11    1    3    3    0    0  0.10479780134E+02 -0.11307303094E+01  0.16208985624E+02  0.19334827589E+02  0.51100000000E-03 0.  1.
        -12    1    3    3    0    0  0.16068263525E+02 -0.14022889810E+01  0.29801558194E+00  0.16132089771E+02  0.00000000000E+00 0.  1.
</event>
<event>
 7    1  0.5559916E-010  0.4778728E+02  0.7816164E-02  0.1312668E+00
        -11   -1    0    0    0    0  0.00000000000E+00  0.00000000000E+00  0.45593999997E+02  0.45594000000E+02  0.51100000000E-03 0.  1.
         11   -1    0    0    0    0 -0.00000000000E+00 -0.00000000000E+00 -0.45593999997E+02  0.45594000000E+02  0.51100000000E-03 0. -1.
    9900012    2    1    2    0    0 -0.21190393017E+02  0.34349335465E+02  0.15959738110E+02  0.47787276001E+02  0.20000022599E+02 0.  0.
         12    1    1    2    0    0  0.21190393017E+02 -0.34349335465E+02 -0.15959738110E+02  0.43400723999E+02  0.00000000000E+00 0. -1.
         11    1    3    3    0    0  0.34770273826E+00  0.15101568081E+02  0.66589429220E+01  0.16508173031E+02  0.51100000000E-03 0. -1.
        -11    1    3    3    0    0 -0.18374376048E+02  0.15417033510E+02  0.45663672961E+01  0.24416271786E+02  0.51100000000E-03 0.  1.
        -12    1    3    3    0    0 -0.31637197070E+01  0.38307338739E+01  0.47344278917E+01  0.68628311839E+01  0.00000000000E+00 0.  1.
</event>
<event>
 7    1  0.5559916E-010  0.4778728E+02  0.7816164E-02  0.1312668E+00
        -11   -1    0    0    0    0  0.00000000000E+00  0.00000000000E+00  0.45593999997E+02  0.45594000000E+02  0.51100000000E-03 0.  1.
         11   -1    0    0    0    0 -0.00000000000E+00 -0.00000000000E+00 -0.45593999997E+02  0.45594000000E+02  0.51100000000E-03 0. -1.
    9900012    2    1    2    0    0  0.21198132296E+02  0.20982841922E+02  0.31527485990E+02  0.47787276034E+02  0.20000022750E+02 0.  0.
         12    1    1    2    0    0 -0.21198132296E+02 -0.20982841922E+02 -0.31527485990E+02  0.43400723966E+02  0.00000000000E+00 0. -1.
         11    1    3    3    0    0  0.39436297837E+01  0.11702684763E+01  0.13014777686E+01  0.43145786377E+01  0.51100000000E-03 0. -1.
        -11    1    3    3    0    0  0.69276774183E+01 -0.11693334700E+01  0.11661212182E+02  0.13614107572E+02  0.51100000000E-03 0.  1.
        -12    1    3    3    0    0  0.10326825094E+02  0.20981906915E+02  0.18564796039E+02  0.29858589824E+02  0.00000000000E+00 0.  1.
</event>
<event>
 7    1  0.5559916E-010  0.4778727E+02  0.7816164E-02  0.1312668E+00
        -11   -1    0    0    0    0  0.00000000000E+00  0.00000000000E+00  0.45593999997E+02  0.45594000000E+02  0.51100000000E-03 0. -1.
         11   -1    0    0    0    0 -0.00000000000E+00 -0.00000000000E+00 -0.45593999997E+02  0.45594000000E+02  0.51100000000E-03 0.  1.
    9900012    2    1    2    0    0  0.36449416419E+02 -0.22938335031E+02  0.53755054457E+01  0.47787271549E+02  0.20000002302E+02 0.  0.
         12    1    1    2    0    0 -0.36449416419E+02  0.22938335031E+02 -0.53755054457E+01  0.43400728451E+02  0.00000000000E+00 0. -1.
         11    1    3    3    0    0  0.88516198388E+01 -0.65165068969E+01  0.94471204110E+01  0.14493588935E+02  0.51100000000E-03 0. -1.
        -11    1    3    3    0    0  0.10812239121E+02 -0.44131386746E+01  0.18459976905E+01  0.11823198193E+02  0.51100000000E-03 0.  1.
         12    1    3    3    0    0  0.16785557459E+02 -0.12008689459E+02 -0.59176126558E+01  0.21470484421E+02  0.00000000000E+00 0. -1.
</event>
<event>
 7    1  0.5559916E-010  0.4778728E+02  0.7816164E-02  0.1312668E+00
        -11   -1    0    0    0    0  0.00000000000E+00  0.00000000000E+00  0.45593999997E+02  0.45594000000E+02  0.51100000000E-03 0.  1.
         11   -1    0    0    0    0 -0.00000000000E+00 -0.00000000000E+00 -0.45593999997E+02  0.45594000000E+02  0.51100000000E-03 0. -1.
    9900012    2    1    2    0    0  0.14030439063E+02  0.17668074858E+02  0.37075714405E+02  0.47787277793E+02  0.20000030768E+02 0.  0.
         12    1    1    2    0    0 -0.14030439063E+02 -0.17668074858E+02 -0.37075714405E+02  0.43400722207E+02  0.00000000000E+00 0. -1.
         11    1    3    3    0    0  0.75291015298E+01  0.59543701804E+01  0.35366161867E+01  0.10229836187E+02  0.51100000000E-03 0. -1.
        -11    1    3    3    0    0  0.30814099921E+01  0.12017150554E+01  0.19039330101E+02  0.19324474057E+02  0.51100000000E-03 0.  1.
         12    1    3    3    0    0  0.34199275408E+01  0.10511989622E+02  0.14499768117E+02  0.18232967549E+02  0.00000000000E+00 0. -1.
</event>
<event>
 7    1  0.5559916E-010  0.4778727E+02  0.7816164E-02  0.1312668E+00
        -11   -1    0    0    0    0  0.00000000000E+00  0.00000000000E+00  0.45593999997E+02  0.45594000000E+02  0.51100000000E-03 0.  1.
         11   -1    0    0    0    0 -0.00000000000E+00 -0.00000000000E+00 -0.45593999997E+02  0.45594000000E+02  0.51100000000E-03 0. -1.
    9900012    2    1    2    0    0  0.15899517717E+02 -0.39592157375E+02  0.79554876218E+01  0.47787269907E+02  0.19999994816E+02 0.  0.
         12    1    1    2    0    0 -0.15899517717E+02  0.39592157375E+02 -0.79554876218E+01  0.43400730093E+02  0.00000000000E+00 0. -1.
         11    1    3    3    0    0  0.42288422805E+01  0.60433234228E+00  0.35120621653E+01  0.55301813286E+01  0.51100000000E-03 0. -1.
        -11    1    3    3    0    0  0.98007525678E+01 -0.31741469638E+02  0.21007581408E+01  0.33286466179E+02  0.51100000000E-03 0.  1.
        -12    1    3    3    0    0  0.18699228689E+01 -0.84550200795E+01  0.23426673156E+01  0.89706223994E+01  0.00000000000E+00 0.  1.
</event>
<event>
 7    1  0.5559916E-010  0.4778728E+02  0.7816164E-02  0.1312668E+00
        -11   -1    0    0    0    0  0.00000000000E+00  0.00000000000E+00  0.45593999997E+02  0.45594000000E+02  0.51100000000E-03 0.  1.
         11   -1    0    0    0    0 -0.00000000000E+00 -0.00000000000E+00 -0.45593999997E+02  0.45594000000E+02  0.51100000000E-03 0. -1.
    9900012    2    1    2    0    0 -0.37628734853E+02 -0.42143344772E-01  0.21626352292E+02  0.47787279083E+02  0.20000036649E+02 0.  0.
         12    1    1    2    0    0  0.37628734853E+02  0.42143344772E-01 -0.21626352292E+02  0.43400720917E+02  0.00000000000E+00 0. -1.
         11    1    3    3    0    0 -0.23674601044E+01  0.48023327098E+01  0.76635746130E+01  0.93486706494E+01  0.51100000000E-03 0. -1.
        -11    1    3    3    0    0 -0.28925802937E+02 -0.53973484948E+01  0.12059148893E+02  0.31800259726E+02  0.51100000000E-03 0.  1.
         12    1    3    3    0    0 -0.63354718113E+01  0.55287244020E+00  0.19036287859E+01  0.66383487074E+01  0.00000000000E+00 0. -1.
</event>
<event>
 7    1  0.5559916E-010  0.4778727E+02  0.7816164E-02  0.1312668E+00
        -11   -1    0    0    0    0  0.00000000000E+00  0.00000000000E+00  0.45593999997E+02  0.45594000000E+02  0.51100000000E-03 0. -1.
         11   -1    0    0    0    0 -0.00000000000E+00 -0.00000000000E+00 -0.45593999997E+02  0.45594000000E+02  0.51100000000E-03 0.  1.
    9900012    2    1    2    0    0  0.41899325439E+02 -0.22766276651E+01 -0.11085416713E+02  0.47787274551E+02  0.20000015990E+02 0.  0.
         12    1    1    2    0    0 -0.41899325439E+02  0.22766276651E+01  0.11085416713E+02  0.43400725449E+02  0.00000000000E+00 0. -1.
         11    1    3    3    0    0  0.13492242070E+02 -0.43957098054E+01 -0.12434785243E+02  0.18867611005E+02  0.51100000000E-03 0. -1.
        -11    1    3    3    0    0  0.13578177349E+02  0.33630818385E+01  0.13383971870E+00  0.13989107652E+02  0.51100000000E-03 0.  1.
         12    1    3    3    0    0  0.14828906021E+02 -0.12439996982E+01  0.12155288110E+01  0.14930555894E+02  0.00000000000E+00 0. -1.
</event>
<event>
 7    1  0.5559916E-010  0.4778727E+02  0.7816164E-02  0.1312668E+00
        -11   -1    0    0    0    0  0.00000000000E+00  0.00000000000E+00  0.45593999997E+02  0.45594000000E+02  0.51100000000E-03 0.  1.
         11   -1    0    0    0    0 -0.00000000000E+00 -0.00000000000E+00 -0.45593999997E+02  0.45594000000E+02  0.51100000000E-03 0. -1.
    9900012    2    1    2    0    0 -0.25210797934E+02 -0.31332640450E+02  0.16318835730E+02  0.47787273167E+02  0.20000009677E+02 0.  0.
         12    1    1    2    0    0  0.25210797934E+02  0.31332640450E+02 -0.16318835730E+02  0.43400726833E+02  0.00000000000E+00 0. -1.
         11    1    3    3    0    0 -0.86351673693E+00 -0.25554340463E+01 -0.29215123439E+00  0.27131636377E+01  0.51100000000E-03 0. -1.
        -11    1    3    3    0    0 -0.33446868459E+01 -0.17459989826E+02  0.45968513824E+01  0.18362168111E+02  0.51100000000E-03 0.  1.
        -12    1    3    3    0    0 -0.21002594352E+02 -0.11317216578E+02  0.12014135582E+02  0.26711941419E+02  0.00000000000E+00 0.  1.
</event>
<event>
 7    1  0.5559916E-010  0.4778726E+02  0.7816164E-02  0.1312668E+00
        -11   -1    0    0    0    0  0.00000000000E+00  0.00000000000E+00  0.45593999997E+02  0.45594000000E+02  0.51100000000E-03 0.  1.
         11   -1    0    0    0    0 -0.00000000000E+00 -0.00000000000E+00 -0.45593999997E+02  0.45594000000E+02  0.51100000000E-03 0. -1.
    9900012    2    1    2    0    0 -0.26750901619E+02 -0.25595507045E+02  0.22646922778E+02  0.47787264642E+02  0.19999970808E+02 0.  0.
         12    1    1    2    0    0  0.26750901619E+02  0.25595507045E+02 -0.22646922778E+02  0.43400735358E+02  0.00000000000E+00 0. -1.
         11    1    3    3    0    0 -0.11013426042E+02 -0.11968308348E+02  0.49746994137E+01  0.17008338908E+02  0.51100000000E-03 0. -1.
        -11    1    3    3    0    0 -0.20851563832E+01  0.29553069785E+01  0.16151409386E+01  0.39611105756E+01  0.51100000000E-03 0.  1.
        -12    1    3    3    0    0 -0.13652319195E+02 -0.16582505675E+02  0.16057082425E+02  0.26817815158E+02  0.00000000000E+00 0.  1.
</event>
<event>
 7    1  0.5559916E-010  0.4778727E+02  0.7816164E-02  0.1312668E+00
        -11   -1    0    0    0    0  0.00000000000E+00  0.00000000000E+00  0.45593999997E+02  0.45594000000E+02  0.51100000000E-03 0.  1.
         11   -1    0    0    0    0 -0.00000000000E+00 -0.00000000000E+00 -0.45593999997E+02  0.45594000000E+02  0.51100000000E-03 0. -1.
    9900012    2    1    2    0    0 -0.25732432761E+02  0.31857991213E+02  0.14371271930E+02  0.47787272393E+02  0.20000006148E+02 0.  0.
         12    1    1    2    0    0  0.25732432761E+02 -0.31857991213E+02 -0.14371271930E+02  0.43400727607E+02  0.00000000000E+00 0. -1.
         11    1    3    3    0    0  0.19928862586E+01  0.33016981203E+01  0.22334175386E+01  0.44565637301E+01  0.51100000000E-03 0. -1.
        -11    1    3    3    0    0 -0.17728143544E+02  0.96100096617E+01  0.63252687236E+01  0.21134057440E+02  0.51100000000E-03 0.  1.
        -12    1    3    3    0    0 -0.99971754763E+01  0.18946283431E+02  0.58125856679E+01  0.22196651223E+02  0.00000000000E+00 0.  1.
</event>
<event>
 7    1  0.5559916E-010  0.4778727E+02  0.7816164E-02  0.1312668E+00
        -11   -1    0    0    0    0  0.00000000000E+00  0.00000000000E+00  0.45593999997E+02  0.45594000000E+02  0.51100000000E-03 0. -1.
         11   -1    0    0    0    0 -0.00000000000E+00 -0.00000000000E+00 -0.45593999997E+02  0.45594000000E+02  0.51100000000E-03 0.  1.
    9900012    2    1    2    0    0 -0.76494784532E+01 -0.71850115447E+01 -0.42112758973E+02  0.47787269824E+02  0.19999994436E+02 0.  0.
         12    1    1    2    0    0  0.76494784532E+01  0.71850115447E+01  0.42112758973E+02  0.43400730176E+02  0.00000000000E+00 0. -1.
         11    1    3    3    0    0  0.15734386156E+01 -0.41598691670E+01 -0.21969659126E+02  0.22415310458E+02  0.51100000000E-03 0. -1.
        -11    1    3    3    0    0 -0.35717572827E+01  0.32446906110E+01 -0.17473109020E+01  0.51321109591E+01  0.51100000000E-03 0.  1.
        -12    1    3    3    0    0 -0.56511597861E+01 -0.62698329887E+01 -0.18395788945E+02  0.20239848407E+02  0.00000000000E+00 0.  1.
</event>
<event>
 7    1  0.5559916E-010  0.4778727E+02  0.7816164E-02  0.1312668E+00
        -11   -1    0    0    0    0  0.00000000000E+00  0.00000000000E+00  0.45593999997E+02  0.45594000000E+02  0.51100000000E-03 0.  1.
         11   -1    0    0    0    0 -0.00000000000E+00 -0.00000000000E+00 -0.45593999997E+02  0.45594000000E+02  0.51100000000E-03 0. -1.
    9900012    2    1    2    0    0  0.19893082686E+02  0.37805534875E+02  0.76570175589E+01  0.47787272773E+02  0.20000007881E+02 0.  0.
         12    1    1    2    0    0 -0.19893082686E+02 -0.37805534875E+02 -0.76570175589E+01  0.43400727227E+02  0.00000000000E+00 0. -1.
         11    1    3    3    0    0  0.16955346178E+01  0.17106624886E+01 -0.41262845503E+01  0.47778057978E+01  0.51100000000E-03 0. -1.
        -11    1    3    3    0    0  0.34080399913E+01  0.10408921278E+02 -0.40902795875E+00  0.10960277500E+02  0.51100000000E-03 0.  1.
         12    1    3    3    0    0  0.14789508077E+02  0.25685951109E+02  0.12192330068E+02  0.32049189475E+02  0.00000000000E+00 0. -1.
</event>
<event>
 7    1  0.5559916E-010  0.4778727E+02  0.7816164E-02  0.1312668E+00
        -11   -1    0    0    0    0  0.00000000000E+00  0.00000000000E+00  0.45593999997E+02  0.45594000000E+02  0.51100000000E-03 0.  1.
         11   -1    0    0    0    0 -0.00000000000E+00 -0.00000000000E+00 -0.45593999997E+02  0.45594000000E+02  0.51100000000E-03 0. -1.
    9900012    2    1    2    0    0  0.45090264953E+01  0.43165713875E+02 -0.11522093330E+00  0.47787269013E+02  0.19999990740E+02 0.  0.
         12    1    1    2    0    0 -0.45090264953E+01 -0.43165713875E+02  0.11522093330E+00  0.43400730987E+02  0.00000000000E+00 0. -1.
         11    1    3    3    0    0  0.15279533669E+01  0.35277113686E+02  0.47902939622E+00  0.35313437399E+02  0.51100000000E-03 0. -1.
        -11    1    3    3    0    0  0.40390898037E+00  0.93075874910E+01 -0.14061517511E+01  0.94218676691E+01  0.51100000000E-03 0.  1.
         12    1    3    3    0    0  0.25771641480E+01 -0.14189873013E+01  0.81190142159E+00  0.30519639456E+01  0.00000000000E+00 0. -1.
</event>
<event>
 7    1  0.5559916E-010  0.4778725E+02  0.7816164E-02  0.1312668E+00
        -11   -1    0    0    0    0  0.00000000000E+00  0.00000000000E+00  0.45593999997E+02  0.45594000000E+02  0.51100000000E-03 0.  1.
         11   -1    0    0    0    0 -0.00000000000E+00 -0.00000000000E+00 -0.45593999997E+02  0.45594000000E+02  0.51100000000E-03 0. -1.
    9900012    2    1    2    0    0 -0.14080975725E+02  0.31840219841E+01  0.40929371310E+02  0.47787247597E+02  0.19999893092E+02 0.  0.
         12    1    1    2    0    0  0.14080975725E+02 -0.31840219841E+01 -0.40929371310E+02  0.43400752403E+02  0.00000000000E+00 0. -1.
         11    1    3    3    0    0 -0.15619642359E+01 -0.42623479296E+01  0.19914256571E+02  0.20425106051E+02  0.51100000000E-03 0. -1.
        -11    1    3    3    0    0 -0.14081939428E+02  0.75071940796E+01  0.19066633557E+02  0.24863537489E+02  0.51100000000E-03 0.  1.
        -12    1    3    3    0    0  0.15629279385E+01 -0.60824165851E-01  0.19484811818E+01  0.24986040574E+01  0.00000000000E+00 0.  1.
</event>
<event>
 7    1  0.5559916E-010  0.4778727E+02  0.7816164E-02  0.1312668E+00
        -11   -1    0    0    0    0  0.00000000000E+00  0.00000000000E+00  0.45593999997E+02  0.45594000000E+02  0.51100000000E-03 0. -1.
         11   -1    0    0    0    0 -0.00000000000E+00 -0.00000000000E+00 -0.45593999997E+02  0.45594000000E+02  0.51100000000E-03 0.  1.
    9900012    2    1    2    0    0 -0.75115147438E+01 -0.35477568753E+02 -0.23844132724E+02  0.47787269548E+02  0.19999993177E+02 0.  0.
         12    1    1    2    0    0  0.75115147438E+01  0.35477568753E+02  0.23844132724E+02  0.43400730452E+02  0.00000000000E+00 0. -1.
         11    1    3    3    0    0 -0.46317588511E+01 -0.30373773829E+01 -0.10332681735E+02  0.11723615634E+02  0.51100000000E-03 0. -1.
        -11    1    3    3    0    0  0.13616957269E+00 -0.27492642879E+02 -0.12416647913E+02  0.30166821183E+02  0.51100000000E-03 0.  1.
        -12    1    3    3    0    0 -0.30159254654E+01 -0.49475484912E+01 -0.10948030764E+01  0.58968327314E+01  0.00000000000E+00 0.  1.
</event>
<event>
 7    1  0.5559916E-010  0.4778726E+02  0.7816164E-02  0.1312668E+00
        -11   -1    0    0    0    0  0.00000000000E+00  0.00000000000E+00  0.45593999997E+02  0.45594000000E+02  0.51100000000E-03 0.  1.
         11   -1    0    0    0    0 -0.00000000000E+00 -0.00000000000E+00 -0.45593999997E+02  0.45594000000E+02  0.51100000000E-03 0. -1.
    9900012    2    1    2    0    0  0.13645442266E+02 -0.33584289260E+01  0.41062723156E+02  0.47787258388E+02  0.19999942295E+02 0.  0.
         12    1    1    2    0    0 -0.13645442266E+02  0.33584289260E+01 -0.41062723156E+02  0.43400741612E+02  0.00000000000E+00 0. -1.
         11    1    3    3    0    0 -0.28099404770E+01  0.15877490827E+01  0.90327882355E+00  0.33515109321E+01  0.51100000000E-03 0. -1.
        -11    1    3    3    0    0  0.13690383715E+02 -0.11581623088E+01  0.24504093732E+02  0.28093033943E+02  0.51100000000E-03 0.  1.
         12    1    3    3    0    0  0.27649990275E+01 -0.37880156999E+01  0.15655350600E+02  0.16342713513E+02  0.00000000000E+00 0. -1.
</event>
<event>
 7    1  0.5559916E-010  0.4778730E+02  0.7816164E-02  0.1312668E+00
        -11   -1    0    0    0    0  0.00000000000E+00  0.00000000000E+00  0.45593999997E+02  0.45594000000E+02  0.51100000000E-03 0.  1.
         11   -1    0    0    0    0 -0.00000000000E+00 -0.00000000000E+00 -0.45593999997E+02  0.45594000000E+02  0.51100000000E-03 0. -1.
    9900012    2    1    2    0    0 -0.23147079251E+02  0.35389426746E+02 -0.97684146495E+01  0.47787300374E+02  0.20000133726E+02 0.  0.
         12    1    1    2    0    0  0.23147079251E+02 -0.35389426746E+02  0.97684146495E+01  0.43400699626E+02  0.00000000000E+00 0. -1.
         11    1    3    3    0    0 -0.54722786275E+01  0.15923177915E+02  0.46324681057E+01  0.17462908959E+02  0.51100000000E-03 0. -1.
        -11    1    3    3    0    0 -0.12707038469E+02  0.15753882455E+02 -0.92092806199E+01  0.22236557487E+02  0.51100000000E-03 0.  1.
         12    1    3    3    0    0 -0.49677621545E+01  0.37123663756E+01 -0.51916021353E+01  0.80878339289E+01  0.00000000000E+00 0. -1.
</event>
<event>
 7    1  0.5559916E-010  0.4778727E+02  0.7816164E-02  0.1312668E+00
        -11   -1    0    0    0    0  0.00000000000E+00  0.00000000000E+00  0.45593999997E+02  0.45594000000E+02  0.51100000000E-03 0. -1.
         11   -1    0    0    0    0 -0.00000000000E+00 -0.00000000000E+00 -0.45593999997E+02  0.45594000000E+02  0.51100000000E-03 0.  1.
    9900012    2    1    2    0    0 -0.26322583067E+02 -0.27397655026E+02 -0.20978880990E+02  0.47787270423E+02  0.19999997165E+02 0.  0.
         12    1    1    2    0    0  0.26322583067E+02  0.27397655026E+02  0.20978880990E+02  0.43400729577E+02  0.00000000000E+00 0. -1.
         11    1    3    3    0    0 -0.18930275890E+02 -0.15120892231E+02 -0.54517957514E+01  0.24833823795E+02  0.51100000000E-03 0. -1.
        -11    1    3    3    0    0 -0.85213587164E+01 -0.10941939089E+02 -0.98430621828E+01  0.17006629848E+02  0.51100000000E-03 0.  1.
         12    1    3    3    0    0  0.11290515393E+01 -0.13348237066E+01 -0.56840230559E+01  0.59468167793E+01  0.00000000000E+00 0. -1.
</event>
<event>
 7    1  0.5559916E-010  0.4778727E+02  0.7816164E-02  0.1312668E+00
        -11   -1    0    0    0    0  0.00000000000E+00  0.00000000000E+00  0.45593999997E+02  0.45594000000E+02  0.51100000000E-03 0.  1.
         11   -1    0    0    0    0 -0.00000000000E+00 -0.00000000000E+00 -0.45593999997E+02  0.45594000000E+02  0.51100000000E-03 0. -1.
    9900012    2    1    2    0    0 -0.41774727606E+02 -0.60191214092E+01 -0.10112636568E+02  0.47787272962E+02  0.20000008743E+02 0.  0.
         12    1    1    2    0    0  0.41774727606E+02  0.60191214092E+01  0.10112636568E+02  0.43400727038E+02  0.00000000000E+00 0. -1.
         11    1    3    3    0    0 -0.51073407830E+01 -0.65249643696E-01  0.53675360668E+01  0.74094285258E+01  0.51100000000E-03 0. -1.
        -11    1    3    3    0    0 -0.19254687333E+02 -0.40521848099E+01 -0.96611891826E+01  0.21920350424E+02  0.51100000000E-03 0.  1.
         12    1    3    3    0    0 -0.17412699490E+02 -0.19016869555E+01 -0.58189834518E+01  0.18457494012E+02  0.00000000000E+00 0. -1.
</event>
<event>
 7    1  0.5559916E-010  0.4778727E+02  0.7816164E-02  0.1312668E+00
        -11   -1    0    0    0    0  0.00000000000E+00  0.00000000000E+00  0.45593999997E+02  0.45594000000E+02  0.51100000000E-03 0.  1.
         11   -1    0    0    0    0 -0.00000000000E+00 -0.00000000000E+00 -0.45593999997E+02  0.45594000000E+02  0.51100000000E-03 0. -1.
    9900012    2    1    2    0    0 -0.30584440409E+02 -0.30780752326E+02  0.87213379662E+00  0.47787270441E+02  0.19999997251E+02 0.  0.
         12    1    1    2    0    0  0.30584440409E+02  0.30780752326E+02 -0.87213379662E+00  0.43400729559E+02  0.00000000000E+00 0. -1.
         11    1    3    3    0    0 -0.28095743352E+02 -0.19906766301E+02 -0.14221614954E+01  0.34462627332E+02  0.51100000000E-03 0. -1.
        -11    1    3    3    0    0 -0.32340802712E+01 -0.39086550066E+01 -0.15877292540E+01  0.53158013136E+01  0.51100000000E-03 0.  1.
         12    1    3    3    0    0  0.74538321450E+00 -0.69653310183E+01  0.38820245460E+01  0.80088417956E+01  0.00000000000E+00 0. -1.
</event>
<event>
 7    1  0.5559916E-010  0.4778728E+02  0.7816164E-02  0.1312668E+00
        -11   -1    0    0    0    0  0.00000000000E+00  0.00000000000E+00  0.45593999997E+02  0.45594000000E+02  0.51100000000E-03 0.  1.
         11   -1    0    0    0    0 -0.00000000000E+00 -0.00000000000E+00 -0.45593999997E+02  0.45594000000E+02  0.51100000000E-03 0. -1.
    9900012    2    1    2    0    0  0.20457003949E+01 -0.37810840660E+02  0.21207967569E+02  0.47787280537E+02  0.20000043279E+02 0.  0.
         12    1    1    2    0    0 -0.20457003949E+01  0.37810840660E+02 -0.21207967569E+02  0.43400719463E+02  0.00000000000E+00 0. -1.
         11    1    3    3    0    0  0.35961665145E+00 -0.90435026143E+01  0.27467712025E+01  0.94582776429E+01  0.51100000000E-03 0. -1.
        -11    1    3    3    0    0  0.40429274097E+00 -0.30960727961E+02  0.16289549551E+02  0.34986848292E+02  0.51100000000E-03 0.  1.
        -12    1    3    3    0    0  0.12817910025E+01  0.21933899156E+01  0.21716468150E+01  0.33421546022E+01  0.00000000000E+00 0.  1.
</event>
<event>
 7    1  0.5559916E-010  0.4778727E+02  0.7816164E-02  0.1312668E+00
        -11   -1    0    0    0    0  0.00000000000E+00  0.00000000000E+00  0.45593999997E+02  0.45594000000E+02  0.51100000000E-03 0. -1.
         11   -1    0    0    0    0 -0.00000000000E+00 -0.00000000000E+00 -0.45593999997E+02  0.45594000000E+02  0.51100000000E-03 0.  1.
    9900012    2    1    2    0    0 -0.24129673540E+02 -0.33466529173E+02 -0.13467505838E+02  0.47787269205E+02  0.19999991615E+02 0.  0.
         12    1    1    2    0    0  0.24129673540E+02  0.33466529173E+02  0.13467505838E+02  0.43400730795E+02  0.00000000000E+00 0. -1.
         11    1    3    3    0    0 -0.12910853775E+02 -0.44396217374E+01 -0.32488064898E+00  0.13656717544E+02  0.51100000000E-03 0. -1.
        -11    1    3    3    0    0 -0.45491639589E+01 -0.17775371025E+02 -0.65421469741E+01  0.19479691863E+02  0.51100000000E-03 0.  1.
         12    1    3    3    0    0 -0.66696558056E+01 -0.11251536410E+02 -0.66004782147E+01  0.14650859798E+02  0.00000000000E+00 0. -1.
</event>
<event>
 7    1  0.5559916E-010  0.4778727E+02  0.7816164E-02  0.1312668E+00
        -11   -1    0    0    0    0  0.00000000000E+00  0.00000000000E+00  0.45593999997E+02  0.45594000000E+02  0.51100000000E-03 0. -1.
         11   -1    0    0    0    0 -0.00000000000E+00 -0.00000000000E+00 -0.45593999997E+02  0.45594000000E+02  0.51100000000E-03 0.  1.
    9900012    2    1    2    0    0 -0.24230448779E+02 -0.26996101409E+02 -0.23826856381E+02  0.47787271616E+02  0.20000002605E+02 0.  0.
         12    1    1    2    0    0  0.24230448779E+02  0.26996101409E+02  0.23826856381E+02  0.43400728384E+02  0.00000000000E+00 0. -1.
         11    1    3    3    0    0 -0.21305204029E+01 -0.12134969291E+02 -0.46825510108E+00  0.12329471196E+02  0.51100000000E-03 0.  1.
        -11    1    3    3    0    0 -0.17324793081E+02 -0.12352430897E+02 -0.18905524507E+02  0.28463131618E+02  0.51100000000E-03 0. -1.
        -12    1    3    3    0    0 -0.47751352948E+01 -0.25087012213E+01 -0.44530767729E+01  0.69946688018E+01  0.00000000000E+00 0.  1.
</event>
<event>
 7    1  0.5559916E-010  0.4778727E+02  0.7816164E-02  0.1312668E+00
        -11   -1    0    0    0    0  0.00000000000E+00  0.00000000000E+00  0.45593999997E+02  0.45594000000E+02  0.51100000000E-03 0.  1.
         11   -1    0    0    0    0 -0.00000000000E+00 -0.00000000000E+00 -0.45593999997E+02  0.45594000000E+02  0.51100000000E-03 0. -1.
    9900012    2    1    2    0    0 -0.27911606104E+02 -0.90222916952E+01  0.31986932420E+02  0.47787270186E+02  0.19999996087E+02 0.  0.
         12    1    1    2    0    0  0.27911606104E+02  0.90222916952E+01 -0.31986932420E+02  0.43400729814E+02  0.00000000000E+00 0. -1.
         11    1    3    3    0    0 -0.44038975336E+01 -0.80630195570E+01  0.36172798707E+01  0.98737688745E+01  0.51100000000E-03 0. -1.
        -11    1    3    3    0    0 -0.99234393256E+01 -0.40098079835E+01  0.16231683953E+02  0.19442756294E+02  0.51100000000E-03 0.  1.
         12    1    3    3    0    0 -0.13584269244E+02  0.30505358453E+01  0.12137968596E+02  0.18470745017E+02  0.00000000000E+00 0. -1.
</event>
<event>
 7    1  0.5559916E-010  0.4778728E+02  0.7816164E-02  0.1312668E+00
        -11   -1    0    0    0    0  0.00000000000E+00  0.00000000000E+00  0.45593999997E+02  0.45594000000E+02  0.51100000000E-03 0. -1.
         11   -1    0    0    0    0 -0.00000000000E+00 -0.00000000000E+00 -0.45593999997E+02  0.45594000000E+02  0.51100000000E-03 0.  1.
    9900012    2    1    2    0    0  0.28636776634E+02 -0.18924776118E+02 -0.26559557045E+02  0.47787283444E+02  0.20000056534E+02 0.  0.
         12    1    1    2    0    0 -0.28636776634E+02  0.18924776118E+02  0.26559557045E+02  0.43400716556E+02  0.00000000000E+00 0. -1.
         11    1    3    3    0    0  0.57699035472E+01 -0.59028807119E+01  0.92699975260E+00  0.83063299023E+01  0.51100000000E-03 0. -1.
        -11    1    3    3    0    0  0.17327815324E+02 -0.44581380805E+01 -0.19960353865E+02  0.26805669284E+02  0.51100000000E-03 0.  1.
         12    1    3    3    0    0  0.55390577628E+01 -0.85637573258E+01 -0.75262029326E+01  0.12675284258E+02  0.00000000000E+00 0. -1.
</event>
<event>
 7    1  0.5559916E-010  0.4778727E+02  0.7816164E-02  0.1312668E+00
        -11   -1    0    0    0    0  0.00000000000E+00  0.00000000000E+00  0.45593999997E+02  0.45594000000E+02  0.51100000000E-03 0.  1.
         11   -1    0    0    0    0 -0.00000000000E+00 -0.00000000000E+00 -0.45593999997E+02  0.45594000000E+02  0.51100000000E-03 0. -1.
    9900012    2    1    2    0    0 -0.15484979474E+02 -0.54106718738E+00  0.40540667545E+02  0.47787273416E+02  0.20000010812E+02 0.  0.
         12    1    1    2    0    0  0.15484979474E+02  0.54106718738E+00 -0.40540667545E+02  0.43400726584E+02  0.00000000000E+00 0. -1.
         11    1    3    3    0    0 -0.98763403052E+01  0.66641097601E+01  0.21253599549E+02  0.24365302189E+02  0.51100000000E-03 0. -1.
        -11    1    3    3    0    0 -0.63381491017E+00 -0.50827974352E+01  0.16620179560E+02  0.17391576121E+02  0.51100000000E-03 0.  1.
        -12    1    3    3    0    0 -0.49748242588E+01 -0.21223795123E+01  0.26668884371E+01  0.60303951061E+01  0.00000000000E+00 0.  1.
</event>
<event>
 7    1  0.5559916E-010  0.4778727E+02  0.7816164E-02  0.1312668E+00
        -11   -1    0    0    0    0  0.00000000000E+00  0.00000000000E+00  0.45593999997E+02  0.45594000000E+02  0.51100000000E-03 0. -1.
         11   -1    0    0    0    0 -0.00000000000E+00 -0.00000000000E+00 -0.45593999997E+02  0.45594000000E+02  0.51100000000E-03 0.  1.
    9900012    2    1    2    0    0 -0.73275427011E+01  0.15851285197E+02 -0.39732449181E+02  0.47787266799E+02  0.19999980643E+02 0.  0.
         12    1    1    2    0    0  0.73275427011E+01 -0.15851285197E+02  0.39732449181E+02  0.43400733201E+02  0.00000000000E+00 0. -1.
         11    1    3    3    0    0 -0.15811460498E+01  0.59515275012E+01 -0.13800677930E+01  0.63107281516E+01  0.51100000000E-03 0. -1.
        -11    1    3    3    0    0 -0.14479078307E+01  0.64552730889E+01 -0.69522076355E+01  0.95968838175E+01  0.51100000000E-03 0.  1.
         12    1    3    3    0    0 -0.42984888206E+01  0.34444846070E+01 -0.31400173753E+02  0.31879654830E+02  0.00000000000E+00 0. -1.
</event>
<event>
 7    1  0.5559916E-010  0.4778727E+02  0.7816164E-02  0.1312668E+00
        -11   -1    0    0    0    0  0.00000000000E+00  0.00000000000E+00  0.45593999997E+02  0.45594000000E+02  0.51100000000E-03 0.  1.
         11   -1    0    0    0    0 -0.00000000000E+00 -0.00000000000E+00 -0.45593999997E+02  0.45594000000E+02  0.51100000000E-03 0. -1.
    9900012    2    1    2    0    0 -0.28910122041E+02  0.80786807512E+01  0.31345865572E+02  0.47787268121E+02  0.19999986672E+02 0.  0.
         12    1    1    2    0    0  0.28910122041E+02 -0.80786807512E+01 -0.31345865572E+02  0.43400731879E+02  0.00000000000E+00 0. -1.
         11    1    3    3    0    0 -0.37779642625E+01 -0.39058471657E+01  0.25883142825E+01  0.60189722658E+01  0.51100000000E-03 0. -1.
        -11    1    3    3    0    0 -0.11301320643E+02  0.66392105428E+01  0.21688837305E+02  0.25341756624E+02  0.51100000000E-03 0.  1.
        -12    1    3    3    0    0 -0.13830837136E+02  0.53453173741E+01  0.70687139848E+01  0.16426539231E+02  0.00000000000E+00 0.  1.
</event>
<event>
 7    1  0.5559916E-010  0.4778729E+02  0.7816164E-02  0.1312668E+00
        -11   -1    0    0    0    0  0.00000000000E+00  0.00000000000E+00  0.45593999997E+02  0.45594000000E+02  0.51100000000E-03 0.  1.
         11   -1    0    0    0    0 -0.00000000000E+00 -0.00000000000E+00 -0.45593999997E+02  0.45594000000E+02  0.51100000000E-03 0. -1.
    9900012    2    1    2    0    0 -0.37281050763E+02  0.15834752936E+02  0.15588645393E+02  0.47787285585E+02  0.20000066296E+02 0.  0.
         12    1    1    2    0    0  0.37281050763E+02 -0.15834752936E+02 -0.15588645393E+02  0.43400714415E+02  0.00000000000E+00 0. -1.
         11    1    3    3    0    0 -0.55763897422E+01  0.15384815494E+00 -0.27662839728E+01  0.62267261937E+01  0.51100000000E-03 0. -1.
        -11    1    3    3    0    0 -0.30821332666E+02  0.17259533004E+02  0.18219204823E+02  0.39746514960E+02  0.51100000000E-03 0.  1.
        -12    1    3    3    0    0 -0.88332835465E+00 -0.15786282223E+01  0.13572454250E+00  0.18140444311E+01  0.00000000000E+00 0.  1.
</event>
<event>
 7    1  0.5559916E-010  0.4778726E+02  0.7816164E-02  0.1312668E+00
        -11   -1    0    0    0    0  0.00000000000E+00  0.00000000000E+00  0.45593999997E+02  0.45594000000E+02  0.51100000000E-03 0.  1.
         11   -1    0    0    0    0 -0.00000000000E+00 -0.00000000000E+00 -0.45593999997E+02  0.45594000000E+02  0.51100000000E-03 0. -1.
    9900012    2    1    2    0    0 -0.20831262334E+02 -0.70741351504E+00  0.38068122039E+02  0.47787264523E+02  0.19999970267E+02 0.  0.
         12    1    1    2    0    0  0.20831262334E+02  0.70741351504E+00 -0.38068122039E+02  0.43400735477E+02  0.00000000000E+00 0. -1.
         11    1    3    3    0    0 -0.83980581845E+01  0.38633749831E+01  0.40299009016E+01  0.10084302111E+02  0.51100000000E-03 0. -1.
        -11    1    3    3    0    0 -0.33693748286E+01 -0.57374756263E+01  0.18702734634E+02  0.19851035146E+02  0.51100000000E-03 0.  1.
        -12    1    3    3    0    0 -0.90638293212E+01  0.11666871281E+01  0.15335486504E+02  0.17851927266E+02  0.00000000000E+00 0.  1.
</event>
<event>
 7    1  0.5559916E-010  0.4778727E+02  0.7816164E-02  0.1312668E+00
        -11   -1    0    0    0    0  0.00000000000E+00  0.00000000000E+00  0.45593999997E+02  0.45594000000E+02  0.51100000000E-03 0.  1.
         11   -1    0    0    0    0 -0.00000000000E+00 -0.00000000000E+00 -0.45593999997E+02  0.45594000000E+02  0.51100000000E-03 0. -1.
    9900012    2    1    2    0    0 -0.17598699627E+02  0.35267505418E+02  0.18168985353E+02  0.47787271945E+02  0.20000004105E+02 0.  0.
         12    1    1    2    0    0  0.17598699627E+02 -0.35267505418E+02 -0.18168985353E+02  0.43400728055E+02  0.00000000000E+00 0. -1.
         11    1    3    3    0    0 -0.81687021103E+01  0.70265510471E+01  0.54028736972E+01  0.12053678204E+02  0.51100000000E-03 0. -1.
        -11    1    3    3    0    0  0.12372739122E+01  0.50520792277E+01  0.83383202446E+01  0.98276109009E+01  0.51100000000E-03 0.  1.
        -12    1    3    3    0    0 -0.10667271429E+02  0.23188875143E+02  0.44277914115E+01  0.25905982840E+02  0.00000000000E+00 0.  1.
</event>
<event>
 7    1  0.5559916E-010  0.4778727E+02  0.7816164E-02  0.1312668E+00
        -11   -1    0    0    0    0  0.00000000000E+00  0.00000000000E+00  0.45593999997E+02  0.45594000000E+02  0.51100000000E-03 0. -1.
         11   -1    0    0    0    0 -0.00000000000E+00 -0.00000000000E+00 -0.45593999997E+02  0.45594000000E+02  0.51100000000E-03 0.  1.
    9900012    2    1    2    0    0  0.31209879920E+02 -0.25177283981E+02 -0.16603346454E+02  0.47787270205E+02  0.19999996171E+02 0.  0.
         12    1    1    2    0    0 -0.31209879920E+02  0.25177283981E+02  0.16603346454E+02  0.43400729795E+02  0.00000000000E+00 0. -1.
         11    1    3    3    0    0  0.16468214162E+02 -0.28683684778E+01 -0.11997196780E+02  0.20575770854E+02  0.51100000000E-03 0. -1.
        -11    1    3    3    0    0  0.59979755288E+01 -0.99083023288E+01 -0.10699251973E+01  0.11631633835E+02  0.51100000000E-03 0.  1.
         12    1    3    3    0    0  0.87436902290E+01 -0.12400613175E+02 -0.35362244771E+01  0.15579865515E+02  0.00000000000E+00 0. -1.
</event>
<event>
 7    1  0.5559916E-010  0.4778727E+02  0.7816164E-02  0.1312668E+00
        -11   -1    0    0    0    0  0.00000000000E+00  0.00000000000E+00  0.45593999997E+02  0.45594000000E+02  0.51100000000E-03 0.  1.
         11   -1    0    0    0    0 -0.00000000000E+00 -0.00000000000E+00 -0.45593999997E+02  0.45594000000E+02  0.51100000000E-03 0. -1.
    9900012    2    1    2    0    0 -0.59262977656E+01 -0.32676629390E+02  0.27941727444E+02  0.47787271365E+02  0.20000001461E+02 0.  0.
         12    1    1    2    0    0  0.59262977656E+01  0.32676629390E+02 -0.27941727444E+02  0.43400728635E+02  0.00000000000E+00 0. -1.
         11    1    3    3    0    0  0.54621562547E+01 -0.14481139317E+02  0.15989629754E+02  0.22253242613E+02  0.51100000000E-03 0. -1.
        -11    1    3    3    0    0  0.49449756935E+00 -0.40362664392E+01  0.24895300902E+01  0.47679906612E+01  0.51100000000E-03 0.  1.
         12    1    3    3    0    0 -0.11882951590E+02 -0.14159223634E+02  0.94625675998E+01  0.20766038090E+02  0.00000000000E+00 0. -1.
</event>
<event>
 7    1  0.5559916E-010  0.4778727E+02  0.7816164E-02  0.1312668E+00
        -11   -1    0    0    0    0  0.00000000000E+00  0.00000000000E+00  0.45593999997E+02  0.45594000000E+02  0.51100000000E-03 0.  1.
         11   -1    0    0    0    0 -0.00000000000E+00 -0.00000000000E+00 -0.45593999997E+02  0.45594000000E+02  0.51100000000E-03 0. -1.
    9900012    2    1    2    0    0 -0.18516712793E+02 -0.38368382295E+02 -0.82838295913E+01  0.47787271374E+02  0.20000001504E+02 0.  0.
         12    1    1    2    0    0  0.18516712793E+02  0.38368382295E+02  0.82838295913E+01  0.43400728626E+02  0.00000000000E+00 0. -1.
         11    1    3    3    0    0 -0.88090221442E+01 -0.27496635965E+01  0.14137557866E+00  0.92292745298E+01  0.51100000000E-03 0. -1.
        -11    1    3    3    0    0 -0.43453226839E+01 -0.22108174938E+02 -0.83305099309E+01  0.24021878034E+02  0.51100000000E-03 0.  1.
        -12    1    3    3    0    0 -0.53623679644E+01 -0.13510543760E+02 -0.94695238977E-01  0.14536118810E+02  0.00000000000E+00 0.  1.
</event>
<event>
 7    1  0.5559916E-010  0.4778728E+02  0.7816164E-02  0.1312668E+00
        -11   -1    0    0    0    0  0.00000000000E+00  0.00000000000E+00  0.45593999997E+02  0.45594000000E+02  0.51100000000E-03 0.  1.
         11   -1    0    0    0    0 -0.00000000000E+00 -0.00000000000E+00 -0.45593999997E+02  0.45594000000E+02  0.51100000000E-03 0. -1.
    9900012    2    1    2    0    0 -0.17647640646E+02  0.33493435098E+02  0.21221992871E+02  0.47787281153E+02  0.20000046090E+02 0.  0.
         12    1    1    2    0    0  0.17647640646E+02 -0.33493435098E+02 -0.21221992871E+02  0.43400718847E+02  0.00000000000E+00 0. -1.
         11    1    3    3    0    0 -0.18090167030E+02  0.20134785136E+02  0.14268487549E+02  0.30598258983E+02  0.51100000000E-03 0. -1.
        -11    1    3    3    0    0 -0.21715316845E+01  0.54514249191E+01  0.66311064882E+01  0.88546686570E+01  0.51100000000E-03 0.  1.
         12    1    3    3    0    0  0.26140580689E+01  0.79072250430E+01  0.32239883371E+00  0.83343535128E+01  0.00000000000E+00 0. -1.
</event>
<event>
 7    1  0.5559916E-010  0.4778727E+02  0.7816164E-02  0.1312668E+00
        -11   -1    0    0    0    0  0.00000000000E+00  0.00000000000E+00  0.45593999997E+02  0.45594000000E+02  0.51100000000E-03 0.  1.
         11   -1    0    0    0    0 -0.00000000000E+00 -0.00000000000E+00 -0.45593999997E+02  0.45594000000E+02  0.51100000000E-03 0. -1.
    9900012    2    1    2    0    0 -0.14076311361E+02  0.26704734912E+02  0.31182331950E+02  0.47787271503E+02  0.20000002090E+02 0.  0.
         12    1    1    2    0    0  0.14076311361E+02 -0.26704734912E+02 -0.31182331950E+02  0.43400728497E+02  0.00000000000E+00 0. -1.
         11    1    3    3    0    0  0.13799232739E+01  0.28922043171E+01  0.39591621304E+00  0.32288982583E+01  0.51100000000E-03 0. -1.
        -11    1    3    3    0    0 -0.79490102007E+01  0.26947452039E+01  0.31237053255E+01  0.89557774708E+01  0.51100000000E-03 0.  1.
        -12    1    3    3    0    0 -0.75072244337E+01  0.21117785391E+02  0.27662710411E+02  0.35602595774E+02  0.00000000000E+00 0.  1.
</event>
<event>
 7    1  0.5559916E-010  0.4778727E+02  0.7816164E-02  0.1312668E+00
        -11   -1    0    0    0    0  0.00000000000E+00  0.00000000000E+00  0.45593999997E+02  0.45594000000E+02  0.51100000000E-03 0.  1.
         11   -1    0    0    0    0 -0.00000000000E+00 -0.00000000000E+00 -0.45593999997E+02  0.45594000000E+02  0.51100000000E-03 0. -1.
    9900012    2    1    2    0    0  0.25949460213E+02 -0.16082678814E+02  0.30847959579E+02  0.47787266672E+02  0.19999980065E+02 0.  0.
         12    1    1    2    0    0 -0.25949460213E+02  0.16082678814E+02 -0.30847959579E+02  0.43400733328E+02  0.00000000000E+00 0. -1.
         11    1    3    3    0    0  0.13877538843E+02 -0.35731898593E+01  0.66694730615E+01  0.15806189967E+02  0.51100000000E-03 0. -1.
        -11    1    3    3    0    0 -0.17841135046E+01 -0.40215717981E+01  0.75039280617E+01  0.86985652461E+01  0.51100000000E-03 0.  1.
        -12    1    3    3    0    0  0.13856034875E+02 -0.84879171570E+01  0.16674558456E+02  0.23282511459E+02  0.00000000000E+00 0.  1.
</event>
<event>
 7    1  0.5559916E-010  0.4778727E+02  0.7816164E-02  0.1312668E+00
        -11   -1    0    0    0    0  0.00000000000E+00  0.00000000000E+00  0.45593999997E+02  0.45594000000E+02  0.51100000000E-03 0.  1.
         11   -1    0    0    0    0 -0.00000000000E+00 -0.00000000000E+00 -0.45593999997E+02  0.45594000000E+02  0.51100000000E-03 0. -1.
    9900012    2    1    2    0    0  0.36598935122E+02 -0.52215113961E+01  0.22734931739E+02  0.47787270115E+02  0.19999995764E+02 0.  0.
         12    1    1    2    0    0 -0.36598935122E+02  0.52215113961E+01 -0.22734931739E+02  0.43400729885E+02  0.00000000000E+00 0. -1.
         11    1    3    3    0    0  0.14723924663E+02  0.51803797492E+01  0.77998174009E+01  0.17448995489E+02  0.51100000000E-03 0. -1.
        -11    1    3    3    0    0  0.45347151884E+01 -0.70262728713E+01  0.24776361092E+01  0.87218595066E+01  0.51100000000E-03 0.  1.
         12    1    3    3    0    0  0.17340295271E+02 -0.33756182740E+01  0.12457478229E+02  0.21616415120E+02  0.00000000000E+00 0. -1.
</event>
<event>
 7    1  0.5559916E-010  0.4778727E+02  0.7816164E-02  0.1312668E+00
        -11   -1    0    0    0    0  0.00000000000E+00  0.00000000000E+00  0.45593999997E+02  0.45594000000E+02  0.51100000000E-03 0.  1.
         11   -1    0    0    0    0 -0.00000000000E+00 -0.00000000000E+00 -0.45593999997E+02  0.45594000000E+02  0.51100000000E-03 0. -1.
    9900012    2    1    2    0    0  0.38711641415E+02 -0.29495524876E+01  0.19399282958E+02  0.47787271662E+02  0.20000002817E+02 0.  0.
         12    1    1    2    0    0 -0.38711641415E+02  0.29495524876E+01 -0.19399282958E+02  0.43400728338E+02  0.00000000000E+00 0. -1.
         11    1    3    3    0    0  0.31673336719E+01 -0.20144506872E+01  0.95553481438E+00  0.38733785257E+01  0.51100000000E-03 0. -1.
        -11    1    3    3    0    0  0.86321751700E+01 -0.78566184774E+01  0.27170441451E+01  0.11984291018E+02  0.51100000000E-03 0.  1.
        -12    1    3    3    0    0  0.26912132573E+02  0.69215166771E+01  0.15726703999E+02  0.31929602118E+02  0.00000000000E+00 0.  1.
</event>
<event>
 7    1  0.5559916E-010  0.4778727E+02  0.7816164E-02  0.1312668E+00
        -11   -1    0    0    0    0  0.00000000000E+00  0.00000000000E+00  0.45593999997E+02  0.45594000000E+02  0.51100000000E-03 0. -1.
         11   -1    0    0    0    0 -0.00000000000E+00 -0.00000000000E+00 -0.45593999997E+02  0.45594000000E+02  0.51100000000E-03 0.  1.
    9900012    2    1    2    0    0  0.22553510941E+02  0.14478713948E+02 -0.34136920671E+02  0.47787269980E+02  0.19999995147E+02 0.  0.
         12    1    1    2    0    0 -0.22553510941E+02 -0.14478713948E+02  0.34136920671E+02  0.43400730020E+02  0.00000000000E+00 0. -1.
         11    1    3    3    0    0  0.30743152454E+01 -0.45452958590E+00 -0.63471483416E+00  0.31718881686E+01  0.51100000000E-03 0. -1.
        -11    1    3    3    0    0 -0.21395220958E+01 -0.12508132870E+00 -0.20104932157E+00  0.21525847784E+01  0.51100000000E-03 0.  1.
        -12    1    3    3    0    0  0.21618717792E+02  0.15058324863E+02 -0.33301156515E+02  0.42462797033E+02  0.00000000000E+00 0.  1.
</event>
<event>
 7    1  0.5559916E-010  0.4778727E+02  0.7816164E-02  0.1312668E+00
        -11   -1    0    0    0    0  0.00000000000E+00  0.00000000000E+00  0.45593999997E+02  0.45594000000E+02  0.51100000000E-03 0.  1.
         11   -1    0    0    0    0 -0.00000000000E+00 -0.00000000000E+00 -0.45593999997E+02  0.45594000000E+02  0.51100000000E-03 0. -1.
    9900012    2    1    2    0    0  0.20017006085E+02  0.36771299618E+02  0.11437397927E+02  0.47787273283E+02  0.20000010208E+02 0.  0.
         12    1    1    2    0    0 -0.20017006085E+02 -0.36771299618E+02 -0.11437397927E+02  0.43400726717E+02  0.00000000000E+00 0. -1.
         11    1    3    3    0    0  0.39379207418E+00  0.13044361719E+02  0.80438204728E+01  0.15330149801E+02  0.51100000000E-03 0. -1.
        -11    1    3    3    0    0  0.52344862831E+01  0.12953266794E+02  0.37959226878E+01  0.14477430593E+02  0.51100000000E-03 0.  1.
         12    1    3    3    0    0  0.14388727727E+02  0.10773671106E+02 -0.40234523403E+00  0.17979692889E+02  0.00000000000E+00 0. -1.
</event>
<event>
 7    1  0.5559916E-010  0.4778727E+02  0.7816164E-02  0.1312668E+00
        -11   -1    0    0    0    0  0.00000000000E+00  0.00000000000E+00  0.45593999997E+02  0.45594000000E+02  0.51100000000E-03 0. -1.
         11   -1    0    0    0    0 -0.00000000000E+00 -0.00000000000E+00 -0.45593999997E+02  0.45594000000E+02  0.51100000000E-03 0.  1.
    9900012    2    1    2    0    0 -0.30291114291E+02 -0.31081310637E+02 -0.15340474359E+00  0.47787274097E+02  0.20000013918E+02 0.  0.
         12    1    1    2    0    0  0.30291114291E+02  0.31081310637E+02  0.15340474359E+00  0.43400725903E+02  0.00000000000E+00 0. -1.
         11    1    3    3    0    0 -0.15861405697E+02 -0.52987015654E+01  0.41925994482E+01  0.17240600899E+02  0.51100000000E-03 0. -1.
        -11    1    3    3    0    0 -0.90940204572E+01 -0.16021185287E+02 -0.58319860411E+01  0.19323344626E+02  0.51100000000E-03 0.  1.
        -12    1    3    3    0    0 -0.53356881367E+01 -0.97614237844E+01  0.14859818493E+01  0.11223328573E+02  0.00000000000E+00 0.  1.
</event>
<event>
 7    1  0.5559916E-010  0.4778726E+02  0.7816164E-02  0.1312668E+00
        -11   -1    0    0    0    0  0.00000000000E+00  0.00000000000E+00  0.45593999997E+02  0.45594000000E+02  0.51100000000E-03 0. -1.
         11   -1    0    0    0    0 -0.00000000000E+00 -0.00000000000E+00 -0.45593999997E+02  0.45594000000E+02  0.51100000000E-03 0.  1.
    9900012    2    1    2    0    0 -0.33402958001E+02  0.25970664887E+02 -0.96639222887E+01  0.47787257704E+02  0.19999939175E+02 0.  0.
         12    1    1    2    0    0  0.33402958001E+02 -0.25970664887E+02  0.96639222887E+01  0.43400742296E+02  0.00000000000E+00 0. -1.
         11    1    3    3    0    0 -0.16945019649E+02  0.91696276146E+01 -0.11756881720E+02  0.22570778222E+02  0.51100000000E-03 0. -1.
        -11    1    3    3    0    0 -0.12470476117E+02  0.16498246754E+02 -0.46737642398E-01  0.20681080852E+02  0.51100000000E-03 0.  1.
         12    1    3    3    0    0 -0.39874622347E+01  0.30279051849E+00  0.21396970736E+01  0.45353986305E+01  0.00000000000E+00 0. -1.
</event>
<event>
 7    1  0.5587232E-010  0.4778727E+02  0.7816164E-02  0.1312668E+00
        -11   -1    0    0    0    0  0.00000000000E+00  0.00000000000E+00  0.45593999997E+02  0.45594000000E+02  0.51100000000E-03 0. -1.
         11   -1    0    0    0    0 -0.00000000000E+00 -0.00000000000E+00 -0.45593999997E+02  0.45594000000E+02  0.51100000000E-03 0.  1.
    9900012    2    1    2    0    0  0.24655013482E+02  0.31003728049E+02 -0.17734780930E+02  0.47787270774E+02  0.19999998766E+02 0.  0.
         12    1    1    2    0    0 -0.24655013482E+02 -0.31003728049E+02  0.17734780930E+02  0.43400729226E+02  0.00000000000E+00 0. -1.
         11    1    3    3    0    0  0.54954306520E+00 -0.76199886505E+00 -0.27664028451E+00  0.97937222698E+00  0.51100000000E-03 0. -1.
        -11    1    3    3    0    0  0.90349130275E+01  0.90749902863E+00 -0.32816713439E+01  0.96551838394E+01  0.51100000000E-03 0.  1.
        -12    1    3    3    0    0  0.15070557389E+02  0.30858227886E+02 -0.14176469302E+02  0.37152714707E+02  0.00000000000E+00 0.  1.
</event>
<event>
 7    1  0.5559916E-010  0.4778728E+02  0.7816164E-02  0.1312668E+00
        -11   -1    0    0    0    0  0.00000000000E+00  0.00000000000E+00  0.45593999997E+02  0.45594000000E+02  0.51100000000E-03 0.  1.
         11   -1    0    0    0    0 -0.00000000000E+00 -0.00000000000E+00 -0.45593999997E+02  0.45594000000E+02  0.51100000000E-03 0. -1.
    9900012    2    1    2    0    0  0.23231076196E+01  0.53973213684E+01  0.43001103924E+02  0.47787275978E+02  0.20000022493E+02 0.  0.
         12    1    1    2    0    0 -0.23231076196E+01 -0.53973213684E+01 -0.43001103924E+02  0.43400724022E+02  0.00000000000E+00 0. -1.
         11    1    3    3    0    0  0.26138102002E+01 -0.53220555767E+01  0.13170761428E+02  0.14443865001E+02  0.51100000000E-03 0. -1.
        -11    1    3    3    0    0 -0.20420825143E+01  0.12253275126E+02  0.23203124596E+02  0.26319153550E+02  0.51100000000E-03 0.  1.
        -12    1    3    3    0    0  0.17513799338E+01 -0.15338981804E+01  0.66272179005E+01  0.70242574270E+01  0.00000000000E+00 0.  1.
</event>
<event>
 7    1  0.5559916E-010  0.4778727E+02  0.7816164E-02  0.1312668E+00
        -11   -1    0    0    0    0  0.00000000000E+00  0.00000000000E+00  0.45593999997E+02  0.45594000000E+02  0.51100000000E-03 0. -1.
         11   -1    0    0    0    0 -0.00000000000E+00 -0.00000000000E+00 -0.45593999997E+02  0.45594000000E+02  0.51100000000E-03 0.  1.
    9900012    2    1    2    0    0 -0.24545217550E+02  0.18107194886E+02 -0.30875320928E+02  0.47787266669E+02  0.19999980052E+02 0.  0.
         12    1    1    2    0    0  0.24545217550E+02 -0.18107194886E+02  0.30875320928E+02  0.43400733331E+02  0.00000000000E+00 0. -1.
         11    1    3    3    0    0 -0.49026429719E+01  0.19692069596E+00 -0.78075246968E+01  0.92212866793E+01  0.51100000000E-03 0.  1.
        -11    1    3    3    0    0  0.13933913245E+01  0.56482860522E+01 -0.81406096438E+01  0.10005708388E+02  0.51100000000E-03 0. -1.
        -12    1    3    3    0    0 -0.21035965903E+02  0.12261988138E+02 -0.14927186588E+02  0.28560271602E+02  0.00000000000E+00 0.  1.
</event>
<event>
 7    1  0.5559916E-010  0.4778727E+02  0.7816164E-02  0.1312668E+00
        -11   -1    0    0    0    0  0.00000000000E+00  0.00000000000E+00  0.45593999997E+02  0.45594000000E+02  0.51100000000E-03 0.  1.
         11   -1    0    0    0    0 -0.00000000000E+00 -0.00000000000E+00 -0.45593999997E+02  0.45594000000E+02  0.51100000000E-03 0. -1.
    9900012    2    1    2    0    0 -0.28533839055E+02  0.30455831948E+02 -0.11911574781E+02  0.47787270921E+02  0.19999999436E+02 0.  0.
         12    1    1    2    0    0  0.28533839055E+02 -0.30455831948E+02  0.11911574781E+02  0.43400729079E+02  0.00000000000E+00 0. -1.
         11    1    3    3    0    0 -0.17866051026E+01  0.38550141416E+01 -0.13813993992E+00  0.42511380510E+01  0.51100000000E-03 0. -1.
        -11    1    3    3    0    0 -0.30217702041E+01  0.93262025582E+01 -0.10197743849E+02  0.14145781321E+02  0.51100000000E-03 0.  1.
        -12    1    3    3    0    0 -0.23725463748E+02  0.17274615248E+02 -0.15756909924E+01  0.29390351548E+02  0.00000000000E+00 0.  1.
</event>
<event>
 7    1  0.5559916E-010  0.4778727E+02  0.7816164E-02  0.1312668E+00
        -11   -1    0    0    0    0  0.00000000000E+00  0.00000000000E+00  0.45593999997E+02  0.45594000000E+02  0.51100000000E-03 0.  1.
         11   -1    0    0    0    0 -0.00000000000E+00 -0.00000000000E+00 -0.45593999997E+02  0.45594000000E+02  0.51100000000E-03 0. -1.
    9900012    2    1    2    0    0 -0.10764044053E+02 -0.40593686701E+02  0.10950390405E+02  0.47787273113E+02  0.20000009431E+02 0.  0.
         12    1    1    2    0    0  0.10764044053E+02  0.40593686701E+02 -0.10950390405E+02  0.43400726887E+02  0.00000000000E+00 0. -1.
         11    1    3    3    0    0  0.15982240108E+01 -0.39014615213E+01  0.28576253964E+01  0.50933039530E+01  0.51100000000E-03 0. -1.
        -11    1    3    3    0    0 -0.75159134637E+01 -0.78118668407E+01  0.78924191939E+01  0.13409120020E+02  0.51100000000E-03 0.  1.
        -12    1    3    3    0    0 -0.48463545998E+01 -0.28880358339E+02  0.20034581463E+00  0.29284849139E+02  0.00000000000E+00 0.  1.
</event>
<event>
 7    1  0.5559916E-010  0.4778727E+02  0.7816164E-02  0.1312668E+00
        -11   -1    0    0    0    0  0.00000000000E+00  0.00000000000E+00  0.45593999997E+02  0.45594000000E+02  0.51100000000E-03 0. -1.
         11   -1    0    0    0    0 -0.00000000000E+00 -0.00000000000E+00 -0.45593999997E+02  0.45594000000E+02  0.51100000000E-03 0.  1.
    9900012    2    1    2    0    0 -0.33662593132E+01 -0.43269771083E+02  0.13636370614E+00  0.47787269748E+02  0.19999994087E+02 0.  0.
         12    1    1    2    0    0  0.33662593132E+01  0.43269771083E+02 -0.13636370614E+00  0.43400730252E+02  0.00000000000E+00 0. -1.
         11    1    3    3    0    0 -0.11012310077E+01 -0.33864649848E+02  0.42626306551E+01  0.34149630151E+02  0.51100000000E-03 0. -1.
        -11    1    3    3    0    0 -0.35401365814E+01 -0.98969524825E+01 -0.53579234123E+01  0.11797863324E+02  0.51100000000E-03 0.  1.
        -12    1    3    3    0    0  0.12751082759E+01  0.49183124710E+00  0.12316564634E+01  0.18397762730E+01  0.00000000000E+00 0.  1.
</event>
<event>
 7    1  0.5559916E-010  0.4778728E+02  0.7816164E-02  0.1312668E+00
        -11   -1    0    0    0    0  0.00000000000E+00  0.00000000000E+00  0.45593999997E+02  0.45594000000E+02  0.51100000000E-03 0.  1.
         11   -1    0    0    0    0 -0.00000000000E+00 -0.00000000000E+00 -0.45593999997E+02  0.45594000000E+02  0.51100000000E-03 0. -1.
    9900012    2    1    2    0    0 -0.43755238969E+01  0.27680243619E+02  0.33140334790E+02  0.47787275511E+02  0.20000020365E+02 0.  0.
         12    1    1    2    0    0  0.43755238969E+01 -0.27680243619E+02 -0.33140334790E+02  0.43400724489E+02  0.00000000000E+00 0. -1.
         11    1    3    3    0    0 -0.90709489869E+00  0.15912098241E+01  0.34161697683E+01  0.38762076837E+01  0.51100000000E-03 0. -1.
        -11    1    3    3    0    0 -0.99292924206E+01  0.22862154023E+02  0.24862178702E+02  0.35205068735E+02  0.51100000000E-03 0.  1.
        -12    1    3    3    0    0  0.64608634224E+01  0.32268797717E+01  0.48619863193E+01  0.87059990922E+01  0.00000000000E+00 0.  1.
</event>
<event>
 7    1  0.5559916E-010  0.4778727E+02  0.7816164E-02  0.1312668E+00
        -11   -1    0    0    0    0  0.00000000000E+00  0.00000000000E+00  0.45593999997E+02  0.45594000000E+02  0.51100000000E-03 0.  1.
         11   -1    0    0    0    0 -0.00000000000E+00 -0.00000000000E+00 -0.45593999997E+02  0.45594000000E+02  0.51100000000E-03 0. -1.
    9900012    2    1    2    0    0 -0.13164559347E+02  0.12513983360E+02  0.39417230300E+02  0.47787269052E+02  0.19999990914E+02 0.  0.
         12    1    1    2    0    0  0.13164559347E+02 -0.12513983360E+02 -0.39417230300E+02  0.43400730948E+02  0.00000000000E+00 0. -1.
         11    1    3    3    0    0 -0.18514877152E+01  0.25620162959E+01  0.27476256598E+01  0.41882432221E+01  0.51100000000E-03 0. -1.
        -11    1    3    3    0    0 -0.10179515805E+02  0.10788921399E+02  0.12526546428E+02  0.19414884307E+02  0.51100000000E-03 0.  1.
        -12    1    3    3    0    0 -0.11335558270E+01 -0.83695433413E+00  0.24143058212E+02  0.24184141522E+02  0.00000000000E+00 0.  1.
</event>
<event>
 7    1  0.5559916E-010  0.4778727E+02  0.7816164E-02  0.1312668E+00
        -11   -1    0    0    0    0  0.00000000000E+00  0.00000000000E+00  0.45593999997E+02  0.45594000000E+02  0.51100000000E-03 0. -1.
         11   -1    0    0    0    0 -0.00000000000E+00 -0.00000000000E+00 -0.45593999997E+02  0.45594000000E+02  0.51100000000E-03 0.  1.
    9900012    2    1    2    0    0 -0.29086335035E+02  0.33936762197E+01 -0.32032665769E+02  0.47787267284E+02  0.19999982855E+02 0.  0.
         12    1    1    2    0    0  0.29086335035E+02 -0.33936762197E+01  0.32032665769E+02  0.43400732716E+02  0.00000000000E+00 0. -1.
         11    1    3    3    0    0  0.13431371153E+01  0.33298678132E+01 -0.86502787588E+01  0.93658614035E+01  0.51100000000E-03 0. -1.
        -11    1    3    3    0    0 -0.40528004167E+01 -0.60849086545E+00 -0.33504186331E+01  0.52934636703E+01  0.51100000000E-03 0.  1.
         12    1    3    3    0    0 -0.26376671733E+02  0.67229927198E+00 -0.20031968377E+02  0.33127942210E+02  0.00000000000E+00 0. -1.
</event>
<event>
 7    1  0.5559916E-010  0.4778726E+02  0.7816164E-02  0.1312668E+00
        -11   -1    0    0    0    0  0.00000000000E+00  0.00000000000E+00  0.45593999997E+02  0.45594000000E+02  0.51100000000E-03 0. -1.
         11   -1    0    0    0    0 -0.00000000000E+00 -0.00000000000E+00 -0.45593999997E+02  0.45594000000E+02  0.51100000000E-03 0.  1.
    9900012    2    1    2    0    0 -0.30998052812E+02  0.15641550151E+02 -0.26040093873E+02  0.47787264313E+02  0.19999969308E+02 0.  0.
         12    1    1    2    0    0  0.30998052812E+02 -0.15641550151E+02  0.26040093873E+02  0.43400735687E+02  0.00000000000E+00 0. -1.
         11    1    3    3    0    0 -0.13282594260E+02  0.14605290073E+02 -0.10846834434E+02  0.22525443967E+02  0.51100000000E-03 0. -1.
        -11    1    3    3    0    0 -0.73558810274E+01  0.24809769892E+01 -0.12060478455E+02  0.14342920670E+02  0.51100000000E-03 0.  1.
         12    1    3    3    0    0 -0.10359577525E+02 -0.14447169116E+01 -0.31327809843E+01  0.10918899676E+02  0.00000000000E+00 0. -1.
</event>
<event>
 7    1  0.5559916E-010  0.4778729E+02  0.7816164E-02  0.1312668E+00
        -11   -1    0    0    0    0  0.00000000000E+00  0.00000000000E+00  0.45593999997E+02  0.45594000000E+02  0.51100000000E-03 0.  1.
         11   -1    0    0    0    0 -0.00000000000E+00 -0.00000000000E+00 -0.45593999997E+02  0.45594000000E+02  0.51100000000E-03 0. -1.
    9900012    2    1    2    0    0  0.21544491477E+02 -0.18366363506E+02  0.32895790322E+02  0.47787292145E+02  0.20000096204E+02 0.  0.
         12    1    1    2    0    0 -0.21544491477E+02  0.18366363506E+02 -0.32895790322E+02  0.43400707855E+02  0.00000000000E+00 0. -1.
         11    1    3    3    0    0  0.22884240589E+02 -0.11644212311E+02  0.24598765190E+02  0.35558056708E+02  0.51100000000E-03 0. -1.
        -11    1    3    3    0    0  0.63327865150E+00 -0.69089878279E+01  0.70296215001E+01  0.98767774781E+01  0.51100000000E-03 0.  1.
         12    1    3    3    0    0 -0.19730277635E+01  0.18683663219E+00  0.12674036312E+01  0.23524579586E+01  0.00000000000E+00 0. -1.
</event>
<event>
 7    1  0.5559916E-010  0.4778727E+02  0.7816164E-02  0.1312668E+00
        -11   -1    0    0    0    0  0.00000000000E+00  0.00000000000E+00  0.45593999997E+02  0.45594000000E+02  0.51100000000E-03 0.  1.
         11   -1    0    0    0    0 -0.00000000000E+00 -0.00000000000E+00 -0.45593999997E+02  0.45594000000E+02  0.51100000000E-03 0. -1.
    9900012    2    1    2    0    0  0.82256682609E+00  0.22808211838E+02  0.36915200321E+02  0.47787272378E+02  0.20000006080E+02 0.  0.
         12    1    1    2    0    0 -0.82256682609E+00 -0.22808211838E+02 -0.36915200321E+02  0.43400727622E+02  0.00000000000E+00 0. -1.
         11    1    3    3    0    0  0.26712671219E+01  0.26128672821E+01 -0.94674034152E+00  0.38547452582E+01  0.51100000000E-03 0. -1.
        -11    1    3    3    0    0 -0.90089992739E+00  0.83393448274E+01  0.25205402748E+02  0.26564423969E+02  0.51100000000E-03 0.  1.
         12    1    3    3    0    0 -0.94780036841E+00  0.11855999728E+02  0.12656537914E+02  0.17368103151E+02  0.00000000000E+00 0. -1.
</event>
<event>
 7    1  0.5559916E-010  0.4778727E+02  0.7816164E-02  0.1312668E+00
        -11   -1    0    0    0    0  0.00000000000E+00  0.00000000000E+00  0.45593999997E+02  0.45594000000E+02  0.51100000000E-03 0.  1.
         11   -1    0    0    0    0 -0.00000000000E+00 -0.00000000000E+00 -0.45593999997E+02  0.45594000000E+02  0.51100000000E-03 0. -1.
    9900012    2    1    2    0    0  0.30430322497E+02  0.29375525425E+02  0.97312619875E+01  0.47787268657E+02  0.19999989115E+02 0.  0.
         12    1    1    2    0    0 -0.30430322497E+02 -0.29375525425E+02 -0.97312619875E+01  0.43400731343E+02  0.00000000000E+00 0. -1.
         11    1    3    3    0    0  0.81290756871E+01  0.73921631727E+01 -0.37523114770E+01  0.11610589545E+02  0.51100000000E-03 0. -1.
        -11    1    3    3    0    0  0.90071300957E+01  0.11442310317E+02  0.12484578864E+02  0.19181229565E+02  0.51100000000E-03 0.  1.
         12    1    3    3    0    0  0.13294116714E+02  0.10541051935E+02  0.99899460066E+00  0.16995449547E+02  0.00000000000E+00 0. -1.
</event>
<event>
 7    1  0.5559916E-010  0.4778727E+02  0.7816164E-02  0.1312668E+00
        -11   -1    0    0    0    0  0.00000000000E+00  0.00000000000E+00  0.45593999997E+02  0.45594000000E+02  0.51100000000E-03 0. -1.
         11   -1    0    0    0    0 -0.00000000000E+00 -0.00000000000E+00 -0.45593999997E+02  0.45594000000E+02  0.51100000000E-03 0.  1.
    9900012    2    1    2    0    0  0.48329522069E+01  0.11082645957E+02 -0.41682625952E+02  0.47787265274E+02  0.19999973691E+02 0.  0.
         12    1    1    2    0    0 -0.48329522069E+01 -0.11082645957E+02  0.41682625952E+02  0.43400734726E+02  0.00000000000E+00 0. -1.
         11    1    3    3    0    0 -0.22550349818E+01  0.18600891266E+00 -0.26359968392E+01  0.34739403682E+01  0.51100000000E-03 0. -1.
        -11    1    3    3    0    0 -0.40662017262E+01 -0.74718302463E+00 -0.40824087533E+01  0.58101928058E+01  0.51100000000E-03 0.  1.
        -12    1    3    3    0    0  0.11154188915E+02  0.11643820069E+02 -0.34964220360E+02  0.38503132100E+02  0.00000000000E+00 0.  1.
</event>
<event>
 7    1  0.5559916E-010  0.4778727E+02  0.7816164E-02  0.1312668E+00
        -11   -1    0    0    0    0  0.00000000000E+00  0.00000000000E+00  0.45593999997E+02  0.45594000000E+02  0.51100000000E-03 0. -1.
         11   -1    0    0    0    0 -0.00000000000E+00 -0.00000000000E+00 -0.45593999997E+02  0.45594000000E+02  0.51100000000E-03 0.  1.
    9900012    2    1    2    0    0 -0.23793044995E+02 -0.56148389420E+01 -0.35860672649E+02  0.47787271328E+02  0.20000001292E+02 0.  0.
         12    1    1    2    0    0  0.23793044995E+02  0.56148389420E+01  0.35860672649E+02  0.43400728672E+02  0.00000000000E+00 0. -1.
         11    1    3    3    0    0 -0.76517164709E+01 -0.75588826416E+01 -0.16119428638E+02  0.19378375877E+02  0.51100000000E-03 0. -1.
        -11    1    3    3    0    0 -0.88447228901E+01 -0.11943117394E+01 -0.18266442359E+02  0.20330234142E+02  0.51100000000E-03 0.  1.
         12    1    3    3    0    0 -0.72966056338E+01  0.31383554390E+01 -0.14748016509E+01  0.80786613090E+01  0.00000000000E+00 0. -1.
</event>
<event>
 7    1  0.5559916E-010  0.4778728E+02  0.7816164E-02  0.1312668E+00
        -11   -1    0    0    0    0  0.00000000000E+00  0.00000000000E+00  0.45593999997E+02  0.45594000000E+02  0.51100000000E-03 0.  1.
         11   -1    0    0    0    0 -0.00000000000E+00 -0.00000000000E+00 -0.45593999997E+02  0.45594000000E+02  0.51100000000E-03 0. -1.
    9900012    2    1    2    0    0 -0.25636725049E+02 -0.74038926742E+01  0.34228105587E+02  0.47787279844E+02  0.20000040123E+02 0.  0.
         12    1    1    2    0    0  0.25636725049E+02  0.74038926742E+01 -0.34228105587E+02  0.43400720156E+02  0.00000000000E+00 0. -1.
         11    1    3    3    0    0 -0.17768436020E+01 -0.71371698713E+01  0.11004823073E+02  0.13236408051E+02  0.51100000000E-03 0. -1.
        -11    1    3    3    0    0 -0.14282406588E+02 -0.83514249897E+00  0.19663497044E+02  0.24317436485E+02  0.51100000000E-03 0.  1.
         12    1    3    3    0    0 -0.95774748592E+01  0.56841969599E+00  0.35597854696E+01  0.10233435309E+02  0.00000000000E+00 0. -1.
</event>
<event>
 7    1  0.5559916E-010  0.4778727E+02  0.7816164E-02  0.1312668E+00
        -11   -1    0    0    0    0  0.00000000000E+00  0.00000000000E+00  0.45593999997E+02  0.45594000000E+02  0.51100000000E-03 0.  1.
         11   -1    0    0    0    0 -0.00000000000E+00 -0.00000000000E+00 -0.45593999997E+02  0.45594000000E+02  0.51100000000E-03 0. -1.
    9900012    2    1    2    0    0 -0.50652900880E+01  0.32146855646E+02  0.28714906671E+02  0.47787270090E+02  0.19999995649E+02 0.  0.
         12    1    1    2    0    0  0.50652900880E+01 -0.32146855646E+02 -0.28714906671E+02  0.43400729910E+02  0.00000000000E+00 0. -1.
         11    1    3    3    0    0  0.12375820656E+01  0.40932794439E+01 -0.45225775431E+00  0.43001259647E+01  0.51100000000E-03 0. -1.
        -11    1    3    3    0    0 -0.62012015705E+01  0.29801395420E+02  0.26898781999E+02  0.40621700398E+02  0.51100000000E-03 0.  1.
        -12    1    3    3    0    0 -0.10167058304E+00 -0.17478192182E+01  0.22683824258E+01  0.28654437277E+01  0.00000000000E+00 0.  1.
</event>
<event>
 7    1  0.5559916E-010  0.4778729E+02  0.7816164E-02  0.1312668E+00
        -11   -1    0    0    0    0  0.00000000000E+00  0.00000000000E+00  0.45593999997E+02  0.45594000000E+02  0.51100000000E-03 0. -1.
         11   -1    0    0    0    0 -0.00000000000E+00 -0.00000000000E+00 -0.45593999997E+02  0.45594000000E+02  0.51100000000E-03 0.  1.
    9900012    2    1    2    0    0 -0.43271415856E+02  0.33184046776E+01  0.44108368654E+00  0.47787288086E+02  0.20000077701E+02 0.  0.
         12    1    1    2    0    0  0.43271415856E+02 -0.33184046776E+01 -0.44108368654E+00  0.43400711914E+02  0.00000000000E+00 0. -1.
         11    1    3    3    0    0 -0.10254994457E+02  0.39064341460E+01  0.53698002240E+01  0.12217196641E+02  0.51100000000E-03 0. -1.
        -11    1    3    3    0    0 -0.79552282923E+01 -0.27221849907E+01 -0.61049780368E+01  0.10390702835E+02  0.51100000000E-03 0.  1.
        -12    1    3    3    0    0 -0.25061193106E+02  0.21341555223E+01  0.11762614993E+01  0.25179388611E+02  0.00000000000E+00 0.  1.
</event>
<event>
 7    1  0.5559916E-010  0.4778728E+02  0.7816164E-02  0.1312668E+00
        -11   -1    0    0    0    0  0.00000000000E+00  0.00000000000E+00  0.45593999997E+02  0.45594000000E+02  0.51100000000E-03 0. -1.
         11   -1    0    0    0    0 -0.00000000000E+00 -0.00000000000E+00 -0.45593999997E+02  0.45594000000E+02  0.51100000000E-03 0.  1.
    9900012    2    1    2    0    0  0.24512231949E+02 -0.32151112054E+02  0.15782233909E+02  0.47787280782E+02  0.20000044398E+02 0.  0.
         12    1    1    2    0    0 -0.24512231949E+02  0.32151112054E+02 -0.15782233909E+02  0.43400719218E+02  0.00000000000E+00 0. -1.
         11    1    3    3    0    0  0.91779093864E+01 -0.25864392578E+01  0.80532261032E+01  0.12481111316E+02  0.51100000000E-03 0. -1.
        -11    1    3    3    0    0  0.44884904315E+01 -0.17893755153E+02  0.30304478340E+01  0.18695363975E+02  0.51100000000E-03 0.  1.
         12    1    3    3    0    0  0.10845832131E+02 -0.11670917644E+02  0.46985599720E+01  0.16610805492E+02  0.00000000000E+00 0. -1.
</event>
<event>
 7    1  0.5559916E-010  0.4778729E+02  0.7816164E-02  0.1312668E+00
        -11   -1    0    0    0    0  0.00000000000E+00  0.00000000000E+00  0.45593999997E+02  0.45594000000E+02  0.51100000000E-03 0.  1.
         11   -1    0    0    0    0 -0.00000000000E+00 -0.00000000000E+00 -0.45593999997E+02  0.45594000000E+02  0.51100000000E-03 0. -1.
    9900012    2    1    2    0    0  0.29714624522E+02  0.26129235951E+01  0.31525157391E+02  0.47787287693E+02  0.20000075906E+02 0.  0.
         12    1    1    2    0    0 -0.29714624522E+02 -0.26129235951E+01 -0.31525157391E+02  0.43400712307E+02  0.00000000000E+00 0. -1.
         11    1    3    3    0    0  0.89396137582E+01  0.12049743318E+01  0.48976895764E+01  0.10264308098E+02  0.51100000000E-03 0. -1.
        -11    1    3    3    0    0  0.22921895675E+02  0.36526219582E+01  0.24554295712E+02  0.33788583674E+02  0.51100000000E-03 0.  1.
        -12    1    3    3    0    0 -0.21468849106E+01 -0.22446726948E+01  0.20731721029E+01  0.37343959209E+01  0.00000000000E+00 0.  1.
</event>
<event>
 7    1  0.5559916E-010  0.4778726E+02  0.7816164E-02  0.1312668E+00
        -11   -1    0    0    0    0  0.00000000000E+00  0.00000000000E+00  0.45593999997E+02  0.45594000000E+02  0.51100000000E-03 0. -1.
         11   -1    0    0    0    0 -0.00000000000E+00 -0.00000000000E+00 -0.45593999997E+02  0.45594000000E+02  0.51100000000E-03 0.  1.
    9900012    2    1    2    0    0  0.41273526142E+02  0.98327298512E+01 -0.91344332198E+01  0.47787257993E+02  0.19999940494E+02 0.  0.
         12    1    1    2    0    0 -0.41273526142E+02 -0.98327298512E+01  0.91344332198E+01  0.43400742007E+02  0.00000000000E+00 0. -1.
         11    1    3    3    0    0  0.77184956205E+00  0.24951172745E+01 -0.39539840254E+01  0.47387078296E+01  0.51100000000E-03 0. -1.
        -11    1    3    3    0    0  0.29144852926E+02  0.10955876156E+01 -0.69144922427E+01  0.29973871414E+02  0.51100000000E-03 0.  1.
         12    1    3    3    0    0  0.11356823654E+02  0.62420249610E+01  0.17340430483E+01  0.13074678750E+02  0.00000000000E+00 0. -1.
</event>
<event>
 7    1  0.5559916E-010  0.4778727E+02  0.7816164E-02  0.1312668E+00
        -11   -1    0    0    0    0  0.00000000000E+00  0.00000000000E+00  0.45593999997E+02  0.45594000000E+02  0.51100000000E-03 0. -1.
         11   -1    0    0    0    0 -0.00000000000E+00 -0.00000000000E+00 -0.45593999997E+02  0.45594000000E+02  0.51100000000E-03 0.  1.
    9900012    2    1    2    0    0 -0.43041549114E+02 -0.55505981085E+01  0.48905833606E+00  0.47787271117E+02  0.20000000330E+02 0.  0.
         12    1    1    2    0    0  0.43041549114E+02  0.55505981085E+01 -0.48905833606E+00  0.43400728883E+02  0.00000000000E+00 0. -1.
         11    1    3    3    0    0 -0.28201764598E+02 -0.15624349557E+01  0.27026701064E+00  0.28246305492E+02  0.51100000000E-03 0.  1.
        -11    1    3    3    0    0  0.13781257724E+01  0.18022111777E+01  0.47738510159E+00  0.23184245880E+01  0.51100000000E-03 0. -1.
        -12    1    3    3    0    0 -0.16217910289E+02 -0.57903743305E+01 -0.25859377617E+00  0.17222541037E+02  0.00000000000E+00 0.  1.
</event>
<event>
 7    1  0.5559916E-010  0.4778724E+02  0.7816164E-02  0.1312668E+00
        -11   -1    0    0    0    0  0.00000000000E+00  0.00000000000E+00  0.45593999997E+02  0.45594000000E+02  0.51100000000E-03 0.  1.
         11   -1    0    0    0    0 -0.00000000000E+00 -0.00000000000E+00 -0.45593999997E+02  0.45594000000E+02  0.51100000000E-03 0. -1.
    9900012    2    1    2    0    0  0.12430716188E+02 -0.38290729678E+02 -0.16214910261E+02  0.47787239650E+02  0.19999856858E+02 0.  0.
         12    1    1    2    0    0 -0.12430716188E+02  0.38290729678E+02  0.16214910261E+02  0.43400760350E+02  0.00000000000E+00 0. -1.
         11    1    3    3    0    0  0.60448483054E+01 -0.95969220625E+01 -0.83049407401E+01  0.14057494267E+02  0.51100000000E-03 0. -1.
        -11    1    3    3    0    0 -0.26991211212E+01 -0.16678591058E+02 -0.79357036732E+01  0.18666441749E+02  0.51100000000E-03 0.  1.
        -12    1    3    3    0    0  0.90849890034E+01 -0.12015216557E+02  0.25734152135E-01  0.15063303634E+02  0.00000000000E+00 0.  1.
</event>
<event>
 7    1  0.5559916E-010  0.4778732E+02  0.7816164E-02  0.1312668E+00
        -11   -1    0    0    0    0  0.00000000000E+00  0.00000000000E+00  0.45593999997E+02  0.45594000000E+02  0.51100000000E-03 0.  1.
         11   -1    0    0    0    0 -0.00000000000E+00 -0.00000000000E+00 -0.45593999997E+02  0.45594000000E+02  0.51100000000E-03 0. -1.
    9900012    2    1    2    0    0  0.19664644672E+02 -0.35380499452E+02  0.15656980176E+02  0.47787320054E+02  0.20000223454E+02 0.  0.
         12    1    1    2    0    0 -0.19664644672E+02  0.35380499452E+02 -0.15656980176E+02  0.43400679946E+02  0.00000000000E+00 0. -1.
         11    1    3    3    0    0 -0.19388447218E+01 -0.50751162560E+01 -0.19001021996E+01  0.57555462380E+01  0.51100000000E-03 0. -1.
        -11    1    3    3    0    0  0.90941743874E+01 -0.16919168158E+02  0.50912711215E+01  0.19871670811E+02  0.51100000000E-03 0.  1.
         12    1    3    3    0    0  0.12509315007E+02 -0.13386215038E+02  0.12465811254E+02  0.22160103005E+02  0.00000000000E+00 0. -1.
</event>
<event>
 7    1  0.5559916E-010  0.4778727E+02  0.7816164E-02  0.1312668E+00
        -11   -1    0    0    0    0  0.00000000000E+00  0.00000000000E+00  0.45593999997E+02  0.45594000000E+02  0.51100000000E-03 0. -1.
         11   -1    0    0    0    0 -0.00000000000E+00 -0.00000000000E+00 -0.45593999997E+02  0.45594000000E+02  0.51100000000E-03 0.  1.
    9900012    2    1    2    0    0 -0.31905033824E+02  0.90118886155E+01 -0.28008538308E+02  0.47787268003E+02  0.19999986134E+02 0.  0.
         12    1    1    2    0    0  0.31905033824E+02 -0.90118886155E+01  0.28008538308E+02  0.43400731997E+02  0.00000000000E+00 0. -1.
         11    1    3    3    0    0  0.16777157268E+01  0.14773583651E+01 -0.98553513129E+00  0.24430713365E+01  0.51100000000E-03 0. -1.
        -11    1    3    3    0    0 -0.31086783738E+02  0.31215183735E+01 -0.22034443032E+02  0.38231514228E+02  0.51100000000E-03 0.  1.
         12    1    3    3    0    0 -0.24959658119E+01  0.44130118769E+01 -0.49885601450E+01  0.71126824392E+01  0.00000000000E+00 0. -1.
</event>
<event>
 7    1  0.5559916E-010  0.4778727E+02  0.7816164E-02  0.1312668E+00
        -11   -1    0    0    0    0  0.00000000000E+00  0.00000000000E+00  0.45593999997E+02  0.45594000000E+02  0.51100000000E-03 0.  1.
         11   -1    0    0    0    0 -0.00000000000E+00 -0.00000000000E+00 -0.45593999997E+02  0.45594000000E+02  0.51100000000E-03 0. -1.
    9900012    2    1    2    0    0  0.36594485662E+01  0.36713030733E+02  0.22855744382E+02  0.47787271427E+02  0.20000001744E+02 0.  0.
         12    1    1    2    0    0 -0.36594485662E+01 -0.36713030733E+02 -0.22855744382E+02  0.43400728573E+02  0.00000000000E+00 0. -1.
         11    1    3    3    0    0  0.36324333323E+00  0.43166858821E+01  0.11682413503E+02  0.12459715416E+02  0.51100000000E-03 0. -1.
        -11    1    3    3    0    0  0.55662844260E+01  0.27682950088E+02  0.10085318107E+02  0.29984043914E+02  0.51100000000E-03 0.  1.
         12    1    3    3    0    0 -0.22700791930E+01  0.47133947628E+01  0.10880127720E+01  0.53435120964E+01  0.00000000000E+00 0. -1.
</event>
<event>
 7    1  0.5559916E-010  0.4778727E+02  0.7816164E-02  0.1312668E+00
        -11   -1    0    0    0    0  0.00000000000E+00  0.00000000000E+00  0.45593999997E+02  0.45594000000E+02  0.51100000000E-03 0. -1.
         11   -1    0    0    0    0 -0.00000000000E+00 -0.00000000000E+00 -0.45593999997E+02  0.45594000000E+02  0.51100000000E-03 0.  1.
    9900012    2    1    2    0    0 -0.22495281416E+02  0.25722109212E+02 -0.26757406969E+02  0.47787269407E+02  0.19999992535E+02 0.  0.
         12    1    1    2    0    0  0.22495281416E+02 -0.25722109212E+02  0.26757406969E+02  0.43400730593E+02  0.00000000000E+00 0. -1.
         11    1    3    3    0    0 -0.18575219889E+02  0.90717668929E+01 -0.17680954262E+02  0.27202056767E+02  0.51100000000E-03 0. -1.
        -11    1    3    3    0    0 -0.52233282453E+01  0.11128020751E+02 -0.83597213100E+01  0.14866100512E+02  0.51100000000E-03 0.  1.
         12    1    3    3    0    0  0.13032667181E+01  0.55223215679E+01 -0.71673139659E+00  0.57191121280E+01  0.00000000000E+00 0. -1.
</event>
<event>
 7    1  0.5559916E-010  0.4778727E+02  0.7816164E-02  0.1312668E+00
        -11   -1    0    0    0    0  0.00000000000E+00  0.00000000000E+00  0.45593999997E+02  0.45594000000E+02  0.51100000000E-03 0.  1.
         11   -1    0    0    0    0 -0.00000000000E+00 -0.00000000000E+00 -0.45593999997E+02  0.45594000000E+02  0.51100000000E-03 0. -1.
    9900012    2    1    2    0    0 -0.15163108561E+01  0.29083009160E+02  0.32179226651E+02  0.47787271339E+02  0.20000001344E+02 0.  0.
         12    1    1    2    0    0  0.15163108561E+01 -0.29083009160E+02 -0.32179226651E+02  0.43400728661E+02  0.00000000000E+00 0. -1.
         11    1    3    3    0    0  0.11877382270E+01  0.93420169482E+01  0.19819251034E+01  0.96235144377E+01  0.51100000000E-03 0. -1.
        -11    1    3    3    0    0 -0.16337924016E+01  0.86979043316E+01  0.23718474827E+02  0.25315782938E+02  0.51100000000E-03 0.  1.
        -12    1    3    3    0    0 -0.10702566815E+01  0.11043087880E+02  0.64788267209E+01  0.12847973964E+02  0.00000000000E+00 0.  1.
</event>
<event>
 7    1  0.5559916E-010  0.4778732E+02  0.7816164E-02  0.1312668E+00
        -11   -1    0    0    0    0  0.00000000000E+00  0.00000000000E+00  0.45593999997E+02  0.45594000000E+02  0.51100000000E-03 0.  1.
         11   -1    0    0    0    0 -0.00000000000E+00 -0.00000000000E+00 -0.45593999997E+02  0.45594000000E+02  0.51100000000E-03 0. -1.
    9900012    2    1    2    0    0 -0.26092709527E+02  0.26291478689E+02  0.22617412260E+02  0.47787323975E+02  0.20000241330E+02 0.  0.
         12    1    1    2    0    0  0.26092709527E+02 -0.26291478689E+02 -0.22617412260E+02  0.43400676025E+02  0.00000000000E+00 0. -1.
         11    1    3    3    0    0 -0.11837352160E+02  0.80543401822E+01  0.52657910301E-01  0.14317753841E+02  0.51100000000E-03 0. -1.
        -11    1    3    3    0    0 -0.61602997341E+00  0.56835389185E+01  0.83044227478E+01  0.10081941529E+02  0.51100000000E-03 0.  1.
         12    1    3    3    0    0 -0.13639327394E+02  0.12553599588E+02  0.14260331602E+02  0.23387628605E+02  0.00000000000E+00 0. -1.
</event>
<event>
 7    1  0.5559916E-010  0.4778727E+02  0.7816164E-02  0.1312668E+00
        -11   -1    0    0    0    0  0.00000000000E+00  0.00000000000E+00  0.45593999997E+02  0.45594000000E+02  0.51100000000E-03 0.  1.
         11   -1    0    0    0    0 -0.00000000000E+00 -0.00000000000E+00 -0.45593999997E+02  0.45594000000E+02  0.51100000000E-03 0. -1.
    9900012    2    1    2    0    0 -0.45677799430E+01 -0.33689148334E+02  0.26977765896E+02  0.47787272105E+02  0.20000004835E+02 0.  0.
         12    1    1    2    0    0  0.45677799430E+01  0.33689148334E+02 -0.26977765896E+02  0.43400727895E+02  0.00000000000E+00 0. -1.
         11    1    3    3    0    0 -0.62754179942E+00 -0.91794611798E+00 -0.28966678421E+01  0.31027598415E+01  0.51100000000E-03 0. -1.
        -11    1    3    3    0    0  0.19414181192E+00 -0.14043903798E+02  0.13062867839E+02  0.19180913466E+02  0.51100000000E-03 0.  1.
         12    1    3    3    0    0 -0.41343799555E+01 -0.18727298418E+02  0.16811565899E+02  0.25503598798E+02  0.00000000000E+00 0. -1.
</event>
<event>
 7    1  0.5559916E-010  0.4778727E+02  0.7816164E-02  0.1312668E+00
        -11   -1    0    0    0    0  0.00000000000E+00  0.00000000000E+00  0.45593999997E+02  0.45594000000E+02  0.51100000000E-03 0.  1.
         11   -1    0    0    0    0 -0.00000000000E+00 -0.00000000000E+00 -0.45593999997E+02  0.45594000000E+02  0.51100000000E-03 0. -1.
    9900012    2    1    2    0    0 -0.13863693983E+02 -0.29176248935E+02  0.28985648649E+02  0.47787270278E+02  0.19999996505E+02 0.  0.
         12    1    1    2    0    0  0.13863693983E+02  0.29176248935E+02 -0.28985648649E+02  0.43400729722E+02  0.00000000000E+00 0. -1.
         11    1    3    3    0    0 -0.51540121835E+01  0.49172385253E-01  0.91022222886E+01  0.10460244278E+02  0.51100000000E-03 0. -1.
        -11    1    3    3    0    0 -0.98144447143E+01 -0.25245893139E+02  0.19047561796E+02  0.33113261031E+02  0.51100000000E-03 0.  1.
        -12    1    3    3    0    0  0.11047629145E+01 -0.39795281812E+01  0.83586456405E+00  0.42137649687E+01  0.00000000000E+00 0.  1.
</event>
<event>
 7    1  0.5559916E-010  0.4778727E+02  0.7816164E-02  0.1312668E+00
        -11   -1    0    0    0    0  0.00000000000E+00  0.00000000000E+00  0.45593999997E+02  0.45594000000E+02  0.51100000000E-03 0.  1.
         11   -1    0    0    0    0 -0.00000000000E+00 -0.00000000000E+00 -0.45593999997E+02  0.45594000000E+02  0.51100000000E-03 0. -1.
    9900012    2    1    2    0    0 -0.14250298490E+01  0.40015717142E+02  0.16743202395E+02  0.47787272415E+02  0.20000006248E+02 0.  0.
         12    1    1    2    0    0  0.14250298490E+01 -0.40015717142E+02 -0.16743202395E+02  0.43400727585E+02  0.00000000000E+00 0. -1.
         11    1    3    3    0    0 -0.15794373016E+01  0.12320530123E+02  0.15585963283E+02  0.19930186563E+02  0.51100000000E-03 0. -1.
        -11    1    3    3    0    0  0.48183233688E-02  0.27647931260E+02  0.12475647875E+01  0.27676064466E+02  0.51100000000E-03 0.  1.
         12    1    3    3    0    0  0.14958912915E+00  0.47255758750E-01 -0.90325675456E-01  0.18102138531E+00  0.00000000000E+00 0. -1.
</event>
<event>
 7    1  0.5559916E-010  0.4778727E+02  0.7816164E-02  0.1312668E+00
        -11   -1    0    0    0    0  0.00000000000E+00  0.00000000000E+00  0.45593999997E+02  0.45594000000E+02  0.51100000000E-03 0.  1.
         11   -1    0    0    0    0 -0.00000000000E+00 -0.00000000000E+00 -0.45593999997E+02  0.45594000000E+02  0.51100000000E-03 0. -1.
    9900012    2    1    2    0    0  0.12492975777E+02  0.10585597825E+02  0.40193207957E+02  0.47787270847E+02  0.19999999101E+02 0.  0.
         12    1    1    2    0    0 -0.12492975777E+02 -0.10585597825E+02 -0.40193207957E+02  0.43400729153E+02  0.00000000000E+00 0. -1.
         11    1    3    3    0    0  0.28466518683E+01  0.32972881763E+01  0.69452383623E+00  0.44111109482E+01  0.51100000000E-03 0. -1.
        -11    1    3    3    0    0  0.73101877828E+01  0.73717541274E+01  0.39695131047E+02  0.41030294094E+02  0.51100000000E-03 0.  1.
        -12    1    3    3    0    0  0.23361361260E+01 -0.83444478212E-01 -0.19644692622E+00  0.23458658050E+01  0.00000000000E+00 0.  1.
</event>
<event>
 7    1  0.5559916E-010  0.4778727E+02  0.7816164E-02  0.1312668E+00
        -11   -1    0    0    0    0  0.00000000000E+00  0.00000000000E+00  0.45593999997E+02  0.45594000000E+02  0.51100000000E-03 0.  1.
         11   -1    0    0    0    0 -0.00000000000E+00 -0.00000000000E+00 -0.45593999997E+02  0.45594000000E+02  0.51100000000E-03 0. -1.
    9900012    2    1    2    0    0 -0.95060285249E+01 -0.37577225348E+02  0.19524626528E+02  0.47787268621E+02  0.19999988951E+02 0.  0.
         12    1    1    2    0    0  0.95060285249E+01  0.37577225348E+02 -0.19524626528E+02  0.43400731379E+02  0.00000000000E+00 0. -1.
         11    1    3    3    0    0  0.13618688605E+01 -0.14139978101E+02  0.37152329043E+00  0.14210267320E+02  0.51100000000E-03 0. -1.
        -11    1    3    3    0    0 -0.54457658661E+01 -0.19113935994E+02  0.17421624245E+02  0.26429375828E+02  0.51100000000E-03 0.  1.
        -12    1    3    3    0    0 -0.54221315192E+01 -0.43233112531E+01  0.17314789922E+01  0.71476254731E+01  0.00000000000E+00 0.  1.
</event>
<event>
 7    1  0.5559916E-010  0.4778727E+02  0.7816164E-02  0.1312668E+00
        -11   -1    0    0    0    0  0.00000000000E+00  0.00000000000E+00  0.45593999997E+02  0.45594000000E+02  0.51100000000E-03 0.  1.
         11   -1    0    0    0    0 -0.00000000000E+00 -0.00000000000E+00 -0.45593999997E+02  0.45594000000E+02  0.51100000000E-03 0. -1.
    9900012    2    1    2    0    0 -0.35880174152E+02 -0.22102474696E+02 -0.10378670526E+02  0.47787273200E+02  0.20000009829E+02 0.  0.
         12    1    1    2    0    0  0.35880174152E+02  0.22102474696E+02  0.10378670526E+02  0.43400726800E+02  0.00000000000E+00 0. -1.
         11    1    3    3    0    0 -0.64261901905E+00  0.24517379585E+01 -0.19738648591E+01  0.32124945080E+01  0.51100000000E-03 0. -1.
        -11    1    3    3    0    0 -0.12990339233E+02 -0.11807760332E+02 -0.69914521317E+01  0.18895833419E+02  0.51100000000E-03 0.  1.
         12    1    3    3    0    0 -0.22247215900E+02 -0.12746452323E+02 -0.14133535353E+01  0.25678945273E+02  0.00000000000E+00 0. -1.
</event>
<event>
 7    1  0.5559916E-010  0.4778727E+02  0.7816164E-02  0.1312668E+00
        -11   -1    0    0    0    0  0.00000000000E+00  0.00000000000E+00  0.45593999997E+02  0.45594000000E+02  0.51100000000E-03 0.  1.
         11   -1    0    0    0    0 -0.00000000000E+00 -0.00000000000E+00 -0.45593999997E+02  0.45594000000E+02  0.51100000000E-03 0. -1.
    9900012    2    1    2    0    0 -0.33701639254E+02  0.25331959946E+02  0.10301193740E+02  0.47787271025E+02  0.19999999910E+02 0.  0.
         12    1    1    2    0    0  0.33701639254E+02 -0.25331959946E+02 -0.10301193740E+02  0.43400728975E+02  0.00000000000E+00 0. -1.
         11    1    3    3    0    0 -0.64309632432E+00 -0.15581935491E+00 -0.30433378583E+01  0.31144434711E+01  0.51100000000E-03 0. -1.
        -11    1    3    3    0    0 -0.68605575226E+01  0.10122282037E+02  0.46349693385E+01  0.13077109168E+02  0.51100000000E-03 0.  1.
         12    1    3    3    0    0 -0.26197985407E+02  0.15365497264E+02  0.87095622593E+01  0.31595718386E+02  0.00000000000E+00 0. -1.
</event>
<event>
 7    1  0.5559916E-010  0.4778727E+02  0.7816164E-02  0.1312668E+00
        -11   -1    0    0    0    0  0.00000000000E+00  0.00000000000E+00  0.45593999997E+02  0.45594000000E+02  0.51100000000E-03 0.  1.
         11   -1    0    0    0    0 -0.00000000000E+00 -0.00000000000E+00 -0.45593999997E+02  0.45594000000E+02  0.51100000000E-03 0. -1.
    9900012    2    1    2    0    0 -0.25890722553E+02 -0.42949978157E+01  0.34566552395E+02  0.47787273451E+02  0.20000010970E+02 0.  0.
         12    1    1    2    0    0  0.25890722553E+02  0.42949978157E+01 -0.34566552395E+02  0.43400726549E+02  0.00000000000E+00 0. -1.
         11    1    3    3    0    0  0.13517674507E+01 -0.59048269724E+00 -0.16100706415E+00  0.14838694661E+01  0.51100000000E-03 0. -1.
        -11    1    3    3    0    0 -0.16500407593E+02  0.41647751381E+01  0.22612910143E+02  0.28301104362E+02  0.51100000000E-03 0.  1.
        -12    1    3    3    0    0 -0.10742082411E+02 -0.78692902566E+01  0.12114649316E+02  0.18002299623E+02  0.00000000000E+00 0.  1.
</event>
<event>
 7    1  0.5559916E-010  0.4778727E+02  0.7816164E-02  0.1312668E+00
        -11   -1    0    0    0    0  0.00000000000E+00  0.00000000000E+00  0.45593999997E+02  0.45594000000E+02  0.51100000000E-03 0.  1.
         11   -1    0    0    0    0 -0.00000000000E+00 -0.00000000000E+00 -0.45593999997E+02  0.45594000000E+02  0.51100000000E-03 0. -1.
    9900012    2    1    2    0    0  0.21309818883E+02 -0.89129394650E+00  0.37798420301E+02  0.47787270018E+02  0.19999995321E+02 0.  0.
         12    1    1    2    0    0 -0.21309818883E+02  0.89129394650E+00 -0.37798420301E+02  0.43400729982E+02  0.00000000000E+00 0. -1.
         11    1    3    3    0    0 -0.93126337192E-01 -0.17547092544E+01  0.24116242070E+00  0.17736506579E+01  0.51100000000E-03 0.  1.
        -11    1    3    3    0    0  0.90860533776E+00 -0.50059490440E+01  0.52855366159E+01  0.73363469841E+01  0.51100000000E-03 0. -1.
        -12    1    3    3    0    0  0.20494339882E+02  0.58693643519E+01  0.32271721264E+02  0.38677272376E+02  0.00000000000E+00 0.  1.
</event>
<event>
 7    1  0.5559916E-010  0.4778727E+02  0.7816164E-02  0.1312668E+00
        -11   -1    0    0    0    0  0.00000000000E+00  0.00000000000E+00  0.45593999997E+02  0.45594000000E+02  0.51100000000E-03 0.  1.
         11   -1    0    0    0    0 -0.00000000000E+00 -0.00000000000E+00 -0.45593999997E+02  0.45594000000E+02  0.51100000000E-03 0. -1.
    9900012    2    1    2    0    0  0.15981539709E+02  0.46508197554E+01  0.40082210237E+02  0.47787270589E+02  0.19999997924E+02 0.  0.
         12    1    1    2    0    0 -0.15981539709E+02 -0.46508197554E+01 -0.40082210237E+02  0.43400729411E+02  0.00000000000E+00 0. -1.
         11    1    3    3    0    0 -0.37602817382E+01  0.26113609359E+01  0.12811523328E+02  0.13604927598E+02  0.51100000000E-03 0. -1.
        -11    1    3    3    0    0  0.18830327826E+02  0.31348291693E+01  0.26112014201E+02  0.32345721291E+02  0.51100000000E-03 0.  1.
        -12    1    3    3    0    0  0.91149362112E+00 -0.10953703498E+01  0.11586727087E+01  0.18366217004E+01  0.00000000000E+00 0.  1.
</event>
<event>
 7    1  0.5559916E-010  0.4778727E+02  0.7816164E-02  0.1312668E+00
        -11   -1    0    0    0    0  0.00000000000E+00  0.00000000000E+00  0.45593999997E+02  0.45594000000E+02  0.51100000000E-03 0.  1.
         11   -1    0    0    0    0 -0.00000000000E+00 -0.00000000000E+00 -0.45593999997E+02  0.45594000000E+02  0.51100000000E-03 0. -1.
    9900012    2    1    2    0    0  0.25768081980E+02 -0.28893612175E+02  0.19616020771E+02  0.47787272537E+02  0.20000006806E+02 0.  0.
         12    1    1    2    0    0 -0.25768081980E+02  0.28893612175E+02 -0.19616020771E+02  0.43400727463E+02  0.00000000000E+00 0. -1.
         11    1    3    3    0    0  0.97984561459E+01 -0.52300228550E+01  0.13298826561E+02  0.17326905958E+02  0.51100000000E-03 0. -1.
        -11    1    3    3    0    0  0.10706919027E+01 -0.17258739210E+01  0.31571971316E+01  0.37540532669E+01  0.51100000000E-03 0.  1.
         12    1    3    3    0    0  0.14898933931E+02 -0.21937715399E+02  0.31599970778E+01  0.26706313312E+02  0.00000000000E+00 0. -1.
</event>
<event>
 7    1  0.5559916E-010  0.4778727E+02  0.7816164E-02  0.1312668E+00
        -11   -1    0    0    0    0  0.00000000000E+00  0.00000000000E+00  0.45593999997E+02  0.45594000000E+02  0.51100000000E-03 0.  1.
         11   -1    0    0    0    0 -0.00000000000E+00 -0.00000000000E+00 -0.45593999997E+02  0.45594000000E+02  0.51100000000E-03 0. -1.
    9900012    2    1    2    0    0  0.35403111026E+02 -0.93497366020E+01  0.23298610231E+02  0.47787273237E+02  0.20000009996E+02 0.  0.
         12    1    1    2    0    0 -0.35403111026E+02  0.93497366020E+01 -0.23298610231E+02  0.43400726763E+02  0.00000000000E+00 0. -1.
         11    1    3    3    0    0  0.91260878472E+00 -0.43444774787E+01  0.87610965897E+01  0.98216166222E+01  0.51100000000E-03 0. -1.
        -11    1    3    3    0    0  0.24687892672E+02 -0.44969697641E+01  0.87791656762E+01  0.26585494764E+02  0.51100000000E-03 0.  1.
         12    1    3    3    0    0  0.98026095699E+01 -0.50828935921E+00  0.57583479655E+01  0.11380161850E+02  0.00000000000E+00 0. -1.
</event>
<event>
 7    1  0.5559916E-010  0.4778727E+02  0.7816164E-02  0.1312668E+00
        -11   -1    0    0    0    0  0.00000000000E+00  0.00000000000E+00  0.45593999997E+02  0.45594000000E+02  0.51100000000E-03 0. -1.
         11   -1    0    0    0    0 -0.00000000000E+00 -0.00000000000E+00 -0.45593999997E+02  0.45594000000E+02  0.51100000000E-03 0.  1.
    9900012    2    1    2    0    0 -0.65781204153E+01 -0.13185567490E+02 -0.40822693264E+02  0.47787272546E+02  0.20000006845E+02 0.  0.
         12    1    1    2    0    0  0.65781204153E+01  0.13185567490E+02  0.40822693264E+02  0.43400727454E+02  0.00000000000E+00 0. -1.
         11    1    3    3    0    0 -0.17186908937E+01 -0.93234664407E+01 -0.11589124310E+02  0.14972933159E+02  0.51100000000E-03 0. -1.
        -11    1    3    3    0    0 -0.60082614341E+01  0.33011686104E+01 -0.19532304525E+02  0.20700430912E+02  0.51100000000E-03 0.  1.
        -12    1    3    3    0    0  0.11488319125E+01 -0.71632696601E+01 -0.97012644290E+01  0.12113908474E+02  0.00000000000E+00 0.  1.
</event>
<event>
 7    1  0.5559916E-010  0.4778727E+02  0.7816164E-02  0.1312668E+00
        -11   -1    0    0    0    0  0.00000000000E+00  0.00000000000E+00  0.45593999997E+02  0.45594000000E+02  0.51100000000E-03 0.  1.
         11   -1    0    0    0    0 -0.00000000000E+00 -0.00000000000E+00 -0.45593999997E+02  0.45594000000E+02  0.51100000000E-03 0. -1.
    9900012    2    1    2    0    0 -0.23693103213E+02 -0.95330525828E+01  0.35091037213E+02  0.47787272770E+02  0.20000007868E+02 0.  0.
         12    1    1    2    0    0  0.23693103213E+02  0.95330525828E+01 -0.35091037213E+02  0.43400727230E+02  0.00000000000E+00 0. -1.
         11    1    3    3    0    0 -0.11794221642E+02 -0.11672612339E+01  0.51752208653E+01  0.12932481363E+02  0.51100000000E-03 0. -1.
        -11    1    3    3    0    0 -0.74124384532E+01 -0.95905125174E+01  0.26317366078E+02  0.28974573883E+02  0.51100000000E-03 0.  1.
        -12    1    3    3    0    0 -0.44864431183E+01  0.12247211685E+01  0.35984502690E+01  0.58802175242E+01  0.00000000000E+00 0.  1.
</event>
<event>
 7    1  0.5559916E-010  0.4778727E+02  0.7816164E-02  0.1312668E+00
        -11   -1    0    0    0    0  0.00000000000E+00  0.00000000000E+00  0.45593999997E+02  0.45594000000E+02  0.51100000000E-03 0.  1.
         11   -1    0    0    0    0 -0.00000000000E+00 -0.00000000000E+00 -0.45593999997E+02  0.45594000000E+02  0.51100000000E-03 0. -1.
    9900012    2    1    2    0    0 -0.34097901841E+02 -0.87885751094E+01  0.25371585719E+02  0.47787270464E+02  0.19999997351E+02 0.  0.
         12    1    1    2    0    0  0.34097901841E+02  0.87885751094E+01 -0.25371585719E+02  0.43400729536E+02  0.00000000000E+00 0. -1.
         11    1    3    3    0    0 -0.16666572285E+02 -0.85372753699E+01  0.20871026264E+02  0.28040318116E+02  0.51100000000E-03 0.  1.
        -11    1    3    3    0    0 -0.16075273990E+02 -0.13604541682E+01  0.62218564800E+01  0.17290944674E+02  0.51100000000E-03 0. -1.
         12    1    3    3    0    0 -0.13560555656E+01  0.11091544286E+01 -0.17212970250E+01  0.24560076734E+01  0.00000000000E+00 0. -1.
</event>
<event>
 7    1  0.5559916E-010  0.4778727E+02  0.7816164E-02  0.1312668E+00
        -11   -1    0    0    0    0  0.00000000000E+00  0.00000000000E+00  0.45593999997E+02  0.45594000000E+02  0.51100000000E-03 0.  1.
         11   -1    0    0    0    0 -0.00000000000E+00 -0.00000000000E+00 -0.45593999997E+02  0.45594000000E+02  0.51100000000E-03 0. -1.
    9900012    2    1    2    0    0  0.23888570066E+01  0.35177803122E+02  0.25306894729E+02  0.47787269694E+02  0.19999993842E+02 0.  0.
         12    1    1    2    0    0 -0.23888570066E+01 -0.35177803122E+02 -0.25306894729E+02  0.43400730306E+02  0.00000000000E+00 0. -1.
         11    1    3    3    0    0  0.68349462909E-01  0.69742368837E+00  0.10660301954E+00  0.70882714047E+00  0.51100000000E-03 0. -1.
        -11    1    3    3    0    0 -0.69020297415E+01  0.27064191765E+02  0.17549752972E+02  0.32986395985E+02  0.51100000000E-03 0.  1.
        -12    1    3    3    0    0  0.92225372852E+01  0.74161876689E+01  0.76505387375E+01  0.14092046569E+02  0.00000000000E+00 0.  1.
</event>
<event>
 7    1  0.5559916E-010  0.4778728E+02  0.7816164E-02  0.1312668E+00
        -11   -1    0    0    0    0  0.00000000000E+00  0.00000000000E+00  0.45593999997E+02  0.45594000000E+02  0.51100000000E-03 0. -1.
         11   -1    0    0    0    0 -0.00000000000E+00 -0.00000000000E+00 -0.45593999997E+02  0.45594000000E+02  0.51100000000E-03 0.  1.
    9900012    2    1    2    0    0  0.20353280852E+02 -0.21766103516E+02 -0.31553182999E+02  0.47787278105E+02  0.20000032191E+02 0.  0.
         12    1    1    2    0    0 -0.20353280852E+02  0.21766103516E+02  0.31553182999E+02  0.43400721895E+02  0.00000000000E+00 0. -1.
         11    1    3    3    0    0 -0.75909460749E-01  0.12734082715E+01  0.60010979174E-01  0.12770796573E+01  0.51100000000E-03 0. -1.
        -11    1    3    3    0    0  0.78137791461E+01 -0.37376611522E-01 -0.60689228661E+01  0.98938549904E+01  0.51100000000E-03 0.  1.
        -12    1    3    3    0    0  0.12615411166E+02 -0.23002135176E+02 -0.25544271112E+02  0.36616343457E+02  0.00000000000E+00 0.  1.
</event>
<event>
 7    1  0.5559916E-010  0.4778729E+02  0.7816164E-02  0.1312668E+00
        -11   -1    0    0    0    0  0.00000000000E+00  0.00000000000E+00  0.45593999997E+02  0.45594000000E+02  0.51100000000E-03 0. -1.
         11   -1    0    0    0    0 -0.00000000000E+00 -0.00000000000E+00 -0.45593999997E+02  0.45594000000E+02  0.51100000000E-03 0.  1.
    9900012    2    1    2    0    0  0.86111169256E+01  0.21731181651E+02 -0.36568106994E+02  0.47787285262E+02  0.20000064821E+02 0.  0.
         12    1    1    2    0    0 -0.86111169256E+01 -0.21731181651E+02  0.36568106994E+02  0.43400714738E+02  0.00000000000E+00 0. -1.
         11    1    3    3    0    0 -0.76438985553E+00  0.43454439177E+01 -0.43374777069E+01  0.61871550661E+01  0.51100000000E-03 0. -1.
        -11    1    3    3    0    0 -0.78208192600E+00  0.13517746152E+02 -0.25340211423E+02  0.28730948964E+02  0.51100000000E-03 0.  1.
        -12    1    3    3    0    0  0.10157588707E+02  0.38679915820E+01 -0.68904178648E+01  0.12869181232E+02  0.00000000000E+00 0.  1.
</event>
<event>
 7    1  0.5559916E-010  0.4778728E+02  0.7816164E-02  0.1312668E+00
        -11   -1    0    0    0    0  0.00000000000E+00  0.00000000000E+00  0.45593999997E+02  0.45594000000E+02  0.51100000000E-03 0.  1.
         11   -1    0    0    0    0 -0.00000000000E+00 -0.00000000000E+00 -0.45593999997E+02  0.45594000000E+02  0.51100000000E-03 0. -1.
    9900012    2    1    2    0    0 -0.49829984761E+01  0.42127970921E+02  0.91666089556E+01  0.47787275035E+02  0.20000018197E+02 0.  0.
         12    1    1    2    0    0  0.49829984761E+01 -0.42127970921E+02 -0.91666089556E+01  0.43400724965E+02  0.00000000000E+00 0. -1.
         11    1    3    3    0    0 -0.14460717098E+01  0.94880308975E+01 -0.29378089119E+01  0.10037159716E+02  0.51100000000E-03 0. -1.
        -11    1    3    3    0    0 -0.67056244289E+01  0.11374215026E+02  0.91113390153E+01  0.16042277437E+02  0.51100000000E-03 0.  1.
        -12    1    3    3    0    0  0.31686976625E+01  0.21265724997E+02  0.29930788522E+01  0.21707837883E+02  0.00000000000E+00 0.  1.
</event>
<event>
 7    1  0.5559916E-010  0.4778727E+02  0.7816164E-02  0.1312668E+00
        -11   -1    0    0    0    0  0.00000000000E+00  0.00000000000E+00  0.45593999997E+02  0.45594000000E+02  0.51100000000E-03 0. -1.
         11   -1    0    0    0    0 -0.00000000000E+00 -0.00000000000E+00 -0.45593999997E+02  0.45594000000E+02  0.51100000000E-03 0.  1.
    9900012    2    1    2    0    0 -0.24989443052E+02 -0.35478990361E+02  0.62626873508E+00  0.47787271508E+02  0.20000002114E+02 0.  0.
         12    1    1    2    0    0  0.24989443052E+02  0.35478990361E+02 -0.62626873508E+00  0.43400728492E+02  0.00000000000E+00 0. -1.
         11    1    3    3    0    0 -0.53387965376E+01 -0.62970877601E+01 -0.28934273870E+01  0.87480274939E+01  0.51100000000E-03 0. -1.
        -11    1    3    3    0    0 -0.15816352961E+02 -0.18372998100E+02  0.95805375245E+01  0.26067427562E+02  0.51100000000E-03 0.  1.
        -12    1    3    3    0    0 -0.38342935531E+01 -0.10808904501E+02 -0.60608414023E+01  0.12971816452E+02  0.00000000000E+00 0.  1.
</event>
<event>
 7    1  0.5559916E-010  0.4778727E+02  0.7816164E-02  0.1312668E+00
        -11   -1    0    0    0    0  0.00000000000E+00  0.00000000000E+00  0.45593999997E+02  0.45594000000E+02  0.51100000000E-03 0.  1.
         11   -1    0    0    0    0 -0.00000000000E+00 -0.00000000000E+00 -0.45593999997E+02  0.45594000000E+02  0.51100000000E-03 0. -1.
    9900012    2    1    2    0    0  0.25263143923E+02 -0.20227917516E+02  0.28917610932E+02  0.47787270629E+02  0.19999998107E+02 0.  0.
         12    1    1    2    0    0 -0.25263143923E+02  0.20227917516E+02 -0.28917610932E+02  0.43400729371E+02  0.00000000000E+00 0. -1.
         11    1    3    3    0    0  0.19750355901E+01  0.16462231048E+01 -0.11326470765E+01  0.28095739453E+01  0.51100000000E-03 0. -1.
        -11    1    3    3    0    0  0.22510552247E+02 -0.16870321748E+02  0.27368632435E+02  0.39247608334E+02  0.51100000000E-03 0.  1.
        -12    1    3    3    0    0  0.77755608596E+00 -0.50038188731E+01  0.26816255738E+01  0.57300883501E+01  0.00000000000E+00 0.  1.
</event>
<event>
 7    1  0.5559916E-010  0.4778727E+02  0.7816164E-02  0.1312668E+00
        -11   -1    0    0    0    0  0.00000000000E+00  0.00000000000E+00  0.45593999997E+02  0.45594000000E+02  0.51100000000E-03 0. -1.
         11   -1    0    0    0    0 -0.00000000000E+00 -0.00000000000E+00 -0.45593999997E+02  0.45594000000E+02  0.51100000000E-03 0.  1.
    9900012    2    1    2    0    0 -0.17160210787E+02 -0.39864041980E+02  0.93779959784E-01  0.47787268763E+02  0.19999989599E+02 0.  0.
         12    1    1    2    0    0  0.17160210787E+02  0.39864041980E+02 -0.93779959784E-01  0.43400731237E+02  0.00000000000E+00 0. -1.
         11    1    3    3    0    0 -0.67430455614E+01 -0.11668742680E+02 -0.58083048635E+01  0.14675306634E+02  0.51100000000E-03 0.  1.
        -11    1    3    3    0    0  0.72840896866E+00 -0.11237117000E+02  0.61231412035E+01  0.12817809351E+02  0.51100000000E-03 0. -1.
        -12    1    3    3    0    0 -0.11145574194E+02 -0.16958182300E+02 -0.22105638027E+00  0.20294152778E+02  0.00000000000E+00 0.  1.
</event>
<event>
 7    1  0.5559916E-010  0.4778727E+02  0.7816164E-02  0.1312668E+00
        -11   -1    0    0    0    0  0.00000000000E+00  0.00000000000E+00  0.45593999997E+02  0.45594000000E+02  0.51100000000E-03 0.  1.
         11   -1    0    0    0    0 -0.00000000000E+00 -0.00000000000E+00 -0.45593999997E+02  0.45594000000E+02  0.51100000000E-03 0. -1.
    9900012    2    1    2    0    0  0.17245663723E+01  0.30780153514E+02  0.30548833275E+02  0.47787271965E+02  0.20000004198E+02 0.  0.
         12    1    1    2    0    0 -0.17245663723E+01 -0.30780153514E+02 -0.30548833275E+02  0.43400728035E+02  0.00000000000E+00 0. -1.
         11    1    3    3    0    0 -0.16379665816E+01  0.10660965599E+01  0.11012942632E+02  0.11185007916E+02  0.51100000000E-03 0. -1.
        -11    1    3    3    0    0 -0.31084881571E+00  0.24731551009E+02  0.16248810406E+02  0.29593412817E+02  0.51100000000E-03 0.  1.
        -12    1    3    3    0    0  0.36733817696E+01  0.49825059452E+01  0.32870802371E+01  0.70088512328E+01  0.00000000000E+00 0.  1.
</event>
<event>
 7    1  0.5559916E-010  0.4778727E+02  0.7816164E-02  0.1312668E+00
        -11   -1    0    0    0    0  0.00000000000E+00  0.00000000000E+00  0.45593999997E+02  0.45594000000E+02  0.51100000000E-03 0. -1.
         11   -1    0    0    0    0 -0.00000000000E+00 -0.00000000000E+00 -0.45593999997E+02  0.45594000000E+02  0.51100000000E-03 0.  1.
    9900012    2    1    2    0    0 -0.12407660610E+02 -0.16421680443E+02 -0.38209966948E+02  0.47787271842E+02  0.20000003639E+02 0.  0.
         12    1    1    2    0    0  0.12407660610E+02  0.16421680443E+02  0.38209966948E+02  0.43400728158E+02  0.00000000000E+00 0. -1.
         11    1    3    3    0    0 -0.20891441882E+01  0.20303957032E+01 -0.83305834214E+00  0.30300192430E+01  0.51100000000E-03 0. -1.
        -11    1    3    3    0    0 -0.17947531171E+01 -0.14947732814E+02 -0.26708212900E+02  0.30659166518E+02  0.51100000000E-03 0.  1.
        -12    1    3    3    0    0 -0.85237633051E+01 -0.35043433324E+01 -0.10668695706E+02  0.14098086081E+02  0.00000000000E+00 0.  1.
</event>
<event>
 7    1  0.5559916E-010  0.4778729E+02  0.7816164E-02  0.1312668E+00
        -11   -1    0    0    0    0  0.00000000000E+00  0.00000000000E+00  0.45593999997E+02  0.45594000000E+02  0.51100000000E-03 0.  1.
         11   -1    0    0    0    0 -0.00000000000E+00 -0.00000000000E+00 -0.45593999997E+02  0.45594000000E+02  0.51100000000E-03 0. -1.
    9900012    2    1    2    0    0 -0.58011683310E+01 -0.60482097819E+01  0.42583889009E+02  0.47787285735E+02  0.20000066981E+02 0.  0.
         12    1    1    2    0    0  0.58011683310E+01  0.60482097819E+01 -0.42583889009E+02  0.43400714265E+02  0.00000000000E+00 0. -1.
         11    1    3    3    0    0  0.14695912584E+01  0.11493597864E+01  0.17881470273E+01  0.25842206636E+01  0.51100000000E-03 0. -1.
        -11    1    3    3    0    0  0.35203818898E+01 -0.71595999706E+01  0.23495712703E+02  0.24813332628E+02  0.51100000000E-03 0.  1.
        -12    1    3    3    0    0 -0.10791141479E+02 -0.37969597756E-01  0.17300029278E+02  0.20389732444E+02  0.00000000000E+00 0.  1.
</event>
<event>
 7    1  0.5559916E-010  0.4778727E+02  0.7816164E-02  0.1312668E+00
        -11   -1    0    0    0    0  0.00000000000E+00  0.00000000000E+00  0.45593999997E+02  0.45594000000E+02  0.51100000000E-03 0.  1.
         11   -1    0    0    0    0 -0.00000000000E+00 -0.00000000000E+00 -0.45593999997E+02  0.45594000000E+02  0.51100000000E-03 0. -1.
    9900012    2    1    2    0    0  0.16264766116E+02 -0.24351902723E+02  0.32032255088E+02  0.47787272482E+02  0.20000006556E+02 0.  0.
         12    1    1    2    0    0 -0.16264766116E+02  0.24351902723E+02 -0.32032255088E+02  0.43400727518E+02  0.00000000000E+00 0. -1.
         11    1    3    3    0    0  0.35030959265E+01 -0.13580251640E+01 -0.21253672237E+01  0.43166074078E+01  0.51100000000E-03 0. -1.
        -11    1    3    3    0    0  0.11016148376E+02 -0.16579743988E+02  0.22421948536E+02  0.29983115451E+02  0.51100000000E-03 0.  1.
        -12    1    3    3    0    0  0.17455218129E+01 -0.64141335704E+01  0.11735673776E+02  0.13487549623E+02  0.00000000000E+00 0.  1.
</event>
<event>
 7    1  0.5559916E-010  0.4778726E+02  0.7816164E-02  0.1312668E+00
        -11   -1    0    0    0    0  0.00000000000E+00  0.00000000000E+00  0.45593999997E+02  0.45594000000E+02  0.51100000000E-03 0.  1.
         11   -1    0    0    0    0 -0.00000000000E+00 -0.00000000000E+00 -0.45593999997E+02  0.45594000000E+02  0.51100000000E-03 0. -1.
    9900012    2    1    2    0    0  0.38189400275E+02 -0.13890889680E+02  0.15239337416E+02  0.47787256754E+02  0.19999934844E+02 0.  0.
         12    1    1    2    0    0 -0.38189400275E+02  0.13890889680E+02 -0.15239337416E+02  0.43400743246E+02  0.00000000000E+00 0. -1.
         11    1    3    3    0    0  0.18099891966E+02 -0.11573345390E+02  0.10709739570E+02  0.24005143920E+02  0.51100000000E-03 0. -1.
        -11    1    3    3    0    0  0.65060154055E+01 -0.62865256715E+01  0.46711707423E+00  0.90590750133E+01  0.51100000000E-03 0.  1.
         12    1    3    3    0    0  0.13583492903E+02  0.39689813815E+01  0.40624807720E+01  0.14723037821E+02  0.00000000000E+00 0. -1.
</event>
<event>
 7    1  0.5559916E-010  0.4778727E+02  0.7816164E-02  0.1312668E+00
        -11   -1    0    0    0    0  0.00000000000E+00  0.00000000000E+00  0.45593999997E+02  0.45594000000E+02  0.51100000000E-03 0.  1.
         11   -1    0    0    0    0 -0.00000000000E+00 -0.00000000000E+00 -0.45593999997E+02  0.45594000000E+02  0.51100000000E-03 0. -1.
    9900012    2    1    2    0    0 -0.32142249189E+02 -0.12520843695E+01  0.29136424574E+02  0.47787272643E+02  0.20000007288E+02 0.  0.
         12    1    1    2    0    0  0.32142249189E+02  0.12520843695E+01 -0.29136424574E+02  0.43400727357E+02  0.00000000000E+00 0. -1.
         11    1    3    3    0    0  0.62186337453E-01  0.32084259188E+01  0.81064158927E+00  0.33098344467E+01  0.51100000000E-03 0. -1.
        -11    1    3    3    0    0 -0.26267347854E+02 -0.71490869613E+01  0.25742181428E+02  0.37466557256E+02  0.51100000000E-03 0.  1.
        -12    1    3    3    0    0 -0.59370876728E+01  0.26885766730E+01  0.25836015562E+01  0.70108809406E+01  0.00000000000E+00 0.  1.
</event>
<event>
 7    1  0.5559916E-010  0.4778733E+02  0.7816164E-02  0.1312667E+00
        -11   -1    0    0    0    0  0.00000000000E+00  0.00000000000E+00  0.45593999997E+02  0.45594000000E+02  0.51100000000E-03 0.  1.
         11   -1    0    0    0    0 -0.00000000000E+00 -0.00000000000E+00 -0.45593999997E+02  0.45594000000E+02  0.51100000000E-03 0. -1.
    9900012    2    1    2    0    0  0.24876330857E+02  0.28216765993E+02  0.21647173527E+02  0.47787333626E+02  0.20000285332E+02 0.  0.
         12    1    1    2    0    0 -0.24876330857E+02 -0.28216765993E+02 -0.21647173527E+02  0.43400666374E+02  0.00000000000E+00 0. -1.
         11    1    3    3    0    0  0.42762635566E+01 -0.14754949377E+01  0.66436864869E+01  0.80375422682E+01  0.51100000000E-03 0. -1.
        -11    1    3    3    0    0  0.14529814872E+02  0.15196806092E+02  0.73766532888E+01  0.22281684174E+02  0.51100000000E-03 0.  1.
         12    1    3    3    0    0  0.60702524289E+01  0.14495454838E+02  0.76268337512E+01  0.17468107184E+02  0.00000000000E+00 0. -1.
</event>
<event>
 7    1  0.5559916E-010  0.4778727E+02  0.7816164E-02  0.1312668E+00
        -11   -1    0    0    0    0  0.00000000000E+00  0.00000000000E+00  0.45593999997E+02  0.45594000000E+02  0.51100000000E-03 0.  1.
         11   -1    0    0    0    0 -0.00000000000E+00 -0.00000000000E+00 -0.45593999997E+02  0.45594000000E+02  0.51100000000E-03 0. -1.
    9900012    2    1    2    0    0 -0.88708024052E+01  0.30305346436E+02  0.29774461952E+02  0.47787265646E+02  0.19999975388E+02 0.  0.
         12    1    1    2    0    0  0.88708024052E+01 -0.30305346436E+02 -0.29774461952E+02  0.43400734354E+02  0.00000000000E+00 0. -1.
         11    1    3    3    0    0  0.11017520095E+01 -0.16421746335E+01  0.35055663641E+01  0.40248715274E+01  0.51100000000E-03 0. -1.
        -11    1    3    3    0    0 -0.61164136184E+01  0.19445232599E+02  0.22018823302E+02  0.30005935517E+02  0.51100000000E-03 0.  1.
         12    1    3    3    0    0 -0.38561407963E+01  0.12502288470E+02  0.42500722854E+01  0.13756458602E+02  0.00000000000E+00 0. -1.
</event>
<event>
 7    1  0.5559916E-010  0.4778727E+02  0.7816164E-02  0.1312668E+00
        -11   -1    0    0    0    0  0.00000000000E+00  0.00000000000E+00  0.45593999997E+02  0.45594000000E+02  0.51100000000E-03 0. -1.
         11   -1    0    0    0    0 -0.00000000000E+00 -0.00000000000E+00 -0.45593999997E+02  0.45594000000E+02  0.51100000000E-03 0.  1.
    9900012    2    1    2    0    0 -0.24546110452E+02  0.12530360608E+02 -0.33527623398E+02  0.47787274130E+02  0.20000014071E+02 0.  0.
         12    1    1    2    0    0  0.24546110452E+02 -0.12530360608E+02  0.33527623398E+02  0.43400725870E+02  0.00000000000E+00 0. -1.
         11    1    3    3    0    0 -0.39854611312E+01 -0.35398458161E+01 -0.95579582751E+01  0.10943901292E+02  0.51100000000E-03 0. -1.
        -11    1    3    3    0    0 -0.88966719822E+01  0.10197091382E+02 -0.64475337698E+01  0.14990067945E+02  0.51100000000E-03 0.  1.
         12    1    3    3    0    0 -0.11663977338E+02  0.58731150426E+01 -0.17522131353E+02  0.21853304894E+02  0.00000000000E+00 0. -1.
</event>
<event>
 7    1  0.5559916E-010  0.4778727E+02  0.7816164E-02  0.1312668E+00
        -11   -1    0    0    0    0  0.00000000000E+00  0.00000000000E+00  0.45593999997E+02  0.45594000000E+02  0.51100000000E-03 0.  1.
         11   -1    0    0    0    0 -0.00000000000E+00 -0.00000000000E+00 -0.45593999997E+02  0.45594000000E+02  0.51100000000E-03 0. -1.
    9900012    2    1    2    0    0  0.28483679812E+02  0.26257875968E+02 -0.19565965802E+02  0.47787273235E+02  0.20000009988E+02 0.  0.
         12    1    1    2    0    0 -0.28483679812E+02 -0.26257875968E+02  0.19565965802E+02  0.43400726765E+02  0.00000000000E+00 0. -1.
         11    1    3    3    0    0  0.23675218910E+02  0.12301583156E+02 -0.17202216791E+02  0.31745254785E+02  0.51100000000E-03 0. -1.
        -11    1    3    3    0    0  0.51104252025E+01  0.14315406924E+02 -0.27342137515E+01  0.15444197818E+02  0.51100000000E-03 0.  1.
         12    1    3    3    0    0 -0.30196430092E+00 -0.35911411178E+00  0.37046474032E+00  0.59782063207E+00  0.00000000000E+00 0. -1.
</event>
<event>
 7    1  0.5559916E-010  0.4778728E+02  0.7816164E-02  0.1312668E+00
        -11   -1    0    0    0    0  0.00000000000E+00  0.00000000000E+00  0.45593999997E+02  0.45594000000E+02  0.51100000000E-03 0.  1.
         11   -1    0    0    0    0 -0.00000000000E+00 -0.00000000000E+00 -0.45593999997E+02  0.45594000000E+02  0.51100000000E-03 0. -1.
    9900012    2    1    2    0    0 -0.15718605287E+02  0.36327154993E+02  0.17801273434E+02  0.47787284823E+02  0.20000062820E+02 0.  0.
         12    1    1    2    0    0  0.15718605287E+02 -0.36327154993E+02 -0.17801273434E+02  0.43400715177E+02  0.00000000000E+00 0. -1.
         11    1    3    3    0    0  0.26338676634E+01  0.13648869240E+00  0.92370595294E+00  0.27944804491E+01  0.51100000000E-03 0. -1.
        -11    1    3    3    0    0 -0.11561479389E+02  0.26832803206E+02  0.16205766442E+02  0.33410986214E+02  0.51100000000E-03 0.  1.
         12    1    3    3    0    0 -0.67909935615E+01  0.93578630947E+01  0.67180103861E+00  0.11581818160E+02  0.00000000000E+00 0. -1.
</event>
<event>
 7    1  0.5559916E-010  0.4778727E+02  0.7816164E-02  0.1312668E+00
        -11   -1    0    0    0    0  0.00000000000E+00  0.00000000000E+00  0.45593999997E+02  0.45594000000E+02  0.51100000000E-03 0.  1.
         11   -1    0    0    0    0 -0.00000000000E+00 -0.00000000000E+00 -0.45593999997E+02  0.45594000000E+02  0.51100000000E-03 0. -1.
    9900012    2    1    2    0    0  0.14673900192E+02 -0.27924316530E+02  0.29808261572E+02  0.47787271222E+02  0.20000000811E+02 0.  0.
         12    1    1    2    0    0 -0.14673900192E+02  0.27924316530E+02 -0.29808261572E+02  0.43400728778E+02  0.00000000000E+00 0. -1.
         11    1    3    3    0    0 -0.26010872120E+01 -0.41128347886E+01  0.77576400488E+00  0.49277656940E+01  0.51100000000E-03 0. -1.
        -11    1    3    3    0    0  0.17917691264E+02 -0.20280271519E+02  0.28374863260E+02  0.39210533513E+02  0.51100000000E-03 0.  1.
        -12    1    3    3    0    0 -0.64270386048E+00 -0.35312102220E+01  0.65763430774E+00  0.36489720151E+01  0.00000000000E+00 0.  1.
</event>
<event>
 7    1  0.5559916E-010  0.4778727E+02  0.7816164E-02  0.1312668E+00
        -11   -1    0    0    0    0  0.00000000000E+00  0.00000000000E+00  0.45593999997E+02  0.45594000000E+02  0.51100000000E-03 0. -1.
         11   -1    0    0    0    0 -0.00000000000E+00 -0.00000000000E+00 -0.45593999997E+02  0.45594000000E+02  0.51100000000E-03 0.  1.
    9900012    2    1    2    0    0 -0.34829859672E+02  0.94476993720E+01 -0.24109024789E+02  0.47787271614E+02  0.20000002595E+02 0.  0.
         12    1    1    2    0    0  0.34829859672E+02 -0.94476993720E+01  0.24109024789E+02  0.43400728386E+02  0.00000000000E+00 0. -1.
         11    1    3    3    0    0 -0.21039137898E+02  0.12540594705E+02 -0.14696000826E+02  0.28563688130E+02  0.51100000000E-03 0. -1.
        -11    1    3    3    0    0 -0.14633050500E+02 -0.15592222519E+01 -0.94221140630E+01  0.17473796801E+02  0.51100000000E-03 0.  1.
         12    1    3    3    0    0  0.84232872636E+00 -0.15336730810E+01  0.90901004144E-02  0.17497866820E+01  0.00000000000E+00 0. -1.
</event>
<event>
 7    1  0.5559916E-010  0.4778727E+02  0.7816164E-02  0.1312668E+00
        -11   -1    0    0    0    0  0.00000000000E+00  0.00000000000E+00  0.45593999997E+02  0.45594000000E+02  0.51100000000E-03 0.  1.
         11   -1    0    0    0    0 -0.00000000000E+00 -0.00000000000E+00 -0.45593999997E+02  0.45594000000E+02  0.51100000000E-03 0. -1.
    9900012    2    1    2    0    0  0.19317119290E+02 -0.38726016431E+02  0.32814322926E+01  0.47787271387E+02  0.20000001562E+02 0.  0.
         12    1    1    2    0    0 -0.19317119290E+02  0.38726016431E+02 -0.32814322926E+01  0.43400728613E+02  0.00000000000E+00 0. -1.
         11    1    3    3    0    0  0.71514755089E+01 -0.14400507115E+02 -0.24750571834E+01  0.16267886016E+02  0.51100000000E-03 0. -1.
        -11    1    3    3    0    0  0.35177936495E+01 -0.10377278104E+02  0.97075249811E+01  0.14638948546E+02  0.51100000000E-03 0.  1.
         12    1    3    3    0    0  0.86478501312E+01 -0.13948231212E+02 -0.39510355051E+01  0.16880436825E+02  0.00000000000E+00 0. -1.
</event>
<event>
 7    1  0.5559916E-010  0.4778726E+02  0.7816164E-02  0.1312668E+00
        -11   -1    0    0    0    0  0.00000000000E+00  0.00000000000E+00  0.45593999997E+02  0.45594000000E+02  0.51100000000E-03 0.  1.
         11   -1    0    0    0    0 -0.00000000000E+00 -0.00000000000E+00 -0.45593999997E+02  0.45594000000E+02  0.51100000000E-03 0. -1.
    9900012    2    1    2    0    0 -0.22900108442E+02  0.73452090973E+01  0.36128345936E+02  0.47787257571E+02  0.19999938568E+02 0.  0.
         12    1    1    2    0    0  0.22900108442E+02 -0.73452090973E+01 -0.36128345936E+02  0.43400742429E+02  0.00000000000E+00 0. -1.
         11    1    3    3    0    0  0.31226685888E+00  0.31227444337E+01 -0.10674930365E+01  0.33149034727E+01  0.51100000000E-03 0. -1.
        -11    1    3    3    0    0 -0.16352001875E+02  0.11272707436E+01  0.21226572607E+02  0.26818390884E+02  0.51100000000E-03 0.  1.
         12    1    3    3    0    0 -0.68603734253E+01  0.30951939200E+01  0.15969266365E+02  0.17653963215E+02  0.00000000000E+00 0. -1.
</event>
<event>
 7    1  0.5559916E-010  0.4778727E+02  0.7816164E-02  0.1312668E+00
        -11   -1    0    0    0    0  0.00000000000E+00  0.00000000000E+00  0.45593999997E+02  0.45594000000E+02  0.51100000000E-03 0. -1.
         11   -1    0    0    0    0 -0.00000000000E+00 -0.00000000000E+00 -0.45593999997E+02  0.45594000000E+02  0.51100000000E-03 0.  1.
    9900012    2    1    2    0    0 -0.33477979510E+02 -0.11638584800E+02 -0.25047785438E+02  0.47787270472E+02  0.19999997390E+02 0.  0.
         12    1    1    2    0    0  0.33477979510E+02  0.11638584800E+02  0.25047785438E+02  0.43400729528E+02  0.00000000000E+00 0. -1.
         11    1    3    3    0    0 -0.25027281336E+02 -0.13672264373E+02 -0.96522676358E+01  0.30107505624E+02  0.51100000000E-03 0. -1.
        -11    1    3    3    0    0 -0.47222094736E+01  0.11293307800E+01 -0.85574701577E+01  0.98389504565E+01  0.51100000000E-03 0.  1.
         12    1    3    3    0    0 -0.37284887002E+01  0.90434879220E+00 -0.68380476448E+01  0.78408143913E+01  0.00000000000E+00 0. -1.
</event>
<event>
 7    1  0.5559916E-010  0.4778728E+02  0.7816164E-02  0.1312668E+00
        -11   -1    0    0    0    0  0.00000000000E+00  0.00000000000E+00  0.45593999997E+02  0.45594000000E+02  0.51100000000E-03 0.  1.
         11   -1    0    0    0    0 -0.00000000000E+00 -0.00000000000E+00 -0.45593999997E+02  0.45594000000E+02  0.51100000000E-03 0. -1.
    9900012    2    1    2    0    0  0.15286990146E+02 -0.26510500410E+02  0.30775383184E+02  0.47787275239E+02  0.20000019123E+02 0.  0.
         12    1    1    2    0    0 -0.15286990146E+02  0.26510500410E+02 -0.30775383184E+02  0.43400724761E+02  0.00000000000E+00 0. -1.
         11    1    3    3    0    0 -0.37768992552E+01 -0.52237194594E+00  0.50749773656E+01  0.63476953264E+01  0.51100000000E-03 0.  1.
        -11    1    3    3    0    0  0.13252281533E+02 -0.15997803298E+02  0.14410201766E+02  0.25282535304E+02  0.51100000000E-03 0. -1.
        -12    1    3    3    0    0  0.58116078688E+01 -0.99903251663E+01  0.11290204052E+02  0.16157044608E+02  0.00000000000E+00 0.  1.
</event>
<event>
 7    1  0.5559916E-010  0.4778727E+02  0.7816164E-02  0.1312668E+00
        -11   -1    0    0    0    0  0.00000000000E+00  0.00000000000E+00  0.45593999997E+02  0.45594000000E+02  0.51100000000E-03 0.  1.
         11   -1    0    0    0    0 -0.00000000000E+00 -0.00000000000E+00 -0.45593999997E+02  0.45594000000E+02  0.51100000000E-03 0. -1.
    9900012    2    1    2    0    0  0.28496172231E+02  0.20529343544E+02  0.25497800623E+02  0.47787267117E+02  0.19999982094E+02 0.  0.
         12    1    1    2    0    0 -0.28496172231E+02 -0.20529343544E+02 -0.25497800623E+02  0.43400732883E+02  0.00000000000E+00 0. -1.
         11    1    3    3    0    0  0.28946257430E+02  0.15139728293E+02  0.23049221235E+02  0.39979542166E+02  0.51100000000E-03 0.  1.
        -11    1    3    3    0    0  0.14277758004E+01  0.48722364432E+01  0.58279450110E+00  0.51104678246E+01  0.51100000000E-03 0. -1.
         12    1    3    3    0    0 -0.18778609995E+01  0.51737880831E+00  0.18657848867E+01  0.26972571268E+01  0.00000000000E+00 0. -1.
</event>
<event>
 7    1  0.5559916E-010  0.4778727E+02  0.7816164E-02  0.1312668E+00
        -11   -1    0    0    0    0  0.00000000000E+00  0.00000000000E+00  0.45593999997E+02  0.45594000000E+02  0.51100000000E-03 0. -1.
         11   -1    0    0    0    0 -0.00000000000E+00 -0.00000000000E+00 -0.45593999997E+02  0.45594000000E+02  0.51100000000E-03 0.  1.
    9900012    2    1    2    0    0  0.39258971679E+02  0.71260935179E+01 -0.17075586927E+02  0.47787265732E+02  0.19999975778E+02 0.  0.
         12    1    1    2    0    0 -0.39258971679E+02 -0.71260935179E+01  0.17075586927E+02  0.43400734268E+02  0.00000000000E+00 0. -1.
         11    1    3    3    0    0  0.20301581893E+02 -0.39898096732E+01 -0.10636759178E+02  0.23263994813E+02  0.51100000000E-03 0. -1.
        -11    1    3    3    0    0  0.10963157138E+02  0.63944497744E+01 -0.81490705596E+01  0.15082677269E+02  0.51100000000E-03 0.  1.
         12    1    3    3    0    0  0.79942326477E+01  0.47214534168E+01  0.17102428105E+01  0.94405936500E+01  0.00000000000E+00 0. -1.
</event>
<event>
 7    1  0.5559916E-010  0.4778722E+02  0.7816164E-02  0.1312668E+00
        -11   -1    0    0    0    0  0.00000000000E+00  0.00000000000E+00  0.45593999997E+02  0.45594000000E+02  0.51100000000E-03 0. -1.
         11   -1    0    0    0    0 -0.00000000000E+00 -0.00000000000E+00 -0.45593999997E+02  0.45594000000E+02  0.51100000000E-03 0.  1.
    9900012    2    1    2    0    0 -0.21857416454E+00 -0.72401145888E+01 -0.42792063362E+02  0.47787219814E+02  0.19999766420E+02 0.  0.
         12    1    1    2    0    0  0.21857416454E+00  0.72401145888E+01  0.42792063362E+02  0.43400780186E+02  0.00000000000E+00 0. -1.
         11    1    3    3    0    0 -0.27965622534E+01 -0.65175506894E+01 -0.46985458995E+01  0.85073827501E+01  0.51100000000E-03 0. -1.
        -11    1    3    3    0    0  0.53586683678E+01 -0.82813553879E+00 -0.13793184998E+02  0.14820697953E+02  0.51100000000E-03 0.  1.
         12    1    3    3    0    0 -0.27806802790E+01  0.10557163938E+00 -0.24300332465E+02  0.24459139111E+02  0.00000000000E+00 0. -1.
</event>
<event>
 7    1  0.5559916E-010  0.4778727E+02  0.7816164E-02  0.1312668E+00
        -11   -1    0    0    0    0  0.00000000000E+00  0.00000000000E+00  0.45593999997E+02  0.45594000000E+02  0.51100000000E-03 0.  1.
         11   -1    0    0    0    0 -0.00000000000E+00 -0.00000000000E+00 -0.45593999997E+02  0.45594000000E+02  0.51100000000E-03 0. -1.
    9900012    2    1    2    0    0 -0.32190553209E+02  0.20440795023E+01  0.29038137575E+02  0.47787269467E+02  0.19999992809E+02 0.  0.
         12    1    1    2    0    0  0.32190553209E+02 -0.20440795023E+01 -0.29038137575E+02  0.43400730533E+02  0.00000000000E+00 0. -1.
         11    1    3    3    0    0 -0.78557560129E+01 -0.36975128773E+01  0.32548655143E+00  0.86885237969E+01  0.51100000000E-03 0. -1.
        -11    1    3    3    0    0 -0.24984854315E+02  0.51858480508E+01  0.28420385185E+02  0.38194950707E+02  0.51100000000E-03 0.  1.
        -12    1    3    3    0    0  0.65005711837E+00  0.55574432886E+00  0.29226583860E+00  0.90379496381E+00  0.00000000000E+00 0.  1.
</event>
<event>
 7    1  0.5559916E-010  0.4778727E+02  0.7816164E-02  0.1312668E+00
        -11   -1    0    0    0    0  0.00000000000E+00  0.00000000000E+00  0.45593999997E+02  0.45594000000E+02  0.51100000000E-03 0. -1.
         11   -1    0    0    0    0 -0.00000000000E+00 -0.00000000000E+00 -0.45593999997E+02  0.45594000000E+02  0.51100000000E-03 0.  1.
    9900012    2    1    2    0    0 -0.15490424509E+02  0.31850052091E+02 -0.25084741089E+02  0.47787270684E+02  0.19999998356E+02 0.  0.
         12    1    1    2    0    0  0.15490424509E+02 -0.31850052091E+02  0.25084741089E+02  0.43400729316E+02  0.00000000000E+00 0. -1.
         11    1    3    3    0    0  0.32773109921E+01  0.27466914917E+01 -0.33602842304E+01  0.54384365271E+01  0.51100000000E-03 0. -1.
        -11    1    3    3    0    0 -0.14393192164E+02  0.23529392601E+02 -0.11442351306E+02  0.29861743092E+02  0.51100000000E-03 0.  1.
        -12    1    3    3    0    0 -0.43745433377E+01  0.55739679982E+01 -0.10282105552E+02  0.12487091064E+02  0.00000000000E+00 0.  1.
</event>
<event>
 7    1  0.5559916E-010  0.4778727E+02  0.7816164E-02  0.1312668E+00
        -11   -1    0    0    0    0  0.00000000000E+00  0.00000000000E+00  0.45593999997E+02  0.45594000000E+02  0.51100000000E-03 0.  1.
         11   -1    0    0    0    0 -0.00000000000E+00 -0.00000000000E+00 -0.45593999997E+02  0.45594000000E+02  0.51100000000E-03 0. -1.
    9900012    2    1    2    0    0 -0.29559973812E+02 -0.10275269467E+01  0.31761225132E+02  0.47787270913E+02  0.19999999401E+02 0.  0.
         12    1    1    2    0    0  0.29559973812E+02  0.10275269467E+01 -0.31761225132E+02  0.43400729087E+02  0.00000000000E+00 0. -1.
         11    1    3    3    0    0 -0.19945129312E+02  0.76865595538E+00  0.15379476871E+02  0.25197764272E+02  0.51100000000E-03 0.  1.
        -11    1    3    3    0    0 -0.28600510958E+01  0.42454287460E+01  0.10784898542E+02  0.11938073309E+02  0.51100000000E-03 0. -1.
        -12    1    3    3    0    0 -0.67547934042E+01 -0.60416116481E+01  0.55968497189E+01  0.10651433332E+02  0.00000000000E+00 0.  1.
</event>
<event>
 7    1  0.5559916E-010  0.4778728E+02  0.7816164E-02  0.1312668E+00
        -11   -1    0    0    0    0  0.00000000000E+00  0.00000000000E+00  0.45593999997E+02  0.45594000000E+02  0.51100000000E-03 0. -1.
         11   -1    0    0    0    0 -0.00000000000E+00 -0.00000000000E+00 -0.45593999997E+02  0.45594000000E+02  0.51100000000E-03 0.  1.
    9900012    2    1    2    0    0  0.60301245090E+01  0.42979757544E+02  0.30732208027E-01  0.47787275298E+02  0.20000019396E+02 0.  0.
         12    1    1    2    0    0 -0.60301245090E+01 -0.42979757544E+02 -0.30732208027E-01  0.43400724702E+02  0.00000000000E+00 0. -1.
         11    1    3    3    0    0 -0.65320780418E+00 -0.13875470695E+01  0.19262781171E+01  0.24622174865E+01  0.51100000000E-03 0. -1.
        -11    1    3    3    0    0  0.35211844235E+01  0.38128161616E+02 -0.16599227861E+01  0.38326372016E+02  0.51100000000E-03 0.  1.
         12    1    3    3    0    0  0.31621478897E+01  0.62391429975E+01 -0.23562312290E+00  0.69986857963E+01  0.00000000000E+00 0. -1.
</event>
<event>
 7    1  0.5559916E-010  0.4778727E+02  0.7816164E-02  0.1312668E+00
        -11   -1    0    0    0    0  0.00000000000E+00  0.00000000000E+00  0.45593999997E+02  0.45594000000E+02  0.51100000000E-03 0.  1.
         11   -1    0    0    0    0 -0.00000000000E+00 -0.00000000000E+00 -0.45593999997E+02  0.45594000000E+02  0.51100000000E-03 0. -1.
    9900012    2    1    2    0    0  0.28278861431E+02  0.29262218620E+02  0.15088146600E+02  0.47787267169E+02  0.19999982332E+02 0.  0.
         12    1    1    2    0    0 -0.28278861431E+02 -0.29262218620E+02 -0.15088146600E+02  0.43400732831E+02  0.00000000000E+00 0. -1.
         11    1    3    3    0    0  0.18094827162E+02  0.14839107832E+02  0.56202832680E+01  0.24066771191E+02  0.51100000000E-03 0. -1.
        -11    1    3    3    0    0  0.93373481822E+00  0.10704913041E+02  0.85057873194E+01  0.13704577415E+02  0.51100000000E-03 0.  1.
         12    1    3    3    0    0  0.92502994516E+01  0.37181977466E+01  0.96207601208E+00  0.10015918564E+02  0.00000000000E+00 0. -1.
</event>
<event>
 7    1  0.5559916E-010  0.4778727E+02  0.7816164E-02  0.1312668E+00
        -11   -1    0    0    0    0  0.00000000000E+00  0.00000000000E+00  0.45593999997E+02  0.45594000000E+02  0.51100000000E-03 0. -1.
         11   -1    0    0    0    0 -0.00000000000E+00 -0.00000000000E+00 -0.45593999997E+02  0.45594000000E+02  0.51100000000E-03 0.  1.
    9900012    2    1    2    0    0  0.22414463730E+02  0.37118677688E+02  0.18491174619E+01  0.47787266677E+02  0.19999980087E+02 0.  0.
         12    1    1    2    0    0 -0.22414463730E+02 -0.37118677688E+02 -0.18491174619E+01  0.43400733323E+02  0.00000000000E+00 0. -1.
         11    1    3    3    0    0 -0.22895733668E+01  0.55136941309E+01  0.22015806963E+01  0.63631695714E+01  0.51100000000E-03 0. -1.
        -11    1    3    3    0    0 -0.56070506582E+00  0.10882845962E+01 -0.13121848846E+01  0.17945982742E+01  0.51100000000E-03 0.  1.
         12    1    3    3    0    0  0.25264742163E+02  0.30516698961E+02  0.95972165025E+00  0.39629498831E+02  0.00000000000E+00 0. -1.
</event>
<event>
 7    1  0.5559916E-010  0.4778727E+02  0.7816164E-02  0.1312668E+00
        -11   -1    0    0    0    0  0.00000000000E+00  0.00000000000E+00  0.45593999997E+02  0.45594000000E+02  0.51100000000E-03 0.  1.
         11   -1    0    0    0    0 -0.00000000000E+00 -0.00000000000E+00 -0.45593999997E+02  0.45594000000E+02  0.51100000000E-03 0. -1.
    9900012    2    1    2    0    0  0.24007595890E+00 -0.85341919961E+01  0.42552707259E+02  0.47787274608E+02  0.20000016249E+02 0.  0.
         12    1    1    2    0    0 -0.24007595890E+00  0.85341919961E+01 -0.42552707259E+02  0.43400725392E+02  0.00000000000E+00 0. -1.
         11    1    3    3    0    0 -0.47764969241E+01 -0.16023154420E+01  0.60452614907E+01  0.78694043227E+01  0.51100000000E-03 0. -1.
        -11    1    3    3    0    0  0.75846301436E+01 -0.76992822625E+01  0.16453531326E+02  0.19685635756E+02  0.51100000000E-03 0.  1.
        -12    1    3    3    0    0 -0.25680572606E+01  0.76740570831E+00  0.20053914442E+02  0.20232234529E+02  0.00000000000E+00 0.  1.
</event>
<event>
 7    1  0.5559916E-010  0.4778727E+02  0.7816164E-02  0.1312668E+00
        -11   -1    0    0    0    0  0.00000000000E+00  0.00000000000E+00  0.45593999997E+02  0.45594000000E+02  0.51100000000E-03 0. -1.
         11   -1    0    0    0    0 -0.00000000000E+00 -0.00000000000E+00 -0.45593999997E+02  0.45594000000E+02  0.51100000000E-03 0.  1.
    9900012    2    1    2    0    0  0.45295932745E+01  0.30735133251E+02  0.30306068525E+02  0.47787269353E+02  0.19999992290E+02 0.  0.
         12    1    1    2    0    0 -0.45295932745E+01 -0.30735133251E+02 -0.30306068525E+02  0.43400730647E+02  0.00000000000E+00 0. -1.
         11    1    3    3    0    0 -0.27932566967E+01  0.49261354323E+01  0.16577072832E+02  0.17517660723E+02  0.51100000000E-03 0. -1.
        -11    1    3    3    0    0  0.38879229544E+01  0.14844694188E+02  0.93750623559E+01  0.17982566137E+02  0.51100000000E-03 0.  1.
         12    1    3    3    0    0  0.34349270167E+01  0.10964303631E+02  0.43539333367E+01  0.12287042493E+02  0.00000000000E+00 0. -1.
</event>
<event>
 7    1  0.5559916E-010  0.4778727E+02  0.7816164E-02  0.1312668E+00
        -11   -1    0    0    0    0  0.00000000000E+00  0.00000000000E+00  0.45593999997E+02  0.45594000000E+02  0.51100000000E-03 0.  1.
         11   -1    0    0    0    0 -0.00000000000E+00 -0.00000000000E+00 -0.45593999997E+02  0.45594000000E+02  0.51100000000E-03 0. -1.
    9900012    2    1    2    0    0 -0.27945141252E+02 -0.23518374924E+02  0.23443084701E+02  0.47787273060E+02  0.20000009189E+02 0.  0.
         12    1    1    2    0    0  0.27945141252E+02  0.23518374924E+02 -0.23443084701E+02  0.43400726940E+02  0.00000000000E+00 0. -1.
         11    1    3    3    0    0  0.11268276269E+01  0.26369660863E-01  0.10231260343E+01  0.15222427543E+01  0.51100000000E-03 0. -1.
        -11    1    3    3    0    0 -0.79600136205E+01 -0.58276616459E+01  0.14591997462E+02  0.17613910619E+02  0.51100000000E-03 0.  1.
        -12    1    3    3    0    0 -0.21111955258E+02 -0.17717082939E+02  0.78279612049E+01  0.28651119687E+02  0.00000000000E+00 0.  1.
</event>
<event>
 7    1  0.5559916E-010  0.4778727E+02  0.7816164E-02  0.1312668E+00
        -11   -1    0    0    0    0  0.00000000000E+00  0.00000000000E+00  0.45593999997E+02  0.45594000000E+02  0.51100000000E-03 0.  1.
         11   -1    0    0    0    0 -0.00000000000E+00 -0.00000000000E+00 -0.45593999997E+02  0.45594000000E+02  0.51100000000E-03 0. -1.
    9900012    2    1    2    0    0  0.86926981539E+01  0.42268162455E+02 -0.46327939966E+01  0.47787270297E+02  0.19999996594E+02 0.  0.
         12    1    1    2    0    0 -0.86926981539E+01 -0.42268162455E+02  0.46327939966E+01  0.43400729703E+02  0.00000000000E+00 0. -1.
         11    1    3    3    0    0 -0.91225480108E+00 -0.17274963290E+00 -0.59793591721E+00  0.11043454532E+01  0.51100000000E-03 0. -1.
        -11    1    3    3    0    0  0.28492434238E+01 -0.62338586027E+00 -0.19513294474E+00  0.29231618405E+01  0.51100000000E-03 0.  1.
        -12    1    3    3    0    0  0.67557095312E+01  0.43064297948E+02 -0.38397251346E+01  0.43759763004E+02  0.00000000000E+00 0.  1.
</event>
<event>
 7    1  0.5559916E-010  0.4778727E+02  0.7816164E-02  0.1312668E+00
        -11   -1    0    0    0    0  0.00000000000E+00  0.00000000000E+00  0.45593999997E+02  0.45594000000E+02  0.51100000000E-03 0.  1.
         11   -1    0    0    0    0 -0.00000000000E+00 -0.00000000000E+00 -0.45593999997E+02  0.45594000000E+02  0.51100000000E-03 0. -1.
    9900012    2    1    2    0    0 -0.28187639151E+02  0.32432720811E+02 -0.60990843470E+01  0.47787271780E+02  0.20000003354E+02 0.  0.
         12    1    1    2    0    0  0.28187639151E+02 -0.32432720811E+02  0.60990843470E+01  0.43400728220E+02  0.00000000000E+00 0. -1.
         11    1    3    3    0    0 -0.17064918019E+02  0.26350447276E+02 -0.10281018741E+02  0.33034176927E+02  0.51100000000E-03 0. -1.
        -11    1    3    3    0    0 -0.11079476976E+02  0.64068971319E+01  0.25010997186E+01  0.13040653396E+02  0.51100000000E-03 0.  1.
         12    1    3    3    0    0 -0.43244155601E-01 -0.32462359638E+00  0.16808346757E+01  0.17124414569E+01  0.00000000000E+00 0. -1.
</event>
