<event>
 7    1  0.6164995E-012  0.5930195E+02  0.7816164E-02  0.1266605E+00
        -11   -1    0    0    0    0  0.00000000000E+00  0.00000000000E+00  0.45593999997E+02  0.45594000000E+02  0.51100000000E-03 0. -1.
         11   -1    0    0    0    0 -0.00000000000E+00 -0.00000000000E+00 -0.45593999997E+02  0.45594000000E+02  0.51100000000E-03 0.  1.
    9900012    2    1    2    0    0  0.97705277100E+01  0.18480405000E+02 -0.24077615880E+02  0.59301950274E+02  0.50000011391E+02 0.  0.
         12    1    1    2    0    0 -0.97705277100E+01 -0.18480405000E+02  0.24077615880E+02  0.31886049726E+02  0.00000000000E+00 0. -1.
         11    1    3    3    0    0 -0.83120184984E+00  0.15551961530E+02  0.24152853159E+01  0.15760330180E+02  0.51100000000E-03 0. -1.
        -11    1    3    3    0    0 -0.10896858660E+02  0.16250162670E+01 -0.16397382150E+02  0.19754906939E+02  0.51100000000E-03 0.  1.
         12    1    3    3    0    0  0.21498588220E+02  0.13034272027E+01 -0.10095519046E+02  0.23786713155E+02  0.00000000000E+00 0. -1.
</event>
<event>
 7    1  0.6164995E-012  0.5930195E+02  0.7816164E-02  0.1266605E+00
        -11   -1    0    0    0    0  0.00000000000E+00  0.00000000000E+00  0.45593999997E+02  0.45594000000E+02  0.51100000000E-03 0. -1.
         11   -1    0    0    0    0 -0.00000000000E+00 -0.00000000000E+00 -0.45593999997E+02  0.45594000000E+02  0.51100000000E-03 0.  1.
    9900012    2    1    2    0    0  0.24503268488E+02  0.18642844865E+02 -0.82918187551E+01  0.59301951491E+02  0.50000013612E+02 0.  0.
         12    1    1    2    0    0 -0.24503268488E+02 -0.18642844865E+02  0.82918187551E+01  0.31886048509E+02  0.00000000000E+00 0. -1.
         11    1    3    3    0    0  0.30384464848E+00 -0.26216275870E+01 -0.92358123572E+00  0.27961143280E+01  0.51100000000E-03 0. -1.
        -11    1    3    3    0    0  0.91914518930E+00 -0.85855391524E+01 -0.15541112679E+02  0.17778709008E+02  0.51100000000E-03 0.  1.
         12    1    3    3    0    0  0.23280278650E+02  0.29850011604E+02  0.81728751602E+01  0.38727128155E+02  0.00000000000E+00 0. -1.
</event>
<event>
 7    1  0.6164995E-012  0.5930194E+02  0.7816164E-02  0.1266605E+00
        -11   -1    0    0    0    0  0.00000000000E+00  0.00000000000E+00  0.45593999997E+02  0.45594000000E+02  0.51100000000E-03 0.  1.
         11   -1    0    0    0    0 -0.00000000000E+00 -0.00000000000E+00 -0.45593999997E+02  0.45594000000E+02  0.51100000000E-03 0. -1.
    9900012    2    1    2    0    0 -0.12133335357E+02  0.24867270318E+02  0.15846827495E+02  0.59301938757E+02  0.49999990387E+02 0.  0.
         12    1    1    2    0    0  0.12133335357E+02 -0.24867270318E+02 -0.15846827495E+02  0.31886061243E+02  0.00000000000E+00 0. -1.
         11    1    3    3    0    0 -0.94504888062E+01  0.29311313975E+01  0.23578509277E+01  0.10171663148E+02  0.51100000000E-03 0. -1.
        -11    1    3    3    0    0 -0.11391673996E+02  0.16441116031E+02  0.26078386490E+02  0.32865829899E+02  0.51100000000E-03 0.  1.
         12    1    3    3    0    0  0.87088274448E+01  0.54950228890E+01 -0.12589409923E+02  0.16264445709E+02  0.00000000000E+00 0. -1.
</event>
<event>
 7    1  0.6164995E-012  0.5930195E+02  0.7816164E-02  0.1266605E+00
        -11   -1    0    0    0    0  0.00000000000E+00  0.00000000000E+00  0.45593999997E+02  0.45594000000E+02  0.51100000000E-03 0. -1.
         11   -1    0    0    0    0 -0.00000000000E+00 -0.00000000000E+00 -0.45593999997E+02  0.45594000000E+02  0.51100000000E-03 0.  1.
    9900012    2    1    2    0    0 -0.25859195471E+02  0.18600790827E+02 -0.14258403325E+01  0.59301946145E+02  0.50000003862E+02 0.  0.
         12    1    1    2    0    0  0.25859195471E+02 -0.18600790827E+02  0.14258403325E+01  0.31886053855E+02  0.00000000000E+00 0. -1.
         11    1    3    3    0    0  0.24730402144E+01 -0.11175698207E+01  0.11073771482E+02  0.11401460665E+02  0.51100000000E-03 0. -1.
        -11    1    3    3    0    0  0.24312527635E+01 -0.57146835917E+01 -0.28622511260E+01  0.68382073910E+01  0.51100000000E-03 0.  1.
        -12    1    3    3    0    0 -0.30763488449E+02  0.25433044239E+02 -0.96373606883E+01  0.41062278089E+02  0.00000000000E+00 0.  1.
</event>
<event>
 7    1  0.6164995E-012  0.5930198E+02  0.7816164E-02  0.1266605E+00
        -11   -1    0    0    0    0  0.00000000000E+00  0.00000000000E+00  0.45593999997E+02  0.45594000000E+02  0.51100000000E-03 0.  1.
         11   -1    0    0    0    0 -0.00000000000E+00 -0.00000000000E+00 -0.45593999997E+02  0.45594000000E+02  0.51100000000E-03 0. -1.
    9900012    2    1    2    0    0 -0.29166878414E+02 -0.99895146913E+01  0.81376338270E+01  0.59301979796E+02  0.50000065232E+02 0.  0.
         12    1    1    2    0    0  0.29166878414E+02  0.99895146913E+01 -0.81376338270E+01  0.31886020204E+02  0.00000000000E+00 0. -1.
         11    1    3    3    0    0 -0.95323204204E+01  0.31409450697E+00  0.14344122509E+01  0.96447564367E+01  0.51100000000E-03 0. -1.
        -11    1    3    3    0    0 -0.42009250324E+01  0.16730279042E+02  0.67627589298E+01  0.18527949605E+02  0.51100000000E-03 0.  1.
        -12    1    3    3    0    0 -0.15433632961E+02 -0.27033888240E+02 -0.59537353670E-01  0.31129273754E+02  0.00000000000E+00 0.  1.
</event>
<event>
 7    1  0.6164995E-012  0.5930194E+02  0.7816164E-02  0.1266605E+00
        -11   -1    0    0    0    0  0.00000000000E+00  0.00000000000E+00  0.45593999997E+02  0.45594000000E+02  0.51100000000E-03 0. -1.
         11   -1    0    0    0    0 -0.00000000000E+00 -0.00000000000E+00 -0.45593999997E+02  0.45594000000E+02  0.51100000000E-03 0.  1.
    9900012    2    1    2    0    0  0.80801770328E+01 -0.10922728965E+02 -0.28846587897E+02  0.59301938747E+02  0.49999990370E+02 0.  0.
         12    1    1    2    0    0 -0.80801770328E+01  0.10922728965E+02  0.28846587897E+02  0.31886061253E+02  0.00000000000E+00 0. -1.
         11    1    3    3    0    0 -0.48700224665E+01  0.65427525176E+01  0.68683154177E+01  0.10662949229E+02  0.51100000000E-03 0. -1.
        -11    1    3    3    0    0  0.98283843235E+01  0.45099698344E+01 -0.11190963501E+02  0.15561961016E+02  0.51100000000E-03 0.  1.
         12    1    3    3    0    0  0.31218151758E+01 -0.21975451317E+02 -0.24523939813E+02  0.33077028502E+02  0.00000000000E+00 0. -1.
</event>
<event>
 7    1  0.6164995E-012  0.5930194E+02  0.7816164E-02  0.1266605E+00
        -11   -1    0    0    0    0  0.00000000000E+00  0.00000000000E+00  0.45593999997E+02  0.45594000000E+02  0.51100000000E-03 0.  1.
         11   -1    0    0    0    0 -0.00000000000E+00 -0.00000000000E+00 -0.45593999997E+02  0.45594000000E+02  0.51100000000E-03 0. -1.
    9900012    2    1    2    0    0  0.28644069134E+02  0.12556471112E+02  0.62107263562E+01  0.59301940582E+02  0.49999993716E+02 0.  0.
         12    1    1    2    0    0 -0.28644069134E+02 -0.12556471112E+02 -0.62107263562E+01  0.31886059418E+02  0.00000000000E+00 0. -1.
         11    1    3    3    0    0  0.18399070647E+02 -0.32118522393E+00 -0.54086014542E+01  0.19180248450E+02  0.51100000000E-03 0. -1.
        -11    1    3    3    0    0  0.84697542386E+01 -0.46649827073E+00  0.21703191826E+02  0.23301993331E+02  0.51100000000E-03 0.  1.
        -12    1    3    3    0    0  0.17752442478E+01  0.13344154606E+02 -0.10083864016E+02  0.16819698802E+02  0.00000000000E+00 0.  1.
</event>
<event>
 7    1  0.6164995E-012  0.5930185E+02  0.7816164E-02  0.1266605E+00
        -11   -1    0    0    0    0  0.00000000000E+00  0.00000000000E+00  0.45593999997E+02  0.45594000000E+02  0.51100000000E-03 0.  1.
         11   -1    0    0    0    0 -0.00000000000E+00 -0.00000000000E+00 -0.45593999997E+02  0.45594000000E+02  0.51100000000E-03 0. -1.
    9900012    2    1    2    0    0  0.22642784844E+02  0.22198487374E+02  0.33553287406E+01  0.59301846608E+02  0.49999822330E+02 0.  0.
         12    1    1    2    0    0 -0.22642784844E+02 -0.22198487374E+02 -0.33553287406E+01  0.31886153392E+02  0.00000000000E+00 0. -1.
         11    1    3    3    0    0 -0.62659629560E+01  0.68914601760E+01 -0.44933047143E+01  0.10341387849E+02  0.51100000000E-03 0. -1.
        -11    1    3    3    0    0  0.28160669716E+02  0.12778683873E+02 -0.87621036967E+01  0.32141756981E+02  0.51100000000E-03 0.  1.
         12    1    3    3    0    0  0.74807808327E+00  0.25283433246E+01  0.16610737151E+02  0.16818701778E+02  0.00000000000E+00 0. -1.
</event>
<event>
 7    1  0.6164995E-012  0.5930193E+02  0.7816164E-02  0.1266605E+00
        -11   -1    0    0    0    0  0.00000000000E+00  0.00000000000E+00  0.45593999997E+02  0.45594000000E+02  0.51100000000E-03 0. -1.
         11   -1    0    0    0    0 -0.00000000000E+00 -0.00000000000E+00 -0.45593999997E+02  0.45594000000E+02  0.51100000000E-03 0.  1.
    9900012    2    1    2    0    0  0.20117048930E+01  0.19285456273E+02 -0.25312949915E+02  0.59301933864E+02  0.49999981463E+02 0.  0.
         12    1    1    2    0    0 -0.20117048930E+01 -0.19285456273E+02  0.25312949915E+02  0.31886066136E+02  0.00000000000E+00 0. -1.
         11    1    3    3    0    0  0.18172748928E+02  0.79633656767E+01  0.10074676130E+01  0.19866529334E+02  0.51100000000E-03 0. -1.
        -11    1    3    3    0    0 -0.17314126936E+02  0.20257355546E+01 -0.87067454129E+01  0.19485636044E+02  0.51100000000E-03 0.  1.
        -12    1    3    3    0    0  0.11530829011E+01  0.92963550420E+01 -0.17613672115E+02  0.19949768486E+02  0.00000000000E+00 0.  1.
</event>
<event>
 7    1  0.6164995E-012  0.5930194E+02  0.7816164E-02  0.1266605E+00
        -11   -1    0    0    0    0  0.00000000000E+00  0.00000000000E+00  0.45593999997E+02  0.45594000000E+02  0.51100000000E-03 0.  1.
         11   -1    0    0    0    0 -0.00000000000E+00 -0.00000000000E+00 -0.45593999997E+02  0.45594000000E+02  0.51100000000E-03 0. -1.
    9900012    2    1    2    0    0 -0.28403496174E+02 -0.14078053790E+02 -0.34308003882E+01  0.59301943726E+02  0.49999999450E+02 0.  0.
         12    1    1    2    0    0  0.28403496174E+02  0.14078053790E+02  0.34308003882E+01  0.31886056274E+02  0.00000000000E+00 0. -1.
         11    1    3    3    0    0  0.63786771915E+01 -0.35676178537E+01 -0.57839424686E+01  0.93203760978E+01  0.51100000000E-03 0. -1.
        -11    1    3    3    0    0 -0.29292447837E+02 -0.19980838737E+02 -0.63182163311E+01  0.36016680508E+02  0.51100000000E-03 0.  1.
        -12    1    3    3    0    0 -0.54897255282E+01  0.94704028011E+01  0.86713584115E+01  0.13964887121E+02  0.00000000000E+00 0.  1.
</event>
<event>
 7    1  0.6164995E-012  0.5930193E+02  0.7816164E-02  0.1266605E+00
        -11   -1    0    0    0    0  0.00000000000E+00  0.00000000000E+00  0.45593999997E+02  0.45594000000E+02  0.51100000000E-03 0. -1.
         11   -1    0    0    0    0 -0.00000000000E+00 -0.00000000000E+00 -0.45593999997E+02  0.45594000000E+02  0.51100000000E-03 0.  1.
    9900012    2    1    2    0    0 -0.19016773132E+02  0.24029572965E+02 -0.88126798992E+01  0.59301931502E+02  0.49999977157E+02 0.  0.
         12    1    1    2    0    0  0.19016773132E+02 -0.24029572965E+02  0.88126798992E+01  0.31886068498E+02  0.00000000000E+00 0. -1.
         11    1    3    3    0    0  0.16284706915E+01 -0.35390592445E+00  0.19898706557E+01  0.25955253194E+01  0.51100000000E-03 0. -1.
        -11    1    3    3    0    0  0.11045933037E+02  0.20421068866E+02 -0.83556575158E+01  0.24674880001E+02  0.51100000000E-03 0.  1.
        -12    1    3    3    0    0 -0.31691176860E+02  0.39624100232E+01 -0.24468930391E+01  0.32031526182E+02  0.00000000000E+00 0.  1.
</event>
<event>
 7    1  0.6164995E-012  0.5930193E+02  0.7816164E-02  0.1266605E+00
        -11   -1    0    0    0    0  0.00000000000E+00  0.00000000000E+00  0.45593999997E+02  0.45594000000E+02  0.51100000000E-03 0.  1.
         11   -1    0    0    0    0 -0.00000000000E+00 -0.00000000000E+00 -0.45593999997E+02  0.45594000000E+02  0.51100000000E-03 0. -1.
    9900012    2    1    2    0    0 -0.12763134011E+02 -0.26396508404E+02  0.12531881244E+02  0.59301932616E+02  0.49999979189E+02 0.  0.
         12    1    1    2    0    0  0.12763134011E+02  0.26396508404E+02 -0.12531881244E+02  0.31886067384E+02  0.00000000000E+00 0. -1.
         11    1    3    3    0    0 -0.12399453062E+02 -0.45612125958E+01  0.86792835160E+01  0.15807626615E+02  0.51100000000E-03 0. -1.
        -11    1    3    3    0    0 -0.83957376273E+01 -0.14188764202E+02  0.18721000030E+02  0.24945646560E+02  0.51100000000E-03 0.  1.
         12    1    3    3    0    0  0.80320566783E+01 -0.76465316057E+01 -0.14868402302E+02  0.18548659442E+02  0.00000000000E+00 0. -1.
</event>
<event>
 7    1  0.6164995E-012  0.5930195E+02  0.7816164E-02  0.1266605E+00
        -11   -1    0    0    0    0  0.00000000000E+00  0.00000000000E+00  0.45593999997E+02  0.45594000000E+02  0.51100000000E-03 0. -1.
         11   -1    0    0    0    0 -0.00000000000E+00 -0.00000000000E+00 -0.45593999997E+02  0.45594000000E+02  0.51100000000E-03 0.  1.
    9900012    2    1    2    0    0 -0.11906267988E+02 -0.29415177120E+02  0.31157814561E+01  0.59301953578E+02  0.50000017417E+02 0.  0.
         12    1    1    2    0    0  0.11906267988E+02  0.29415177120E+02 -0.31157814561E+01  0.31886046422E+02  0.00000000000E+00 0. -1.
         11    1    3    3    0    0 -0.25077426337E+01 -0.11102269696E+02  0.99210708117E+01  0.15098901014E+02  0.51100000000E-03 0. -1.
        -11    1    3    3    0    0 -0.16118588105E+02 -0.27488036787E+02 -0.22264806747E+01  0.31943047214E+02  0.51100000000E-03 0.  1.
         12    1    3    3    0    0  0.67200627514E+01  0.91751293635E+01 -0.45788086808E+01  0.12260005349E+02  0.00000000000E+00 0. -1.
</event>
<event>
 7    1  0.6164995E-012  0.5930196E+02  0.7816164E-02  0.1266605E+00
        -11   -1    0    0    0    0  0.00000000000E+00  0.00000000000E+00  0.45593999997E+02  0.45594000000E+02  0.51100000000E-03 0.  1.
         11   -1    0    0    0    0 -0.00000000000E+00 -0.00000000000E+00 -0.45593999997E+02  0.45594000000E+02  0.51100000000E-03 0. -1.
    9900012    2    1    2    0    0 -0.21386105953E+02 -0.16239153915E+02  0.17194307190E+02  0.59301955287E+02  0.50000020534E+02 0.  0.
         12    1    1    2    0    0  0.21386105953E+02  0.16239153915E+02 -0.17194307190E+02  0.31886044713E+02  0.00000000000E+00 0. -1.
         11    1    3    3    0    0 -0.89079184146E+01 -0.11960409554E+02  0.94022884723E+01  0.17629674868E+02  0.51100000000E-03 0. -1.
        -11    1    3    3    0    0 -0.71308268240E+01  0.86703254367E+01  0.20100998078E+02  0.23023322053E+02  0.51100000000E-03 0.  1.
         12    1    3    3    0    0 -0.53473607146E+01 -0.12949069797E+02 -0.12308979360E+02  0.18648958365E+02  0.00000000000E+00 0. -1.
</event>
<event>
 7    1  0.6164995E-012  0.5930194E+02  0.7816164E-02  0.1266605E+00
        -11   -1    0    0    0    0  0.00000000000E+00  0.00000000000E+00  0.45593999997E+02  0.45594000000E+02  0.51100000000E-03 0.  1.
         11   -1    0    0    0    0 -0.00000000000E+00 -0.00000000000E+00 -0.45593999997E+02  0.45594000000E+02  0.51100000000E-03 0. -1.
    9900012    2    1    2    0    0 -0.13937173128E+02  0.34181138454E+00  0.28676809397E+02  0.59301936791E+02  0.49999986801E+02 0.  0.
         12    1    1    2    0    0  0.13937173128E+02 -0.34181138454E+00 -0.28676809397E+02  0.31886063209E+02  0.00000000000E+00 0. -1.
         11    1    3    3    0    0 -0.11334945097E+00 -0.54978118016E+01  0.18943895314E+02  0.19725870136E+02  0.51100000000E-03 0. -1.
        -11    1    3    3    0    0 -0.62712094630E+01 -0.13623561256E+02 -0.27556089765E+01  0.15248700617E+02  0.51100000000E-03 0.  1.
        -12    1    3    3    0    0 -0.75526142143E+01  0.19463184442E+02  0.12488523059E+02  0.24327366037E+02  0.00000000000E+00 0.  1.
</event>
<event>
 7    1  0.6164995E-012  0.5930194E+02  0.7816164E-02  0.1266605E+00
        -11   -1    0    0    0    0  0.00000000000E+00  0.00000000000E+00  0.45593999997E+02  0.45594000000E+02  0.51100000000E-03 0.  1.
         11   -1    0    0    0    0 -0.00000000000E+00 -0.00000000000E+00 -0.45593999997E+02  0.45594000000E+02  0.51100000000E-03 0. -1.
    9900012    2    1    2    0    0 -0.55249883848E+01 -0.19405626883E+01  0.31343730762E+02  0.59301941318E+02  0.49999995059E+02 0.  0.
         12    1    1    2    0    0  0.55249883848E+01  0.19405626883E+01 -0.31343730762E+02  0.31886058682E+02  0.00000000000E+00 0. -1.
         11    1    3    3    0    0 -0.14242682650E+02  0.10192286797E+02  0.10312682508E+01  0.17544236481E+02  0.51100000000E-03 0. -1.
        -11    1    3    3    0    0 -0.41382044922E+01 -0.14787649069E+02  0.18993898240E+02  0.24424730746E+02  0.51100000000E-03 0.  1.
         12    1    3    3    0    0  0.12855898758E+02  0.26547995834E+01  0.11318564271E+02  0.17332974091E+02  0.00000000000E+00 0. -1.
</event>
<event>
 7    1  0.6164995E-012  0.5930195E+02  0.7816164E-02  0.1266605E+00
        -11   -1    0    0    0    0  0.00000000000E+00  0.00000000000E+00  0.45593999997E+02  0.45594000000E+02  0.51100000000E-03 0. -1.
         11   -1    0    0    0    0 -0.00000000000E+00 -0.00000000000E+00 -0.45593999997E+02  0.45594000000E+02  0.51100000000E-03 0.  1.
    9900012    2    1    2    0    0 -0.60678913937E+01 -0.20069232584E+02 -0.24023463033E+02  0.59301950094E+02  0.50000011064E+02 0.  0.
         12    1    1    2    0    0  0.60678913937E+01  0.20069232584E+02  0.24023463033E+02  0.31886049906E+02  0.00000000000E+00 0. -1.
         11    1    3    3    0    0 -0.35901669379E+01 -0.25444952601E+02  0.39955623115E+01  0.26005757631E+02  0.51100000000E-03 0. -1.
        -11    1    3    3    0    0  0.71281145811E-01 -0.50107907622E+01 -0.17844540604E+02  0.18534851893E+02  0.51100000000E-03 0.  1.
        -12    1    3    3    0    0 -0.25490056016E+01  0.10386510779E+02 -0.10174484740E+02  0.14761340570E+02  0.00000000000E+00 0.  1.
</event>
<event>
 7    1  0.6164995E-012  0.5930195E+02  0.7816164E-02  0.1266605E+00
        -11   -1    0    0    0    0  0.00000000000E+00  0.00000000000E+00  0.45593999997E+02  0.45594000000E+02  0.51100000000E-03 0. -1.
         11   -1    0    0    0    0 -0.00000000000E+00 -0.00000000000E+00 -0.45593999997E+02  0.45594000000E+02  0.51100000000E-03 0.  1.
    9900012    2    1    2    0    0 -0.27352689310E+01  0.29991432282E+02 -0.10476268895E+02  0.59301954205E+02  0.50000018561E+02 0.  0.
         12    1    1    2    0    0  0.27352689310E+01 -0.29991432282E+02  0.10476268895E+02  0.31886045795E+02  0.00000000000E+00 0. -1.
         11    1    3    3    0    0  0.13449345053E+02  0.91715517997E+01 -0.17666781088E+02  0.24023267868E+02  0.51100000000E-03 0. -1.
        -11    1    3    3    0    0  0.56041658841E+01  0.49725631817E+01  0.44844759070E+00  0.75056089264E+01  0.51100000000E-03 0.  1.
         12    1    3    3    0    0 -0.21788779869E+02  0.15847317301E+02  0.67420646020E+01  0.27773077411E+02  0.00000000000E+00 0. -1.
</event>
<event>
 7    1  0.6164995E-012  0.5930194E+02  0.7816164E-02  0.1266605E+00
        -11   -1    0    0    0    0  0.00000000000E+00  0.00000000000E+00  0.45593999997E+02  0.45594000000E+02  0.51100000000E-03 0.  1.
         11   -1    0    0    0    0 -0.00000000000E+00 -0.00000000000E+00 -0.45593999997E+02  0.45594000000E+02  0.51100000000E-03 0. -1.
    9900012    2    1    2    0    0 -0.30822203912E+02  0.81430893790E+01 -0.63466492566E+00  0.59301937870E+02  0.49999988769E+02 0.  0.
         12    1    1    2    0    0  0.30822203912E+02 -0.81430893790E+01  0.63466492566E+00  0.31886062130E+02  0.00000000000E+00 0. -1.
         11    1    3    3    0    0  0.84453174798E+00 -0.69765025968E+01  0.69455535554E+01  0.98805635876E+01  0.51100000000E-03 0. -1.
        -11    1    3    3    0    0 -0.22032178849E+02 -0.35492375183E+01  0.75200726636E+01  0.23549214104E+02  0.51100000000E-03 0.  1.
        -12    1    3    3    0    0 -0.96345568108E+01  0.18668829494E+02 -0.15100291145E+02  0.25872160178E+02  0.00000000000E+00 0.  1.
</event>
<event>
 7    1  0.6164995E-012  0.5930203E+02  0.7816164E-02  0.1266604E+00
        -11   -1    0    0    0    0  0.00000000000E+00  0.00000000000E+00  0.45593999997E+02  0.45594000000E+02  0.51100000000E-03 0.  1.
         11   -1    0    0    0    0 -0.00000000000E+00 -0.00000000000E+00 -0.45593999997E+02  0.45594000000E+02  0.51100000000E-03 0. -1.
    9900012    2    1    2    0    0  0.16925467611E+02  0.19673128906E+02  0.18525974894E+02  0.59302028154E+02  0.50000153425E+02 0.  0.
         12    1    1    2    0    0 -0.16925467611E+02 -0.19673128906E+02 -0.18525974894E+02  0.31885971846E+02  0.00000000000E+00 0. -1.
         11    1    3    3    0    0  0.12253117586E+01  0.10694478503E+02  0.93368818764E+01  0.14249583250E+02  0.51100000000E-03 0. -1.
        -11    1    3    3    0    0  0.17419544110E+02 -0.11966675070E+01  0.22328576230E+02  0.28344979218E+02  0.51100000000E-03 0.  1.
         12    1    3    3    0    0 -0.17193882581E+01  0.10175317910E+02 -0.13139483213E+02  0.16707465686E+02  0.00000000000E+00 0. -1.
</event>
<event>
 7    1  0.6164995E-012  0.5930193E+02  0.7816164E-02  0.1266605E+00
        -11   -1    0    0    0    0  0.00000000000E+00  0.00000000000E+00  0.45593999997E+02  0.45594000000E+02  0.51100000000E-03 0.  1.
         11   -1    0    0    0    0 -0.00000000000E+00 -0.00000000000E+00 -0.45593999997E+02  0.45594000000E+02  0.51100000000E-03 0. -1.
    9900012    2    1    2    0    0  0.34798085846E+01 -0.26935800954E+02  0.16705530151E+02  0.59301934415E+02  0.49999982469E+02 0.  0.
         12    1    1    2    0    0 -0.34798085846E+01  0.26935800954E+02 -0.16705530151E+02  0.31886065585E+02  0.00000000000E+00 0. -1.
         11    1    3    3    0    0 -0.13680500625E+01  0.40134947859E+01 -0.52866737961E+01  0.67770658443E+01  0.51100000000E-03 0. -1.
        -11    1    3    3    0    0  0.20076618301E+02 -0.22438922927E+02  0.11938564965E+02  0.32389893458E+02  0.51100000000E-03 0.  1.
         12    1    3    3    0    0 -0.15228759654E+02 -0.85103728134E+01  0.10053638983E+02  0.20134975113E+02  0.00000000000E+00 0. -1.
</event>
<event>
 7    1  0.6164995E-012  0.5930183E+02  0.7816164E-02  0.1266605E+00
        -11   -1    0    0    0    0  0.00000000000E+00  0.00000000000E+00  0.45593999997E+02  0.45594000000E+02  0.51100000000E-03 0.  1.
         11   -1    0    0    0    0 -0.00000000000E+00 -0.00000000000E+00 -0.45593999997E+02  0.45594000000E+02  0.51100000000E-03 0. -1.
    9900012    2    1    2    0    0 -0.20236555959E+02  0.11557750996E+02  0.21763004117E+02  0.59301825044E+02  0.49999783001E+02 0.  0.
         12    1    1    2    0    0  0.20236555959E+02 -0.11557750996E+02 -0.21763004117E+02  0.31886174956E+02  0.00000000000E+00 0. -1.
         11    1    3    3    0    0 -0.21643104532E+02  0.36624441816E+01  0.14274368118E+02  0.26183870161E+02  0.51100000000E-03 0. -1.
        -11    1    3    3    0    0 -0.65266057170E+01 -0.99929303827E+01  0.63424142739E+01  0.13515970513E+02  0.51100000000E-03 0.  1.
         12    1    3    3    0    0  0.79331542903E+01  0.17888237197E+02  0.11462217250E+01  0.19601984370E+02  0.00000000000E+00 0. -1.
</event>
<event>
 7    1  0.6164995E-012  0.5930193E+02  0.7816164E-02  0.1266605E+00
        -11   -1    0    0    0    0  0.00000000000E+00  0.00000000000E+00  0.45593999997E+02  0.45594000000E+02  0.51100000000E-03 0.  1.
         11   -1    0    0    0    0 -0.00000000000E+00 -0.00000000000E+00 -0.45593999997E+02  0.45594000000E+02  0.51100000000E-03 0. -1.
    9900012    2    1    2    0    0  0.13636122083E+02  0.44458557212E+01  0.28478270068E+02  0.59301932123E+02  0.49999978289E+02 0.  0.
         12    1    1    2    0    0 -0.13636122083E+02 -0.44458557212E+01 -0.28478270068E+02  0.31886067877E+02  0.00000000000E+00 0. -1.
         11    1    3    3    0    0  0.14370064211E+02  0.22235866916E+02  0.16608870087E+02  0.31253593213E+02  0.51100000000E-03 0. -1.
        -11    1    3    3    0    0  0.85935407830E+00 -0.16074730148E+01  0.11644191751E+02  0.11785994261E+02  0.51100000000E-03 0.  1.
         12    1    3    3    0    0 -0.15932962061E+01 -0.16182538180E+02  0.22520823037E+00  0.16262344649E+02  0.00000000000E+00 0. -1.
</event>
<event>
 7    1  0.6164995E-012  0.5930193E+02  0.7816164E-02  0.1266605E+00
        -11   -1    0    0    0    0  0.00000000000E+00  0.00000000000E+00  0.45593999997E+02  0.45594000000E+02  0.51100000000E-03 0.  1.
         11   -1    0    0    0    0 -0.00000000000E+00 -0.00000000000E+00 -0.45593999997E+02  0.45594000000E+02  0.51100000000E-03 0. -1.
    9900012    2    1    2    0    0  0.10808332844E+02 -0.13935249963E+02  0.26565202155E+02  0.59301933828E+02  0.49999981399E+02 0.  0.
         12    1    1    2    0    0 -0.10808332844E+02  0.13935249963E+02 -0.26565202155E+02  0.31886066172E+02  0.00000000000E+00 0. -1.
         11    1    3    3    0    0  0.63786361135E+01 -0.93065862325E+01  0.22716400221E+02  0.25364037243E+02  0.51100000000E-03 0. -1.
        -11    1    3    3    0    0  0.14570115654E+02  0.27230249785E+01  0.11934377634E+02  0.19029779426E+02  0.51100000000E-03 0.  1.
         12    1    3    3    0    0 -0.10140418924E+02 -0.73516887086E+01 -0.80855757013E+01  0.14908117160E+02  0.00000000000E+00 0. -1.
</event>
<event>
 7    1  0.6164995E-012  0.5930193E+02  0.7816164E-02  0.1266605E+00
        -11   -1    0    0    0    0  0.00000000000E+00  0.00000000000E+00  0.45593999997E+02  0.45594000000E+02  0.51100000000E-03 0. -1.
         11   -1    0    0    0    0 -0.00000000000E+00 -0.00000000000E+00 -0.45593999997E+02  0.45594000000E+02  0.51100000000E-03 0.  1.
    9900012    2    1    2    0    0 -0.17705242576E+02 -0.14480761129E+02 -0.22216065663E+02  0.59301927318E+02  0.49999969525E+02 0.  0.
         12    1    1    2    0    0  0.17705242576E+02  0.14480761129E+02  0.22216065663E+02  0.31886072682E+02  0.00000000000E+00 0. -1.
         11    1    3    3    0    0 -0.21309757841E+02 -0.18612214039E+01 -0.10245884020E+02  0.23718095706E+02  0.51100000000E-03 0. -1.
        -11    1    3    3    0    0  0.51583363505E+01 -0.10224548285E+02 -0.22190998788E+02  0.24971789063E+02  0.51100000000E-03 0.  1.
         12    1    3    3    0    0 -0.15538210861E+01 -0.23949914398E+01  0.10220817144E+02  0.10612042549E+02  0.00000000000E+00 0. -1.
</event>
<event>
 7    1  0.6164995E-012  0.5930195E+02  0.7816164E-02  0.1266605E+00
        -11   -1    0    0    0    0  0.00000000000E+00  0.00000000000E+00  0.45593999997E+02  0.45594000000E+02  0.51100000000E-03 0.  1.
         11   -1    0    0    0    0 -0.00000000000E+00 -0.00000000000E+00 -0.45593999997E+02  0.45594000000E+02  0.51100000000E-03 0. -1.
    9900012    2    1    2    0    0  0.94390016262E+01  0.45971520647E+01  0.30107998244E+02  0.59301951059E+02  0.50000012824E+02 0.  0.
         12    1    1    2    0    0 -0.94390016262E+01 -0.45971520647E+01 -0.30107998244E+02  0.31886048941E+02  0.00000000000E+00 0. -1.
         11    1    3    3    0    0 -0.29597387522E+00  0.46920509517E+01  0.22640078915E+02  0.23123064594E+02  0.51100000000E-03 0. -1.
        -11    1    3    3    0    0  0.67178030120E+01  0.29505993562E+01  0.20862428052E+02  0.22115058633E+02  0.51100000000E-03 0.  1.
         12    1    3    3    0    0  0.30171724894E+01 -0.30454982432E+01 -0.13394508723E+02  0.14063827833E+02  0.00000000000E+00 0. -1.
</event>
<event>
 7    1  0.6164995E-012  0.5930185E+02  0.7816164E-02  0.1266605E+00
        -11   -1    0    0    0    0  0.00000000000E+00  0.00000000000E+00  0.45593999997E+02  0.45594000000E+02  0.51100000000E-03 0.  1.
         11   -1    0    0    0    0 -0.00000000000E+00 -0.00000000000E+00 -0.45593999997E+02  0.45594000000E+02  0.51100000000E-03 0. -1.
    9900012    2    1    2    0    0 -0.11962034587E+01  0.14593928565E+02  0.28325125996E+02  0.59301852281E+02  0.49999832676E+02 0.  0.
         12    1    1    2    0    0  0.11962034587E+01 -0.14593928565E+02 -0.28325125996E+02  0.31886147719E+02  0.00000000000E+00 0. -1.
         11    1    3    3    0    0 -0.53876281494E+01  0.31515924452E+01  0.27241439088E+02  0.27947362592E+02  0.51100000000E-03 0. -1.
        -11    1    3    3    0    0  0.42335814785E+01 -0.84095905858E+01  0.56551720137E+01  0.10982959379E+02  0.51100000000E-03 0.  1.
         12    1    3    3    0    0 -0.42156787810E-01  0.19851926705E+02 -0.45714851057E+01  0.20371530310E+02  0.00000000000E+00 0. -1.
</event>
<event>
 7    1  0.6164995E-012  0.5930197E+02  0.7816164E-02  0.1266605E+00
        -11   -1    0    0    0    0  0.00000000000E+00  0.00000000000E+00  0.45593999997E+02  0.45594000000E+02  0.51100000000E-03 0.  1.
         11   -1    0    0    0    0 -0.00000000000E+00 -0.00000000000E+00 -0.45593999997E+02  0.45594000000E+02  0.51100000000E-03 0. -1.
    9900012    2    1    2    0    0 -0.11279558730E+02 -0.22446174626E+02  0.19638217989E+02  0.59301971614E+02  0.50000050310E+02 0.  0.
         12    1    1    2    0    0  0.11279558730E+02  0.22446174626E+02 -0.19638217989E+02  0.31886028386E+02  0.00000000000E+00 0. -1.
         11    1    3    3    0    0 -0.14184916575E+02 -0.32879748367E+01  0.50705839229E+01  0.15418607536E+02  0.51100000000E-03 0. -1.
        -11    1    3    3    0    0 -0.78713830611E+01 -0.17831250852E+01  0.20961117934E+02  0.22461225961E+02  0.51100000000E-03 0.  1.
        -12    1    3    3    0    0  0.10776740906E+02 -0.17375074704E+02 -0.63934838676E+01  0.21422138117E+02  0.00000000000E+00 0.  1.
</event>
<event>
 7    1  0.6164995E-012  0.5930193E+02  0.7816164E-02  0.1266605E+00
        -11   -1    0    0    0    0  0.00000000000E+00  0.00000000000E+00  0.45593999997E+02  0.45594000000E+02  0.51100000000E-03 0.  1.
         11   -1    0    0    0    0 -0.00000000000E+00 -0.00000000000E+00 -0.45593999997E+02  0.45594000000E+02  0.51100000000E-03 0. -1.
    9900012    2    1    2    0    0  0.21485699034E+02 -0.12009007674E+01  0.23529642022E+02  0.59301929698E+02  0.49999973866E+02 0.  0.
         12    1    1    2    0    0 -0.21485699034E+02  0.12009007674E+01 -0.23529642022E+02  0.31886070302E+02  0.00000000000E+00 0. -1.
         11    1    3    3    0    0 -0.69337636212E+01 -0.20386093787E-01  0.20238830729E+02  0.21393638379E+02  0.51100000000E-03 0. -1.
        -11    1    3    3    0    0  0.99002465344E+01 -0.88453706702E+01  0.10163659914E+02  0.16719911688E+02  0.51100000000E-03 0.  1.
         12    1    3    3    0    0  0.18519216121E+02  0.76648559965E+01 -0.68728486220E+01  0.21188379631E+02  0.00000000000E+00 0. -1.
</event>
<event>
 7    1  0.6164995E-012  0.5930192E+02  0.7816164E-02  0.1266605E+00
        -11   -1    0    0    0    0  0.00000000000E+00  0.00000000000E+00  0.45593999997E+02  0.45594000000E+02  0.51100000000E-03 0. -1.
         11   -1    0    0    0    0 -0.00000000000E+00 -0.00000000000E+00 -0.45593999997E+02  0.45594000000E+02  0.51100000000E-03 0.  1.
    9900012    2    1    2    0    0  0.30369940262E+02 -0.32445458301E+01  0.91576072039E+01  0.59301919669E+02  0.49999955575E+02 0.  0.
         12    1    1    2    0    0 -0.30369940262E+02  0.32445458301E+01 -0.91576072039E+01  0.31886080331E+02  0.00000000000E+00 0. -1.
         11    1    3    3    0    0  0.38008645942E+01 -0.66510892378E+01  0.14200506717E+02  0.16134991509E+02  0.51100000000E-03 0. -1.
        -11    1    3    3    0    0  0.92161864307E+01 -0.13415136543E+02 -0.91209050751E+01  0.18657301264E+02  0.51100000000E-03 0.  1.
         12    1    3    3    0    0  0.17352889237E+02  0.16821679951E+02  0.40780055623E+01  0.24509626897E+02  0.00000000000E+00 0. -1.
</event>
<event>
 7    1  0.6164995E-012  0.5930195E+02  0.7816164E-02  0.1266605E+00
        -11   -1    0    0    0    0  0.00000000000E+00  0.00000000000E+00  0.45593999997E+02  0.45594000000E+02  0.51100000000E-03 0.  1.
         11   -1    0    0    0    0 -0.00000000000E+00 -0.00000000000E+00 -0.45593999997E+02  0.45594000000E+02  0.51100000000E-03 0. -1.
    9900012    2    1    2    0    0 -0.24045503581E+02  0.12055337518E+02  0.17123157081E+02  0.59301954250E+02  0.50000018643E+02 0.  0.
         12    1    1    2    0    0  0.24045503581E+02 -0.12055337518E+02 -0.17123157081E+02  0.31886045750E+02  0.00000000000E+00 0. -1.
         11    1    3    3    0    0 -0.12470881619E+02  0.18160208053E+02 -0.82279546563E+01  0.23516276979E+02  0.51100000000E-03 0. -1.
        -11    1    3    3    0    0 -0.34917102231E+01  0.77520540334E+01  0.49690016744E+01  0.98477083588E+01  0.51100000000E-03 0.  1.
         12    1    3    3    0    0 -0.80829117383E+01 -0.13856924568E+02  0.20382110063E+02  0.25937968912E+02  0.00000000000E+00 0. -1.
</event>
<event>
 7    1  0.6164995E-012  0.5930199E+02  0.7816164E-02  0.1266605E+00
        -11   -1    0    0    0    0  0.00000000000E+00  0.00000000000E+00  0.45593999997E+02  0.45594000000E+02  0.51100000000E-03 0.  1.
         11   -1    0    0    0    0 -0.00000000000E+00 -0.00000000000E+00 -0.45593999997E+02  0.45594000000E+02  0.51100000000E-03 0. -1.
    9900012    2    1    2    0    0  0.99299769899E+01 -0.12802437423E+02  0.27462899146E+02  0.59301989329E+02  0.50000082619E+02 0.  0.
         12    1    1    2    0    0 -0.99299769899E+01  0.12802437423E+02 -0.27462899146E+02  0.31886010671E+02  0.00000000000E+00 0. -1.
         11    1    3    3    0    0  0.12883933186E+02  0.84005352483E+01  0.12933997956E+02  0.20096094899E+02  0.51100000000E-03 0. -1.
        -11    1    3    3    0    0  0.25493401361E+01 -0.95301992639E+01  0.22129546130E+02  0.24228921671E+02  0.51100000000E-03 0.  1.
        -12    1    3    3    0    0 -0.55032963325E+01 -0.11672773407E+02 -0.76006449399E+01  0.14976972760E+02  0.00000000000E+00 0.  1.
</event>
<event>
 7    1  0.6164995E-012  0.5930190E+02  0.7816164E-02  0.1266605E+00
        -11   -1    0    0    0    0  0.00000000000E+00  0.00000000000E+00  0.45593999997E+02  0.45594000000E+02  0.51100000000E-03 0.  1.
         11   -1    0    0    0    0 -0.00000000000E+00 -0.00000000000E+00 -0.45593999997E+02  0.45594000000E+02  0.51100000000E-03 0. -1.
    9900012    2    1    2    0    0 -0.75959240617E+01  0.30901926069E+02  0.20238717252E+01  0.59301903439E+02  0.49999925976E+02 0.  0.
         12    1    1    2    0    0  0.75959240617E+01 -0.30901926069E+02 -0.20238717252E+01  0.31886096561E+02  0.00000000000E+00 0. -1.
         11    1    3    3    0    0 -0.74178363349E+00  0.26571469669E+02 -0.83458179174E+01  0.27861190217E+02  0.51100000000E-03 0. -1.
        -11    1    3    3    0    0 -0.27947203728E+01  0.16256263209E+02  0.27630154896E+01  0.16724557104E+02  0.51100000000E-03 0.  1.
        -12    1    3    3    0    0 -0.40594200554E+01 -0.11925806809E+02  0.76066741530E+01  0.14716156118E+02  0.00000000000E+00 0.  1.
</event>
<event>
 7    1  0.6164995E-012  0.5930196E+02  0.7816164E-02  0.1266605E+00
        -11   -1    0    0    0    0  0.00000000000E+00  0.00000000000E+00  0.45593999997E+02  0.45594000000E+02  0.51100000000E-03 0.  1.
         11   -1    0    0    0    0 -0.00000000000E+00 -0.00000000000E+00 -0.45593999997E+02  0.45594000000E+02  0.51100000000E-03 0. -1.
    9900012    2    1    2    0    0 -0.18102997314E+02  0.26142880661E+02  0.23559665253E+01  0.59301963882E+02  0.50000036210E+02 0.  0.
         12    1    1    2    0    0  0.18102997314E+02 -0.26142880661E+02 -0.23559665253E+01  0.31886036118E+02  0.00000000000E+00 0. -1.
         11    1    3    3    0    0 -0.95189526538E+01 -0.36535178512E+01 -0.53991521267E+01  0.11537308883E+02  0.51100000000E-03 0. -1.
        -11    1    3    3    0    0  0.10150412750E+02  0.11417313355E+02 -0.79071214882E+01  0.17201990981E+02  0.51100000000E-03 0.  1.
        -12    1    3    3    0    0 -0.18734457410E+02  0.18379085158E+02  0.15662240140E+02  0.30562664018E+02  0.00000000000E+00 0.  1.
</event>
<event>
 7    1  0.6164995E-012  0.5930194E+02  0.7816164E-02  0.1266605E+00
        -11   -1    0    0    0    0  0.00000000000E+00  0.00000000000E+00  0.45593999997E+02  0.45594000000E+02  0.51100000000E-03 0. -1.
         11   -1    0    0    0    0 -0.00000000000E+00 -0.00000000000E+00 -0.45593999997E+02  0.45594000000E+02  0.51100000000E-03 0.  1.
    9900012    2    1    2    0    0 -0.36982686562E+01  0.27987344008E+02 -0.14824040311E+02  0.59301940557E+02  0.49999993670E+02 0.  0.
         12    1    1    2    0    0  0.36982686562E+01 -0.27987344008E+02  0.14824040311E+02  0.31886059443E+02  0.00000000000E+00 0. -1.
         11    1    3    3    0    0  0.58430506404E+01 -0.80742196304E+01 -0.29700054937E+01  0.10399769051E+02  0.51100000000E-03 0. -1.
        -11    1    3    3    0    0 -0.54756554302E+00 -0.22837959566E+01 -0.91243293912E+01  0.94217269699E+01  0.51100000000E-03 0.  1.
        -12    1    3    3    0    0 -0.89937537536E+01  0.38345359595E+02 -0.27297054259E+01  0.39480444536E+02  0.00000000000E+00 0.  1.
</event>
<event>
 7    1  0.6164995E-012  0.5930195E+02  0.7816164E-02  0.1266605E+00
        -11   -1    0    0    0    0  0.00000000000E+00  0.00000000000E+00  0.45593999997E+02  0.45594000000E+02  0.51100000000E-03 0.  1.
         11   -1    0    0    0    0 -0.00000000000E+00 -0.00000000000E+00 -0.45593999997E+02  0.45594000000E+02  0.51100000000E-03 0. -1.
    9900012    2    1    2    0    0  0.15639153193E+02  0.95327320810E+01  0.26101030344E+02  0.59301954799E+02  0.50000019644E+02 0.  0.
         12    1    1    2    0    0 -0.15639153193E+02 -0.95327320810E+01 -0.26101030344E+02  0.31886045201E+02  0.00000000000E+00 0. -1.
         11    1    3    3    0    0  0.20874661112E+02 -0.75131870608E+00  0.12854921444E+02  0.24526821277E+02  0.51100000000E-03 0. -1.
        -11    1    3    3    0    0 -0.44050075347E+00  0.19767115452E+02  0.13836102695E+02  0.24132356542E+02  0.51100000000E-03 0.  1.
        -12    1    3    3    0    0 -0.47950071661E+01 -0.94830646653E+01 -0.58999379484E+00  0.10642776980E+02  0.00000000000E+00 0.  1.
</event>
<event>
 7    1  0.6164995E-012  0.5930196E+02  0.7816164E-02  0.1266605E+00
        -11   -1    0    0    0    0  0.00000000000E+00  0.00000000000E+00  0.45593999997E+02  0.45594000000E+02  0.51100000000E-03 0. -1.
         11   -1    0    0    0    0 -0.00000000000E+00 -0.00000000000E+00 -0.45593999997E+02  0.45594000000E+02  0.51100000000E-03 0.  1.
    9900012    2    1    2    0    0 -0.63809977085E+01 -0.29589631637E+02  0.10022773148E+02  0.59301962088E+02  0.50000032937E+02 0.  0.
         12    1    1    2    0    0  0.63809977085E+01  0.29589631637E+02 -0.10022773148E+02  0.31886037912E+02  0.00000000000E+00 0. -1.
         11    1    3    3    0    0  0.18909722768E+02 -0.44318491567E+01  0.71597890458E+01  0.20699794240E+02  0.51100000000E-03 0.  1.
        -11    1    3    3    0    0 -0.96517440343E+00 -0.13047475845E-01  0.34797668525E+01  0.36111645593E+01  0.51100000000E-03 0. -1.
        -12    1    3    3    0    0 -0.24325546073E+02 -0.25144735004E+02 -0.61678274997E+00  0.34991003289E+02  0.00000000000E+00 0.  1.
</event>
<event>
 7    1  0.6164995E-012  0.5930194E+02  0.7816164E-02  0.1266605E+00
        -11   -1    0    0    0    0  0.00000000000E+00  0.00000000000E+00  0.45593999997E+02  0.45594000000E+02  0.51100000000E-03 0.  1.
         11   -1    0    0    0    0 -0.00000000000E+00 -0.00000000000E+00 -0.45593999997E+02  0.45594000000E+02  0.51100000000E-03 0. -1.
    9900012    2    1    2    0    0 -0.21297502807E+02  0.23624587253E+02  0.22396872823E+01  0.59301938033E+02  0.49999989066E+02 0.  0.
         12    1    1    2    0    0  0.21297502807E+02 -0.23624587253E+02 -0.22396872823E+01  0.31886061967E+02  0.00000000000E+00 0. -1.
         11    1    3    3    0    0 -0.17622067805E+02  0.27871248327E+01 -0.14323496082E+02  0.22879420422E+02  0.51100000000E-03 0. -1.
        -11    1    3    3    0    0  0.29043682918E+01 -0.14125260697E+01 -0.41918498991E+01  0.52917096396E+01  0.51100000000E-03 0.  1.
        -12    1    3    3    0    0 -0.65798032937E+01  0.22249988490E+02  0.20755033264E+02  0.31130807971E+02  0.00000000000E+00 0.  1.
</event>
<event>
 7    1  0.6164995E-012  0.5930188E+02  0.7816164E-02  0.1266605E+00
        -11   -1    0    0    0    0  0.00000000000E+00  0.00000000000E+00  0.45593999997E+02  0.45594000000E+02  0.51100000000E-03 0. -1.
         11   -1    0    0    0    0 -0.00000000000E+00 -0.00000000000E+00 -0.45593999997E+02  0.45594000000E+02  0.51100000000E-03 0.  1.
    9900012    2    1    2    0    0 -0.13820852270E+02 -0.18846824087E+01 -0.28673274019E+02  0.59301880321E+02  0.49999883814E+02 0.  0.
         12    1    1    2    0    0  0.13820852270E+02  0.18846824087E+01  0.28673274019E+02  0.31886119679E+02  0.00000000000E+00 0. -1.
         11    1    3    3    0    0 -0.81395035895E-01  0.17389632144E+02 -0.32178329586E+01  0.17685032668E+02  0.51100000000E-03 0. -1.
        -11    1    3    3    0    0 -0.15623223164E+02 -0.85093299159E+01 -0.24993567117E+02  0.30678529873E+02  0.51100000000E-03 0.  1.
        -12    1    3    3    0    0  0.18837659304E+01 -0.10764984637E+02 -0.46187394316E+00  0.10938317780E+02  0.00000000000E+00 0.  1.
</event>
<event>
 7    1  0.6164995E-012  0.5930195E+02  0.7816164E-02  0.1266605E+00
        -11   -1    0    0    0    0  0.00000000000E+00  0.00000000000E+00  0.45593999997E+02  0.45594000000E+02  0.51100000000E-03 0. -1.
         11   -1    0    0    0    0 -0.00000000000E+00 -0.00000000000E+00 -0.45593999997E+02  0.45594000000E+02  0.51100000000E-03 0.  1.
    9900012    2    1    2    0    0 -0.68834479377E+01  0.16134951030E+01 -0.31092361619E+02  0.59301950181E+02  0.50000011223E+02 0.  0.
         12    1    1    2    0    0  0.68834479377E+01 -0.16134951030E+01  0.31092361619E+02  0.31886049819E+02  0.00000000000E+00 0. -1.
         11    1    3    3    0    0  0.60386703134E+01 -0.94244870126E+01 -0.16522994721E+02  0.19957350762E+02  0.51100000000E-03 0. -1.
        -11    1    3    3    0    0 -0.15854192112E+02  0.86007740773E+01 -0.23505938622E+02  0.29628666406E+02  0.51100000000E-03 0.  1.
         12    1    3    3    0    0  0.29320738605E+01  0.24372080383E+01  0.89365717240E+01  0.97159330136E+01  0.00000000000E+00 0. -1.
</event>
<event>
 7    1  0.6164995E-012  0.5930170E+02  0.7816164E-02  0.1266606E+00
        -11   -1    0    0    0    0  0.00000000000E+00  0.00000000000E+00  0.45593999997E+02  0.45594000000E+02  0.51100000000E-03 0. -1.
         11   -1    0    0    0    0 -0.00000000000E+00 -0.00000000000E+00 -0.45593999997E+02  0.45594000000E+02  0.51100000000E-03 0.  1.
    9900012    2    1    2    0    0 -0.12266951330E+02  0.19405473630E+02 -0.22128847918E+02  0.59301695543E+02  0.49999546821E+02 0.  0.
         12    1    1    2    0    0  0.12266951330E+02 -0.19405473630E+02  0.22128847918E+02  0.31886304457E+02  0.00000000000E+00 0. -1.
         11    1    3    3    0    0 -0.42370810402E+01  0.30320047420E+01 -0.45972470503E+01  0.69484235046E+01  0.51100000000E-03 0. -1.
        -11    1    3    3    0    0 -0.20859431731E+02  0.20430174355E+02  0.12787382490E+01  0.29225726476E+02  0.51100000000E-03 0.  1.
        -12    1    3    3    0    0  0.12829561441E+02 -0.40567054668E+01 -0.18810339117E+02  0.23127545562E+02  0.00000000000E+00 0.  1.
</event>
<event>
 7    1  0.6164995E-012  0.5930216E+02  0.7816164E-02  0.1266604E+00
        -11   -1    0    0    0    0  0.00000000000E+00  0.00000000000E+00  0.45593999997E+02  0.45594000000E+02  0.51100000000E-03 0. -1.
         11   -1    0    0    0    0 -0.00000000000E+00 -0.00000000000E+00 -0.45593999997E+02  0.45594000000E+02  0.51100000000E-03 0.  1.
    9900012    2    1    2    0    0 -0.35929741829E+01 -0.31682673146E+02  0.74382350531E-01  0.59302160292E+02  0.50000394412E+02 0.  0.
         12    1    1    2    0    0  0.35929741829E+01  0.31682673146E+02 -0.74382350531E-01  0.31885839708E+02  0.00000000000E+00 0. -1.
         11    1    3    3    0    0  0.45378803777E+01 -0.78332845293E+01 -0.83577474544E+01  0.12320902873E+02  0.51100000000E-03 0. -1.
        -11    1    3    3    0    0  0.12890148816E+02 -0.21058504669E+02  0.72940156809E+01  0.25745275691E+02  0.51100000000E-03 0.  1.
         12    1    3    3    0    0 -0.21021003376E+02 -0.27908839477E+01  0.11381141240E+01  0.21235981727E+02  0.00000000000E+00 0. -1.
</event>
<event>
 7    1  0.6164995E-012  0.5930194E+02  0.7816164E-02  0.1266605E+00
        -11   -1    0    0    0    0  0.00000000000E+00  0.00000000000E+00  0.45593999997E+02  0.45594000000E+02  0.51100000000E-03 0.  1.
         11   -1    0    0    0    0 -0.00000000000E+00 -0.00000000000E+00 -0.45593999997E+02  0.45594000000E+02  0.51100000000E-03 0. -1.
    9900012    2    1    2    0    0 -0.19627199582E+02 -0.14017056018E+01  0.25090419711E+02  0.59301938730E+02  0.49999990339E+02 0.  0.
         12    1    1    2    0    0  0.19627199582E+02  0.14017056018E+01 -0.25090419711E+02  0.31886061270E+02  0.00000000000E+00 0. -1.
         11    1    3    3    0    0 -0.14241422862E+02  0.21128543515E+01  0.81601319916E+01  0.16549019096E+02  0.51100000000E-03 0. -1.
        -11    1    3    3    0    0 -0.19516767321E+02 -0.11800307141E+02  0.85898231343E+01  0.24370812810E+02  0.51100000000E-03 0.  1.
         12    1    3    3    0    0  0.14130990601E+02  0.82857471875E+01  0.83404645852E+01  0.18382106825E+02  0.00000000000E+00 0. -1.
</event>
<event>
 7    1  0.6164995E-012  0.5930193E+02  0.7816164E-02  0.1266605E+00
        -11   -1    0    0    0    0  0.00000000000E+00  0.00000000000E+00  0.45593999997E+02  0.45594000000E+02  0.51100000000E-03 0. -1.
         11   -1    0    0    0    0 -0.00000000000E+00 -0.00000000000E+00 -0.45593999997E+02  0.45594000000E+02  0.51100000000E-03 0.  1.
    9900012    2    1    2    0    0 -0.89128456190E+01 -0.15753962878E+02 -0.26250621452E+02  0.59301932667E+02  0.49999979280E+02 0.  0.
         12    1    1    2    0    0  0.89128456190E+01  0.15753962878E+02  0.26250621452E+02  0.31886067333E+02  0.00000000000E+00 0. -1.
         11    1    3    3    0    0 -0.11550183112E+01  0.18529358136E+01  0.96277947413E-01  0.21855681488E+01  0.51100000000E-03 0. -1.
        -11    1    3    3    0    0 -0.22646527681E+02 -0.17998088285E+01 -0.27132147827E+02  0.35387257223E+02  0.51100000000E-03 0.  1.
         12    1    3    3    0    0  0.14888700373E+02 -0.15807089863E+02  0.78524842804E+00  0.21729107295E+02  0.00000000000E+00 0. -1.
</event>
<event>
 7    1  0.6164995E-012  0.5930211E+02  0.7816164E-02  0.1266604E+00
        -11   -1    0    0    0    0  0.00000000000E+00  0.00000000000E+00  0.45593999997E+02  0.45594000000E+02  0.51100000000E-03 0.  1.
         11   -1    0    0    0    0 -0.00000000000E+00 -0.00000000000E+00 -0.45593999997E+02  0.45594000000E+02  0.51100000000E-03 0. -1.
    9900012    2    1    2    0    0  0.27466492799E+02 -0.70587575660E+01  0.14576554510E+02  0.59302106152E+02  0.50000295676E+02 0.  0.
         12    1    1    2    0    0 -0.27466492799E+02  0.70587575660E+01 -0.14576554510E+02  0.31885893848E+02  0.00000000000E+00 0. -1.
         11    1    3    3    0    0  0.15125771446E+01 -0.71056758823E+01 -0.16437166435E+00  0.72667418880E+01  0.51100000000E-03 0. -1.
        -11    1    3    3    0    0  0.13476183963E+02 -0.18249756623E+02  0.18868882684E+02  0.29507556405E+02  0.51100000000E-03 0.  1.
        -12    1    3    3    0    0  0.12477731692E+02  0.18296674939E+02 -0.41279565095E+01  0.22527807860E+02  0.00000000000E+00 0.  1.
</event>
<event>
 7    1  0.6164995E-012  0.5930194E+02  0.7816164E-02  0.1266605E+00
        -11   -1    0    0    0    0  0.00000000000E+00  0.00000000000E+00  0.45593999997E+02  0.45594000000E+02  0.51100000000E-03 0. -1.
         11   -1    0    0    0    0 -0.00000000000E+00 -0.00000000000E+00 -0.45593999997E+02  0.45594000000E+02  0.51100000000E-03 0.  1.
    9900012    2    1    2    0    0 -0.12953065694E+02  0.13067082008E+02 -0.26042080587E+02  0.59301944985E+02  0.50000001746E+02 0.  0.
         12    1    1    2    0    0  0.12953065694E+02 -0.13067082008E+02  0.26042080587E+02  0.31886055015E+02  0.00000000000E+00 0. -1.
         11    1    3    3    0    0  0.68082398208E+01  0.12374081527E+02 -0.59770632011E+01  0.15336078634E+02  0.51100000000E-03 0. -1.
        -11    1    3    3    0    0  0.58439529909E+01 -0.93517061602E+01 -0.93132615193E+01  0.14434092803E+02  0.51100000000E-03 0.  1.
         12    1    3    3    0    0 -0.25605258506E+02  0.10044706641E+02 -0.10751755867E+02  0.29531773548E+02  0.00000000000E+00 0. -1.
</event>
<event>
 7    1  0.6164995E-012  0.5930197E+02  0.7816164E-02  0.1266605E+00
        -11   -1    0    0    0    0  0.00000000000E+00  0.00000000000E+00  0.45593999997E+02  0.45594000000E+02  0.51100000000E-03 0.  1.
         11   -1    0    0    0    0 -0.00000000000E+00 -0.00000000000E+00 -0.45593999997E+02  0.45594000000E+02  0.51100000000E-03 0. -1.
    9900012    2    1    2    0    0  0.82535741549E+01 -0.30796226464E+02 -0.43600699025E+00  0.59301966179E+02  0.50000040398E+02 0.  0.
         12    1    1    2    0    0 -0.82535741549E+01  0.30796226464E+02  0.43600699025E+00  0.31886033821E+02  0.00000000000E+00 0. -1.
         11    1    3    3    0    0  0.70076108960E+01 -0.14341077308E+02 -0.98007431262E+00  0.15991674544E+02  0.51100000000E-03 0. -1.
        -11    1    3    3    0    0  0.16384807202E+02 -0.13306940042E+02 -0.11198323606E+02  0.23894330126E+02  0.51100000000E-03 0.  1.
        -12    1    3    3    0    0 -0.15138843943E+02 -0.31482091146E+01  0.11742390928E+02  0.19415961508E+02  0.00000000000E+00 0.  1.
</event>
<event>
 7    1  0.6164995E-012  0.5930185E+02  0.7816164E-02  0.1266605E+00
        -11   -1    0    0    0    0  0.00000000000E+00  0.00000000000E+00  0.45593999997E+02  0.45594000000E+02  0.51100000000E-03 0.  1.
         11   -1    0    0    0    0 -0.00000000000E+00 -0.00000000000E+00 -0.45593999997E+02  0.45594000000E+02  0.51100000000E-03 0. -1.
    9900012    2    1    2    0    0  0.82868010014E+01  0.14122509516E+02  0.27360736640E+02  0.59301854805E+02  0.49999837280E+02 0.  0.
         12    1    1    2    0    0 -0.82868010014E+01 -0.14122509516E+02 -0.27360736640E+02  0.31886145195E+02  0.00000000000E+00 0. -1.
         11    1    3    3    0    0 -0.11596047970E+01 -0.96592203396E+01 -0.26035656535E+01  0.10070937157E+02  0.51100000000E-03 0. -1.
        -11    1    3    3    0    0  0.15182357781E+02  0.24902502223E+01  0.19457088025E+02  0.24804910978E+02  0.51100000000E-03 0.  1.
        -12    1    3    3    0    0 -0.57359519828E+01  0.21291479634E+02  0.10507214269E+02  0.24426006670E+02  0.00000000000E+00 0.  1.
</event>
<event>
 7    1  0.6164995E-012  0.5930194E+02  0.7816164E-02  0.1266605E+00
        -11   -1    0    0    0    0  0.00000000000E+00  0.00000000000E+00  0.45593999997E+02  0.45594000000E+02  0.51100000000E-03 0. -1.
         11   -1    0    0    0    0 -0.00000000000E+00 -0.00000000000E+00 -0.45593999997E+02  0.45594000000E+02  0.51100000000E-03 0.  1.
    9900012    2    1    2    0    0  0.24975539641E+02 -0.18450951314E+02 -0.72460575397E+01  0.59301944511E+02  0.50000000882E+02 0.  0.
         12    1    1    2    0    0 -0.24975539641E+02  0.18450951314E+02  0.72460575397E+01  0.31886055489E+02  0.00000000000E+00 0. -1.
         11    1    3    3    0    0  0.11116170502E+02 -0.28410834484E+01  0.65881016791E+01  0.13230422737E+02  0.51100000000E-03 0. -1.
        -11    1    3    3    0    0  0.55981854106E+01  0.56767711826E+01 -0.20737477023E+02  0.22217298767E+02  0.51100000000E-03 0.  1.
         12    1    3    3    0    0  0.82611837280E+01 -0.21286639049E+02  0.69033178044E+01  0.23854223007E+02  0.00000000000E+00 0. -1.
</event>
<event>
 7    1  0.6164995E-012  0.5930194E+02  0.7816164E-02  0.1266605E+00
        -11   -1    0    0    0    0  0.00000000000E+00  0.00000000000E+00  0.45593999997E+02  0.45594000000E+02  0.51100000000E-03 0.  1.
         11   -1    0    0    0    0 -0.00000000000E+00 -0.00000000000E+00 -0.45593999997E+02  0.45594000000E+02  0.51100000000E-03 0. -1.
    9900012    2    1    2    0    0  0.16353898915E+02  0.16382118423E+02  0.21929360180E+02  0.59301942676E+02  0.49999997536E+02 0.  0.
         12    1    1    2    0    0 -0.16353898915E+02 -0.16382118423E+02 -0.21929360180E+02  0.31886057324E+02  0.00000000000E+00 0. -1.
         11    1    3    3    0    0  0.13554099464E+01 -0.16190679253E+02  0.17576852170E+01  0.16342113951E+02  0.51100000000E-03 0. -1.
        -11    1    3    3    0    0  0.54302561149E+01  0.47709686416E+01 -0.13000958333E+00  0.72295730168E+01  0.51100000000E-03 0.  1.
        -12    1    3    3    0    0  0.95682328538E+01  0.27801829035E+02  0.20301684546E+02  0.35730255709E+02  0.00000000000E+00 0.  1.
</event>
<event>
 7    1  0.6164995E-012  0.5930195E+02  0.7816164E-02  0.1266605E+00
        -11   -1    0    0    0    0  0.00000000000E+00  0.00000000000E+00  0.45593999997E+02  0.45594000000E+02  0.51100000000E-03 0. -1.
         11   -1    0    0    0    0 -0.00000000000E+00 -0.00000000000E+00 -0.45593999997E+02  0.45594000000E+02  0.51100000000E-03 0.  1.
    9900012    2    1    2    0    0 -0.64887796558E+01  0.13414326324E+02 -0.28189918619E+02  0.59301954088E+02  0.50000018348E+02 0.  0.
         12    1    1    2    0    0  0.64887796558E+01 -0.13414326324E+02  0.28189918619E+02  0.31886045912E+02  0.00000000000E+00 0. -1.
         11    1    3    3    0    0 -0.13252652795E+02  0.91444284934E+01 -0.43791446862E+01  0.16686230462E+02  0.51100000000E-03 0. -1.
        -11    1    3    3    0    0 -0.65665539778E+01 -0.39729945098E+01 -0.25707105109E+02  0.26828335205E+02  0.51100000000E-03 0.  1.
        -12    1    3    3    0    0  0.13330427117E+02  0.82428923408E+01  0.18963311763E+01  0.15787388422E+02  0.00000000000E+00 0.  1.
</event>
<event>
 7    1  0.6164995E-012  0.5930194E+02  0.7816164E-02  0.1266605E+00
        -11   -1    0    0    0    0  0.00000000000E+00  0.00000000000E+00  0.45593999997E+02  0.45594000000E+02  0.51100000000E-03 0. -1.
         11   -1    0    0    0    0 -0.00000000000E+00 -0.00000000000E+00 -0.45593999997E+02  0.45594000000E+02  0.51100000000E-03 0.  1.
    9900012    2    1    2    0    0 -0.65120694941E+01  0.20765987933E+02 -0.23304236617E+02  0.59301941162E+02  0.49999994773E+02 0.  0.
         12    1    1    2    0    0  0.65120694941E+01 -0.20765987933E+02  0.23304236617E+02  0.31886058838E+02  0.00000000000E+00 0. -1.
         11    1    3    3    0    0 -0.25724876671E+00 -0.99099906211E+01  0.10172562880E+01  0.99653851735E+01  0.51100000000E-03 0. -1.
        -11    1    3    3    0    0  0.75054880928E+01  0.43116107009E+01 -0.16425920374E+02  0.18566992183E+02  0.51100000000E-03 0.  1.
        -12    1    3    3    0    0 -0.13760308820E+02  0.26364367853E+02 -0.78955725316E+01  0.30769563805E+02  0.00000000000E+00 0.  1.
</event>
<event>
 7    1  0.6164995E-012  0.5930196E+02  0.7816164E-02  0.1266605E+00
        -11   -1    0    0    0    0  0.00000000000E+00  0.00000000000E+00  0.45593999997E+02  0.45594000000E+02  0.51100000000E-03 0.  1.
         11   -1    0    0    0    0 -0.00000000000E+00 -0.00000000000E+00 -0.45593999997E+02  0.45594000000E+02  0.51100000000E-03 0. -1.
    9900012    2    1    2    0    0 -0.31214420587E+02  0.64702238285E+01 -0.71829189372E+00  0.59301956153E+02  0.50000022113E+02 0.  0.
         12    1    1    2    0    0  0.31214420587E+02 -0.64702238285E+01  0.71829189372E+00  0.31886043847E+02  0.00000000000E+00 0. -1.
         11    1    3    3    0    0 -0.17171300620E+01 -0.89656172628E+01 -0.37100544917E+00  0.91361082446E+01  0.51100000000E-03 0. -1.
        -11    1    3    3    0    0 -0.21112111379E+01 -0.88104788443E+01  0.86201769389E+01  0.12505566787E+02  0.51100000000E-03 0.  1.
         12    1    3    3    0    0 -0.27386079387E+02  0.24246319936E+02 -0.89674633835E+01  0.37660281122E+02  0.00000000000E+00 0. -1.
</event>
<event>
 7    1  0.6164995E-012  0.5930195E+02  0.7816164E-02  0.1266605E+00
        -11   -1    0    0    0    0  0.00000000000E+00  0.00000000000E+00  0.45593999997E+02  0.45594000000E+02  0.51100000000E-03 0.  1.
         11   -1    0    0    0    0 -0.00000000000E+00 -0.00000000000E+00 -0.45593999997E+02  0.45594000000E+02  0.51100000000E-03 0. -1.
    9900012    2    1    2    0    0 -0.41750138360E+01  0.16551506220E+02  0.26932086565E+02  0.59301946851E+02  0.50000005149E+02 0.  0.
         12    1    1    2    0    0  0.41750138360E+01 -0.16551506220E+02 -0.26932086565E+02  0.31886053149E+02  0.00000000000E+00 0. -1.
         11    1    3    3    0    0  0.20389879821E+02  0.91037384624E+01  0.65310058605E+01  0.23265409752E+02  0.51100000000E-03 0. -1.
        -11    1    3    3    0    0 -0.74679330134E+00  0.26317136602E+01 -0.16735198318E+01  0.32069122085E+01  0.51100000000E-03 0.  1.
        -12    1    3    3    0    0 -0.23818100356E+02  0.48160540974E+01  0.22074600536E+02  0.32829624891E+02  0.00000000000E+00 0.  1.
</event>
<event>
 7    1  0.6164995E-012  0.5930210E+02  0.7816164E-02  0.1266604E+00
        -11   -1    0    0    0    0  0.00000000000E+00  0.00000000000E+00  0.45593999997E+02  0.45594000000E+02  0.51100000000E-03 0. -1.
         11   -1    0    0    0    0 -0.00000000000E+00 -0.00000000000E+00 -0.45593999997E+02  0.45594000000E+02  0.51100000000E-03 0.  1.
    9900012    2    1    2    0    0  0.85659337962E+01  0.24717301404E+02 -0.18231570373E+02  0.59302103921E+02  0.50000291605E+02 0.  0.
         12    1    1    2    0    0 -0.85659337962E+01 -0.24717301404E+02  0.18231570373E+02  0.31885896079E+02  0.00000000000E+00 0. -1.
         11    1    3    3    0    0 -0.52406694841E+00  0.10144054154E+02  0.38890124051E+01  0.10876621653E+02  0.51100000000E-03 0. -1.
        -11    1    3    3    0    0  0.11022605027E+01 -0.81267153044E+01  0.69055575647E+01  0.10721250179E+02  0.51100000000E-03 0.  1.
        -12    1    3    3    0    0  0.79877402419E+01  0.22699962555E+02 -0.29026140343E+02  0.37704232089E+02  0.00000000000E+00 0.  1.
</event>
<event>
 7    1  0.6164995E-012  0.5930190E+02  0.7816164E-02  0.1266605E+00
        -11   -1    0    0    0    0  0.00000000000E+00  0.00000000000E+00  0.45593999997E+02  0.45594000000E+02  0.51100000000E-03 0.  1.
         11   -1    0    0    0    0 -0.00000000000E+00 -0.00000000000E+00 -0.45593999997E+02  0.45594000000E+02  0.51100000000E-03 0. -1.
    9900012    2    1    2    0    0 -0.10520506625E+02 -0.88552036757E+01  0.28768513766E+02  0.59301904660E+02  0.49999928202E+02 0.  0.
         12    1    1    2    0    0  0.10520506625E+02  0.88552036757E+01 -0.28768513766E+02  0.31886095340E+02  0.00000000000E+00 0. -1.
         11    1    3    3    0    0 -0.10568476664E+02 -0.21977163213E+01  0.31673226805E+01  0.11249648405E+02  0.51100000000E-03 0.  1.
        -11    1    3    3    0    0 -0.35248961177E+01  0.12910354385E+02 -0.25090381214E+01  0.13616071957E+02  0.51100000000E-03 0. -1.
        -12    1    3    3    0    0  0.35728661566E+01 -0.19567841739E+02  0.28110229206E+02  0.34436184297E+02  0.00000000000E+00 0.  1.
</event>
<event>
 7    1  0.6164995E-012  0.5930196E+02  0.7816164E-02  0.1266605E+00
        -11   -1    0    0    0    0  0.00000000000E+00  0.00000000000E+00  0.45593999997E+02  0.45594000000E+02  0.51100000000E-03 0.  1.
         11   -1    0    0    0    0 -0.00000000000E+00 -0.00000000000E+00 -0.45593999997E+02  0.45594000000E+02  0.51100000000E-03 0. -1.
    9900012    2    1    2    0    0 -0.92192406400E+01 -0.15472195162E+02  0.26312281277E+02  0.59301962819E+02  0.50000034271E+02 0.  0.
         12    1    1    2    0    0  0.92192406400E+01  0.15472195162E+02 -0.26312281277E+02  0.31886037181E+02  0.00000000000E+00 0. -1.
         11    1    3    3    0    0 -0.97886521047E+01  0.37775387450E+01 -0.84140938234E+01  0.13449330248E+02  0.51100000000E-03 0. -1.
        -11    1    3    3    0    0 -0.31773242166E+01  0.41809412045E+01  0.24551654766E+01  0.57968522762E+01  0.51100000000E-03 0.  1.
         12    1    3    3    0    0  0.37467356814E+01 -0.23430675111E+02  0.32271209624E+02  0.40055780295E+02  0.00000000000E+00 0. -1.
</event>
<event>
 7    1  0.6164995E-012  0.5930195E+02  0.7816164E-02  0.1266605E+00
        -11   -1    0    0    0    0  0.00000000000E+00  0.00000000000E+00  0.45593999997E+02  0.45594000000E+02  0.51100000000E-03 0.  1.
         11   -1    0    0    0    0 -0.00000000000E+00 -0.00000000000E+00 -0.45593999997E+02  0.45594000000E+02  0.51100000000E-03 0. -1.
    9900012    2    1    2    0    0 -0.47089751626E+01 -0.19037139426E+02  0.25142260991E+02  0.59301946429E+02  0.50000004380E+02 0.  0.
         12    1    1    2    0    0  0.47089751626E+01  0.19037139426E+02 -0.25142260991E+02  0.31886053571E+02  0.00000000000E+00 0. -1.
         11    1    3    3    0    0  0.63372959768E+01 -0.15675676262E+02 -0.55682865774E+01  0.17801515729E+02  0.51100000000E-03 0. -1.
        -11    1    3    3    0    0 -0.87473264643E+01 -0.74756396292E+01  0.11470048695E+01  0.11563586320E+02  0.51100000000E-03 0.  1.
        -12    1    3    3    0    0 -0.22989446752E+01  0.41141764656E+01  0.29563542699E+02  0.29936844381E+02  0.00000000000E+00 0.  1.
</event>
<event>
 7    1  0.6164995E-012  0.5930198E+02  0.7816164E-02  0.1266605E+00
        -11   -1    0    0    0    0  0.00000000000E+00  0.00000000000E+00  0.45593999997E+02  0.45594000000E+02  0.51100000000E-03 0. -1.
         11   -1    0    0    0    0 -0.00000000000E+00 -0.00000000000E+00 -0.45593999997E+02  0.45594000000E+02  0.51100000000E-03 0.  1.
    9900012    2    1    2    0    0 -0.85868036574E+01 -0.29789530969E+02 -0.74544666338E+01  0.59301977589E+02  0.50000061207E+02 0.  0.
         12    1    1    2    0    0  0.85868036574E+01  0.29789530969E+02  0.74544666338E+01  0.31886022411E+02  0.00000000000E+00 0. -1.
         11    1    3    3    0    0  0.51204915793E+01 -0.22890143808E+01 -0.26313154950E+01  0.61953887969E+01  0.51100000000E-03 0. -1.
        -11    1    3    3    0    0  0.72370481841E+01 -0.27139678325E+02 -0.12570167436E+02  0.30772489591E+02  0.51100000000E-03 0.  1.
         12    1    3    3    0    0 -0.20944343421E+02 -0.36083826367E+00  0.77470162975E+01  0.22334099200E+02  0.00000000000E+00 0. -1.
</event>
<event>
 7    1  0.6164995E-012  0.5930189E+02  0.7816164E-02  0.1266605E+00
        -11   -1    0    0    0    0  0.00000000000E+00  0.00000000000E+00  0.45593999997E+02  0.45594000000E+02  0.51100000000E-03 0.  1.
         11   -1    0    0    0    0 -0.00000000000E+00 -0.00000000000E+00 -0.45593999997E+02  0.45594000000E+02  0.51100000000E-03 0. -1.
    9900012    2    1    2    0    0  0.30725871459E+02  0.29227566417E+01  0.80063982639E+01  0.59301888659E+02  0.49999899021E+02 0.  0.
         12    1    1    2    0    0 -0.30725871459E+02 -0.29227566417E+01 -0.80063982639E+01  0.31886111341E+02  0.00000000000E+00 0. -1.
         11    1    3    3    0    0 -0.33725759019E+01  0.24972134181E+01  0.17179579995E+01  0.45345036133E+01  0.51100000000E-03 0. -1.
        -11    1    3    3    0    0  0.13899067323E+02  0.13452980446E+02 -0.13537334959E+02  0.23609874912E+02  0.51100000000E-03 0.  1.
        -12    1    3    3    0    0  0.20199380038E+02 -0.13027437222E+02  0.19825775224E+02  0.31157510134E+02  0.00000000000E+00 0.  1.
</event>
<event>
 7    1  0.6164995E-012  0.5930188E+02  0.7816164E-02  0.1266605E+00
        -11   -1    0    0    0    0  0.00000000000E+00  0.00000000000E+00  0.45593999997E+02  0.45594000000E+02  0.51100000000E-03 0. -1.
         11   -1    0    0    0    0 -0.00000000000E+00 -0.00000000000E+00 -0.45593999997E+02  0.45594000000E+02  0.51100000000E-03 0.  1.
    9900012    2    1    2    0    0 -0.25138762880E+02  0.17905622928E+02 -0.80097348909E+01  0.59301881004E+02  0.49999885060E+02 0.  0.
         12    1    1    2    0    0  0.25138762880E+02 -0.17905622928E+02  0.80097348909E+01  0.31886118996E+02  0.00000000000E+00 0. -1.
         11    1    3    3    0    0 -0.97007422433E+01 -0.15415401209E+02  0.54358765717E+01  0.19007570830E+02  0.51100000000E-03 0. -1.
        -11    1    3    3    0    0 -0.62115006789E+01  0.58684177213E+01 -0.46808820593E+00  0.85580473278E+01  0.51100000000E-03 0.  1.
        -12    1    3    3    0    0 -0.92265199582E+01  0.27452606416E+02 -0.12977523257E+02  0.31736262846E+02  0.00000000000E+00 0.  1.
</event>
<event>
 7    1  0.6164995E-012  0.5930194E+02  0.7816164E-02  0.1266605E+00
        -11   -1    0    0    0    0  0.00000000000E+00  0.00000000000E+00  0.45593999997E+02  0.45594000000E+02  0.51100000000E-03 0.  1.
         11   -1    0    0    0    0 -0.00000000000E+00 -0.00000000000E+00 -0.45593999997E+02  0.45594000000E+02  0.51100000000E-03 0. -1.
    9900012    2    1    2    0    0  0.13818986828E+02 -0.16080547992E+01  0.28690950468E+02  0.59301939159E+02  0.49999991120E+02 0.  0.
         12    1    1    2    0    0 -0.13818986828E+02  0.16080547992E+01 -0.28690950468E+02  0.31886060841E+02  0.00000000000E+00 0. -1.
         11    1    3    3    0    0 -0.45908830165E+01  0.10053839253E+02  0.91463888642E+01  0.14346160466E+02  0.51100000000E-03 0. -1.
        -11    1    3    3    0    0 -0.30071977897E+01  0.25892375517E+01  0.18805858843E+02  0.19219982225E+02  0.51100000000E-03 0.  1.
         12    1    3    3    0    0  0.21417067634E+02 -0.14251131604E+02  0.73870276136E+00  0.25735796468E+02  0.00000000000E+00 0. -1.
</event>
<event>
 7    1  0.6164995E-012  0.5930184E+02  0.7816164E-02  0.1266605E+00
        -11   -1    0    0    0    0  0.00000000000E+00  0.00000000000E+00  0.45593999997E+02  0.45594000000E+02  0.51100000000E-03 0.  1.
         11   -1    0    0    0    0 -0.00000000000E+00 -0.00000000000E+00 -0.45593999997E+02  0.45594000000E+02  0.51100000000E-03 0. -1.
    9900012    2    1    2    0    0  0.26740957402E+02 -0.15009646849E+02  0.87383748768E+01  0.59301835338E+02  0.49999801776E+02 0.  0.
         12    1    1    2    0    0 -0.26740957402E+02  0.15009646849E+02 -0.87383748768E+01  0.31886164662E+02  0.00000000000E+00 0. -1.
         11    1    3    3    0    0  0.77410693550E+01  0.78138241860E+01  0.13245281863E+02  0.17216779463E+02  0.51100000000E-03 0. -1.
        -11    1    3    3    0    0  0.24643591143E+02 -0.84684782887E+01 -0.54866676192E+01  0.26629405378E+02  0.51100000000E-03 0.  1.
        -12    1    3    3    0    0 -0.56437030960E+01 -0.14354992747E+02  0.97976063268E+00  0.15455650497E+02  0.00000000000E+00 0.  1.
</event>
<event>
 7    1  0.6164995E-012  0.5930190E+02  0.7816164E-02  0.1266605E+00
        -11   -1    0    0    0    0  0.00000000000E+00  0.00000000000E+00  0.45593999997E+02  0.45594000000E+02  0.51100000000E-03 0. -1.
         11   -1    0    0    0    0 -0.00000000000E+00 -0.00000000000E+00 -0.45593999997E+02  0.45594000000E+02  0.51100000000E-03 0.  1.
    9900012    2    1    2    0    0  0.22333986546E+02  0.16490409932E+02 -0.15683845004E+02  0.59301896932E+02  0.49999914108E+02 0.  0.
         12    1    1    2    0    0 -0.22333986546E+02 -0.16490409932E+02  0.15683845004E+02  0.31886103068E+02  0.00000000000E+00 0. -1.
         11    1    3    3    0    0 -0.38623801959E+00  0.15875774610E+02 -0.17149000617E+02  0.23372582692E+02  0.51100000000E-03 0. -1.
        -11    1    3    3    0    0  0.12583570860E+02  0.27525490627E+01 -0.12892295566E+02  0.18224545732E+02  0.51100000000E-03 0.  1.
         12    1    3    3    0    0  0.10136653706E+02 -0.21379137409E+01  0.14357451179E+02  0.17704768507E+02  0.00000000000E+00 0. -1.
</event>
<event>
 7    1  0.6164995E-012  0.5930194E+02  0.7816164E-02  0.1266605E+00
        -11   -1    0    0    0    0  0.00000000000E+00  0.00000000000E+00  0.45593999997E+02  0.45594000000E+02  0.51100000000E-03 0.  1.
         11   -1    0    0    0    0 -0.00000000000E+00 -0.00000000000E+00 -0.45593999997E+02  0.45594000000E+02  0.51100000000E-03 0. -1.
    9900012    2    1    2    0    0 -0.30191923783E+02 -0.67913731992E+01  0.76841282829E+01  0.59301939737E+02  0.49999992175E+02 0.  0.
         12    1    1    2    0    0  0.30191923783E+02  0.67913731992E+01 -0.76841282829E+01  0.31886060263E+02  0.00000000000E+00 0. -1.
         11    1    3    3    0    0 -0.23820002204E+01  0.48681982854E+01  0.79259518312E+01  0.96017702684E+01  0.51100000000E-03 0. -1.
        -11    1    3    3    0    0  0.78834602305E+01  0.51601972253E+01  0.35317143644E+01  0.10062285388E+02  0.51100000000E-03 0.  1.
        -12    1    3    3    0    0 -0.35693383793E+02 -0.16819768710E+02 -0.37735379127E+01  0.39637884081E+02  0.00000000000E+00 0.  1.
</event>
<event>
 7    1  0.6164995E-012  0.5930178E+02  0.7816164E-02  0.1266605E+00
        -11   -1    0    0    0    0  0.00000000000E+00  0.00000000000E+00  0.45593999997E+02  0.45594000000E+02  0.51100000000E-03 0.  1.
         11   -1    0    0    0    0 -0.00000000000E+00 -0.00000000000E+00 -0.45593999997E+02  0.45594000000E+02  0.51100000000E-03 0. -1.
    9900012    2    1    2    0    0  0.17142313834E+02  0.21261971541E+02 -0.16456031853E+02  0.59301775047E+02  0.49999691819E+02 0.  0.
         12    1    1    2    0    0 -0.17142313834E+02 -0.21261971541E+02  0.16456031853E+02  0.31886224953E+02  0.00000000000E+00 0. -1.
         11    1    3    3    0    0  0.11201440546E+02  0.30194070745E+01 -0.55799879725E+01  0.12873436038E+02  0.51100000000E-03 0.  1.
        -11    1    3    3    0    0  0.51246279240E+01  0.11445795130E+02 -0.26529091506E+02  0.29343836387E+02  0.51100000000E-03 0. -1.
         12    1    3    3    0    0  0.81624536435E+00  0.67967693367E+01  0.15653047625E+02  0.17084502623E+02  0.00000000000E+00 0. -1.
</event>
<event>
 7    1  0.6164995E-012  0.5930197E+02  0.7816164E-02  0.1266605E+00
        -11   -1    0    0    0    0  0.00000000000E+00  0.00000000000E+00  0.45593999997E+02  0.45594000000E+02  0.51100000000E-03 0. -1.
         11   -1    0    0    0    0 -0.00000000000E+00 -0.00000000000E+00 -0.45593999997E+02  0.45594000000E+02  0.51100000000E-03 0.  1.
    9900012    2    1    2    0    0  0.73380912522E+01  0.27114179977E+02 -0.15089484241E+02  0.59301970556E+02  0.50000048381E+02 0.  0.
         12    1    1    2    0    0 -0.73380912522E+01 -0.27114179977E+02  0.15089484241E+02  0.31886029444E+02  0.00000000000E+00 0. -1.
         11    1    3    3    0    0  0.62603156296E+01 -0.10048328763E+02 -0.11074552733E+02  0.16211297950E+02  0.51100000000E-03 0. -1.
        -11    1    3    3    0    0 -0.40353099475E+01 -0.45211401580E+00 -0.31179146899E+01  0.51195239750E+01  0.51100000000E-03 0.  1.
        -12    1    3    3    0    0  0.51130855701E+01  0.37614622756E+02 -0.89701681750E+00  0.37971148631E+02  0.00000000000E+00 0.  1.
</event>
<event>
 7    1  0.6164995E-012  0.5930192E+02  0.7816164E-02  0.1266605E+00
        -11   -1    0    0    0    0  0.00000000000E+00  0.00000000000E+00  0.45593999997E+02  0.45594000000E+02  0.51100000000E-03 0. -1.
         11   -1    0    0    0    0 -0.00000000000E+00 -0.00000000000E+00 -0.45593999997E+02  0.45594000000E+02  0.51100000000E-03 0.  1.
    9900012    2    1    2    0    0  0.19255245654E+02  0.18073183423E+02 -0.17869455636E+02  0.59301923274E+02  0.49999962150E+02 0.  0.
         12    1    1    2    0    0 -0.19255245654E+02 -0.18073183423E+02  0.17869455636E+02  0.31886076726E+02  0.00000000000E+00 0. -1.
         11    1    3    3    0    0  0.16597815338E+02  0.28971547825E+01  0.40709430457E+01  0.17333596204E+02  0.51100000000E-03 0. -1.
        -11    1    3    3    0    0 -0.12950659666E+02  0.15230144387E+02 -0.14373404806E+02  0.24622584142E+02  0.51100000000E-03 0.  1.
         12    1    3    3    0    0  0.15608089982E+02 -0.54115746968E-01 -0.75669938760E+01  0.17345742928E+02  0.00000000000E+00 0. -1.
</event>
<event>
 7    1  0.6164995E-012  0.5930195E+02  0.7816164E-02  0.1266605E+00
        -11   -1    0    0    0    0  0.00000000000E+00  0.00000000000E+00  0.45593999997E+02  0.45594000000E+02  0.51100000000E-03 0.  1.
         11   -1    0    0    0    0 -0.00000000000E+00 -0.00000000000E+00 -0.45593999997E+02  0.45594000000E+02  0.51100000000E-03 0. -1.
    9900012    2    1    2    0    0  0.18134848339E+02 -0.23919807081E+02  0.10755934007E+02  0.59301952715E+02  0.50000015843E+02 0.  0.
         12    1    1    2    0    0 -0.18134848339E+02  0.23919807081E+02 -0.10755934007E+02  0.31886047285E+02  0.00000000000E+00 0. -1.
         11    1    3    3    0    0  0.12754413902E+02 -0.30915326362E+02  0.13169991883E+02  0.35942748427E+02  0.51100000000E-03 0.  1.
        -11    1    3    3    0    0  0.76103607863E+01  0.20037019362E+01  0.82337637696E+01  0.11389788357E+02  0.51100000000E-03 0. -1.
         12    1    3    3    0    0 -0.22299263485E+01  0.49918173443E+01 -0.10647821646E+02  0.11969415930E+02  0.00000000000E+00 0. -1.
</event>
<event>
 7    1  0.6164995E-012  0.5930195E+02  0.7816164E-02  0.1266605E+00
        -11   -1    0    0    0    0  0.00000000000E+00  0.00000000000E+00  0.45593999997E+02  0.45594000000E+02  0.51100000000E-03 0. -1.
         11   -1    0    0    0    0 -0.00000000000E+00 -0.00000000000E+00 -0.45593999997E+02  0.45594000000E+02  0.51100000000E-03 0.  1.
    9900012    2    1    2    0    0 -0.20863839868E+02 -0.14600853844E+02 -0.19189469028E+02  0.59301945547E+02  0.50000002771E+02 0.  0.
         12    1    1    2    0    0  0.20863839868E+02  0.14600853844E+02  0.19189469028E+02  0.31886054453E+02  0.00000000000E+00 0. -1.
         11    1    3    3    0    0  0.75243490833E+01 -0.16654055330E+01 -0.15971660313E+02  0.17733678077E+02  0.51100000000E-03 0. -1.
        -11    1    3    3    0    0 -0.46097217215E+01 -0.53813829459E+01 -0.12970909382E+02  0.14780166007E+02  0.51100000000E-03 0.  1.
         12    1    3    3    0    0 -0.23778467230E+02 -0.75540653646E+01  0.97531006670E+01  0.26788101463E+02  0.00000000000E+00 0. -1.
</event>
<event>
 7    1  0.6164995E-012  0.5930195E+02  0.7816164E-02  0.1266605E+00
        -11   -1    0    0    0    0  0.00000000000E+00  0.00000000000E+00  0.45593999997E+02  0.45594000000E+02  0.51100000000E-03 0. -1.
         11   -1    0    0    0    0 -0.00000000000E+00 -0.00000000000E+00 -0.45593999997E+02  0.45594000000E+02  0.51100000000E-03 0.  1.
    9900012    2    1    2    0    0 -0.27823076984E+02 -0.20721287749E+01 -0.15437071035E+02  0.59301945169E+02  0.50000002082E+02 0.  0.
         12    1    1    2    0    0  0.27823076984E+02  0.20721287749E+01  0.15437071035E+02  0.31886054831E+02  0.00000000000E+00 0. -1.
         11    1    3    3    0    0 -0.65189243979E+00  0.30009418217E+01 -0.70737560684E+01  0.77115913239E+01  0.51100000000E-03 0. -1.
        -11    1    3    3    0    0  0.94100345758E+01 -0.99630182973E+01  0.18942664019E+00  0.13705705638E+02  0.51100000000E-03 0.  1.
         12    1    3    3    0    0 -0.36581219120E+02  0.48899477007E+01 -0.85527416063E+01  0.37884648208E+02  0.00000000000E+00 0. -1.
</event>
<event>
 7    1  0.6164995E-012  0.5930194E+02  0.7816164E-02  0.1266605E+00
        -11   -1    0    0    0    0  0.00000000000E+00  0.00000000000E+00  0.45593999997E+02  0.45594000000E+02  0.51100000000E-03 0. -1.
         11   -1    0    0    0    0 -0.00000000000E+00 -0.00000000000E+00 -0.45593999997E+02  0.45594000000E+02  0.51100000000E-03 0.  1.
    9900012    2    1    2    0    0  0.23858683631E+02 -0.13505327637E+01 -0.21110659992E+02  0.59301942096E+02  0.49999996477E+02 0.  0.
         12    1    1    2    0    0 -0.23858683631E+02  0.13505327637E+01  0.21110659992E+02  0.31886057904E+02  0.00000000000E+00 0. -1.
         11    1    3    3    0    0 -0.17504837167E+01  0.90048555707E+01  0.10965621457E+02  0.14296729392E+02  0.51100000000E-03 0. -1.
        -11    1    3    3    0    0 -0.48718317238E+00  0.24330105265E+01 -0.30382565428E+01  0.39227402089E+01  0.51100000000E-03 0.  1.
        -12    1    3    3    0    0  0.26096350520E+02 -0.12788398861E+02 -0.29038024907E+02  0.41082472496E+02  0.00000000000E+00 0.  1.
</event>
<event>
 7    1  0.6164995E-012  0.5930191E+02  0.7816164E-02  0.1266605E+00
        -11   -1    0    0    0    0  0.00000000000E+00  0.00000000000E+00  0.45593999997E+02  0.45594000000E+02  0.51100000000E-03 0. -1.
         11   -1    0    0    0    0 -0.00000000000E+00 -0.00000000000E+00 -0.45593999997E+02  0.45594000000E+02  0.51100000000E-03 0.  1.
    9900012    2    1    2    0    0  0.30141248214E+02 -0.15586185471E+01 -0.10285852448E+02  0.59301907479E+02  0.49999933344E+02 0.  0.
         12    1    1    2    0    0 -0.30141248214E+02  0.15586185471E+01  0.10285852448E+02  0.31886092521E+02  0.00000000000E+00 0. -1.
         11    1    3    3    0    0  0.11729894164E+02 -0.80290680608E+01 -0.15395227433E+01  0.14297778903E+02  0.51100000000E-03 0. -1.
        -11    1    3    3    0    0  0.28909062953E+02  0.91069180350E+01 -0.13502985106E+02  0.33181327339E+02  0.51100000000E-03 0.  1.
         12    1    3    3    0    0 -0.10497708903E+02 -0.26364685213E+01  0.47566554013E+01  0.11822801237E+02  0.00000000000E+00 0. -1.
</event>
<event>
 7    1  0.6164995E-012  0.5930195E+02  0.7816164E-02  0.1266605E+00
        -11   -1    0    0    0    0  0.00000000000E+00  0.00000000000E+00  0.45593999997E+02  0.45594000000E+02  0.51100000000E-03 0. -1.
         11   -1    0    0    0    0 -0.00000000000E+00 -0.00000000000E+00 -0.45593999997E+02  0.45594000000E+02  0.51100000000E-03 0.  1.
    9900012    2    1    2    0    0 -0.50021015144E+01  0.37378804631E+00 -0.31489036487E+02  0.59301950450E+02  0.50000011712E+02 0.  0.
         12    1    1    2    0    0  0.50021015144E+01 -0.37378804631E+00  0.31489036487E+02  0.31886049550E+02  0.00000000000E+00 0. -1.
         11    1    3    3    0    0 -0.14149951916E+02 -0.82971128512E+00 -0.71871734462E+01  0.15892294436E+02  0.51100000000E-03 0. -1.
        -11    1    3    3    0    0 -0.30257087123E+00  0.16016801470E+02 -0.19416536836E+02  0.25172035703E+02  0.51100000000E-03 0.  1.
         12    1    3    3    0    0  0.94504212725E+01 -0.14813302139E+02 -0.48853262047E+01  0.18237620311E+02  0.00000000000E+00 0. -1.
</event>
<event>
 7    1  0.6164995E-012  0.5930195E+02  0.7816164E-02  0.1266605E+00
        -11   -1    0    0    0    0  0.00000000000E+00  0.00000000000E+00  0.45593999997E+02  0.45594000000E+02  0.51100000000E-03 0. -1.
         11   -1    0    0    0    0 -0.00000000000E+00 -0.00000000000E+00 -0.45593999997E+02  0.45594000000E+02  0.51100000000E-03 0.  1.
    9900012    2    1    2    0    0  0.30497780841E+02  0.38940789781E+01  0.84523377267E+01  0.59301945049E+02  0.50000001862E+02 0.  0.
         12    1    1    2    0    0 -0.30497780841E+02 -0.38940789781E+01 -0.84523377267E+01  0.31886054951E+02  0.00000000000E+00 0. -1.
         11    1    3    3    0    0 -0.68823364525E-01  0.11776644702E+02  0.33997313529E+01  0.12257743292E+02  0.51100000000E-03 0. -1.
        -11    1    3    3    0    0  0.27152510535E+01  0.28996858860E+01  0.15037745553E+02  0.15553602737E+02  0.51100000000E-03 0.  1.
        -12    1    3    3    0    0  0.27851353152E+02 -0.10782251610E+02 -0.99851391793E+01  0.31490599019E+02  0.00000000000E+00 0.  1.
</event>
<event>
 7    1  0.6164995E-012  0.5930193E+02  0.7816164E-02  0.1266605E+00
        -11   -1    0    0    0    0  0.00000000000E+00  0.00000000000E+00  0.45593999997E+02  0.45594000000E+02  0.51100000000E-03 0. -1.
         11   -1    0    0    0    0 -0.00000000000E+00 -0.00000000000E+00 -0.45593999997E+02  0.45594000000E+02  0.51100000000E-03 0.  1.
    9900012    2    1    2    0    0  0.85599379154E+01  0.12358786418E+02 -0.28119557516E+02  0.59301926963E+02  0.49999968877E+02 0.  0.
         12    1    1    2    0    0 -0.85599379154E+01 -0.12358786418E+02  0.28119557516E+02  0.31886073037E+02  0.00000000000E+00 0. -1.
         11    1    3    3    0    0  0.99144256800E+01 -0.92827270455E+01 -0.87623973579E+01  0.16163058674E+02  0.51100000000E-03 0. -1.
        -11    1    3    3    0    0  0.11357681832E+02  0.23069236179E+02 -0.13915701141E+02  0.29237532949E+02  0.51100000000E-03 0.  1.
         12    1    3    3    0    0 -0.12712169596E+02 -0.14277227156E+01 -0.54414590179E+01  0.13901335340E+02  0.00000000000E+00 0. -1.
</event>
<event>
 7    1  0.6164995E-012  0.5930197E+02  0.7816164E-02  0.1266605E+00
        -11   -1    0    0    0    0  0.00000000000E+00  0.00000000000E+00  0.45593999997E+02  0.45594000000E+02  0.51100000000E-03 0.  1.
         11   -1    0    0    0    0 -0.00000000000E+00 -0.00000000000E+00 -0.45593999997E+02  0.45594000000E+02  0.51100000000E-03 0. -1.
    9900012    2    1    2    0    0  0.15081210528E+02 -0.21797447530E+02  0.17724208784E+02  0.59301965332E+02  0.50000038854E+02 0.  0.
         12    1    1    2    0    0 -0.15081210528E+02  0.21797447530E+02 -0.17724208784E+02  0.31886034668E+02  0.00000000000E+00 0. -1.
         11    1    3    3    0    0 -0.45741186961E+01 -0.14228020684E+02 -0.84707345168E+01  0.17178838085E+02  0.51100000000E-03 0. -1.
        -11    1    3    3    0    0 -0.48713911009E+01 -0.69059316055E+01  0.65875032806E+01  0.10715294785E+02  0.51100000000E-03 0.  1.
        -12    1    3    3    0    0  0.24526720325E+02 -0.66349524051E+00  0.19607440020E+02  0.31407832463E+02  0.00000000000E+00 0.  1.
</event>
<event>
 7    1  0.6164995E-012  0.5930193E+02  0.7816164E-02  0.1266605E+00
        -11   -1    0    0    0    0  0.00000000000E+00  0.00000000000E+00  0.45593999997E+02  0.45594000000E+02  0.51100000000E-03 0.  1.
         11   -1    0    0    0    0 -0.00000000000E+00 -0.00000000000E+00 -0.45593999997E+02  0.45594000000E+02  0.51100000000E-03 0. -1.
    9900012    2    1    2    0    0  0.28550420464E+02  0.10769623767E+02  0.92525829903E+01  0.59301927856E+02  0.49999970508E+02 0.  0.
         12    1    1    2    0    0 -0.28550420464E+02 -0.10769623767E+02 -0.92525829903E+01  0.31886072144E+02  0.00000000000E+00 0. -1.
         11    1    3    3    0    0 -0.26281204835E+01  0.10026953374E+02 -0.47998013989E+01  0.11422998948E+02  0.51100000000E-03 0. -1.
        -11    1    3    3    0    0 -0.48770928585E+01  0.24241140774E+01  0.10220781224E+02  0.11581309636E+02  0.51100000000E-03 0.  1.
         12    1    3    3    0    0  0.36055633806E+02 -0.16814436840E+01  0.38316031655E+01  0.36297619272E+02  0.00000000000E+00 0. -1.
</event>
<event>
 7    1  0.6164995E-012  0.5930195E+02  0.7816164E-02  0.1266605E+00
        -11   -1    0    0    0    0  0.00000000000E+00  0.00000000000E+00  0.45593999997E+02  0.45594000000E+02  0.51100000000E-03 0. -1.
         11   -1    0    0    0    0 -0.00000000000E+00 -0.00000000000E+00 -0.45593999997E+02  0.45594000000E+02  0.51100000000E-03 0.  1.
    9900012    2    1    2    0    0 -0.21713894264E+02  0.23111330282E+02  0.33306283370E+01  0.59301954830E+02  0.50000019700E+02 0.  0.
         12    1    1    2    0    0  0.21713894264E+02 -0.23111330282E+02 -0.33306283370E+01  0.31886045170E+02  0.00000000000E+00 0. -1.
         11    1    3    3    0    0 -0.11341910059E+01  0.69794679531E+01 -0.80319773753E+01  0.10701029061E+02  0.51100000000E-03 0. -1.
        -11    1    3    3    0    0 -0.20659685381E+02  0.22583845203E+02 -0.49984221219E+01  0.31013495259E+02  0.51100000000E-03 0.  1.
         12    1    3    3    0    0  0.79982122730E-01 -0.64519828748E+01  0.16361027834E+02  0.17587430510E+02  0.00000000000E+00 0. -1.
</event>
<event>
 7    1  0.6164995E-012  0.5930197E+02  0.7816164E-02  0.1266605E+00
        -11   -1    0    0    0    0  0.00000000000E+00  0.00000000000E+00  0.45593999997E+02  0.45594000000E+02  0.51100000000E-03 0.  1.
         11   -1    0    0    0    0 -0.00000000000E+00 -0.00000000000E+00 -0.45593999997E+02  0.45594000000E+02  0.51100000000E-03 0. -1.
    9900012    2    1    2    0    0 -0.50266679956E+01  0.31001834108E+02 -0.55079689701E+01  0.59301971220E+02  0.50000049592E+02 0.  0.
         12    1    1    2    0    0  0.50266679956E+01 -0.31001834108E+02  0.55079689701E+01  0.31886028780E+02  0.00000000000E+00 0. -1.
         11    1    3    3    0    0  0.74849732284E+01 -0.81846171259E+01 -0.48789704963E+01  0.12116812085E+02  0.51100000000E-03 0. -1.
        -11    1    3    3    0    0 -0.43444875786E+01  0.12372300676E+02  0.10727240592E+02  0.16941726220E+02  0.51100000000E-03 0.  1.
        -12    1    3    3    0    0 -0.81671536455E+01  0.26814150558E+02 -0.11356239065E+02  0.30243432916E+02  0.00000000000E+00 0.  1.
</event>
<event>
 7    1  0.6164995E-012  0.5930194E+02  0.7816164E-02  0.1266605E+00
        -11   -1    0    0    0    0  0.00000000000E+00  0.00000000000E+00  0.45593999997E+02  0.45594000000E+02  0.51100000000E-03 0.  1.
         11   -1    0    0    0    0 -0.00000000000E+00 -0.00000000000E+00 -0.45593999997E+02  0.45594000000E+02  0.51100000000E-03 0. -1.
    9900012    2    1    2    0    0  0.55403224338E+01 -0.78602638546E+00  0.31391203588E+02  0.59301942344E+02  0.49999996929E+02 0.  0.
         12    1    1    2    0    0 -0.55403224338E+01  0.78602638546E+00 -0.31391203588E+02  0.31886057656E+02  0.00000000000E+00 0. -1.
         11    1    3    3    0    0 -0.13561783269E+02 -0.85108933019E+01  0.18978025220E+02  0.24829875387E+02  0.51100000000E-03 0. -1.
        -11    1    3    3    0    0  0.11437300261E+02 -0.80305146230E+01  0.20741261557E+01  0.14128092650E+02  0.51100000000E-03 0.  1.
        -12    1    3    3    0    0  0.76648054421E+01  0.15755381540E+02  0.10339052212E+02  0.20343974306E+02  0.00000000000E+00 0.  1.
</event>
<event>
 7    1  0.6164995E-012  0.5930194E+02  0.7816164E-02  0.1266605E+00
        -11   -1    0    0    0    0  0.00000000000E+00  0.00000000000E+00  0.45593999997E+02  0.45594000000E+02  0.51100000000E-03 0.  1.
         11   -1    0    0    0    0 -0.00000000000E+00 -0.00000000000E+00 -0.45593999997E+02  0.45594000000E+02  0.51100000000E-03 0. -1.
    9900012    2    1    2    0    0  0.29651321434E+02 -0.40323888809E+01  0.11011816377E+02  0.59301935289E+02  0.49999984062E+02 0.  0.
         12    1    1    2    0    0 -0.29651321434E+02  0.40323888809E+01 -0.11011816377E+02  0.31886064711E+02  0.00000000000E+00 0. -1.
         11    1    3    3    0    0  0.50171512562E+01  0.48073994930E+01 -0.16337648692E+02  0.17753919614E+02  0.51100000000E-03 0. -1.
        -11    1    3    3    0    0  0.18568373425E+02 -0.62646402647E+01  0.81051228450E+01  0.21206678804E+02  0.51100000000E-03 0.  1.
        -12    1    3    3    0    0  0.60657967525E+01 -0.25751481092E+01  0.19244342225E+02  0.20341336871E+02  0.00000000000E+00 0.  1.
</event>
<event>
 7    1  0.6164995E-012  0.5930191E+02  0.7816164E-02  0.1266605E+00
        -11   -1    0    0    0    0  0.00000000000E+00  0.00000000000E+00  0.45593999997E+02  0.45594000000E+02  0.51100000000E-03 0.  1.
         11   -1    0    0    0    0 -0.00000000000E+00 -0.00000000000E+00 -0.45593999997E+02  0.45594000000E+02  0.51100000000E-03 0. -1.
    9900012    2    1    2    0    0  0.23641324707E+02  0.16374531585E+02  0.13772616970E+02  0.59301913744E+02  0.49999944770E+02 0.  0.
         12    1    1    2    0    0 -0.23641324707E+02 -0.16374531585E+02 -0.13772616970E+02  0.31886086256E+02  0.00000000000E+00 0. -1.
         11    1    3    3    0    0  0.17533904666E+01 -0.78640103392E+01 -0.96269285974E+01  0.12553676403E+02  0.51100000000E-03 0. -1.
        -11    1    3    3    0    0  0.11080024404E+02  0.15334816386E+02 -0.63769037640E+00  0.18929611292E+02  0.51100000000E-03 0.  1.
         12    1    3    3    0    0  0.10807909837E+02  0.89037255375E+01  0.24037235944E+02  0.27818626050E+02  0.00000000000E+00 0. -1.
</event>
<event>
 7    1  0.6164995E-012  0.5930196E+02  0.7816164E-02  0.1266605E+00
        -11   -1    0    0    0    0  0.00000000000E+00  0.00000000000E+00  0.45593999997E+02  0.45594000000E+02  0.51100000000E-03 0. -1.
         11   -1    0    0    0    0 -0.00000000000E+00 -0.00000000000E+00 -0.45593999997E+02  0.45594000000E+02  0.51100000000E-03 0.  1.
    9900012    2    1    2    0    0 -0.18142088943E+02  0.22049298947E+02 -0.14191984605E+02  0.59301962267E+02  0.50000033264E+02 0.  0.
         12    1    1    2    0    0  0.18142088943E+02 -0.22049298947E+02  0.14191984605E+02  0.31886037733E+02  0.00000000000E+00 0. -1.
         11    1    3    3    0    0  0.78265666433E+01  0.96549341509E+00  0.69365753781E+01  0.10502542606E+02  0.51100000000E-03 0. -1.
        -11    1    3    3    0    0  0.47491555519E+01  0.94974103605E+01 -0.20074452304E+01  0.10806716367E+02  0.51100000000E-03 0.  1.
        -12    1    3    3    0    0 -0.30717811138E+02  0.11586395171E+02 -0.19121114753E+02  0.37992703294E+02  0.00000000000E+00 0.  1.
</event>
<event>
 7    1  0.6164995E-012  0.5930194E+02  0.7816164E-02  0.1266605E+00
        -11   -1    0    0    0    0  0.00000000000E+00  0.00000000000E+00  0.45593999997E+02  0.45594000000E+02  0.51100000000E-03 0.  1.
         11   -1    0    0    0    0 -0.00000000000E+00 -0.00000000000E+00 -0.45593999997E+02  0.45594000000E+02  0.51100000000E-03 0. -1.
    9900012    2    1    2    0    0 -0.30656876059E+01 -0.10176163380E+02  0.30062738234E+02  0.59301937657E+02  0.49999988381E+02 0.  0.
         12    1    1    2    0    0  0.30656876059E+01  0.10176163380E+02 -0.30062738234E+02  0.31886062343E+02  0.00000000000E+00 0. -1.
         11    1    3    3    0    0  0.20983162286E+00  0.11137307252E+02  0.13848664896E+02  0.17772708342E+02  0.51100000000E-03 0. -1.
        -11    1    3    3    0    0 -0.13875339900E+02 -0.12058984348E+02  0.19789759585E+02  0.27010715384E+02  0.51100000000E-03 0.  1.
         12    1    3    3    0    0  0.10599820671E+02 -0.92544862839E+01 -0.35756862472E+01  0.14518513931E+02  0.00000000000E+00 0. -1.
</event>
<event>
 7    1  0.6164995E-012  0.5930194E+02  0.7816164E-02  0.1266605E+00
        -11   -1    0    0    0    0  0.00000000000E+00  0.00000000000E+00  0.45593999997E+02  0.45594000000E+02  0.51100000000E-03 0.  1.
         11   -1    0    0    0    0 -0.00000000000E+00 -0.00000000000E+00 -0.45593999997E+02  0.45594000000E+02  0.51100000000E-03 0. -1.
    9900012    2    1    2    0    0 -0.16405260978E+02  0.73444661692E+01  0.26337177651E+02  0.59301941954E+02  0.49999996219E+02 0.  0.
         12    1    1    2    0    0  0.16405260978E+02 -0.73444661692E+01 -0.26337177651E+02  0.31886058046E+02  0.00000000000E+00 0. -1.
         11    1    3    3    0    0 -0.70709708353E+01 -0.17654854221E+02  0.93342475796E+01  0.21185388461E+02  0.51100000000E-03 0. -1.
        -11    1    3    3    0    0  0.40275040116E+01  0.17231491849E+02  0.13529615275E+02  0.22275448136E+02  0.51100000000E-03 0.  1.
        -12    1    3    3    0    0 -0.13361794155E+02  0.77678285403E+01  0.34733147961E+01  0.15841105357E+02  0.00000000000E+00 0.  1.
</event>
<event>
 7    1  0.6164995E-012  0.5930199E+02  0.7816164E-02  0.1266605E+00
        -11   -1    0    0    0    0  0.00000000000E+00  0.00000000000E+00  0.45593999997E+02  0.45594000000E+02  0.51100000000E-03 0. -1.
         11   -1    0    0    0    0 -0.00000000000E+00 -0.00000000000E+00 -0.45593999997E+02  0.45594000000E+02  0.51100000000E-03 0.  1.
    9900012    2    1    2    0    0 -0.15236992103E+01  0.31349915510E+02 -0.56195101989E+01  0.59301988073E+02  0.50000080327E+02 0.  0.
         12    1    1    2    0    0  0.15236992103E+01 -0.31349915510E+02  0.56195101989E+01  0.31886011927E+02  0.00000000000E+00 0. -1.
         11    1    3    3    0    0  0.47744387753E+01 -0.52690495125E+01  0.52453282104E+01  0.88358144322E+01  0.51100000000E-03 0. -1.
        -11    1    3    3    0    0 -0.16869425027E+02  0.78101240274E+01 -0.37193378459E+01  0.18958085671E+02  0.51100000000E-03 0.  1.
        -12    1    3    3    0    0  0.10571287041E+02  0.28808840995E+02 -0.71455005634E+01  0.31508087969E+02  0.00000000000E+00 0.  1.
</event>
<event>
 7    1  0.6164995E-012  0.5930192E+02  0.7816164E-02  0.1266605E+00
        -11   -1    0    0    0    0  0.00000000000E+00  0.00000000000E+00  0.45593999997E+02  0.45594000000E+02  0.51100000000E-03 0.  1.
         11   -1    0    0    0    0 -0.00000000000E+00 -0.00000000000E+00 -0.45593999997E+02  0.45594000000E+02  0.51100000000E-03 0. -1.
    9900012    2    1    2    0    0  0.11407978695E+02 -0.24068940802E+01  0.29678058961E+02  0.59301916817E+02  0.49999950375E+02 0.  0.
         12    1    1    2    0    0 -0.11407978695E+02  0.24068940802E+01 -0.29678058961E+02  0.31886083183E+02  0.00000000000E+00 0. -1.
         11    1    3    3    0    0  0.20076422329E+02  0.87695794363E+00 -0.46814435650E+01  0.20633654617E+02  0.51100000000E-03 0. -1.
        -11    1    3    3    0    0  0.34223212772E+00 -0.76927049411E+01  0.15455723198E+02  0.17267721679E+02  0.51100000000E-03 0.  1.
        -12    1    3    3    0    0 -0.90106757613E+01  0.44088529173E+01  0.18903779328E+02  0.21400540521E+02  0.00000000000E+00 0.  1.
</event>
<event>
 7    1  0.6164995E-012  0.5930196E+02  0.7816164E-02  0.1266605E+00
        -11   -1    0    0    0    0  0.00000000000E+00  0.00000000000E+00  0.45593999997E+02  0.45594000000E+02  0.51100000000E-03 0.  1.
         11   -1    0    0    0    0 -0.00000000000E+00 -0.00000000000E+00 -0.45593999997E+02  0.45594000000E+02  0.51100000000E-03 0. -1.
    9900012    2    1    2    0    0 -0.30196577942E+02 -0.10166175226E+02 -0.12390691402E+01  0.59301957122E+02  0.50000023880E+02 0.  0.
         12    1    1    2    0    0  0.30196577942E+02  0.10166175226E+02  0.12390691402E+01  0.31886042878E+02  0.00000000000E+00 0. -1.
         11    1    3    3    0    0 -0.16194509346E+02  0.49707848763E+01 -0.10058313239E+02  0.19701281703E+02  0.51100000000E-03 0. -1.
        -11    1    3    3    0    0 -0.54489108966E+01  0.76389611435E+01  0.11815281454E+02  0.15087916802E+02  0.51100000000E-03 0.  1.
         12    1    3    3    0    0 -0.85531576985E+01 -0.22775921246E+02 -0.29960373550E+01  0.24512758617E+02  0.00000000000E+00 0. -1.
</event>
<event>
 7    1  0.6164995E-012  0.5930196E+02  0.7816164E-02  0.1266605E+00
        -11   -1    0    0    0    0  0.00000000000E+00  0.00000000000E+00  0.45593999997E+02  0.45594000000E+02  0.51100000000E-03 0.  1.
         11   -1    0    0    0    0 -0.00000000000E+00 -0.00000000000E+00 -0.45593999997E+02  0.45594000000E+02  0.51100000000E-03 0. -1.
    9900012    2    1    2    0    0 -0.21853183417E+02  0.23219573842E+02 -0.95208724231E-01  0.59301963878E+02  0.50000036202E+02 0.  0.
         12    1    1    2    0    0  0.21853183417E+02 -0.23219573842E+02  0.95208724231E-01  0.31886036122E+02  0.00000000000E+00 0. -1.
         11    1    3    3    0    0  0.62168077291E+00  0.13664333272E+01 -0.14985772209E+02  0.15060776739E+02  0.51100000000E-03 0. -1.
        -11    1    3    3    0    0  0.60998324439E+01  0.27098499395E+01  0.53328387209E+01  0.85434426096E+01  0.51100000000E-03 0.  1.
        -12    1    3    3    0    0 -0.28574696634E+02  0.19143290575E+02  0.95577247642E+01  0.35697744529E+02  0.00000000000E+00 0.  1.
</event>
<event>
 7    1  0.6164995E-012  0.5930199E+02  0.7816164E-02  0.1266605E+00
        -11   -1    0    0    0    0  0.00000000000E+00  0.00000000000E+00  0.45593999997E+02  0.45594000000E+02  0.51100000000E-03 0.  1.
         11   -1    0    0    0    0 -0.00000000000E+00 -0.00000000000E+00 -0.45593999997E+02  0.45594000000E+02  0.51100000000E-03 0. -1.
    9900012    2    1    2    0    0 -0.29503231025E+02 -0.28098392409E+01  0.11763590023E+02  0.59301986017E+02  0.50000076579E+02 0.  0.
         12    1    1    2    0    0  0.29503231025E+02  0.28098392409E+01 -0.11763590023E+02  0.31886013983E+02  0.00000000000E+00 0. -1.
         11    1    3    3    0    0 -0.11806040117E+02 -0.13124327351E+02 -0.44146906092E+01  0.18196704237E+02  0.51100000000E-03 0. -1.
        -11    1    3    3    0    0 -0.14380854617E+02  0.18705287712E+01 -0.70817569356E+01  0.16138746511E+02  0.51100000000E-03 0.  1.
        -12    1    3    3    0    0 -0.33163362912E+01  0.84439593386E+01  0.23260037568E+02  0.24966535269E+02  0.00000000000E+00 0.  1.
</event>
<event>
 7    1  0.6164995E-012  0.5930196E+02  0.7816164E-02  0.1266605E+00
        -11   -1    0    0    0    0  0.00000000000E+00  0.00000000000E+00  0.45593999997E+02  0.45594000000E+02  0.51100000000E-03 0. -1.
         11   -1    0    0    0    0 -0.00000000000E+00 -0.00000000000E+00 -0.45593999997E+02  0.45594000000E+02  0.51100000000E-03 0.  1.
    9900012    2    1    2    0    0  0.42553838140E+01 -0.29985261737E+02 -0.99747296786E+01  0.59301961598E+02  0.50000032044E+02 0.  0.
         12    1    1    2    0    0 -0.42553838140E+01  0.29985261737E+02  0.99747296786E+01  0.31886038402E+02  0.00000000000E+00 0. -1.
         11    1    3    3    0    0 -0.56190015710E+01 -0.15690391344E+02 -0.71995153654E+01  0.18154739903E+02  0.51100000000E-03 0. -1.
        -11    1    3    3    0    0 -0.14159645670E+02 -0.62157340193E+01  0.10739586023E+01  0.15501106484E+02  0.51100000000E-03 0.  1.
         12    1    3    3    0    0  0.24034031055E+02 -0.80791363734E+01 -0.38491729155E+01  0.25646115211E+02  0.00000000000E+00 0. -1.
</event>
<event>
 7    1  0.6164995E-012  0.5930193E+02  0.7816164E-02  0.1266605E+00
        -11   -1    0    0    0    0  0.00000000000E+00  0.00000000000E+00  0.45593999997E+02  0.45594000000E+02  0.51100000000E-03 0.  1.
         11   -1    0    0    0    0 -0.00000000000E+00 -0.00000000000E+00 -0.45593999997E+02  0.45594000000E+02  0.51100000000E-03 0. -1.
    9900012    2    1    2    0    0 -0.29091184838E+02  0.94892610151E+01  0.89654049718E+01  0.59301927865E+02  0.49999970523E+02 0.  0.
         12    1    1    2    0    0  0.29091184838E+02 -0.94892610151E+01 -0.89654049718E+01  0.31886072135E+02  0.00000000000E+00 0. -1.
         11    1    3    3    0    0 -0.18969717585E+02  0.12640495836E+02 -0.42503288508E+01  0.23188307740E+02  0.51100000000E-03 0. -1.
        -11    1    3    3    0    0 -0.15378774146E+02  0.32356448123E+01  0.19985493039E+02  0.25424319536E+02  0.51100000000E-03 0.  1.
         12    1    3    3    0    0  0.52573068935E+01 -0.63868796337E+01 -0.67697592163E+01  0.10689300589E+02  0.00000000000E+00 0. -1.
</event>
<event>
 7    1  0.6164995E-012  0.5930174E+02  0.7816164E-02  0.1266605E+00
        -11   -1    0    0    0    0  0.00000000000E+00  0.00000000000E+00  0.45593999997E+02  0.45594000000E+02  0.51100000000E-03 0.  1.
         11   -1    0    0    0    0 -0.00000000000E+00 -0.00000000000E+00 -0.45593999997E+02  0.45594000000E+02  0.51100000000E-03 0. -1.
    9900012    2    1    2    0    0 -0.30985147316E+02  0.53572134557E+01 -0.52872131744E+01  0.59301737858E+02  0.49999623995E+02 0.  0.
         12    1    1    2    0    0  0.30985147316E+02 -0.53572134557E+01  0.52872131744E+01  0.31886262142E+02  0.00000000000E+00 0. -1.
         11    1    3    3    0    0  0.81868110391E+00  0.76324222721E+01 -0.38769468080E+01  0.85996991402E+01  0.51100000000E-03 0. -1.
        -11    1    3    3    0    0 -0.87616751738E+01  0.16321216032E+02 -0.83032083610E+01  0.20300056994E+02  0.51100000000E-03 0.  1.
        -12    1    3    3    0    0 -0.23042153247E+02 -0.18596424849E+02  0.68929419946E+01  0.30401981724E+02  0.00000000000E+00 0.  1.
</event>
<event>
 7    1  0.6164995E-012  0.5930199E+02  0.7816164E-02  0.1266605E+00
        -11   -1    0    0    0    0  0.00000000000E+00  0.00000000000E+00  0.45593999997E+02  0.45594000000E+02  0.51100000000E-03 0.  1.
         11   -1    0    0    0    0 -0.00000000000E+00 -0.00000000000E+00 -0.45593999997E+02  0.45594000000E+02  0.51100000000E-03 0. -1.
    9900012    2    1    2    0    0  0.87173936725E+01 -0.43854859802E+01  0.30356089047E+02  0.59301990812E+02  0.50000085323E+02 0.  0.
         12    1    1    2    0    0 -0.87173936725E+01  0.43854859802E+01 -0.30356089047E+02  0.31886009188E+02  0.00000000000E+00 0. -1.
         11    1    3    3    0    0  0.20593099264E+02  0.87146688267E+01  0.17534119904E+02  0.28415955925E+02  0.51100000000E-03 0. -1.
        -11    1    3    3    0    0  0.50048899965E-01 -0.34419332061E+01  0.14996560556E+02  0.15386560300E+02  0.51100000000E-03 0.  1.
        -12    1    3    3    0    0 -0.11925754491E+02 -0.96582216008E+01 -0.21745914135E+01  0.15499474587E+02  0.00000000000E+00 0.  1.
</event>
<event>
 7    1  0.6164995E-012  0.5930193E+02  0.7816164E-02  0.1266605E+00
        -11   -1    0    0    0    0  0.00000000000E+00  0.00000000000E+00  0.45593999997E+02  0.45594000000E+02  0.51100000000E-03 0.  1.
         11   -1    0    0    0    0 -0.00000000000E+00 -0.00000000000E+00 -0.45593999997E+02  0.45594000000E+02  0.51100000000E-03 0. -1.
    9900012    2    1    2    0    0  0.80058806242E+01 -0.23984854863E+02  0.19425602848E+02  0.59301930418E+02  0.49999975179E+02 0.  0.
         12    1    1    2    0    0 -0.80058806242E+01  0.23984854863E+02 -0.19425602848E+02  0.31886069582E+02  0.00000000000E+00 0. -1.
         11    1    3    3    0    0  0.47660959192E+01 -0.38368188627E+01  0.25538948688E+02  0.26261659309E+02  0.51100000000E-03 0. -1.
        -11    1    3    3    0    0  0.12472350135E+02 -0.27800037643E+01 -0.18159359310E+01  0.12906802950E+02  0.51100000000E-03 0.  1.
         12    1    3    3    0    0 -0.92325654300E+01 -0.17368032236E+02 -0.42974099098E+01  0.20133468159E+02  0.00000000000E+00 0. -1.
</event>
<event>
 7    1  0.6164995E-012  0.5930194E+02  0.7816164E-02  0.1266605E+00
        -11   -1    0    0    0    0  0.00000000000E+00  0.00000000000E+00  0.45593999997E+02  0.45594000000E+02  0.51100000000E-03 0.  1.
         11   -1    0    0    0    0 -0.00000000000E+00 -0.00000000000E+00 -0.45593999997E+02  0.45594000000E+02  0.51100000000E-03 0. -1.
    9900012    2    1    2    0    0 -0.10625576362E+02 -0.47120994422E+01  0.29691981568E+02  0.59301944684E+02  0.50000001198E+02 0.  0.
         12    1    1    2    0    0  0.10625576362E+02  0.47120994422E+01 -0.29691981568E+02  0.31886055316E+02  0.00000000000E+00 0. -1.
         11    1    3    3    0    0  0.17129219510E+01  0.97138330354E+00  0.78918780091E+01  0.81338444725E+01  0.51100000000E-03 0. -1.
        -11    1    3    3    0    0  0.15642524512E+02 -0.39642927505E+01  0.15625388744E+02  0.22462345465E+02  0.51100000000E-03 0.  1.
         12    1    3    3    0    0 -0.27981022825E+02 -0.17191899952E+01  0.61747148145E+01  0.28705754747E+02  0.00000000000E+00 0. -1.
</event>
<event>
 7    1  0.6164995E-012  0.5930191E+02  0.7816164E-02  0.1266605E+00
        -11   -1    0    0    0    0  0.00000000000E+00  0.00000000000E+00  0.45593999997E+02  0.45594000000E+02  0.51100000000E-03 0. -1.
         11   -1    0    0    0    0 -0.00000000000E+00 -0.00000000000E+00 -0.45593999997E+02  0.45594000000E+02  0.51100000000E-03 0.  1.
    9900012    2    1    2    0    0 -0.19720687874E+02 -0.21725377334E+02 -0.12483002703E+02  0.59301907310E+02  0.49999933036E+02 0.  0.
         12    1    1    2    0    0  0.19720687874E+02  0.21725377334E+02  0.12483002703E+02  0.31886092690E+02  0.00000000000E+00 0. -1.
         11    1    3    3    0    0 -0.22174980356E+01  0.19187200902E+01 -0.15069079480E+02  0.15351740649E+02  0.51100000000E-03 0.  1.
        -11    1    3    3    0    0 -0.20962421123E+02 -0.57550357379E+01  0.10432750528E+02  0.24111943503E+02  0.51100000000E-03 0. -1.
         12    1    3    3    0    0  0.34592312847E+01 -0.17889061687E+02 -0.78466737510E+01  0.19838223158E+02  0.00000000000E+00 0. -1.
</event>
<event>
 7    1  0.6164995E-012  0.5930196E+02  0.7816164E-02  0.1266605E+00
        -11   -1    0    0    0    0  0.00000000000E+00  0.00000000000E+00  0.45593999997E+02  0.45594000000E+02  0.51100000000E-03 0.  1.
         11   -1    0    0    0    0 -0.00000000000E+00 -0.00000000000E+00 -0.45593999997E+02  0.45594000000E+02  0.51100000000E-03 0. -1.
    9900012    2    1    2    0    0 -0.14502114033E+02 -0.21445948939E+02  0.18613964004E+02  0.59301957705E+02  0.50000024944E+02 0.  0.
         12    1    1    2    0    0  0.14502114033E+02  0.21445948939E+02 -0.18613964004E+02  0.31886042295E+02  0.00000000000E+00 0. -1.
         11    1    3    3    0    0 -0.11157926969E+02  0.24802719792E+01 -0.12846284855E+02  0.17195293489E+02  0.51100000000E-03 0.  1.
        -11    1    3    3    0    0 -0.98520668463E+00  0.16013541994E+01  0.46319355641E+01  0.49989793773E+01  0.51100000000E-03 0. -1.
        -12    1    3    3    0    0 -0.23589803788E+01 -0.25527575118E+02  0.26828313295E+02  0.37107684838E+02  0.00000000000E+00 0.  1.
</event>
<event>
 7    1  0.6164995E-012  0.5930195E+02  0.7816164E-02  0.1266605E+00
        -11   -1    0    0    0    0  0.00000000000E+00  0.00000000000E+00  0.45593999997E+02  0.45594000000E+02  0.51100000000E-03 0. -1.
         11   -1    0    0    0    0 -0.00000000000E+00 -0.00000000000E+00 -0.45593999997E+02  0.45594000000E+02  0.51100000000E-03 0.  1.
    9900012    2    1    2    0    0  0.24112879325E+02 -0.18904482114E+02 -0.88266680839E+01  0.59301945638E+02  0.50000002936E+02 0.  0.
         12    1    1    2    0    0 -0.24112879325E+02  0.18904482114E+02  0.88266680839E+01  0.31886054362E+02  0.00000000000E+00 0. -1.
         11    1    3    3    0    0 -0.16845932832E+01  0.83832089429E+01 -0.10514110455E+02  0.13552216263E+02  0.51100000000E-03 0. -1.
        -11    1    3    3    0    0  0.76337430531E+01 -0.83682588524E+01 -0.11715878202E+02  0.16296121978E+02  0.51100000000E-03 0.  1.
         12    1    3    3    0    0  0.18163729555E+02 -0.18919432204E+02  0.13403320573E+02  0.29453607397E+02  0.00000000000E+00 0. -1.
</event>
<event>
 7    1  0.6164995E-012  0.5930194E+02  0.7816164E-02  0.1266605E+00
        -11   -1    0    0    0    0  0.00000000000E+00  0.00000000000E+00  0.45593999997E+02  0.45594000000E+02  0.51100000000E-03 0.  1.
         11   -1    0    0    0    0 -0.00000000000E+00 -0.00000000000E+00 -0.45593999997E+02  0.45594000000E+02  0.51100000000E-03 0. -1.
    9900012    2    1    2    0    0 -0.87773437382E+01 -0.27834505514E+02  0.12842103140E+02  0.59301936063E+02  0.49999985474E+02 0.  0.
         12    1    1    2    0    0  0.87773437382E+01  0.27834505514E+02 -0.12842103140E+02  0.31886063937E+02  0.00000000000E+00 0. -1.
         11    1    3    3    0    0  0.13935175754E+02 -0.25496456191E+02  0.41742244709E+01  0.29354429850E+02  0.51100000000E-03 0. -1.
        -11    1    3    3    0    0 -0.20164102711E+01 -0.71013521584E+01  0.14969529883E+01  0.75323290800E+01  0.51100000000E-03 0.  1.
        -12    1    3    3    0    0 -0.20696109221E+02  0.47633028351E+01  0.71709256811E+01  0.22415177133E+02  0.00000000000E+00 0.  1.
</event>
<event>
 7    1  0.6164995E-012  0.5930190E+02  0.7816164E-02  0.1266605E+00
        -11   -1    0    0    0    0  0.00000000000E+00  0.00000000000E+00  0.45593999997E+02  0.45594000000E+02  0.51100000000E-03 0.  1.
         11   -1    0    0    0    0 -0.00000000000E+00 -0.00000000000E+00 -0.45593999997E+02  0.45594000000E+02  0.51100000000E-03 0. -1.
    9900012    2    1    2    0    0 -0.75443934928E+01  0.17734342773E+02  0.25402725701E+02  0.59301901778E+02  0.49999922947E+02 0.  0.
         12    1    1    2    0    0  0.75443934928E+01 -0.17734342773E+02 -0.25402725701E+02  0.31886098222E+02  0.00000000000E+00 0. -1.
         11    1    3    3    0    0  0.13051938340E+01 -0.41754755039E+01 -0.16819819303E+01  0.46869169080E+01  0.51100000000E-03 0. -1.
        -11    1    3    3    0    0 -0.11571637158E+02 -0.10052515141E+02  0.94956488222E+01  0.18031172840E+02  0.51100000000E-03 0.  1.
         12    1    3    3    0    0  0.27220498309E+01  0.31962333418E+02  0.17589058809E+02  0.36583812030E+02  0.00000000000E+00 0. -1.
</event>
<event>
 7    1  0.6164995E-012  0.5930194E+02  0.7816164E-02  0.1266605E+00
        -11   -1    0    0    0    0  0.00000000000E+00  0.00000000000E+00  0.45593999997E+02  0.45594000000E+02  0.51100000000E-03 0.  1.
         11   -1    0    0    0    0 -0.00000000000E+00 -0.00000000000E+00 -0.45593999997E+02  0.45594000000E+02  0.51100000000E-03 0. -1.
    9900012    2    1    2    0    0  0.10683933212E+02  0.42664569751E+01  0.29738390981E+02  0.59301937494E+02  0.49999988083E+02 0.  0.
         12    1    1    2    0    0 -0.10683933212E+02 -0.42664569751E+01 -0.29738390981E+02  0.31886062506E+02  0.00000000000E+00 0. -1.
         11    1    3    3    0    0  0.86185292461E+01  0.98497588870E+01  0.98821603585E+01  0.16399813722E+02  0.51100000000E-03 0. -1.
        -11    1    3    3    0    0  0.68394041684E+01 -0.20219180464E+02  0.16902338359E+02  0.27226489863E+02  0.51100000000E-03 0.  1.
         12    1    3    3    0    0 -0.47740002025E+01  0.14635878552E+02  0.29538922637E+01  0.15675633908E+02  0.00000000000E+00 0. -1.
</event>
<event>
 7    1  0.6164995E-012  0.5930195E+02  0.7816164E-02  0.1266605E+00
        -11   -1    0    0    0    0  0.00000000000E+00  0.00000000000E+00  0.45593999997E+02  0.45594000000E+02  0.51100000000E-03 0.  1.
         11   -1    0    0    0    0 -0.00000000000E+00 -0.00000000000E+00 -0.45593999997E+02  0.45594000000E+02  0.51100000000E-03 0. -1.
    9900012    2    1    2    0    0  0.49865247551E+01 -0.15285816096E+02  0.27535404468E+02  0.59301951294E+02  0.50000013252E+02 0.  0.
         12    1    1    2    0    0 -0.49865247551E+01  0.15285816096E+02 -0.27535404468E+02  0.31886048706E+02  0.00000000000E+00 0. -1.
         11    1    3    3    0    0  0.21086101745E+02 -0.66994418061E+01  0.24210540431E+02  0.32797202251E+02  0.51100000000E-03 0. -1.
        -11    1    3    3    0    0 -0.15174875444E+01 -0.10548739258E+02  0.48564835553E+01  0.11711707867E+02  0.51100000000E-03 0.  1.
         12    1    3    3    0    0 -0.14582089445E+02  0.19623649681E+01 -0.15316195179E+01  0.14793041175E+02  0.00000000000E+00 0. -1.
</event>
<event>
 7    1  0.6164995E-012  0.5930194E+02  0.7816164E-02  0.1266605E+00
        -11   -1    0    0    0    0  0.00000000000E+00  0.00000000000E+00  0.45593999997E+02  0.45594000000E+02  0.51100000000E-03 0. -1.
         11   -1    0    0    0    0 -0.00000000000E+00 -0.00000000000E+00 -0.45593999997E+02  0.45594000000E+02  0.51100000000E-03 0.  1.
    9900012    2    1    2    0    0  0.24480423716E+02  0.19468189160E+01 -0.20338129191E+02  0.59301941162E+02  0.49999994774E+02 0.  0.
         12    1    1    2    0    0 -0.24480423716E+02 -0.19468189160E+01  0.20338129191E+02  0.31886058838E+02  0.00000000000E+00 0. -1.
         11    1    3    3    0    0  0.20163503863E+02 -0.77224012249E+01  0.98807524863E+00  0.21614316128E+02  0.51100000000E-03 0.  1.
        -11    1    3    3    0    0  0.65074528260E+01  0.16718915988E+02 -0.33448067314E+01  0.18249844559E+02  0.51100000000E-03 0. -1.
         12    1    3    3    0    0 -0.21905329728E+01 -0.70496958474E+01 -0.17981397708E+02  0.19437780475E+02  0.00000000000E+00 0. -1.
</event>
<event>
 7    1  0.6164995E-012  0.5930193E+02  0.7816164E-02  0.1266605E+00
        -11   -1    0    0    0    0  0.00000000000E+00  0.00000000000E+00  0.45593999997E+02  0.45594000000E+02  0.51100000000E-03 0. -1.
         11   -1    0    0    0    0 -0.00000000000E+00 -0.00000000000E+00 -0.45593999997E+02  0.45594000000E+02  0.51100000000E-03 0.  1.
    9900012    2    1    2    0    0 -0.12078246612E+01 -0.17701302873E+02 -0.26493891297E+02  0.59301933452E+02  0.49999980713E+02 0.  0.
         12    1    1    2    0    0  0.12078246612E+01  0.17701302873E+02  0.26493891297E+02  0.31886066548E+02  0.00000000000E+00 0. -1.
         11    1    3    3    0    0 -0.26012885417E+00 -0.32136415468E+01  0.22144626246E+01  0.39113941234E+01  0.51100000000E-03 0. -1.
        -11    1    3    3    0    0 -0.19060328986E+02 -0.17964373243E+02 -0.74169719381E+01  0.27221798619E+02  0.51100000000E-03 0.  1.
        -12    1    3    3    0    0  0.18112633179E+02  0.34767119166E+01 -0.21291381983E+02  0.28168740710E+02  0.00000000000E+00 0.  1.
</event>
<event>
 7    1  0.6164995E-012  0.5930191E+02  0.7816164E-02  0.1266605E+00
        -11   -1    0    0    0    0  0.00000000000E+00  0.00000000000E+00  0.45593999997E+02  0.45594000000E+02  0.51100000000E-03 0.  1.
         11   -1    0    0    0    0 -0.00000000000E+00 -0.00000000000E+00 -0.45593999997E+02  0.45594000000E+02  0.51100000000E-03 0. -1.
    9900012    2    1    2    0    0  0.52931537672E+01 -0.25743232824E+02  0.18055233044E+02  0.59301906585E+02  0.49999931713E+02 0.  0.
         12    1    1    2    0    0 -0.52931537672E+01  0.25743232824E+02 -0.18055233044E+02  0.31886093415E+02  0.00000000000E+00 0. -1.
         11    1    3    3    0    0 -0.77080313704E+01  0.65818076174E+01 -0.12460948894E+00  0.10136541171E+02  0.51100000000E-03 0. -1.
        -11    1    3    3    0    0 -0.91455829654E+01 -0.48628283416E+01  0.32413817060E+01  0.10853356296E+02  0.51100000000E-03 0.  1.
        -12    1    3    3    0    0  0.22146768103E+02 -0.27462212099E+02  0.14938460827E+02  0.38312009118E+02  0.00000000000E+00 0.  1.
</event>
<event>
 7    1  0.6164995E-012  0.5930194E+02  0.7816164E-02  0.1266605E+00
        -11   -1    0    0    0    0  0.00000000000E+00  0.00000000000E+00  0.45593999997E+02  0.45594000000E+02  0.51100000000E-03 0. -1.
         11   -1    0    0    0    0 -0.00000000000E+00 -0.00000000000E+00 -0.45593999997E+02  0.45594000000E+02  0.51100000000E-03 0.  1.
    9900012    2    1    2    0    0 -0.18813511875E+02  0.20636237034E+02 -0.15392159984E+02  0.59301935693E+02  0.49999984800E+02 0.  0.
         12    1    1    2    0    0  0.18813511875E+02 -0.20636237034E+02  0.15392159984E+02  0.31886064307E+02  0.00000000000E+00 0. -1.
         11    1    3    3    0    0  0.29445354569E+01 -0.31475008163E+01 -0.20928972250E+01  0.47913744897E+01  0.51100000000E-03 0. -1.
        -11    1    3    3    0    0 -0.65346674863E+01 -0.56522706594E+01  0.10583121745E+02  0.13662082890E+02  0.51100000000E-03 0.  1.
        -12    1    3    3    0    0 -0.15223379846E+02  0.29436008509E+02 -0.23882384505E+02  0.40848478313E+02  0.00000000000E+00 0.  1.
</event>
<event>
 7    1  0.6164995E-012  0.5930194E+02  0.7816164E-02  0.1266605E+00
        -11   -1    0    0    0    0  0.00000000000E+00  0.00000000000E+00  0.45593999997E+02  0.45594000000E+02  0.51100000000E-03 0.  1.
         11   -1    0    0    0    0 -0.00000000000E+00 -0.00000000000E+00 -0.45593999997E+02  0.45594000000E+02  0.51100000000E-03 0. -1.
    9900012    2    1    2    0    0 -0.16415854836E+02 -0.12654002032E+02  0.24230488704E+02  0.59301942854E+02  0.49999997860E+02 0.  0.
         12    1    1    2    0    0  0.16415854836E+02  0.12654002032E+02 -0.24230488704E+02  0.31886057146E+02  0.00000000000E+00 0. -1.
         11    1    3    3    0    0  0.57152076397E+01 -0.77185589816E+01  0.11327579935E+01  0.96707234502E+01  0.51100000000E-03 0. -1.
        -11    1    3    3    0    0 -0.66998860310E+01 -0.16941199159E+02 -0.14190379436E+01  0.18273105120E+02  0.51100000000E-03 0.  1.
        -12    1    3    3    0    0 -0.15431176445E+02  0.12005756108E+02  0.24516768654E+02  0.31358114284E+02  0.00000000000E+00 0.  1.
</event>
<event>
 7    1  0.6164995E-012  0.5930214E+02  0.7816164E-02  0.1266604E+00
        -11   -1    0    0    0    0  0.00000000000E+00  0.00000000000E+00  0.45593999997E+02  0.45594000000E+02  0.51100000000E-03 0.  1.
         11   -1    0    0    0    0 -0.00000000000E+00 -0.00000000000E+00 -0.45593999997E+02  0.45594000000E+02  0.51100000000E-03 0. -1.
    9900012    2    1    2    0    0  0.77519662490E+01  0.14526887555E+02  0.27305400143E+02  0.59302136051E+02  0.50000350203E+02 0.  0.
         12    1    1    2    0    0 -0.77519662490E+01 -0.14526887555E+02 -0.27305400143E+02  0.31885863949E+02  0.00000000000E+00 0. -1.
         11    1    3    3    0    0 -0.48502103885E+01  0.14298816442E+02  0.25024930017E+02  0.29227175968E+02  0.51100000000E-03 0. -1.
        -11    1    3    3    0    0  0.70796996825E+01 -0.11440746511E+02  0.83237815531E+01  0.15820814389E+02  0.51100000000E-03 0.  1.
         12    1    3    3    0    0  0.55224769550E+01  0.11668817624E+02 -0.60433114267E+01  0.14254145694E+02  0.00000000000E+00 0. -1.
</event>
<event>
 7    1  0.6164995E-012  0.5930199E+02  0.7816164E-02  0.1266605E+00
        -11   -1    0    0    0    0  0.00000000000E+00  0.00000000000E+00  0.45593999997E+02  0.45594000000E+02  0.51100000000E-03 0.  1.
         11   -1    0    0    0    0 -0.00000000000E+00 -0.00000000000E+00 -0.45593999997E+02  0.45594000000E+02  0.51100000000E-03 0. -1.
    9900012    2    1    2    0    0 -0.23887684277E+02  0.47158404807E+01  0.20587787985E+02  0.59301990127E+02  0.50000084073E+02 0.  0.
         12    1    1    2    0    0  0.23887684277E+02 -0.47158404807E+01 -0.20587787985E+02  0.31886009873E+02  0.00000000000E+00 0. -1.
         11    1    3    3    0    0 -0.23071247726E+01 -0.96649917465E+01 -0.10058911878E+02  0.14139186632E+02  0.51100000000E-03 0. -1.
        -11    1    3    3    0    0 -0.62016513929E+01 -0.26209192047E+01  0.17465469545E+02  0.18718235070E+02  0.51100000000E-03 0.  1.
        -12    1    3    3    0    0 -0.15378908111E+02  0.17001751432E+02  0.13181230318E+02  0.26444568424E+02  0.00000000000E+00 0.  1.
</event>
<event>
 7    1  0.6164995E-012  0.5930195E+02  0.7816164E-02  0.1266605E+00
        -11   -1    0    0    0    0  0.00000000000E+00  0.00000000000E+00  0.45593999997E+02  0.45594000000E+02  0.51100000000E-03 0.  1.
         11   -1    0    0    0    0 -0.00000000000E+00 -0.00000000000E+00 -0.45593999997E+02  0.45594000000E+02  0.51100000000E-03 0. -1.
    9900012    2    1    2    0    0  0.30003470490E+02  0.43467867208E+01  0.98801528712E+01  0.59301949492E+02  0.50000009965E+02 0.  0.
         12    1    1    2    0    0 -0.30003470490E+02 -0.43467867208E+01 -0.98801528712E+01  0.31886050508E+02  0.00000000000E+00 0. -1.
         11    1    3    3    0    0 -0.63793994472E+01 -0.45891898319E+01  0.65249523980E+01  0.10214323506E+02  0.51100000000E-03 0. -1.
        -11    1    3    3    0    0  0.14330118831E+02 -0.69206560721E+01  0.12703356435E+02  0.20362294840E+02  0.51100000000E-03 0.  1.
         12    1    3    3    0    0  0.22052751106E+02  0.15856632625E+02 -0.93481559616E+01  0.28725331146E+02  0.00000000000E+00 0. -1.
</event>
<event>
 7    1  0.6164995E-012  0.5930185E+02  0.7816164E-02  0.1266605E+00
        -11   -1    0    0    0    0  0.00000000000E+00  0.00000000000E+00  0.45593999997E+02  0.45594000000E+02  0.51100000000E-03 0. -1.
         11   -1    0    0    0    0 -0.00000000000E+00 -0.00000000000E+00 -0.45593999997E+02  0.45594000000E+02  0.51100000000E-03 0.  1.
    9900012    2    1    2    0    0 -0.90406538559E+01 -0.19555714590E+02 -0.23506744141E+02  0.59301852296E+02  0.49999832703E+02 0.  0.
         12    1    1    2    0    0  0.90406538559E+01  0.19555714590E+02  0.23506744141E+02  0.31886147704E+02  0.00000000000E+00 0. -1.
         11    1    3    3    0    0 -0.14431302032E+02 -0.53115871884E+01 -0.93623734804E+01  0.18003596148E+02  0.51100000000E-03 0. -1.
        -11    1    3    3    0    0  0.52740369958E+01  0.10248861857E+02 -0.12113418782E+02  0.16720931507E+02  0.51100000000E-03 0.  1.
         12    1    3    3    0    0  0.11661118071E+00 -0.24492989259E+02 -0.20309518785E+01  0.24577324641E+02  0.00000000000E+00 0. -1.
</event>
<event>
 7    1  0.6164995E-012  0.5930194E+02  0.7816164E-02  0.1266605E+00
        -11   -1    0    0    0    0  0.00000000000E+00  0.00000000000E+00  0.45593999997E+02  0.45594000000E+02  0.51100000000E-03 0.  1.
         11   -1    0    0    0    0 -0.00000000000E+00 -0.00000000000E+00 -0.45593999997E+02  0.45594000000E+02  0.51100000000E-03 0. -1.
    9900012    2    1    2    0    0 -0.26590047897E+02  0.17085561984E+02 -0.42158716418E+01  0.59301942715E+02  0.49999997607E+02 0.  0.
         12    1    1    2    0    0  0.26590047897E+02 -0.17085561984E+02  0.42158716418E+01  0.31886057285E+02  0.00000000000E+00 0. -1.
         11    1    3    3    0    0  0.27468476608E+01 -0.10046246789E+02  0.24634773705E+00  0.10417914095E+02  0.51100000000E-03 0. -1.
        -11    1    3    3    0    0 -0.10296654545E+02  0.22173909936E+02  0.78460840333E+01  0.25676144796E+02  0.51100000000E-03 0.  1.
        -12    1    3    3    0    0 -0.19040241013E+02  0.49578988369E+01 -0.12308303412E+02  0.23207883824E+02  0.00000000000E+00 0.  1.
</event>
<event>
 7    1  0.6164995E-012  0.5930195E+02  0.7816164E-02  0.1266605E+00
        -11   -1    0    0    0    0  0.00000000000E+00  0.00000000000E+00  0.45593999997E+02  0.45594000000E+02  0.51100000000E-03 0. -1.
         11   -1    0    0    0    0 -0.00000000000E+00 -0.00000000000E+00 -0.45593999997E+02  0.45594000000E+02  0.51100000000E-03 0.  1.
    9900012    2    1    2    0    0  0.11240004632E+01 -0.27618932211E+02 -0.15895004639E+02  0.59301953428E+02  0.50000017144E+02 0.  0.
         12    1    1    2    0    0 -0.11240004632E+01  0.27618932211E+02  0.15895004639E+02  0.31886046572E+02  0.00000000000E+00 0. -1.
         11    1    3    3    0    0 -0.39805157333E+01 -0.13915346401E+02  0.13159204188E+02  0.19561340089E+02  0.51100000000E-03 0. -1.
        -11    1    3    3    0    0  0.87588490249E+01 -0.12130762133E+02 -0.56388336149E+01  0.15989661378E+02  0.51100000000E-03 0.  1.
        -12    1    3    3    0    0 -0.36543328285E+01 -0.15728236769E+01 -0.23415375212E+02  0.23750951961E+02  0.00000000000E+00 0.  1.
</event>
<event>
 7    1  0.6164995E-012  0.5930190E+02  0.7816164E-02  0.1266605E+00
        -11   -1    0    0    0    0  0.00000000000E+00  0.00000000000E+00  0.45593999997E+02  0.45594000000E+02  0.51100000000E-03 0. -1.
         11   -1    0    0    0    0 -0.00000000000E+00 -0.00000000000E+00 -0.45593999997E+02  0.45594000000E+02  0.51100000000E-03 0.  1.
    9900012    2    1    2    0    0  0.66100884078E+01  0.29564904373E+02  0.99471881980E+01  0.59301899699E+02  0.49999919156E+02 0.  0.
         12    1    1    2    0    0 -0.66100884078E+01 -0.29564904373E+02 -0.99471881980E+01  0.31886100301E+02  0.00000000000E+00 0. -1.
         11    1    3    3    0    0  0.22132868588E+02  0.92557764242E+01  0.11944088726E+02  0.26799151570E+02  0.51100000000E-03 0. -1.
        -11    1    3    3    0    0  0.10859399250E+01  0.12505810622E+02  0.40363930631E+01  0.13185864934E+02  0.51100000000E-03 0.  1.
        -12    1    3    3    0    0 -0.16608720105E+02  0.78033173260E+01 -0.60332935905E+01  0.19316883195E+02  0.00000000000E+00 0.  1.
</event>
<event>
 7    1  0.6164995E-012  0.5930193E+02  0.7816164E-02  0.1266605E+00
        -11   -1    0    0    0    0  0.00000000000E+00  0.00000000000E+00  0.45593999997E+02  0.45594000000E+02  0.51100000000E-03 0.  1.
         11   -1    0    0    0    0 -0.00000000000E+00 -0.00000000000E+00 -0.45593999997E+02  0.45594000000E+02  0.51100000000E-03 0. -1.
    9900012    2    1    2    0    0 -0.10714363135E+02  0.19089771335E+02  0.23184142902E+02  0.59301930486E+02  0.49999975303E+02 0.  0.
         12    1    1    2    0    0  0.10714363135E+02 -0.19089771335E+02 -0.23184142902E+02  0.31886069514E+02  0.00000000000E+00 0. -1.
         11    1    3    3    0    0 -0.59306688588E+01  0.91449528697E+01  0.20631400686E+02  0.23333617179E+02  0.51100000000E-03 0.  1.
        -11    1    3    3    0    0 -0.74996985540E+01  0.37429003342E+00 -0.14441060747E+02  0.16276664498E+02  0.51100000000E-03 0. -1.
         12    1    3    3    0    0  0.27160042782E+01  0.95705284314E+01  0.16993802962E+02  0.19691648809E+02  0.00000000000E+00 0. -1.
</event>
<event>
 7    1  0.6164995E-012  0.5930195E+02  0.7816164E-02  0.1266605E+00
        -11   -1    0    0    0    0  0.00000000000E+00  0.00000000000E+00  0.45593999997E+02  0.45594000000E+02  0.51100000000E-03 0.  1.
         11   -1    0    0    0    0 -0.00000000000E+00 -0.00000000000E+00 -0.45593999997E+02  0.45594000000E+02  0.51100000000E-03 0. -1.
    9900012    2    1    2    0    0  0.30024741517E+02 -0.90011872010E+01  0.58492757377E+01  0.59301945041E+02  0.50000001848E+02 0.  0.
         12    1    1    2    0    0 -0.30024741517E+02  0.90011872010E+01 -0.58492757377E+01  0.31886054959E+02  0.00000000000E+00 0. -1.
         11    1    3    3    0    0  0.98079526970E+01 -0.82288859043E+01  0.68454687802E+01  0.14517952418E+02  0.51100000000E-03 0.  1.
        -11    1    3    3    0    0  0.13470125418E+02 -0.17487521305E+02 -0.10458212312E+02  0.24426049317E+02  0.51100000000E-03 0. -1.
         12    1    3    3    0    0  0.67466634016E+01  0.16715220009E+02  0.94620192699E+01  0.20357943306E+02  0.00000000000E+00 0. -1.
</event>
<event>
 7    1  0.6164995E-012  0.5930195E+02  0.7816164E-02  0.1266605E+00
        -11   -1    0    0    0    0  0.00000000000E+00  0.00000000000E+00  0.45593999997E+02  0.45594000000E+02  0.51100000000E-03 0. -1.
         11   -1    0    0    0    0 -0.00000000000E+00 -0.00000000000E+00 -0.45593999997E+02  0.45594000000E+02  0.51100000000E-03 0.  1.
    9900012    2    1    2    0    0  0.16876957543E+02  0.19175286106E+02 -0.19083938969E+02  0.59301952585E+02  0.50000015607E+02 0.  0.
         12    1    1    2    0    0 -0.16876957543E+02 -0.19175286106E+02  0.19083938969E+02  0.31886047415E+02  0.00000000000E+00 0. -1.
         11    1    3    3    0    0 -0.50527065789E+01  0.25840707602E+00 -0.76784306120E+01  0.91953746479E+01  0.51100000000E-03 0. -1.
        -11    1    3    3    0    0  0.18544303227E+02 -0.32033742141E+01 -0.18739226198E+02  0.26557699209E+02  0.51100000000E-03 0.  1.
        -12    1    3    3    0    0  0.33853608949E+01  0.22120253244E+02  0.73337178413E+01  0.23548878728E+02  0.00000000000E+00 0.  1.
</event>
<event>
 7    1  0.6164995E-012  0.5930194E+02  0.7816164E-02  0.1266605E+00
        -11   -1    0    0    0    0  0.00000000000E+00  0.00000000000E+00  0.45593999997E+02  0.45594000000E+02  0.51100000000E-03 0.  1.
         11   -1    0    0    0    0 -0.00000000000E+00 -0.00000000000E+00 -0.45593999997E+02  0.45594000000E+02  0.51100000000E-03 0. -1.
    9900012    2    1    2    0    0  0.69813812764E+01 -0.26884801138E+02 -0.15658492132E+02  0.59301943602E+02  0.49999999224E+02 0.  0.
         12    1    1    2    0    0 -0.69813812764E+01  0.26884801138E+02  0.15658492132E+02  0.31886056398E+02  0.00000000000E+00 0. -1.
         11    1    3    3    0    0 -0.32311617982E-02  0.24858594988E+01  0.10784336204E+02  0.11067132217E+02  0.51100000000E-03 0. -1.
        -11    1    3    3    0    0  0.16255267020E+02 -0.22295835309E+02 -0.13194066721E+02  0.30584659143E+02  0.51100000000E-03 0.  1.
         12    1    3    3    0    0 -0.92706545816E+01 -0.70748253275E+01 -0.13248761616E+02  0.17650152241E+02  0.00000000000E+00 0. -1.
</event>
<event>
 7    1  0.6164995E-012  0.5930184E+02  0.7816164E-02  0.1266605E+00
        -11   -1    0    0    0    0  0.00000000000E+00  0.00000000000E+00  0.45593999997E+02  0.45594000000E+02  0.51100000000E-03 0.  1.
         11   -1    0    0    0    0 -0.00000000000E+00 -0.00000000000E+00 -0.45593999997E+02  0.45594000000E+02  0.51100000000E-03 0. -1.
    9900012    2    1    2    0    0 -0.25924102858E+02 -0.77886138527E+01  0.16852458731E+02  0.59301843442E+02  0.49999816556E+02 0.  0.
         12    1    1    2    0    0  0.25924102858E+02  0.77886138527E+01 -0.16852458731E+02  0.31886156558E+02  0.00000000000E+00 0. -1.
         11    1    3    3    0    0 -0.92276839219E+01  0.23395345300E+01 -0.14038303224E+02  0.16961648801E+02  0.51100000000E-03 0. -1.
        -11    1    3    3    0    0 -0.89875241446E+01  0.25766912277E+01  0.15865115479E+01  0.94832455987E+01  0.51100000000E-03 0.  1.
        -12    1    3    3    0    0 -0.77088947917E+01 -0.12704839610E+02  0.29304250407E+02  0.32856949042E+02  0.00000000000E+00 0.  1.
</event>
<event>
 7    1  0.6164995E-012  0.5930194E+02  0.7816164E-02  0.1266605E+00
        -11   -1    0    0    0    0  0.00000000000E+00  0.00000000000E+00  0.45593999997E+02  0.45594000000E+02  0.51100000000E-03 0.  1.
         11   -1    0    0    0    0 -0.00000000000E+00 -0.00000000000E+00 -0.45593999997E+02  0.45594000000E+02  0.51100000000E-03 0. -1.
    9900012    2    1    2    0    0  0.31748288830E+01  0.14942879326E+02  0.27988420610E+02  0.59301939265E+02  0.49999991313E+02 0.  0.
         12    1    1    2    0    0 -0.31748288830E+01 -0.14942879326E+02 -0.27988420610E+02  0.31886060735E+02  0.00000000000E+00 0. -1.
         11    1    3    3    0    0 -0.85925634080E+01  0.80290598270E+01 -0.17899571515E+01  0.11895456885E+02  0.51100000000E-03 0. -1.
        -11    1    3    3    0    0 -0.70602111101E+01  0.14769782338E+02  0.15128689564E+02  0.22290587687E+02  0.51100000000E-03 0.  1.
        -12    1    3    3    0    0  0.18827603401E+02 -0.78559628392E+01  0.14649688198E+02  0.25115894693E+02  0.00000000000E+00 0.  1.
</event>
<event>
 7    1  0.6164995E-012  0.5930191E+02  0.7816164E-02  0.1266605E+00
        -11   -1    0    0    0    0  0.00000000000E+00  0.00000000000E+00  0.45593999997E+02  0.45594000000E+02  0.51100000000E-03 0. -1.
         11   -1    0    0    0    0 -0.00000000000E+00 -0.00000000000E+00 -0.45593999997E+02  0.45594000000E+02  0.51100000000E-03 0.  1.
    9900012    2    1    2    0    0  0.13327657763E+01 -0.16751937554E+02 -0.27098324335E+02  0.59301908076E+02  0.49999934433E+02 0.  0.
         12    1    1    2    0    0 -0.13327657763E+01  0.16751937554E+02  0.27098324335E+02  0.31886091924E+02  0.00000000000E+00 0. -1.
         11    1    3    3    0    0  0.67617065443E+00 -0.11129063814E+02 -0.17359756141E+02  0.20631878287E+02  0.51100000000E-03 0. -1.
        -11    1    3    3    0    0 -0.96741458547E+01 -0.17312277107E+02 -0.11574077408E+02  0.22962214718E+02  0.51100000000E-03 0.  1.
         12    1    3    3    0    0  0.10330740977E+02  0.11689403367E+02  0.18355092143E+01  0.15707815070E+02  0.00000000000E+00 0. -1.
</event>
<event>
 7    1  0.6164995E-012  0.5930196E+02  0.7816164E-02  0.1266605E+00
        -11   -1    0    0    0    0  0.00000000000E+00  0.00000000000E+00  0.45593999997E+02  0.45594000000E+02  0.51100000000E-03 0.  1.
         11   -1    0    0    0    0 -0.00000000000E+00 -0.00000000000E+00 -0.45593999997E+02  0.45594000000E+02  0.51100000000E-03 0. -1.
    9900012    2    1    2    0    0  0.22055797488E+02  0.59969091841E+01  0.22232816463E+02  0.59301964648E+02  0.50000037606E+02 0.  0.
         12    1    1    2    0    0 -0.22055797488E+02 -0.59969091841E+01 -0.22232816463E+02  0.31886035352E+02  0.00000000000E+00 0. -1.
         11    1    3    3    0    0 -0.44908063688E+01 -0.47172342757E+01  0.16911422409E+02  0.18122247356E+02  0.51100000000E-03 0. -1.
        -11    1    3    3    0    0 -0.30497735528E+01  0.10515096652E+02 -0.72106412418E+00  0.10972160683E+02  0.51100000000E-03 0.  1.
        -12    1    3    3    0    0  0.29596377410E+02  0.19904680766E+00  0.60424581782E+01  0.30207556609E+02  0.00000000000E+00 0.  1.
</event>
<event>
 7    1  0.6164995E-012  0.5930193E+02  0.7816164E-02  0.1266605E+00
        -11   -1    0    0    0    0  0.00000000000E+00  0.00000000000E+00  0.45593999997E+02  0.45594000000E+02  0.51100000000E-03 0.  1.
         11   -1    0    0    0    0 -0.00000000000E+00 -0.00000000000E+00 -0.45593999997E+02  0.45594000000E+02  0.51100000000E-03 0. -1.
    9900012    2    1    2    0    0 -0.20639262185E+02  0.58000552094E+00  0.24298271657E+02  0.59301928504E+02  0.49999971688E+02 0.  0.
         12    1    1    2    0    0  0.20639262185E+02 -0.58000552094E+00 -0.24298271657E+02  0.31886071496E+02  0.00000000000E+00 0. -1.
         11    1    3    3    0    0 -0.56087107303E+01  0.12248385404E+02  0.12415471806E+02  0.18320057901E+02  0.51100000000E-03 0. -1.
        -11    1    3    3    0    0 -0.18059956760E+02 -0.15603432573E+02  0.20218059528E+02  0.31279371438E+02  0.51100000000E-03 0.  1.
         12    1    3    3    0    0  0.30294053053E+01  0.39350526901E+01 -0.83352596760E+01  0.97024991649E+01  0.00000000000E+00 0. -1.
</event>
<event>
 7    1  0.6164995E-012  0.5930194E+02  0.7816164E-02  0.1266605E+00
        -11   -1    0    0    0    0  0.00000000000E+00  0.00000000000E+00  0.45593999997E+02  0.45594000000E+02  0.51100000000E-03 0.  1.
         11   -1    0    0    0    0 -0.00000000000E+00 -0.00000000000E+00 -0.45593999997E+02  0.45594000000E+02  0.51100000000E-03 0. -1.
    9900012    2    1    2    0    0  0.59066278820E+01 -0.25271529607E+02  0.18525189751E+02  0.59301935380E+02  0.49999984229E+02 0.  0.
         12    1    1    2    0    0 -0.59066278820E+01  0.25271529607E+02 -0.18525189751E+02  0.31886064620E+02  0.00000000000E+00 0. -1.
         11    1    3    3    0    0 -0.33385735563E+01  0.11031779482E+02 -0.11910813535E+01  0.11587273492E+02  0.51100000000E-03 0. -1.
        -11    1    3    3    0    0 -0.49464040957E+01 -0.67711014500E+01 -0.17203929279E+01  0.85600514258E+01  0.51100000000E-03 0.  1.
        -12    1    3    3    0    0  0.14191605534E+02 -0.29532207639E+02  0.21436664032E+02  0.39154610463E+02  0.00000000000E+00 0.  1.
</event>
<event>
 7    1  0.6164995E-012  0.5930194E+02  0.7816164E-02  0.1266605E+00
        -11   -1    0    0    0    0  0.00000000000E+00  0.00000000000E+00  0.45593999997E+02  0.45594000000E+02  0.51100000000E-03 0.  1.
         11   -1    0    0    0    0 -0.00000000000E+00 -0.00000000000E+00 -0.45593999997E+02  0.45594000000E+02  0.51100000000E-03 0. -1.
    9900012    2    1    2    0    0 -0.11172662917E+01  0.45719308757E+01  0.31536803895E+02  0.59301939788E+02  0.49999992268E+02 0.  0.
         12    1    1    2    0    0  0.11172662917E+01 -0.45719308757E+01 -0.31536803895E+02  0.31886060212E+02  0.00000000000E+00 0. -1.
         11    1    3    3    0    0  0.51586840736E+01 -0.41211289783E+01 -0.55396793768E+01  0.86188034718E+01  0.51100000000E-03 0. -1.
        -11    1    3    3    0    0 -0.47166867797E+01 -0.81682660567E+01  0.31458694779E+02  0.32842307805E+02  0.51100000000E-03 0.  1.
        -12    1    3    3    0    0 -0.15592635856E+01  0.16861325911E+02  0.56177884937E+01  0.17840828511E+02  0.00000000000E+00 0.  1.
</event>
<event>
 7    1  0.6164995E-012  0.5930201E+02  0.7816164E-02  0.1266605E+00
        -11   -1    0    0    0    0  0.00000000000E+00  0.00000000000E+00  0.45593999997E+02  0.45594000000E+02  0.51100000000E-03 0. -1.
         11   -1    0    0    0    0 -0.00000000000E+00 -0.00000000000E+00 -0.45593999997E+02  0.45594000000E+02  0.51100000000E-03 0.  1.
    9900012    2    1    2    0    0  0.48100506632E+01  0.16697815534E+02  0.26735044768E+02  0.59302011702E+02  0.50000123422E+02 0.  0.
         12    1    1    2    0    0 -0.48100506632E+01 -0.16697815534E+02 -0.26735044768E+02  0.31885988298E+02  0.00000000000E+00 0. -1.
         11    1    3    3    0    0 -0.13166876624E+00  0.59624744661E+01 -0.18821265276E+01  0.62538659204E+01  0.51100000000E-03 0. -1.
        -11    1    3    3    0    0  0.21202332373E+01  0.18160347503E+02 -0.46336904939E+01  0.18861725750E+02  0.51100000000E-03 0.  1.
         12    1    3    3    0    0  0.28214861921E+01 -0.74250064345E+01  0.33250861789E+02  0.34186420032E+02  0.00000000000E+00 0. -1.
</event>
<event>
 7    1  0.6164995E-012  0.5930198E+02  0.7816164E-02  0.1266605E+00
        -11   -1    0    0    0    0  0.00000000000E+00  0.00000000000E+00  0.45593999997E+02  0.45594000000E+02  0.51100000000E-03 0.  1.
         11   -1    0    0    0    0 -0.00000000000E+00 -0.00000000000E+00 -0.45593999997E+02  0.45594000000E+02  0.51100000000E-03 0. -1.
    9900012    2    1    2    0    0  0.23933459932E+02  0.11867987254E+02  0.17408584256E+02  0.59301977489E+02  0.50000061026E+02 0.  0.
         12    1    1    2    0    0 -0.23933459932E+02 -0.11867987254E+02 -0.17408584256E+02  0.31886022511E+02  0.00000000000E+00 0. -1.
         11    1    3    3    0    0 -0.64459294653E+01  0.82356200910E+01 -0.10006925791E+02  0.14474598751E+02  0.51100000000E-03 0. -1.
        -11    1    3    3    0    0  0.20336073833E+02  0.88278459060E+01  0.10624477647E+02  0.24583862345E+02  0.51100000000E-03 0.  1.
        -12    1    3    3    0    0  0.10043315564E+02 -0.51954787430E+01  0.16791032400E+02  0.20243516393E+02  0.00000000000E+00 0.  1.
</event>
<event>
 7    1  0.6164995E-012  0.5930191E+02  0.7816164E-02  0.1266605E+00
        -11   -1    0    0    0    0  0.00000000000E+00  0.00000000000E+00  0.45593999997E+02  0.45594000000E+02  0.51100000000E-03 0.  1.
         11   -1    0    0    0    0 -0.00000000000E+00 -0.00000000000E+00 -0.45593999997E+02  0.45594000000E+02  0.51100000000E-03 0. -1.
    9900012    2    1    2    0    0  0.12063523033E+02  0.79039559483E+01  0.28438036851E+02  0.59301905107E+02  0.49999929018E+02 0.  0.
         12    1    1    2    0    0 -0.12063523033E+02 -0.79039559483E+01 -0.28438036851E+02  0.31886094893E+02  0.00000000000E+00 0. -1.
         11    1    3    3    0    0  0.25152222927E+01  0.12021218277E+01 -0.81501887460E+01  0.86137690314E+01  0.51100000000E-03 0. -1.
        -11    1    3    3    0    0 -0.63647855520E+01  0.15097999805E+02  0.12430461001E+02  0.20566391375E+02  0.51100000000E-03 0.  1.
        -12    1    3    3    0    0  0.15913086293E+02 -0.83961656844E+01  0.24157764595E+02  0.30121744700E+02  0.00000000000E+00 0.  1.
</event>
<event>
 7    1  0.6164995E-012  0.5930193E+02  0.7816164E-02  0.1266605E+00
        -11   -1    0    0    0    0  0.00000000000E+00  0.00000000000E+00  0.45593999997E+02  0.45594000000E+02  0.51100000000E-03 0.  1.
         11   -1    0    0    0    0 -0.00000000000E+00 -0.00000000000E+00 -0.45593999997E+02  0.45594000000E+02  0.51100000000E-03 0. -1.
    9900012    2    1    2    0    0  0.13293941671E+02  0.83427394341E+01  0.27755922636E+02  0.59301930506E+02  0.49999975340E+02 0.  0.
         12    1    1    2    0    0 -0.13293941671E+02 -0.83427394341E+01 -0.27755922636E+02  0.31886069494E+02  0.00000000000E+00 0. -1.
         11    1    3    3    0    0  0.78067273119E+01  0.79479671314E+01  0.95423738384E+00  0.11181491050E+02  0.51100000000E-03 0. -1.
        -11    1    3    3    0    0  0.14731093741E+02  0.15669187772E+02  0.18761317196E+02  0.28539719540E+02  0.51100000000E-03 0.  1.
         12    1    3    3    0    0 -0.92438793822E+01 -0.15274415469E+02  0.80403680557E+01  0.19580719916E+02  0.00000000000E+00 0. -1.
</event>
<event>
 7    1  0.6164995E-012  0.5930194E+02  0.7816164E-02  0.1266605E+00
        -11   -1    0    0    0    0  0.00000000000E+00  0.00000000000E+00  0.45593999997E+02  0.45594000000E+02  0.51100000000E-03 0. -1.
         11   -1    0    0    0    0 -0.00000000000E+00 -0.00000000000E+00 -0.45593999997E+02  0.45594000000E+02  0.51100000000E-03 0.  1.
    9900012    2    1    2    0    0 -0.14094636317E+02 -0.20297341299E+02 -0.20151429341E+02  0.59301938136E+02  0.49999989255E+02 0.  0.
         12    1    1    2    0    0  0.14094636317E+02  0.20297341299E+02  0.20151429341E+02  0.31886061864E+02  0.00000000000E+00 0. -1.
         11    1    3    3    0    0 -0.50096282372E+00  0.36041980217E+01  0.42216577457E+01  0.55734730208E+01  0.51100000000E-03 0.  1.
        -11    1    3    3    0    0  0.76484333094E+01  0.59564461896E+01 -0.11143719608E+02  0.14770249499E+02  0.51100000000E-03 0. -1.
        -12    1    3    3    0    0 -0.21242106802E+02 -0.29857985510E+02 -0.13229367479E+02  0.38958215616E+02  0.00000000000E+00 0.  1.
</event>
<event>
 7    1  0.6164995E-012  0.5930197E+02  0.7816164E-02  0.1266605E+00
        -11   -1    0    0    0    0  0.00000000000E+00  0.00000000000E+00  0.45593999997E+02  0.45594000000E+02  0.51100000000E-03 0. -1.
         11   -1    0    0    0    0 -0.00000000000E+00 -0.00000000000E+00 -0.45593999997E+02  0.45594000000E+02  0.51100000000E-03 0.  1.
    9900012    2    1    2    0    0  0.30654245714E+02 -0.40289995171E+01  0.77976272172E+01  0.59301974728E+02  0.50000055991E+02 0.  0.
         12    1    1    2    0    0 -0.30654245714E+02  0.40289995171E+01 -0.77976272172E+01  0.31886025272E+02  0.00000000000E+00 0. -1.
         11    1    3    3    0    0  0.25242038770E+01 -0.71868018520E+01  0.20341432582E+02  0.21720856471E+02  0.51100000000E-03 0. -1.
        -11    1    3    3    0    0  0.48229940147E+00 -0.55494030913E+01  0.87623322363E+00  0.56388183430E+01  0.51100000000E-03 0.  1.
        -12    1    3    3    0    0  0.27647742435E+02  0.87072054262E+01 -0.13420038589E+02  0.31942299915E+02  0.00000000000E+00 0.  1.
</event>
<event>
 7    1  0.6164995E-012  0.5930193E+02  0.7816164E-02  0.1266605E+00
        -11   -1    0    0    0    0  0.00000000000E+00  0.00000000000E+00  0.45593999997E+02  0.45594000000E+02  0.51100000000E-03 0.  1.
         11   -1    0    0    0    0 -0.00000000000E+00 -0.00000000000E+00 -0.45593999997E+02  0.45594000000E+02  0.51100000000E-03 0. -1.
    9900012    2    1    2    0    0  0.15962795973E+02 -0.14066283974E+02  0.23749748358E+02  0.59301925497E+02  0.49999966205E+02 0.  0.
         12    1    1    2    0    0 -0.15962795973E+02  0.14066283974E+02 -0.23749748358E+02  0.31886074503E+02  0.00000000000E+00 0. -1.
         11    1    3    3    0    0 -0.63946075799E+01 -0.40402594762E+01 -0.38358680135E+01  0.84810722444E+01  0.51100000000E-03 0. -1.
        -11    1    3    3    0    0  0.16125128697E+01  0.66814279423E+01  0.22728956736E+02  0.23745465918E+02  0.51100000000E-03 0.  1.
         12    1    3    3    0    0  0.20744890684E+02 -0.16707452441E+02  0.48566596356E+01  0.27075387335E+02  0.00000000000E+00 0. -1.
</event>
<event>
 7    1  0.6164995E-012  0.5930194E+02  0.7816164E-02  0.1266605E+00
        -11   -1    0    0    0    0  0.00000000000E+00  0.00000000000E+00  0.45593999997E+02  0.45594000000E+02  0.51100000000E-03 0. -1.
         11   -1    0    0    0    0 -0.00000000000E+00 -0.00000000000E+00 -0.45593999997E+02  0.45594000000E+02  0.51100000000E-03 0.  1.
    9900012    2    1    2    0    0  0.22684344817E+02  0.41962891795E+01 -0.22012091717E+02  0.59301944672E+02  0.50000001174E+02 0.  0.
         12    1    1    2    0    0 -0.22684344817E+02 -0.41962891795E+01  0.22012091717E+02  0.31886055328E+02  0.00000000000E+00 0. -1.
         11    1    3    3    0    0  0.42948237910E+01 -0.13733751840E+01  0.47640858723E+01  0.65595872775E+01  0.51100000000E-03 0. -1.
        -11    1    3    3    0    0  0.10368993689E+02 -0.17479557310E+02 -0.16834142679E+02  0.26390136678E+02  0.51100000000E-03 0.  1.
         12    1    3    3    0    0  0.80205273365E+01  0.23049221674E+02 -0.99420349110E+01  0.26352220716E+02  0.00000000000E+00 0. -1.
</event>
<event>
 7    1  0.6164995E-012  0.5930195E+02  0.7816164E-02  0.1266605E+00
        -11   -1    0    0    0    0  0.00000000000E+00  0.00000000000E+00  0.45593999997E+02  0.45594000000E+02  0.51100000000E-03 0.  1.
         11   -1    0    0    0    0 -0.00000000000E+00 -0.00000000000E+00 -0.45593999997E+02  0.45594000000E+02  0.51100000000E-03 0. -1.
    9900012    2    1    2    0    0  0.27138473176E+02 -0.15447255527E+02  0.64502570080E+01  0.59301949051E+02  0.50000009161E+02 0.  0.
         12    1    1    2    0    0 -0.27138473176E+02  0.15447255527E+02 -0.64502570080E+01  0.31886050949E+02  0.00000000000E+00 0. -1.
         11    1    3    3    0    0  0.49008498339E+01 -0.10354504755E+02  0.94042371345E+01  0.14821395823E+02  0.51100000000E-03 0. -1.
        -11    1    3    3    0    0  0.90409519706E+01  0.15479619893E+02  0.52829112924E+01  0.18688675623E+02  0.51100000000E-03 0.  1.
         12    1    3    3    0    0  0.13196671372E+02 -0.20572370665E+02 -0.82368914190E+01  0.25791877604E+02  0.00000000000E+00 0. -1.
</event>
<event>
 7    1  0.6164995E-012  0.5930194E+02  0.7816164E-02  0.1266605E+00
        -11   -1    0    0    0    0  0.00000000000E+00  0.00000000000E+00  0.45593999997E+02  0.45594000000E+02  0.51100000000E-03 0.  1.
         11   -1    0    0    0    0 -0.00000000000E+00 -0.00000000000E+00 -0.45593999997E+02  0.45594000000E+02  0.51100000000E-03 0. -1.
    9900012    2    1    2    0    0  0.40779509601E+01  0.43073697456E+01  0.31329498032E+02  0.59301944033E+02  0.50000000010E+02 0.  0.
         12    1    1    2    0    0 -0.40779509601E+01 -0.43073697456E+01 -0.31329498032E+02  0.31886055967E+02  0.00000000000E+00 0. -1.
         11    1    3    3    0    0  0.38330552448E+01  0.12616801929E+02  0.24441260426E+01  0.13410807425E+02  0.51100000000E-03 0. -1.
        -11    1    3    3    0    0  0.10012324692E+02  0.97691074680E+01  0.62542399421E+01  0.15323107517E+02  0.51100000000E-03 0.  1.
         12    1    3    3    0    0 -0.97674289770E+01 -0.18078539651E+02  0.22631132048E+02  0.30568029091E+02  0.00000000000E+00 0. -1.
</event>
<event>
 7    1  0.6164995E-012  0.5930194E+02  0.7816164E-02  0.1266605E+00
        -11   -1    0    0    0    0  0.00000000000E+00  0.00000000000E+00  0.45593999997E+02  0.45594000000E+02  0.51100000000E-03 0. -1.
         11   -1    0    0    0    0 -0.00000000000E+00 -0.00000000000E+00 -0.45593999997E+02  0.45594000000E+02  0.51100000000E-03 0.  1.
    9900012    2    1    2    0    0 -0.28397798898E+02 -0.47954737403E+01 -0.13685373220E+02  0.59301937358E+02  0.49999987835E+02 0.  0.
         12    1    1    2    0    0  0.28397798898E+02  0.47954737403E+01  0.13685373220E+02  0.31886062642E+02  0.00000000000E+00 0. -1.
         11    1    3    3    0    0  0.26744925235E+01 -0.12571388086E+02 -0.20123474848E+01  0.13009314022E+02  0.51100000000E-03 0. -1.
        -11    1    3    3    0    0 -0.72933744572E+01 -0.74587858235E+01 -0.14552734086E+02  0.17905554070E+02  0.51100000000E-03 0.  1.
        -12    1    3    3    0    0 -0.23778916965E+02  0.15234700169E+02  0.28797083510E+01  0.28387069265E+02  0.00000000000E+00 0.  1.
</event>
<event>
 7    1  0.6164995E-012  0.5930194E+02  0.7816164E-02  0.1266605E+00
        -11   -1    0    0    0    0  0.00000000000E+00  0.00000000000E+00  0.45593999997E+02  0.45594000000E+02  0.51100000000E-03 0. -1.
         11   -1    0    0    0    0 -0.00000000000E+00 -0.00000000000E+00 -0.45593999997E+02  0.45594000000E+02  0.51100000000E-03 0.  1.
    9900012    2    1    2    0    0  0.49458068665E+01 -0.24240360393E+02 -0.20116274280E+02  0.59301943981E+02  0.49999999914E+02 0.  0.
         12    1    1    2    0    0 -0.49458068665E+01  0.24240360393E+02  0.20116274280E+02  0.31886056019E+02  0.00000000000E+00 0. -1.
         11    1    3    3    0    0 -0.63437728827E+01 -0.70142385612E+01 -0.22604403434E+02  0.24503102903E+02  0.51100000000E-03 0. -1.
        -11    1    3    3    0    0 -0.35440580542E+01 -0.12359486824E+02 -0.87591912225E+01  0.15557657059E+02  0.51100000000E-03 0.  1.
         12    1    3    3    0    0  0.14833637803E+02 -0.48666350084E+01  0.11247320377E+02  0.19241184019E+02  0.00000000000E+00 0. -1.
</event>
<event>
 7    1  0.6164995E-012  0.5930196E+02  0.7816164E-02  0.1266605E+00
        -11   -1    0    0    0    0  0.00000000000E+00  0.00000000000E+00  0.45593999997E+02  0.45594000000E+02  0.51100000000E-03 0. -1.
         11   -1    0    0    0    0 -0.00000000000E+00 -0.00000000000E+00 -0.45593999997E+02  0.45594000000E+02  0.51100000000E-03 0.  1.
    9900012    2    1    2    0    0 -0.15167264397E+01  0.29655670127E+02 -0.11617250529E+02  0.59301956978E+02  0.50000023618E+02 0.  0.
         12    1    1    2    0    0  0.15167264397E+01 -0.29655670127E+02  0.11617250529E+02  0.31886043022E+02  0.00000000000E+00 0. -1.
         11    1    3    3    0    0 -0.63713909322E+01  0.23281897433E+02 -0.13454291320E+02  0.27634386652E+02  0.51100000000E-03 0. -1.
        -11    1    3    3    0    0  0.51671678617E+01  0.10472638812E+02 -0.12290672109E+02  0.16953949644E+02  0.51100000000E-03 0.  1.
         12    1    3    3    0    0 -0.31250336915E+00 -0.40988661174E+01  0.14127712899E+02  0.14713620682E+02  0.00000000000E+00 0. -1.
</event>
<event>
 7    1  0.6164995E-012  0.5930194E+02  0.7816164E-02  0.1266605E+00
        -11   -1    0    0    0    0  0.00000000000E+00  0.00000000000E+00  0.45593999997E+02  0.45594000000E+02  0.51100000000E-03 0.  1.
         11   -1    0    0    0    0 -0.00000000000E+00 -0.00000000000E+00 -0.45593999997E+02  0.45594000000E+02  0.51100000000E-03 0. -1.
    9900012    2    1    2    0    0 -0.42895434236E+01 -0.24752715593E+02  0.19637303496E+02  0.59301940340E+02  0.49999993274E+02 0.  0.
         12    1    1    2    0    0  0.42895434236E+01  0.24752715593E+02 -0.19637303496E+02  0.31886059660E+02  0.00000000000E+00 0. -1.
         11    1    3    3    0    0  0.26548010433E+01  0.25714156220E+01  0.22707965613E+00  0.37029329337E+01  0.51100000000E-03 0. -1.
        -11    1    3    3    0    0  0.18691330835E+02 -0.11332606827E+02  0.90454897964E+01  0.23656177033E+02  0.51100000000E-03 0.  1.
         12    1    3    3    0    0 -0.25635675302E+02 -0.15991524389E+02  0.10364734044E+02  0.31942830374E+02  0.00000000000E+00 0. -1.
</event>
<event>
 7    1  0.6164995E-012  0.5930189E+02  0.7816164E-02  0.1266605E+00
        -11   -1    0    0    0    0  0.00000000000E+00  0.00000000000E+00  0.45593999997E+02  0.45594000000E+02  0.51100000000E-03 0.  1.
         11   -1    0    0    0    0 -0.00000000000E+00 -0.00000000000E+00 -0.45593999997E+02  0.45594000000E+02  0.51100000000E-03 0. -1.
    9900012    2    1    2    0    0 -0.15184717840E+02 -0.46033796507E+00  0.28034554588E+02  0.59301893027E+02  0.49999906987E+02 0.  0.
         12    1    1    2    0    0  0.15184717840E+02  0.46033796507E+00 -0.28034554588E+02  0.31886106973E+02  0.00000000000E+00 0. -1.
         11    1    3    3    0    0  0.12388284138E+00 -0.22476204514E+01  0.25597875914E+02  0.25696661188E+02  0.51100000000E-03 0. -1.
        -11    1    3    3    0    0 -0.62858800976E+01  0.15688805385E+02  0.38300597144E+00  0.16905549291E+02  0.51100000000E-03 0.  1.
         12    1    3    3    0    0 -0.90227205840E+01 -0.13901522899E+02  0.20536727030E+01  0.16699682548E+02  0.00000000000E+00 0. -1.
</event>
<event>
 7    1  0.6164995E-012  0.5930200E+02  0.7816164E-02  0.1266605E+00
        -11   -1    0    0    0    0  0.00000000000E+00  0.00000000000E+00  0.45593999997E+02  0.45594000000E+02  0.51100000000E-03 0.  1.
         11   -1    0    0    0    0 -0.00000000000E+00 -0.00000000000E+00 -0.45593999997E+02  0.45594000000E+02  0.51100000000E-03 0. -1.
    9900012    2    1    2    0    0 -0.82300556679E+01 -0.54134077395E+01  0.30326200400E+02  0.59301996326E+02  0.50000095379E+02 0.  0.
         12    1    1    2    0    0  0.82300556679E+01  0.54134077395E+01 -0.30326200400E+02  0.31886003674E+02  0.00000000000E+00 0. -1.
         11    1    3    3    0    0  0.21219437443E+01 -0.58998680708E+01  0.19723290990E+02  0.20695876311E+02  0.51100000000E-03 0. -1.
        -11    1    3    3    0    0 -0.48128320215E+01  0.36203827115E+01  0.23481122090E+02  0.24241155458E+02  0.51100000000E-03 0.  1.
         12    1    3    3    0    0 -0.55391673907E+01 -0.31339223802E+01 -0.12878212681E+02  0.14364964557E+02  0.00000000000E+00 0. -1.
</event>
<event>
 7    1  0.6164995E-012  0.5930195E+02  0.7816164E-02  0.1266605E+00
        -11   -1    0    0    0    0  0.00000000000E+00  0.00000000000E+00  0.45593999997E+02  0.45594000000E+02  0.51100000000E-03 0.  1.
         11   -1    0    0    0    0 -0.00000000000E+00 -0.00000000000E+00 -0.45593999997E+02  0.45594000000E+02  0.51100000000E-03 0. -1.
    9900012    2    1    2    0    0 -0.12901195808E+02  0.28708687416E+02  0.51078959145E+01  0.59301949960E+02  0.50000010820E+02 0.  0.
         12    1    1    2    0    0  0.12901195808E+02 -0.28708687416E+02 -0.51078959145E+01  0.31886050040E+02  0.00000000000E+00 0. -1.
         11    1    3    3    0    0  0.13286248061E+01  0.84639681951E+01 -0.16890137465E+02  0.18938868639E+02  0.51100000000E-03 0. -1.
        -11    1    3    3    0    0  0.47807374713E+01  0.11474022653E+02  0.50107265190E+01  0.13402090401E+02  0.51100000000E-03 0.  1.
         12    1    3    3    0    0 -0.19010558086E+02  0.87706965681E+01  0.16987306860E+02  0.26960990920E+02  0.00000000000E+00 0. -1.
</event>
<event>
 7    1  0.6164995E-012  0.5930218E+02  0.7816164E-02  0.1266604E+00
        -11   -1    0    0    0    0  0.00000000000E+00  0.00000000000E+00  0.45593999997E+02  0.45594000000E+02  0.51100000000E-03 0.  1.
         11   -1    0    0    0    0 -0.00000000000E+00 -0.00000000000E+00 -0.45593999997E+02  0.45594000000E+02  0.51100000000E-03 0. -1.
    9900012    2    1    2    0    0 -0.36367026424E+01  0.49076964169E+01  0.31295275213E+02  0.59302182763E+02  0.50000435394E+02 0.  0.
         12    1    1    2    0    0  0.36367026424E+01 -0.49076964169E+01 -0.31295275213E+02  0.31885817237E+02  0.00000000000E+00 0. -1.
         11    1    3    3    0    0  0.87188528142E+01  0.16079043907E+02  0.23239678593E+01  0.18437865230E+02  0.51100000000E-03 0. -1.
        -11    1    3    3    0    0 -0.77114568971E+01  0.44467891736E+01  0.16502210765E+01  0.90533823123E+01  0.51100000000E-03 0.  1.
        -12    1    3    3    0    0 -0.46440985595E+01 -0.15618136664E+02  0.27321086277E+02  0.31810935221E+02  0.00000000000E+00 0.  1.
</event>
<event>
 7    1  0.6164995E-012  0.5930194E+02  0.7816164E-02  0.1266605E+00
        -11   -1    0    0    0    0  0.00000000000E+00  0.00000000000E+00  0.45593999997E+02  0.45594000000E+02  0.51100000000E-03 0.  1.
         11   -1    0    0    0    0 -0.00000000000E+00 -0.00000000000E+00 -0.45593999997E+02  0.45594000000E+02  0.51100000000E-03 0. -1.
    9900012    2    1    2    0    0 -0.42954913139E+01  0.61686920412E+01  0.30987366406E+02  0.59301939034E+02  0.49999990893E+02 0.  0.
         12    1    1    2    0    0  0.42954913139E+01 -0.61686920412E+01 -0.30987366406E+02  0.31886060966E+02  0.00000000000E+00 0. -1.
         11    1    3    3    0    0 -0.98894398441E+01 -0.91696815722E+01  0.86654832745E+01  0.16030429851E+02  0.51100000000E-03 0. -1.
        -11    1    3    3    0    0 -0.10878411422E+02  0.14468697192E+02  0.38507442983E+01  0.18507059880E+02  0.51100000000E-03 0.  1.
        -12    1    3    3    0    0  0.16472359952E+02  0.86967642171E+00  0.18471138833E+02  0.24764449303E+02  0.00000000000E+00 0.  1.
</event>
<event>
 7    1  0.6164995E-012  0.5930193E+02  0.7816164E-02  0.1266605E+00
        -11   -1    0    0    0    0  0.00000000000E+00  0.00000000000E+00  0.45593999997E+02  0.45594000000E+02  0.51100000000E-03 0.  1.
         11   -1    0    0    0    0 -0.00000000000E+00 -0.00000000000E+00 -0.45593999997E+02  0.45594000000E+02  0.51100000000E-03 0. -1.
    9900012    2    1    2    0    0  0.12822476216E+02  0.15814422635E+02  0.24539954433E+02  0.59301933715E+02  0.49999981191E+02 0.  0.
         12    1    1    2    0    0 -0.12822476216E+02 -0.15814422635E+02 -0.24539954433E+02  0.31886066285E+02  0.00000000000E+00 0. -1.
         11    1    3    3    0    0  0.78136755341E+01  0.10965031868E+02 -0.14129492385E+01  0.13538163650E+02  0.51100000000E-03 0. -1.
        -11    1    3    3    0    0  0.25268832155E+01  0.20903466386E+02  0.11348141682E+02  0.23919037723E+02  0.51100000000E-03 0.  1.
         12    1    3    3    0    0  0.24819174660E+01 -0.16054075618E+02  0.14604761989E+02  0.21844732341E+02  0.00000000000E+00 0. -1.
</event>
<event>
 7    1  0.6164995E-012  0.5930197E+02  0.7816164E-02  0.1266605E+00
        -11   -1    0    0    0    0  0.00000000000E+00  0.00000000000E+00  0.45593999997E+02  0.45594000000E+02  0.51100000000E-03 0.  1.
         11   -1    0    0    0    0 -0.00000000000E+00 -0.00000000000E+00 -0.45593999997E+02  0.45594000000E+02  0.51100000000E-03 0. -1.
    9900012    2    1    2    0    0 -0.11363069773E+02  0.11115646559E+02  0.27641306054E+02  0.59301972442E+02  0.50000051821E+02 0.  0.
         12    1    1    2    0    0  0.11363069773E+02 -0.11115646559E+02 -0.27641306054E+02  0.31886027558E+02  0.00000000000E+00 0. -1.
         11    1    3    3    0    0 -0.45209693262E+01  0.11484648901E+02  0.10014830584E+02  0.15894437893E+02  0.51100000000E-03 0. -1.
        -11    1    3    3    0    0 -0.19485475033E+02 -0.97278566614E+01  0.17063272235E+02  0.27667131982E+02  0.51100000000E-03 0.  1.
         12    1    3    3    0    0  0.12643374586E+02  0.93588543188E+01  0.56320323411E+00  0.15740402567E+02  0.00000000000E+00 0. -1.
</event>
<event>
 7    1  0.6164995E-012  0.5930190E+02  0.7816164E-02  0.1266605E+00
        -11   -1    0    0    0    0  0.00000000000E+00  0.00000000000E+00  0.45593999997E+02  0.45594000000E+02  0.51100000000E-03 0. -1.
         11   -1    0    0    0    0 -0.00000000000E+00 -0.00000000000E+00 -0.45593999997E+02  0.45594000000E+02  0.51100000000E-03 0.  1.
    9900012    2    1    2    0    0  0.16511597422E+01 -0.29121987672E+02 -0.12880488633E+02  0.59301898295E+02  0.49999916595E+02 0.  0.
         12    1    1    2    0    0 -0.16511597422E+01  0.29121987672E+02  0.12880488633E+02  0.31886101705E+02  0.00000000000E+00 0. -1.
         11    1    3    3    0    0  0.15850167090E+01  0.49363370199E+00 -0.41763191166E+01  0.44941733193E+01  0.51100000000E-03 0. -1.
        -11    1    3    3    0    0  0.10233732698E+02  0.12506890475E+01 -0.18229248850E+02  0.20942755834E+02  0.51100000000E-03 0.  1.
         12    1    3    3    0    0 -0.10167589665E+02 -0.30866310422E+02  0.95250793338E+01  0.33864969142E+02  0.00000000000E+00 0. -1.
</event>
<event>
 7    1  0.6164995E-012  0.5930196E+02  0.7816164E-02  0.1266605E+00
        -11   -1    0    0    0    0  0.00000000000E+00  0.00000000000E+00  0.45593999997E+02  0.45594000000E+02  0.51100000000E-03 0. -1.
         11   -1    0    0    0    0 -0.00000000000E+00 -0.00000000000E+00 -0.45593999997E+02  0.45594000000E+02  0.51100000000E-03 0.  1.
    9900012    2    1    2    0    0 -0.75965414844E+01  0.14618108204E+02 -0.27300598921E+02  0.59301964946E+02  0.50000038150E+02 0.  0.
         12    1    1    2    0    0  0.75965414844E+01 -0.14618108204E+02  0.27300598921E+02  0.31886035054E+02  0.00000000000E+00 0. -1.
         11    1    3    3    0    0 -0.57111287975E+01 -0.67839284868E+01  0.72272878856E+01  0.11439946167E+02  0.51100000000E-03 0.  1.
        -11    1    3    3    0    0 -0.72931699304E+01  0.94955325884E+01 -0.11672228765E+01  0.12029874325E+02  0.51100000000E-03 0. -1.
        -12    1    3    3    0    0  0.54077572435E+01  0.11906504103E+02 -0.33360663930E+02  0.35832144455E+02  0.00000000000E+00 0.  1.
</event>
<event>
 7    1  0.6164995E-012  0.5930193E+02  0.7816164E-02  0.1266605E+00
        -11   -1    0    0    0    0  0.00000000000E+00  0.00000000000E+00  0.45593999997E+02  0.45594000000E+02  0.51100000000E-03 0.  1.
         11   -1    0    0    0    0 -0.00000000000E+00 -0.00000000000E+00 -0.45593999997E+02  0.45594000000E+02  0.51100000000E-03 0. -1.
    9900012    2    1    2    0    0  0.44457152188E+01  0.42780214894E+01  0.31283468776E+02  0.59301932975E+02  0.49999979843E+02 0.  0.
         12    1    1    2    0    0 -0.44457152188E+01 -0.42780214894E+01 -0.31283468776E+02  0.31886067025E+02  0.00000000000E+00 0. -1.
         11    1    3    3    0    0  0.53038520751E+01  0.19914410759E+02  0.81578367110E+00  0.20624744992E+02  0.51100000000E-03 0. -1.
        -11    1    3    3    0    0  0.74140704475E+01 -0.17252711343E+01  0.88796154124E+01  0.11695835636E+02  0.51100000000E-03 0.  1.
        -12    1    3    3    0    0 -0.82722073039E+01 -0.13911118135E+02  0.21588069692E+02  0.26981352347E+02  0.00000000000E+00 0.  1.
</event>
<event>
 7    1  0.6164995E-012  0.5930194E+02  0.7816164E-02  0.1266605E+00
        -11   -1    0    0    0    0  0.00000000000E+00  0.00000000000E+00  0.45593999997E+02  0.45594000000E+02  0.51100000000E-03 0.  1.
         11   -1    0    0    0    0 -0.00000000000E+00 -0.00000000000E+00 -0.45593999997E+02  0.45594000000E+02  0.51100000000E-03 0. -1.
    9900012    2    1    2    0    0 -0.30375534982E+01 -0.17559592477E+02  0.26441539120E+02  0.59301937054E+02  0.49999987281E+02 0.  0.
         12    1    1    2    0    0  0.30375534982E+01  0.17559592477E+02 -0.26441539120E+02  0.31886062946E+02  0.00000000000E+00 0. -1.
         11    1    3    3    0    0 -0.14717120464E+02 -0.47157752370E+01  0.53570976161E+00  0.15463478136E+02  0.51100000000E-03 0. -1.
        -11    1    3    3    0    0 -0.59264091273E+01 -0.14980775380E+02  0.18732921392E+02  0.24707656713E+02  0.51100000000E-03 0.  1.
         12    1    3    3    0    0  0.17605976094E+02  0.21369581396E+01  0.71729079663E+01  0.19130802205E+02  0.00000000000E+00 0. -1.
</event>
<event>
 7    1  0.6164995E-012  0.5930191E+02  0.7816164E-02  0.1266605E+00
        -11   -1    0    0    0    0  0.00000000000E+00  0.00000000000E+00  0.45593999997E+02  0.45594000000E+02  0.51100000000E-03 0. -1.
         11   -1    0    0    0    0 -0.00000000000E+00 -0.00000000000E+00 -0.45593999997E+02  0.45594000000E+02  0.51100000000E-03 0.  1.
    9900012    2    1    2    0    0 -0.19691463720E+02  0.22080629012E+02 -0.11891786554E+02  0.59301913560E+02  0.49999944434E+02 0.  0.
         12    1    1    2    0    0  0.19691463720E+02 -0.22080629012E+02  0.11891786554E+02  0.31886086440E+02  0.00000000000E+00 0. -1.
         11    1    3    3    0    0 -0.79701321377E-01  0.13992270375E+02  0.95326600733E+00  0.14024931333E+02  0.51100000000E-03 0. -1.
        -11    1    3    3    0    0 -0.14897524385E+02  0.21358008789E+02  0.25801920896E+00  0.26041646384E+02  0.51100000000E-03 0.  1.
         12    1    3    3    0    0 -0.47142380140E+01 -0.13269650151E+02 -0.13103071770E+02  0.19235335843E+02  0.00000000000E+00 0. -1.
</event>
<event>
 7    1  0.6164995E-012  0.5930194E+02  0.7816164E-02  0.1266605E+00
        -11   -1    0    0    0    0  0.00000000000E+00  0.00000000000E+00  0.45593999997E+02  0.45594000000E+02  0.51100000000E-03 0.  1.
         11   -1    0    0    0    0 -0.00000000000E+00 -0.00000000000E+00 -0.45593999997E+02  0.45594000000E+02  0.51100000000E-03 0. -1.
    9900012    2    1    2    0    0  0.35481851054E+00 -0.31204681540E+02  0.65469527066E+01  0.59301942923E+02  0.49999997985E+02 0.  0.
         12    1    1    2    0    0 -0.35481851054E+00  0.31204681540E+02 -0.65469527066E+01  0.31886057077E+02  0.00000000000E+00 0. -1.
         11    1    3    3    0    0 -0.50172112250E+01 -0.88452008530E+01  0.14627304690E+02  0.17814826111E+02  0.51100000000E-03 0. -1.
        -11    1    3    3    0    0 -0.18724870591E+01 -0.26410367070E+02  0.40543564509E+01  0.26785285197E+02  0.51100000000E-03 0.  1.
         12    1    3    3    0    0  0.72445167946E+01  0.40508863834E+01 -0.12134708434E+02  0.14701831616E+02  0.00000000000E+00 0. -1.
</event>
<event>
 7    1  0.6164995E-012  0.5930193E+02  0.7816164E-02  0.1266605E+00
        -11   -1    0    0    0    0  0.00000000000E+00  0.00000000000E+00  0.45593999997E+02  0.45594000000E+02  0.51100000000E-03 0.  1.
         11   -1    0    0    0    0 -0.00000000000E+00 -0.00000000000E+00 -0.45593999997E+02  0.45594000000E+02  0.51100000000E-03 0. -1.
    9900012    2    1    2    0    0  0.26130765948E+02 -0.18254212526E+02 -0.82942388249E+00  0.59301934894E+02  0.49999983342E+02 0.  0.
         12    1    1    2    0    0 -0.26130765948E+02  0.18254212526E+02  0.82942388249E+00  0.31886065106E+02  0.00000000000E+00 0. -1.
         11    1    3    3    0    0  0.30298671096E+01 -0.30876997803E+02 -0.54990807234E+01  0.31508871403E+02  0.51100000000E-03 0.  1.
        -11    1    3    3    0    0  0.79107039213E+01  0.43691065982E+00  0.14677176606E+01  0.80575630837E+01  0.51100000000E-03 0. -1.
        -12    1    3    3    0    0  0.15190194917E+02  0.12185874618E+02  0.32019391803E+01  0.19735500407E+02  0.00000000000E+00 0.  1.
</event>
<event>
 7    1  0.6164995E-012  0.5930187E+02  0.7816164E-02  0.1266605E+00
        -11   -1    0    0    0    0  0.00000000000E+00  0.00000000000E+00  0.45593999997E+02  0.45594000000E+02  0.51100000000E-03 0.  1.
         11   -1    0    0    0    0 -0.00000000000E+00 -0.00000000000E+00 -0.45593999997E+02  0.45594000000E+02  0.51100000000E-03 0. -1.
    9900012    2    1    2    0    0  0.31588746138E+02  0.40654908849E+01  0.15324173760E+01  0.59301868191E+02  0.49999861692E+02 0.  0.
         12    1    1    2    0    0 -0.31588746138E+02 -0.40654908849E+01 -0.15324173760E+01  0.31886131809E+02  0.00000000000E+00 0. -1.
         11    1    3    3    0    0  0.12984776953E+02 -0.12708344678E+02 -0.14866242644E+02  0.23475766816E+02  0.51100000000E-03 0. -1.
        -11    1    3    3    0    0 -0.16151244455E+01  0.24040260438E+01  0.97130213185E+01  0.10135617968E+02  0.51100000000E-03 0.  1.
        -12    1    3    3    0    0  0.20219093630E+02  0.14369809519E+02  0.66856387015E+01  0.25690483407E+02  0.00000000000E+00 0.  1.
</event>
<event>
 7    1  0.6164995E-012  0.5930193E+02  0.7816164E-02  0.1266605E+00
        -11   -1    0    0    0    0  0.00000000000E+00  0.00000000000E+00  0.45593999997E+02  0.45594000000E+02  0.51100000000E-03 0.  1.
         11   -1    0    0    0    0 -0.00000000000E+00 -0.00000000000E+00 -0.45593999997E+02  0.45594000000E+02  0.51100000000E-03 0. -1.
    9900012    2    1    2    0    0  0.27539940979E+02  0.13356853402E+02 -0.89368809748E+01  0.59301925868E+02  0.49999966882E+02 0.  0.
         12    1    1    2    0    0 -0.27539940979E+02 -0.13356853402E+02  0.89368809748E+01  0.31886074132E+02  0.00000000000E+00 0. -1.
         11    1    3    3    0    0  0.18538430869E+02  0.89531321591E+01  0.20477217180E+01  0.20688768910E+02  0.51100000000E-03 0. -1.
        -11    1    3    3    0    0  0.69284356919E+01  0.68657491419E+01  0.11966072787E+02  0.15437895926E+02  0.51100000000E-03 0.  1.
         12    1    3    3    0    0  0.20730744188E+01 -0.24620278987E+01 -0.22950675480E+02  0.23175261032E+02  0.00000000000E+00 0. -1.
</event>
<event>
 7    1  0.6164995E-012  0.5930195E+02  0.7816164E-02  0.1266605E+00
        -11   -1    0    0    0    0  0.00000000000E+00  0.00000000000E+00  0.45593999997E+02  0.45594000000E+02  0.51100000000E-03 0.  1.
         11   -1    0    0    0    0 -0.00000000000E+00 -0.00000000000E+00 -0.45593999997E+02  0.45594000000E+02  0.51100000000E-03 0. -1.
    9900012    2    1    2    0    0 -0.36597995207E+01 -0.31660708561E+02 -0.96193739347E+00  0.59301954107E+02  0.50000018383E+02 0.  0.
         12    1    1    2    0    0  0.36597995207E+01  0.31660708561E+02  0.96193739347E+00  0.31886045893E+02  0.00000000000E+00 0. -1.
         11    1    3    3    0    0 -0.39224699623E+01 -0.29021474836E+02 -0.35647645786E+01  0.29501513843E+02  0.51100000000E-03 0. -1.
        -11    1    3    3    0    0  0.12727688749E+02  0.17051110296E+01  0.84403864279E+01  0.15366899096E+02  0.51100000000E-03 0.  1.
         12    1    3    3    0    0 -0.12465018307E+02 -0.43443447546E+01 -0.58375592428E+01  0.14433541168E+02  0.00000000000E+00 0. -1.
</event>
<event>
 7    1  0.6164995E-012  0.5930195E+02  0.7816164E-02  0.1266605E+00
        -11   -1    0    0    0    0  0.00000000000E+00  0.00000000000E+00  0.45593999997E+02  0.45594000000E+02  0.51100000000E-03 0.  1.
         11   -1    0    0    0    0 -0.00000000000E+00 -0.00000000000E+00 -0.45593999997E+02  0.45594000000E+02  0.51100000000E-03 0. -1.
    9900012    2    1    2    0    0 -0.14891304643E+02  0.25578731725E+02  0.11861611338E+02  0.59301948282E+02  0.50000007759E+02 0.  0.
         12    1    1    2    0    0  0.14891304643E+02 -0.25578731725E+02 -0.11861611338E+02  0.31886051718E+02  0.00000000000E+00 0. -1.
         11    1    3    3    0    0 -0.12909106714E+02 -0.90983829108E+01 -0.76138434357E+01  0.17532718553E+02  0.51100000000E-03 0. -1.
        -11    1    3    3    0    0 -0.37964434447E+00  0.43952708745E+01 -0.17591275136E+01  0.47494279401E+01  0.51100000000E-03 0.  1.
        -12    1    3    3    0    0 -0.16025535853E+01  0.30281843761E+02  0.21234582287E+02  0.37019801789E+02  0.00000000000E+00 0.  1.
</event>
<event>
 7    1  0.6164995E-012  0.5930199E+02  0.7816164E-02  0.1266605E+00
        -11   -1    0    0    0    0  0.00000000000E+00  0.00000000000E+00  0.45593999997E+02  0.45594000000E+02  0.51100000000E-03 0.  1.
         11   -1    0    0    0    0 -0.00000000000E+00 -0.00000000000E+00 -0.45593999997E+02  0.45594000000E+02  0.51100000000E-03 0. -1.
    9900012    2    1    2    0    0  0.33111347262E+01  0.82326703049E+01  0.30626412418E+02  0.59301990354E+02  0.50000084489E+02 0.  0.
         12    1    1    2    0    0 -0.33111347262E+01 -0.82326703049E+01 -0.30626412418E+02  0.31886009646E+02  0.00000000000E+00 0. -1.
         11    1    3    3    0    0  0.43070181764E+01 -0.13910400245E+01  0.25825177930E+02  0.26218795039E+02  0.51100000000E-03 0.  1.
        -11    1    3    3    0    0  0.51153365489E+01 -0.89678047951E+01  0.82448890654E+01  0.13212357353E+02  0.51100000000E-03 0. -1.
         12    1    3    3    0    0 -0.61112199991E+01  0.18591515124E+02 -0.34436545772E+01  0.19870837963E+02  0.00000000000E+00 0. -1.
</event>
<event>
 7    1  0.6164995E-012  0.5930197E+02  0.7816164E-02  0.1266605E+00
        -11   -1    0    0    0    0  0.00000000000E+00  0.00000000000E+00  0.45593999997E+02  0.45594000000E+02  0.51100000000E-03 0. -1.
         11   -1    0    0    0    0 -0.00000000000E+00 -0.00000000000E+00 -0.45593999997E+02  0.45594000000E+02  0.51100000000E-03 0.  1.
    9900012    2    1    2    0    0 -0.28187568804E+02  0.11879285546E+02  0.90034792226E+01  0.59301967035E+02  0.50000041959E+02 0.  0.
         12    1    1    2    0    0  0.28187568804E+02 -0.11879285546E+02 -0.90034792226E+01  0.31886032965E+02  0.00000000000E+00 0. -1.
         11    1    3    3    0    0 -0.16505136244E+02  0.21918920984E+01 -0.15089411314E+02  0.22470297004E+02  0.51100000000E-03 0. -1.
        -11    1    3    3    0    0  0.86029272018E+00  0.60378030600E+01 -0.29681615722E+01  0.67827098372E+01  0.51100000000E-03 0.  1.
         12    1    3    3    0    0 -0.12542725280E+02  0.36495903873E+01  0.27061052109E+02  0.30048960193E+02  0.00000000000E+00 0. -1.
</event>
<event>
 7    1  0.6164995E-012  0.5930195E+02  0.7816164E-02  0.1266605E+00
        -11   -1    0    0    0    0  0.00000000000E+00  0.00000000000E+00  0.45593999997E+02  0.45594000000E+02  0.51100000000E-03 0. -1.
         11   -1    0    0    0    0 -0.00000000000E+00 -0.00000000000E+00 -0.45593999997E+02  0.45594000000E+02  0.51100000000E-03 0.  1.
    9900012    2    1    2    0    0 -0.16272956566E+02  0.12495521269E+02 -0.24408462287E+02  0.59301949784E+02  0.50000010499E+02 0.  0.
         12    1    1    2    0    0  0.16272956566E+02 -0.12495521269E+02  0.24408462287E+02  0.31886050216E+02  0.00000000000E+00 0. -1.
         11    1    3    3    0    0 -0.60390074326E+01 -0.74857613500E+01 -0.20099862776E+02  0.22282520451E+02  0.51100000000E-03 0. -1.
        -11    1    3    3    0    0 -0.80367566123E+00  0.88246701476E+01 -0.16012573505E+02  0.18300907308E+02  0.51100000000E-03 0.  1.
         12    1    3    3    0    0 -0.94302734718E+01  0.11156612471E+02  0.11703973994E+02  0.18718522026E+02  0.00000000000E+00 0. -1.
</event>
<event>
 7    1  0.6164995E-012  0.5930201E+02  0.7816164E-02  0.1266605E+00
        -11   -1    0    0    0    0  0.00000000000E+00  0.00000000000E+00  0.45593999997E+02  0.45594000000E+02  0.51100000000E-03 0. -1.
         11   -1    0    0    0    0 -0.00000000000E+00 -0.00000000000E+00 -0.45593999997E+02  0.45594000000E+02  0.51100000000E-03 0.  1.
    9900012    2    1    2    0    0 -0.92099760960E+01 -0.18484878617E+01 -0.30470898313E+02  0.59302012309E+02  0.50000124528E+02 0.  0.
         12    1    1    2    0    0  0.92099760960E+01  0.18484878617E+01  0.30470898313E+02  0.31885987691E+02  0.00000000000E+00 0. -1.
         11    1    3    3    0    0 -0.73565845979E+01 -0.65398968122E+01 -0.30696616130E+02  0.32236188195E+02  0.51100000000E-03 0. -1.
        -11    1    3    3    0    0 -0.48004259891E+01  0.14886629285E+02 -0.30971652712E+01  0.15945163973E+02  0.51100000000E-03 0.  1.
         12    1    3    3    0    0  0.29470344911E+01 -0.10195220334E+02  0.33228830887E+01  0.11120660141E+02  0.00000000000E+00 0. -1.
</event>
<event>
 7    1  0.6164995E-012  0.5930196E+02  0.7816164E-02  0.1266605E+00
        -11   -1    0    0    0    0  0.00000000000E+00  0.00000000000E+00  0.45593999997E+02  0.45594000000E+02  0.51100000000E-03 0.  1.
         11   -1    0    0    0    0 -0.00000000000E+00 -0.00000000000E+00 -0.45593999997E+02  0.45594000000E+02  0.51100000000E-03 0. -1.
    9900012    2    1    2    0    0  0.53682643208E+01 -0.17939675199E+02  0.25808317602E+02  0.59301961276E+02  0.50000031456E+02 0.  0.
         12    1    1    2    0    0 -0.53682643208E+01  0.17939675199E+02 -0.25808317602E+02  0.31886038724E+02  0.00000000000E+00 0. -1.
         11    1    3    3    0    0 -0.35850163889E+01  0.49208437777E+01  0.43594003562E+01  0.74880850503E+01  0.51100000000E-03 0. -1.
        -11    1    3    3    0    0 -0.90442710643E+01 -0.21598894972E+02  0.24072174484E+02  0.33582446125E+02  0.51100000000E-03 0.  1.
        -12    1    3    3    0    0  0.17997551774E+02 -0.12616240052E+01 -0.26232572378E+01  0.18231430101E+02  0.00000000000E+00 0.  1.
</event>
<event>
 7    1  0.6164995E-012  0.5930190E+02  0.7816164E-02  0.1266605E+00
        -11   -1    0    0    0    0  0.00000000000E+00  0.00000000000E+00  0.45593999997E+02  0.45594000000E+02  0.51100000000E-03 0. -1.
         11   -1    0    0    0    0 -0.00000000000E+00 -0.00000000000E+00 -0.45593999997E+02  0.45594000000E+02  0.51100000000E-03 0.  1.
    9900012    2    1    2    0    0 -0.15475310028E+02 -0.63137312048E+01  0.27154644628E+02  0.59301903546E+02  0.49999926171E+02 0.  0.
         12    1    1    2    0    0  0.15475310028E+02  0.63137312048E+01 -0.27154644628E+02  0.31886096454E+02  0.00000000000E+00 0. -1.
         11    1    3    3    0    0 -0.23639314959E+01 -0.66767043251E+01  0.40462339425E+01  0.81571172691E+01  0.51100000000E-03 0. -1.
        -11    1    3    3    0    0 -0.18230335151E+02 -0.14063528144E+02 -0.47437214385E+00  0.23029393669E+02  0.51100000000E-03 0.  1.
         12    1    3    3    0    0  0.51189566182E+01  0.14426501264E+02  0.23582782829E+02  0.28115392609E+02  0.00000000000E+00 0. -1.
</event>
<event>
 7    1  0.6164995E-012  0.5930217E+02  0.7816164E-02  0.1266604E+00
        -11   -1    0    0    0    0  0.00000000000E+00  0.00000000000E+00  0.45593999997E+02  0.45594000000E+02  0.51100000000E-03 0. -1.
         11   -1    0    0    0    0 -0.00000000000E+00 -0.00000000000E+00 -0.45593999997E+02  0.45594000000E+02  0.51100000000E-03 0.  1.
    9900012    2    1    2    0    0  0.27363364540E+02  0.15931433673E+02 -0.37605309296E+01  0.59302174141E+02  0.50000419669E+02 0.  0.
         12    1    1    2    0    0 -0.27363364540E+02 -0.15931433673E+02  0.37605309296E+01  0.31885825859E+02  0.00000000000E+00 0. -1.
         11    1    3    3    0    0  0.13315447946E+02  0.12356671998E+02 -0.63072618448E+00  0.18176531921E+02  0.51100000000E-03 0. -1.
        -11    1    3    3    0    0  0.96509262019E+01  0.53193977346E+01 -0.20417989375E+02  0.23201953780E+02  0.51100000000E-03 0.  1.
        -12    1    3    3    0    0  0.43969903925E+01 -0.17446360597E+01  0.17288184630E+02  0.17923688440E+02  0.00000000000E+00 0.  1.
</event>
<event>
 7    1  0.6164995E-012  0.5930195E+02  0.7816164E-02  0.1266605E+00
        -11   -1    0    0    0    0  0.00000000000E+00  0.00000000000E+00  0.45593999997E+02  0.45594000000E+02  0.51100000000E-03 0.  1.
         11   -1    0    0    0    0 -0.00000000000E+00 -0.00000000000E+00 -0.45593999997E+02  0.45594000000E+02  0.51100000000E-03 0. -1.
    9900012    2    1    2    0    0  0.21047432340E+02 -0.36720667899E+01  0.23669427091E+02  0.59301948796E+02  0.50000008695E+02 0.  0.
         12    1    1    2    0    0 -0.21047432340E+02  0.36720667899E+01 -0.23669427091E+02  0.31886051204E+02  0.00000000000E+00 0. -1.
         11    1    3    3    0    0  0.29029872633E+01  0.57297953107E+01  0.99877268526E+01  0.11874871675E+02  0.51100000000E-03 0. -1.
        -11    1    3    3    0    0  0.55040898471E+01 -0.50134768122E+01  0.27322843283E+02  0.28319034590E+02  0.51100000000E-03 0.  1.
        -12    1    3    3    0    0  0.12640355229E+02 -0.43883852884E+01 -0.13641143045E+02  0.19108042530E+02  0.00000000000E+00 0.  1.
</event>
<event>
 7    1  0.6164995E-012  0.5930195E+02  0.7816164E-02  0.1266605E+00
        -11   -1    0    0    0    0  0.00000000000E+00  0.00000000000E+00  0.45593999997E+02  0.45594000000E+02  0.51100000000E-03 0. -1.
         11   -1    0    0    0    0 -0.00000000000E+00 -0.00000000000E+00 -0.45593999997E+02  0.45594000000E+02  0.51100000000E-03 0.  1.
    9900012    2    1    2    0    0 -0.10350764001E+01  0.29414286729E+02 -0.12265751360E+02  0.59301948138E+02  0.50000007497E+02 0.  0.
         12    1    1    2    0    0  0.10350764001E+01 -0.29414286729E+02  0.12265751360E+02  0.31886051862E+02  0.00000000000E+00 0. -1.
         11    1    3    3    0    0 -0.14724597741E+01  0.40882538560E+02 -0.10650531231E+02  0.42272732496E+02  0.51100000000E-03 0. -1.
        -11    1    3    3    0    0  0.38683448772E+01 -0.12370520819E+01 -0.42941514482E+01  0.59105098649E+01  0.51100000000E-03 0.  1.
         12    1    3    3    0    0 -0.34309615032E+01 -0.10231199750E+02  0.26789313193E+01  0.11118705778E+02  0.00000000000E+00 0. -1.
</event>
<event>
 7    1  0.6164995E-012  0.5930165E+02  0.7816164E-02  0.1266606E+00
        -11   -1    0    0    0    0  0.00000000000E+00  0.00000000000E+00  0.45593999997E+02  0.45594000000E+02  0.51100000000E-03 0. -1.
         11   -1    0    0    0    0 -0.00000000000E+00 -0.00000000000E+00 -0.45593999997E+02  0.45594000000E+02  0.51100000000E-03 0.  1.
    9900012    2    1    2    0    0 -0.16347336939E+02  0.25085775038E+02 -0.10963920958E+02  0.59301653438E+02  0.49999470032E+02 0.  0.
         12    1    1    2    0    0  0.16347336939E+02 -0.25085775038E+02  0.10963920958E+02  0.31886346562E+02  0.00000000000E+00 0. -1.
         11    1    3    3    0    0 -0.42436919364E+01 -0.49155288800E+01 -0.50938679865E+01  0.82534136420E+01  0.51100000000E-03 0. -1.
        -11    1    3    3    0    0 -0.66429293789E+01  0.11403135416E+02 -0.22117945050E+02  0.25755844027E+02  0.51100000000E-03 0.  1.
         12    1    3    3    0    0 -0.54607156242E+01  0.18598168502E+02  0.16247892078E+02  0.25292395769E+02  0.00000000000E+00 0. -1.
</event>
<event>
 7    1  0.6164995E-012  0.5930199E+02  0.7816164E-02  0.1266605E+00
        -11   -1    0    0    0    0  0.00000000000E+00  0.00000000000E+00  0.45593999997E+02  0.45594000000E+02  0.51100000000E-03 0.  1.
         11   -1    0    0    0    0 -0.00000000000E+00 -0.00000000000E+00 -0.45593999997E+02  0.45594000000E+02  0.51100000000E-03 0. -1.
    9900012    2    1    2    0    0  0.75254937618E+01 -0.90263502824E+01  0.29641344861E+02  0.59301993964E+02  0.50000091071E+02 0.  0.
         12    1    1    2    0    0 -0.75254937618E+01  0.90263502824E+01 -0.29641344861E+02  0.31886006036E+02  0.00000000000E+00 0. -1.
         11    1    3    3    0    0  0.12749496979E+02 -0.13290982507E+02  0.48348566413E+01  0.19041421381E+02  0.51100000000E-03 0.  1.
        -11    1    3    3    0    0 -0.17114161161E+01 -0.53729270168E+01 -0.57347945691E+01  0.80427084282E+01  0.51100000000E-03 0. -1.
        -12    1    3    3    0    0 -0.35125871010E+01  0.96375592416E+01  0.30541282789E+02  0.32217864154E+02  0.00000000000E+00 0.  1.
</event>
<event>
 7    1  0.6164995E-012  0.5930199E+02  0.7816164E-02  0.1266605E+00
        -11   -1    0    0    0    0  0.00000000000E+00  0.00000000000E+00  0.45593999997E+02  0.45594000000E+02  0.51100000000E-03 0.  1.
         11   -1    0    0    0    0 -0.00000000000E+00 -0.00000000000E+00 -0.45593999997E+02  0.45594000000E+02  0.51100000000E-03 0. -1.
    9900012    2    1    2    0    0  0.16310750444E+02 -0.20223953434E+02 -0.18484288039E+02  0.59301987756E+02  0.50000079749E+02 0.  0.
         12    1    1    2    0    0 -0.16310750444E+02  0.20223953434E+02  0.18484288039E+02  0.31886012244E+02  0.00000000000E+00 0. -1.
         11    1    3    3    0    0 -0.43744929165E+01 -0.12366963534E+02 -0.63028536348E+01  0.14553485477E+02  0.51100000000E-03 0. -1.
        -11    1    3    3    0    0  0.91886596049E+01  0.30333195321E+01 -0.23413215901E+02  0.25333992417E+02  0.51100000000E-03 0.  1.
        -12    1    3    3    0    0  0.11496583755E+02 -0.10890309433E+02  0.11231781497E+02  0.19414509861E+02  0.00000000000E+00 0.  1.
</event>
<event>
 7    1  0.6164995E-012  0.5930195E+02  0.7816164E-02  0.1266605E+00
        -11   -1    0    0    0    0  0.00000000000E+00  0.00000000000E+00  0.45593999997E+02  0.45594000000E+02  0.51100000000E-03 0.  1.
         11   -1    0    0    0    0 -0.00000000000E+00 -0.00000000000E+00 -0.45593999997E+02  0.45594000000E+02  0.51100000000E-03 0. -1.
    9900012    2    1    2    0    0 -0.29136060771E+02 -0.71313028305E+01  0.10814565316E+02  0.59301947559E+02  0.50000006441E+02 0.  0.
         12    1    1    2    0    0  0.29136060771E+02  0.71313028305E+01 -0.10814565316E+02  0.31886052441E+02  0.00000000000E+00 0. -1.
         11    1    3    3    0    0 -0.27565327754E+02  0.25025076490E+01 -0.16581980221E+01  0.27728315125E+02  0.51100000000E-03 0. -1.
        -11    1    3    3    0    0 -0.25851366920E+01  0.51098262466E+01 -0.57475198832E+01  0.81133988597E+01  0.51100000000E-03 0.  1.
        -12    1    3    3    0    0  0.10144036754E+01 -0.14743636726E+02  0.18220283221E+02  0.23460233575E+02  0.00000000000E+00 0.  1.
</event>
<event>
 7    1  0.6164995E-012  0.5930194E+02  0.7816164E-02  0.1266605E+00
        -11   -1    0    0    0    0  0.00000000000E+00  0.00000000000E+00  0.45593999997E+02  0.45594000000E+02  0.51100000000E-03 0.  1.
         11   -1    0    0    0    0 -0.00000000000E+00 -0.00000000000E+00 -0.45593999997E+02  0.45594000000E+02  0.51100000000E-03 0. -1.
    9900012    2    1    2    0    0  0.14320471650E+02  0.91443487378E+01  0.26981952300E+02  0.59301940788E+02  0.49999994091E+02 0.  0.
         12    1    1    2    0    0 -0.14320471650E+02 -0.91443487378E+01 -0.26981952300E+02  0.31886059212E+02  0.00000000000E+00 0. -1.
         11    1    3    3    0    0  0.74722116484E+01 -0.42814684743E+01  0.16926471330E+02  0.18991323049E+02  0.51100000000E-03 0. -1.
        -11    1    3    3    0    0  0.18786124773E+02 -0.12707521501E+01  0.10120062926E+02  0.21376364726E+02  0.51100000000E-03 0.  1.
         12    1    3    3    0    0 -0.11937864771E+02  0.14696569362E+02 -0.64581955659E-01  0.18934253012E+02  0.00000000000E+00 0. -1.
</event>
<event>
 7    1  0.6164995E-012  0.5930195E+02  0.7816164E-02  0.1266605E+00
        -11   -1    0    0    0    0  0.00000000000E+00  0.00000000000E+00  0.45593999997E+02  0.45594000000E+02  0.51100000000E-03 0. -1.
         11   -1    0    0    0    0 -0.00000000000E+00 -0.00000000000E+00 -0.45593999997E+02  0.45594000000E+02  0.51100000000E-03 0.  1.
    9900012    2    1    2    0    0  0.14914353941E+02 -0.11014805455E+02 -0.25941396246E+02  0.59301953963E+02  0.50000018120E+02 0.  0.
         12    1    1    2    0    0 -0.14914353941E+02  0.11014805455E+02  0.25941396246E+02  0.31886046037E+02  0.00000000000E+00 0. -1.
         11    1    3    3    0    0  0.14308002455E+02  0.30257856645E+01  0.57364121832E+00  0.14635688492E+02  0.51100000000E-03 0. -1.
        -11    1    3    3    0    0  0.14146589665E+02 -0.16406911635E+02 -0.12387436087E+02  0.24955186266E+02  0.51100000000E-03 0.  1.
        -12    1    3    3    0    0 -0.13540238179E+02  0.23663205152E+01 -0.14127601378E+02  0.19711079204E+02  0.00000000000E+00 0.  1.
</event>
<event>
 7    1  0.6164995E-012  0.5930191E+02  0.7816164E-02  0.1266605E+00
        -11   -1    0    0    0    0  0.00000000000E+00  0.00000000000E+00  0.45593999997E+02  0.45594000000E+02  0.51100000000E-03 0.  1.
         11   -1    0    0    0    0 -0.00000000000E+00 -0.00000000000E+00 -0.45593999997E+02  0.45594000000E+02  0.51100000000E-03 0. -1.
    9900012    2    1    2    0    0  0.25430834730E+02  0.14827601349E+02  0.12253076362E+02  0.59301905897E+02  0.49999930458E+02 0.  0.
         12    1    1    2    0    0 -0.25430834730E+02 -0.14827601349E+02 -0.12253076362E+02  0.31886094103E+02  0.00000000000E+00 0. -1.
         11    1    3    3    0    0 -0.80527208202E+01  0.51292186538E+01 -0.21371923513E+01  0.97838023291E+01  0.51100000000E-03 0. -1.
        -11    1    3    3    0    0 -0.23210695706E+01 -0.30331402125E+01  0.10673120958E+02  0.11335908201E+02  0.51100000000E-03 0.  1.
        -12    1    3    3    0    0  0.35804625121E+02  0.12731522908E+02  0.37171477556E+01  0.38182195367E+02  0.00000000000E+00 0.  1.
</event>
<event>
 7    1  0.6164995E-012  0.5930195E+02  0.7816164E-02  0.1266605E+00
        -11   -1    0    0    0    0  0.00000000000E+00  0.00000000000E+00  0.45593999997E+02  0.45594000000E+02  0.51100000000E-03 0. -1.
         11   -1    0    0    0    0 -0.00000000000E+00 -0.00000000000E+00 -0.45593999997E+02  0.45594000000E+02  0.51100000000E-03 0.  1.
    9900012    2    1    2    0    0  0.21069736841E+02 -0.22528037731E+01 -0.23826694924E+02  0.59301947777E+02  0.50000006837E+02 0.  0.
         12    1    1    2    0    0 -0.21069736841E+02  0.22528037731E+01  0.23826694924E+02  0.31886052223E+02  0.00000000000E+00 0. -1.
         11    1    3    3    0    0 -0.16295172275E+00 -0.45151042164E+01 -0.92250836419E+01  0.10272043994E+02  0.51100000000E-03 0. -1.
        -11    1    3    3    0    0 -0.45676909182E+01  0.16388513408E+02 -0.83785816094E+01  0.18964382460E+02  0.51100000000E-03 0.  1.
         12    1    3    3    0    0  0.25800379482E+02 -0.14126212964E+02 -0.62230296729E+01  0.30065521323E+02  0.00000000000E+00 0. -1.
</event>
<event>
 7    1  0.6164995E-012  0.5930189E+02  0.7816164E-02  0.1266605E+00
        -11   -1    0    0    0    0  0.00000000000E+00  0.00000000000E+00  0.45593999997E+02  0.45594000000E+02  0.51100000000E-03 0. -1.
         11   -1    0    0    0    0 -0.00000000000E+00 -0.00000000000E+00 -0.45593999997E+02  0.45594000000E+02  0.51100000000E-03 0.  1.
    9900012    2    1    2    0    0 -0.31926503867E+00 -0.23538410916E+02 -0.21507324829E+02  0.59301894250E+02  0.49999909217E+02 0.  0.
         12    1    1    2    0    0  0.31926503867E+00  0.23538410916E+02  0.21507324829E+02  0.31886105750E+02  0.00000000000E+00 0. -1.
         11    1    3    3    0    0  0.11031807442E+01  0.94691899015E+01  0.17076799277E+01  0.96849747621E+01  0.51100000000E-03 0.  1.
        -11    1    3    3    0    0 -0.65713165266E+01  0.11303621426E+01 -0.11251348401E+02  0.13078714026E+02  0.51100000000E-03 0. -1.
         12    1    3    3    0    0  0.51488707437E+01 -0.34137962960E+02 -0.11963656356E+02  0.36538205462E+02  0.00000000000E+00 0. -1.
</event>
<event>
 7    1  0.6164995E-012  0.5930195E+02  0.7816164E-02  0.1266605E+00
        -11   -1    0    0    0    0  0.00000000000E+00  0.00000000000E+00  0.45593999997E+02  0.45594000000E+02  0.51100000000E-03 0. -1.
         11   -1    0    0    0    0 -0.00000000000E+00 -0.00000000000E+00 -0.45593999997E+02  0.45594000000E+02  0.51100000000E-03 0.  1.
    9900012    2    1    2    0    0 -0.29016812782E+02  0.12231270317E+02 -0.50140419205E+01  0.59301952676E+02  0.50000015772E+02 0.  0.
         12    1    1    2    0    0  0.29016812782E+02 -0.12231270317E+02  0.50140419205E+01  0.31886047324E+02  0.00000000000E+00 0. -1.
         11    1    3    3    0    0 -0.51689402675E+01  0.14743869551E+02 -0.15769926092E+02  0.22198878396E+02  0.51100000000E-03 0. -1.
        -11    1    3    3    0    0 -0.39071524220E+01 -0.11497169427E+01 -0.84522180211E+01  0.93823066905E+01  0.51100000000E-03 0.  1.
         12    1    3    3    0    0 -0.19940720092E+02 -0.13628822911E+01  0.19208102193E+02  0.27720767590E+02  0.00000000000E+00 0. -1.
</event>
<event>
 7    1  0.6164995E-012  0.5930195E+02  0.7816164E-02  0.1266605E+00
        -11   -1    0    0    0    0  0.00000000000E+00  0.00000000000E+00  0.45593999997E+02  0.45594000000E+02  0.51100000000E-03 0. -1.
         11   -1    0    0    0    0 -0.00000000000E+00 -0.00000000000E+00 -0.45593999997E+02  0.45594000000E+02  0.51100000000E-03 0.  1.
    9900012    2    1    2    0    0 -0.15089629388E+02  0.10239974712E+02 -0.26156574535E+02  0.59301946802E+02  0.50000005059E+02 0.  0.
         12    1    1    2    0    0  0.15089629388E+02 -0.10239974712E+02  0.26156574535E+02  0.31886053198E+02  0.00000000000E+00 0. -1.
         11    1    3    3    0    0 -0.76225158333E+00  0.48750595806E+01  0.45755163046E+01  0.67292334708E+01  0.51100000000E-03 0. -1.
        -11    1    3    3    0    0 -0.20004766376E+02  0.66945569911E+01  0.19966008726E+00  0.21096152149E+02  0.51100000000E-03 0.  1.
         12    1    3    3    0    0  0.56773885718E+01 -0.13296418601E+01 -0.30931750927E+02  0.31476561182E+02  0.00000000000E+00 0. -1.
</event>
<event>
 7    1  0.6164995E-012  0.5930193E+02  0.7816164E-02  0.1266605E+00
        -11   -1    0    0    0    0  0.00000000000E+00  0.00000000000E+00  0.45593999997E+02  0.45594000000E+02  0.51100000000E-03 0.  1.
         11   -1    0    0    0    0 -0.00000000000E+00 -0.00000000000E+00 -0.45593999997E+02  0.45594000000E+02  0.51100000000E-03 0. -1.
    9900012    2    1    2    0    0  0.18084062942E+02 -0.14531871044E+02  0.21874929789E+02  0.59301934676E+02  0.49999982946E+02 0.  0.
         12    1    1    2    0    0 -0.18084062942E+02  0.14531871044E+02 -0.21874929789E+02  0.31886065324E+02  0.00000000000E+00 0. -1.
         11    1    3    3    0    0 -0.21551182464E+01 -0.50662776065E-01 -0.95673303976E+01  0.98071867816E+01  0.51100000000E-03 0. -1.
        -11    1    3    3    0    0  0.19900868947E+02 -0.18840535266E+02  0.12619029531E+02  0.30170354000E+02  0.51100000000E-03 0.  1.
        -12    1    3    3    0    0  0.33831224198E+00  0.43593269985E+01  0.18823230656E+02  0.19324393894E+02  0.00000000000E+00 0.  1.
</event>
<event>
 7    1  0.6164995E-012  0.5930195E+02  0.7816164E-02  0.1266605E+00
        -11   -1    0    0    0    0  0.00000000000E+00  0.00000000000E+00  0.45593999997E+02  0.45594000000E+02  0.51100000000E-03 0.  1.
         11   -1    0    0    0    0 -0.00000000000E+00 -0.00000000000E+00 -0.45593999997E+02  0.45594000000E+02  0.51100000000E-03 0. -1.
    9900012    2    1    2    0    0 -0.26085950836E+02  0.28217007744E+00  0.18334776908E+02  0.59301945129E+02  0.50000002009E+02 0.  0.
         12    1    1    2    0    0  0.26085950836E+02 -0.28217007744E+00 -0.18334776908E+02  0.31886054871E+02  0.00000000000E+00 0. -1.
         11    1    3    3    0    0  0.13568781059E+01 -0.67682272959E+01  0.40417924437E+01  0.79991315367E+01  0.51100000000E-03 0. -1.
        -11    1    3    3    0    0 -0.21072784498E+02 -0.12405817148E+02  0.18171901396E+02  0.30466121286E+02  0.51100000000E-03 0.  1.
        -12    1    3    3    0    0 -0.63700444436E+01  0.19456214521E+02 -0.38789169317E+01  0.20836692306E+02  0.00000000000E+00 0.  1.
</event>
<event>
 7    1  0.6164995E-012  0.5930195E+02  0.7816164E-02  0.1266605E+00
        -11   -1    0    0    0    0  0.00000000000E+00  0.00000000000E+00  0.45593999997E+02  0.45594000000E+02  0.51100000000E-03 0.  1.
         11   -1    0    0    0    0 -0.00000000000E+00 -0.00000000000E+00 -0.45593999997E+02  0.45594000000E+02  0.51100000000E-03 0. -1.
    9900012    2    1    2    0    0 -0.32606806918E+01 -0.73035854703E-01  0.31718805964E+02  0.59301952509E+02  0.50000015468E+02 0.  0.
         12    1    1    2    0    0  0.32606806918E+01  0.73035854703E-01 -0.31718805964E+02  0.31886047491E+02  0.00000000000E+00 0. -1.
         11    1    3    3    0    0  0.65513379190E+01  0.50563509107E+01 -0.30800377968E+01  0.88302517604E+01  0.51100000000E-03 0. -1.
        -11    1    3    3    0    0  0.10514963657E+02  0.69154297016E+01  0.15487890683E+02  0.19956512389E+02  0.51100000000E-03 0.  1.
         12    1    3    3    0    0 -0.20326982268E+02 -0.12044816467E+02  0.19310953077E+02  0.30515188359E+02  0.00000000000E+00 0. -1.
</event>
<event>
 7    1  0.6164995E-012  0.5930198E+02  0.7816164E-02  0.1266605E+00
        -11   -1    0    0    0    0  0.00000000000E+00  0.00000000000E+00  0.45593999997E+02  0.45594000000E+02  0.51100000000E-03 0.  1.
         11   -1    0    0    0    0 -0.00000000000E+00 -0.00000000000E+00 -0.45593999997E+02  0.45594000000E+02  0.51100000000E-03 0. -1.
    9900012    2    1    2    0    0 -0.14604864474E+02  0.13304496818E+02  0.25028115110E+02  0.59301980370E+02  0.50000066280E+02 0.  0.
         12    1    1    2    0    0  0.14604864474E+02 -0.13304496818E+02 -0.25028115110E+02  0.31886019630E+02  0.00000000000E+00 0. -1.
         11    1    3    3    0    0  0.23182357695E+01  0.64494845340E+01 -0.85472711312E+01  0.10955633797E+02  0.51100000000E-03 0. -1.
        -11    1    3    3    0    0  0.33280337782E+01 -0.42986414569E+01 -0.21056336193E+01  0.58299074095E+01  0.51100000000E-03 0.  1.
        -12    1    3    3    0    0 -0.20251134021E+02  0.11153653740E+02  0.35681019861E+02  0.42516439164E+02  0.00000000000E+00 0.  1.
</event>
<event>
 7    1  0.6164995E-012  0.5930200E+02  0.7816164E-02  0.1266605E+00
        -11   -1    0    0    0    0  0.00000000000E+00  0.00000000000E+00  0.45593999997E+02  0.45594000000E+02  0.51100000000E-03 0.  1.
         11   -1    0    0    0    0 -0.00000000000E+00 -0.00000000000E+00 -0.45593999997E+02  0.45594000000E+02  0.51100000000E-03 0. -1.
    9900012    2    1    2    0    0  0.19006317657E+02  0.25228237822E+02  0.43603488607E+01  0.59302004067E+02  0.50000109497E+02 0.  0.
         12    1    1    2    0    0 -0.19006317657E+02 -0.25228237822E+02 -0.43603488607E+01  0.31885995933E+02  0.00000000000E+00 0. -1.
         11    1    3    3    0    0 -0.52235846609E+01  0.11510613095E+02  0.29695276401E+01  0.12984534847E+02  0.51100000000E-03 0. -1.
        -11    1    3    3    0    0  0.13924381084E+02 -0.47673746563E+01  0.15112243301E+02  0.21094931798E+02  0.51100000000E-03 0.  1.
         12    1    3    3    0    0  0.10305521234E+02  0.18484999384E+02 -0.13721422081E+02  0.25222537422E+02  0.00000000000E+00 0. -1.
</event>
<event>
 7    1  0.6164995E-012  0.5930194E+02  0.7816164E-02  0.1266605E+00
        -11   -1    0    0    0    0  0.00000000000E+00  0.00000000000E+00  0.45593999997E+02  0.45594000000E+02  0.51100000000E-03 0.  1.
         11   -1    0    0    0    0 -0.00000000000E+00 -0.00000000000E+00 -0.45593999997E+02  0.45594000000E+02  0.51100000000E-03 0. -1.
    9900012    2    1    2    0    0 -0.17097448677E+02  0.21082036063E+02  0.16731586503E+02  0.59301937485E+02  0.49999988067E+02 0.  0.
         12    1    1    2    0    0  0.17097448677E+02 -0.21082036063E+02 -0.16731586503E+02  0.31886062515E+02  0.00000000000E+00 0. -1.
         11    1    3    3    0    0 -0.10488589677E+02  0.77405236778E+01 -0.13307630578E+02  0.18628452756E+02  0.51100000000E-03 0. -1.
        -11    1    3    3    0    0 -0.11360212738E+02  0.50208942611E+01  0.41939526854E+01  0.13109273512E+02  0.51100000000E-03 0.  1.
         12    1    3    3    0    0  0.47513537384E+01  0.83206181244E+01  0.25845264395E+02  0.27564211216E+02  0.00000000000E+00 0. -1.
</event>
<event>
 7    1  0.6164995E-012  0.5930196E+02  0.7816164E-02  0.1266605E+00
        -11   -1    0    0    0    0  0.00000000000E+00  0.00000000000E+00  0.45593999997E+02  0.45594000000E+02  0.51100000000E-03 0. -1.
         11   -1    0    0    0    0 -0.00000000000E+00 -0.00000000000E+00 -0.45593999997E+02  0.45594000000E+02  0.51100000000E-03 0.  1.
    9900012    2    1    2    0    0 -0.10869063812E+02  0.29649038260E+02  0.44178783196E+01  0.59301958121E+02  0.50000025703E+02 0.  0.
         12    1    1    2    0    0  0.10869063812E+02 -0.29649038260E+02 -0.44178783196E+01  0.31886041879E+02  0.00000000000E+00 0. -1.
         11    1    3    3    0    0 -0.87011999558E+01  0.85769698499E+01  0.14668897868E+02  0.19090622237E+02  0.51100000000E-03 0. -1.
        -11    1    3    3    0    0  0.31844516562E+01 -0.54754873700E+01  0.59191636446E+01  0.86693824926E+01  0.51100000000E-03 0.  1.
         12    1    3    3    0    0 -0.53523155125E+01  0.26547555780E+02 -0.16170183193E+02  0.31541953391E+02  0.00000000000E+00 0. -1.
</event>
<event>
 7    1  0.6164995E-012  0.5930196E+02  0.7816164E-02  0.1266605E+00
        -11   -1    0    0    0    0  0.00000000000E+00  0.00000000000E+00  0.45593999997E+02  0.45594000000E+02  0.51100000000E-03 0.  1.
         11   -1    0    0    0    0 -0.00000000000E+00 -0.00000000000E+00 -0.45593999997E+02  0.45594000000E+02  0.51100000000E-03 0. -1.
    9900012    2    1    2    0    0 -0.94923005203E+01  0.27081160107E+01  0.30319661622E+02  0.59301960071E+02  0.50000029259E+02 0.  0.
         12    1    1    2    0    0  0.94923005203E+01 -0.27081160107E+01 -0.30319661622E+02  0.31886039929E+02  0.00000000000E+00 0. -1.
         11    1    3    3    0    0 -0.87694384832E+01  0.14596725418E+02  0.14205736216E+02  0.22175896508E+02  0.51100000000E-03 0. -1.
        -11    1    3    3    0    0 -0.68191388991E+01 -0.71195936010E+01  0.24079457897E+02  0.26019407396E+02  0.51100000000E-03 0.  1.
         12    1    3    3    0    0  0.60962768620E+01 -0.47690158062E+01 -0.79655324910E+01  0.11106656167E+02  0.00000000000E+00 0. -1.
</event>
<event>
 7    1  0.6164995E-012  0.5930192E+02  0.7816164E-02  0.1266605E+00
        -11   -1    0    0    0    0  0.00000000000E+00  0.00000000000E+00  0.45593999997E+02  0.45594000000E+02  0.51100000000E-03 0. -1.
         11   -1    0    0    0    0 -0.00000000000E+00 -0.00000000000E+00 -0.45593999997E+02  0.45594000000E+02  0.51100000000E-03 0.  1.
    9900012    2    1    2    0    0  0.71947731906E+01 -0.30988233486E+02  0.21648576839E+01  0.59301921774E+02  0.49999959414E+02 0.  0.
         12    1    1    2    0    0 -0.71947731906E+01  0.30988233486E+02 -0.21648576839E+01  0.31886078226E+02  0.00000000000E+00 0. -1.
         11    1    3    3    0    0 -0.41874082190E+01 -0.12777163946E+02  0.60020202288E+00  0.13459217987E+02  0.51100000000E-03 0. -1.
        -11    1    3    3    0    0  0.85791873428E+01 -0.24381538468E+02 -0.13618840623E+02  0.29215316080E+02  0.51100000000E-03 0.  1.
         12    1    3    3    0    0  0.28029940669E+01  0.61704689273E+01  0.15183496284E+02  0.16627387706E+02  0.00000000000E+00 0. -1.
</event>
<event>
 7    1  0.6164995E-012  0.5930197E+02  0.7816164E-02  0.1266605E+00
        -11   -1    0    0    0    0  0.00000000000E+00  0.00000000000E+00  0.45593999997E+02  0.45594000000E+02  0.51100000000E-03 0.  1.
         11   -1    0    0    0    0 -0.00000000000E+00 -0.00000000000E+00 -0.45593999997E+02  0.45594000000E+02  0.51100000000E-03 0. -1.
    9900012    2    1    2    0    0  0.19713663790E+02  0.44615658015E+01  0.24661407683E+02  0.59301966406E+02  0.50000040813E+02 0.  0.
         12    1    1    2    0    0 -0.19713663790E+02 -0.44615658015E+01 -0.24661407683E+02  0.31886033594E+02  0.00000000000E+00 0. -1.
         11    1    3    3    0    0 -0.16449319108E+00 -0.47935501413E+01  0.12949859526E+02  0.13809563460E+02  0.51100000000E-03 0. -1.
        -11    1    3    3    0    0  0.30894208336E+02  0.32772735571E+01  0.10931650526E+02  0.32934687097E+02  0.51100000000E-03 0.  1.
         12    1    3    3    0    0 -0.11016051355E+02  0.59778423856E+01  0.77989763101E+00  0.12557715849E+02  0.00000000000E+00 0. -1.
</event>
<event>
 7    1  0.6164995E-012  0.5930193E+02  0.7816164E-02  0.1266605E+00
        -11   -1    0    0    0    0  0.00000000000E+00  0.00000000000E+00  0.45593999997E+02  0.45594000000E+02  0.51100000000E-03 0. -1.
         11   -1    0    0    0    0 -0.00000000000E+00 -0.00000000000E+00 -0.45593999997E+02  0.45594000000E+02  0.51100000000E-03 0.  1.
    9900012    2    1    2    0    0 -0.16587821393E+02 -0.27211174050E+02  0.10570914890E+01  0.59301933229E+02  0.49999980305E+02 0.  0.
         12    1    1    2    0    0  0.16587821393E+02  0.27211174050E+02 -0.10570914890E+01  0.31886066771E+02  0.00000000000E+00 0. -1.
         11    1    3    3    0    0 -0.76828030071E+01  0.18228928504E+01 -0.27424332606E+01  0.83587882399E+01  0.51100000000E-03 0. -1.
        -11    1    3    3    0    0 -0.10499587102E+02 -0.15121676153E+02 -0.17534546293E+02  0.25423743488E+02  0.51100000000E-03 0.  1.
         12    1    3    3    0    0  0.15945687166E+01 -0.13912390747E+02  0.21334071042E+02  0.25519401500E+02  0.00000000000E+00 0. -1.
</event>
<event>
 7    1  0.6164995E-012  0.5930195E+02  0.7816164E-02  0.1266605E+00
        -11   -1    0    0    0    0  0.00000000000E+00  0.00000000000E+00  0.45593999997E+02  0.45594000000E+02  0.51100000000E-03 0. -1.
         11   -1    0    0    0    0 -0.00000000000E+00 -0.00000000000E+00 -0.45593999997E+02  0.45594000000E+02  0.51100000000E-03 0.  1.
    9900012    2    1    2    0    0 -0.11852206733E+02  0.22004837801E+02 -0.19799811888E+02  0.59301949102E+02  0.50000009254E+02 0.  0.
         12    1    1    2    0    0  0.11852206733E+02 -0.22004837801E+02  0.19799811888E+02  0.31886050898E+02  0.00000000000E+00 0. -1.
         11    1    3    3    0    0  0.72023445184E+01  0.19774203048E+01 -0.36058395797E+00  0.74775650232E+01  0.51100000000E-03 0. -1.
        -11    1    3    3    0    0 -0.21681910361E+02  0.29262487162E+02 -0.21084787619E+02  0.42082854716E+02  0.51100000000E-03 0.  1.
         12    1    3    3    0    0  0.26273591098E+01 -0.92350696662E+01  0.16455596895E+01  0.97415293627E+01  0.00000000000E+00 0. -1.
</event>
<event>
 7    1  0.6164995E-012  0.5930197E+02  0.7816164E-02  0.1266605E+00
        -11   -1    0    0    0    0  0.00000000000E+00  0.00000000000E+00  0.45593999997E+02  0.45594000000E+02  0.51100000000E-03 0.  1.
         11   -1    0    0    0    0 -0.00000000000E+00 -0.00000000000E+00 -0.45593999997E+02  0.45594000000E+02  0.51100000000E-03 0. -1.
    9900012    2    1    2    0    0  0.27227461524E+01  0.24133265385E+02  0.20661348414E+02  0.59301966019E+02  0.50000040106E+02 0.  0.
         12    1    1    2    0    0 -0.27227461524E+01 -0.24133265385E+02 -0.20661348414E+02  0.31886033981E+02  0.00000000000E+00 0. -1.
         11    1    3    3    0    0 -0.15648873564E+02  0.30356694474E+01  0.65100385724E+01  0.17218685644E+02  0.51100000000E-03 0. -1.
        -11    1    3    3    0    0 -0.34966455250E+01  0.16910415501E+02  0.76596796703E+01  0.18890721936E+02  0.51100000000E-03 0.  1.
        -12    1    3    3    0    0  0.21868265241E+02  0.41871804365E+01  0.64916301717E+01  0.23192558439E+02  0.00000000000E+00 0.  1.
</event>
<event>
 7    1  0.6164995E-012  0.5930194E+02  0.7816164E-02  0.1266605E+00
        -11   -1    0    0    0    0  0.00000000000E+00  0.00000000000E+00  0.45593999997E+02  0.45594000000E+02  0.51100000000E-03 0. -1.
         11   -1    0    0    0    0 -0.00000000000E+00 -0.00000000000E+00 -0.45593999997E+02  0.45594000000E+02  0.51100000000E-03 0.  1.
    9900012    2    1    2    0    0  0.28398140165E+02 -0.17822729206E+01 -0.14390622350E+02  0.59301939202E+02  0.49999991199E+02 0.  0.
         12    1    1    2    0    0 -0.28398140165E+02  0.17822729206E+01  0.14390622350E+02  0.31886060798E+02  0.00000000000E+00 0. -1.
         11    1    3    3    0    0  0.21026421871E+02 -0.17231836163E+01 -0.15842063309E+02  0.26382773709E+02  0.51100000000E-03 0. -1.
        -11    1    3    3    0    0 -0.40620876650E+01 -0.10496185915E+02 -0.88553787933E+01  0.14320901117E+02  0.51100000000E-03 0.  1.
        -12    1    3    3    0    0  0.11433805959E+02  0.10437096611E+02  0.10306819752E+02  0.18598264376E+02  0.00000000000E+00 0.  1.
</event>
<event>
 7    1  0.6164995E-012  0.5930195E+02  0.7816164E-02  0.1266605E+00
        -11   -1    0    0    0    0  0.00000000000E+00  0.00000000000E+00  0.45593999997E+02  0.45594000000E+02  0.51100000000E-03 0. -1.
         11   -1    0    0    0    0 -0.00000000000E+00 -0.00000000000E+00 -0.45593999997E+02  0.45594000000E+02  0.51100000000E-03 0.  1.
    9900012    2    1    2    0    0  0.21370703873E+02  0.17951770902E+02 -0.15419057477E+02  0.59301946685E+02  0.50000004846E+02 0.  0.
         12    1    1    2    0    0 -0.21370703873E+02 -0.17951770902E+02  0.15419057477E+02  0.31886053315E+02  0.00000000000E+00 0. -1.
         11    1    3    3    0    0  0.11595424264E+01  0.59165241546E+01 -0.58901336642E+01  0.84287289406E+01  0.51100000000E-03 0. -1.
        -11    1    3    3    0    0  0.14876560794E+02  0.28679244710E+02 -0.40749940962E+01  0.32564040219E+02  0.51100000000E-03 0.  1.
         12    1    3    3    0    0  0.53346006527E+01 -0.16643997963E+02 -0.54539297163E+01  0.18309177525E+02  0.00000000000E+00 0. -1.
</event>
<event>
 7    1  0.6164995E-012  0.5930194E+02  0.7816164E-02  0.1266605E+00
        -11   -1    0    0    0    0  0.00000000000E+00  0.00000000000E+00  0.45593999997E+02  0.45594000000E+02  0.51100000000E-03 0. -1.
         11   -1    0    0    0    0 -0.00000000000E+00 -0.00000000000E+00 -0.45593999997E+02  0.45594000000E+02  0.51100000000E-03 0.  1.
    9900012    2    1    2    0    0 -0.26300653811E+02  0.32848400549E+01 -0.17725865004E+02  0.59301939484E+02  0.49999991713E+02 0.  0.
         12    1    1    2    0    0  0.26300653811E+02 -0.32848400549E+01  0.17725865004E+02  0.31886060516E+02  0.00000000000E+00 0. -1.
         11    1    3    3    0    0  0.50090750848E+01 -0.13501878042E+01 -0.54145552433E+01  0.74987498328E+01  0.51100000000E-03 0. -1.
        -11    1    3    3    0    0 -0.11670170225E+01  0.66991144523E+01  0.11482911051E+02  0.13345310399E+02  0.51100000000E-03 0.  1.
        -12    1    3    3    0    0 -0.30142711874E+02 -0.20640865932E+01 -0.23794220812E+02  0.38457879252E+02  0.00000000000E+00 0.  1.
</event>
<event>
 7    1  0.6164995E-012  0.5930192E+02  0.7816164E-02  0.1266605E+00
        -11   -1    0    0    0    0  0.00000000000E+00  0.00000000000E+00  0.45593999997E+02  0.45594000000E+02  0.51100000000E-03 0.  1.
         11   -1    0    0    0    0 -0.00000000000E+00 -0.00000000000E+00 -0.45593999997E+02  0.45594000000E+02  0.51100000000E-03 0. -1.
    9900012    2    1    2    0    0 -0.30102180324E+02 -0.32097796899E+01  0.10013893262E+02  0.59301921467E+02  0.49999958855E+02 0.  0.
         12    1    1    2    0    0  0.30102180324E+02  0.32097796899E+01 -0.10013893262E+02  0.31886078533E+02  0.00000000000E+00 0. -1.
         11    1    3    3    0    0 -0.46608146705E+01  0.12253969665E+02 -0.33089850135E+01  0.13521551243E+02  0.51100000000E-03 0. -1.
        -11    1    3    3    0    0  0.47593718811E+01  0.25230616298E+01  0.88296406652E+01  0.10343114387E+02  0.51100000000E-03 0.  1.
         12    1    3    3    0    0 -0.30200737535E+02 -0.17986810984E+02  0.44932376105E+01  0.35437255837E+02  0.00000000000E+00 0. -1.
</event>
<event>
 7    1  0.6164995E-012  0.5930195E+02  0.7816164E-02  0.1266605E+00
        -11   -1    0    0    0    0  0.00000000000E+00  0.00000000000E+00  0.45593999997E+02  0.45594000000E+02  0.51100000000E-03 0.  1.
         11   -1    0    0    0    0 -0.00000000000E+00 -0.00000000000E+00 -0.45593999997E+02  0.45594000000E+02  0.51100000000E-03 0. -1.
    9900012    2    1    2    0    0 -0.22417831333E+02  0.63713045663E+01 -0.21761602881E+02  0.59301952212E+02  0.50000014927E+02 0.  0.
         12    1    1    2    0    0  0.22417831333E+02 -0.63713045663E+01  0.21761602881E+02  0.31886047788E+02  0.00000000000E+00 0. -1.
         11    1    3    3    0    0 -0.21751904413E+01  0.43946251340E+00  0.28489641948E+01  0.36112571219E+01  0.51100000000E-03 0. -1.
        -11    1    3    3    0    0 -0.26792499287E+01 -0.82143787160E+01  0.10724630690E+02  0.13772149490E+02  0.51100000000E-03 0.  1.
         12    1    3    3    0    0 -0.17563390963E+02  0.14146220769E+02 -0.35335197766E+02  0.41918545601E+02  0.00000000000E+00 0. -1.
</event>
<event>
 7    1  0.6164995E-012  0.5930195E+02  0.7816164E-02  0.1266605E+00
        -11   -1    0    0    0    0  0.00000000000E+00  0.00000000000E+00  0.45593999997E+02  0.45594000000E+02  0.51100000000E-03 0. -1.
         11   -1    0    0    0    0 -0.00000000000E+00 -0.00000000000E+00 -0.45593999997E+02  0.45594000000E+02  0.51100000000E-03 0.  1.
    9900012    2    1    2    0    0  0.30957201963E+02  0.48141322034E+01 -0.59326047971E+01  0.59301952550E+02  0.50000015543E+02 0.  0.
         12    1    1    2    0    0 -0.30957201963E+02 -0.48141322034E+01  0.59326047971E+01  0.31886047450E+02  0.00000000000E+00 0. -1.
         11    1    3    3    0    0  0.15916162831E+02  0.15731441088E+02 -0.32713315341E+00  0.22381007447E+02  0.51100000000E-03 0. -1.
        -11    1    3    3    0    0  0.23395022539E+02 -0.37154287294E+01  0.16064641401E+01  0.23742624487E+02  0.51100000000E-03 0.  1.
        -12    1    3    3    0    0 -0.83539834064E+01 -0.72018801555E+01 -0.72119357838E+01  0.13178320617E+02  0.00000000000E+00 0.  1.
</event>
<event>
 7    1  0.6164995E-012  0.5930195E+02  0.7816164E-02  0.1266605E+00
        -11   -1    0    0    0    0  0.00000000000E+00  0.00000000000E+00  0.45593999997E+02  0.45594000000E+02  0.51100000000E-03 0. -1.
         11   -1    0    0    0    0 -0.00000000000E+00 -0.00000000000E+00 -0.45593999997E+02  0.45594000000E+02  0.51100000000E-03 0.  1.
    9900012    2    1    2    0    0  0.13878433205E+02  0.23493318606E+02 -0.16497677319E+02  0.59301948437E+02  0.50000008042E+02 0.  0.
         12    1    1    2    0    0 -0.13878433205E+02 -0.23493318606E+02  0.16497677319E+02  0.31886051563E+02  0.00000000000E+00 0. -1.
         11    1    3    3    0    0  0.17675740461E+02 -0.63785389396E+01  0.34352040346E+01  0.19102831907E+02  0.51100000000E-03 0. -1.
        -11    1    3    3    0    0  0.36059701549E+01  0.27019181774E+00 -0.51516170113E+01  0.62940592997E+01  0.51100000000E-03 0.  1.
         12    1    3    3    0    0 -0.74032774108E+01  0.29601665727E+02 -0.14781264342E+02  0.33905057231E+02  0.00000000000E+00 0. -1.
</event>
<event>
 7    1  0.6164995E-012  0.5930196E+02  0.7816164E-02  0.1266605E+00
        -11   -1    0    0    0    0  0.00000000000E+00  0.00000000000E+00  0.45593999997E+02  0.45594000000E+02  0.51100000000E-03 0.  1.
         11   -1    0    0    0    0 -0.00000000000E+00 -0.00000000000E+00 -0.45593999997E+02  0.45594000000E+02  0.51100000000E-03 0. -1.
    9900012    2    1    2    0    0 -0.15234967025E+02 -0.17767290743E+02  0.21654999575E+02  0.59301955291E+02  0.50000020541E+02 0.  0.
         12    1    1    2    0    0  0.15234967025E+02  0.17767290743E+02 -0.21654999575E+02  0.31886044709E+02  0.00000000000E+00 0. -1.
         11    1    3    3    0    0 -0.18275837107E+02  0.51610214723E+01 -0.29157523771E+01  0.19213119912E+02  0.51100000000E-03 0. -1.
        -11    1    3    3    0    0 -0.42492239262E+01 -0.29822696962E+01  0.16621419903E+02  0.17413254618E+02  0.51100000000E-03 0.  1.
        -12    1    3    3    0    0  0.72900940078E+01 -0.19946042519E+02  0.79493320486E+01  0.22675580761E+02  0.00000000000E+00 0.  1.
</event>
<event>
 7    1  0.6164995E-012  0.5930188E+02  0.7816164E-02  0.1266605E+00
        -11   -1    0    0    0    0  0.00000000000E+00  0.00000000000E+00  0.45593999997E+02  0.45594000000E+02  0.51100000000E-03 0.  1.
         11   -1    0    0    0    0 -0.00000000000E+00 -0.00000000000E+00 -0.45593999997E+02  0.45594000000E+02  0.51100000000E-03 0. -1.
    9900012    2    1    2    0    0 -0.50138399629E+01 -0.27212869782E+02  0.15844426497E+02  0.59301878819E+02  0.49999881075E+02 0.  0.
         12    1    1    2    0    0  0.50138399629E+01  0.27212869782E+02 -0.15844426497E+02  0.31886121181E+02  0.00000000000E+00 0. -1.
         11    1    3    3    0    0 -0.59293177277E+00  0.12687214716E+02  0.19993552011E+01  0.12857465023E+02  0.51100000000E-03 0. -1.
        -11    1    3    3    0    0 -0.64243321366E+01 -0.39142261342E+01 -0.74932165494E+00  0.75600722771E+01  0.51100000000E-03 0.  1.
        -12    1    3    3    0    0  0.20034239464E+01 -0.35985858364E+02  0.14594392951E+02  0.38884341518E+02  0.00000000000E+00 0.  1.
</event>
<event>
 7    1  0.6164995E-012  0.5930196E+02  0.7816164E-02  0.1266605E+00
        -11   -1    0    0    0    0  0.00000000000E+00  0.00000000000E+00  0.45593999997E+02  0.45594000000E+02  0.51100000000E-03 0. -1.
         11   -1    0    0    0    0 -0.00000000000E+00 -0.00000000000E+00 -0.45593999997E+02  0.45594000000E+02  0.51100000000E-03 0.  1.
    9900012    2    1    2    0    0  0.22730957737E+01  0.13739243198E+02 -0.28684246109E+02  0.59301956926E+02  0.50000023524E+02 0.  0.
         12    1    1    2    0    0 -0.22730957737E+01 -0.13739243198E+02  0.28684246109E+02  0.31886043074E+02  0.00000000000E+00 0. -1.
         11    1    3    3    0    0  0.71205632497E+00 -0.65290333583E+01 -0.12694847516E+02  0.14293161110E+02  0.51100000000E-03 0. -1.
        -11    1    3    3    0    0 -0.15235936427E+02 -0.62000820544E+00 -0.51279590536E+01  0.16087701305E+02  0.51100000000E-03 0.  1.
         12    1    3    3    0    0  0.16796975875E+02  0.20888284762E+02 -0.10861439539E+02  0.28921094511E+02  0.00000000000E+00 0. -1.
</event>
<event>
 7    1  0.6164995E-012  0.5930184E+02  0.7816164E-02  0.1266605E+00
        -11   -1    0    0    0    0  0.00000000000E+00  0.00000000000E+00  0.45593999997E+02  0.45594000000E+02  0.51100000000E-03 0. -1.
         11   -1    0    0    0    0 -0.00000000000E+00 -0.00000000000E+00 -0.45593999997E+02  0.45594000000E+02  0.51100000000E-03 0.  1.
    9900012    2    1    2    0    0  0.11448241836E+02 -0.29014716709E+02 -0.66189999749E+01  0.59301840189E+02  0.49999810623E+02 0.  0.
         12    1    1    2    0    0 -0.11448241836E+02  0.29014716709E+02  0.66189999749E+01  0.31886159811E+02  0.00000000000E+00 0. -1.
         11    1    3    3    0    0 -0.13435507164E+02 -0.17524224082E+02 -0.80227057337E+01  0.23494150123E+02  0.51100000000E-03 0. -1.
        -11    1    3    3    0    0  0.11801795391E+02 -0.16094076328E+02 -0.49362584189E+01  0.20558898676E+02  0.51100000000E-03 0.  1.
         12    1    3    3    0    0  0.13081953608E+02  0.46035837017E+01  0.63399641776E+01  0.15248791391E+02  0.00000000000E+00 0. -1.
</event>
<event>
 7    1  0.6164995E-012  0.5930191E+02  0.7816164E-02  0.1266605E+00
        -11   -1    0    0    0    0  0.00000000000E+00  0.00000000000E+00  0.45593999997E+02  0.45594000000E+02  0.51100000000E-03 0. -1.
         11   -1    0    0    0    0 -0.00000000000E+00 -0.00000000000E+00 -0.45593999997E+02  0.45594000000E+02  0.51100000000E-03 0.  1.
    9900012    2    1    2    0    0  0.54369938783E+01 -0.14902541459E+02 -0.27660003566E+02  0.59301914608E+02  0.49999946345E+02 0.  0.
         12    1    1    2    0    0 -0.54369938783E+01  0.14902541459E+02  0.27660003566E+02  0.31886085392E+02  0.00000000000E+00 0. -1.
         11    1    3    3    0    0 -0.11569307978E+02 -0.16613651705E+01  0.68503562828E+01  0.13547560768E+02  0.51100000000E-03 0. -1.
        -11    1    3    3    0    0  0.11778880076E+02 -0.33744387610E+01 -0.34220292674E+01  0.12721601211E+02  0.51100000000E-03 0.  1.
        -12    1    3    3    0    0  0.52274217794E+01 -0.98667375270E+01 -0.31088330581E+02  0.33032752629E+02  0.00000000000E+00 0.  1.
</event>
<event>
 7    1  0.6164995E-012  0.5930195E+02  0.7816164E-02  0.1266605E+00
        -11   -1    0    0    0    0  0.00000000000E+00  0.00000000000E+00  0.45593999997E+02  0.45594000000E+02  0.51100000000E-03 0.  1.
         11   -1    0    0    0    0 -0.00000000000E+00 -0.00000000000E+00 -0.45593999997E+02  0.45594000000E+02  0.51100000000E-03 0. -1.
    9900012    2    1    2    0    0 -0.24782444756E+02 -0.41237833433E+00  0.20059426574E+02  0.59301949469E+02  0.50000009924E+02 0.  0.
         12    1    1    2    0    0  0.24782444756E+02  0.41237833433E+00 -0.20059426574E+02  0.31886050531E+02  0.00000000000E+00 0. -1.
         11    1    3    3    0    0  0.24173847375E+01  0.98224318582E+00  0.35943911982E+01  0.44416437263E+01  0.51100000000E-03 0. -1.
        -11    1    3    3    0    0 -0.45993487179E+01 -0.88021419439E+01  0.27059080646E+02  0.28824044773E+02  0.51100000000E-03 0.  1.
         12    1    3    3    0    0 -0.22600480775E+02  0.74075204237E+01 -0.10594045270E+02  0.26036260970E+02  0.00000000000E+00 0. -1.
</event>
<event>
 7    1  0.6164995E-012  0.5930195E+02  0.7816164E-02  0.1266605E+00
        -11   -1    0    0    0    0  0.00000000000E+00  0.00000000000E+00  0.45593999997E+02  0.45594000000E+02  0.51100000000E-03 0.  1.
         11   -1    0    0    0    0 -0.00000000000E+00 -0.00000000000E+00 -0.45593999997E+02  0.45594000000E+02  0.51100000000E-03 0. -1.
    9900012    2    1    2    0    0 -0.47855026094E+01  0.22314551455E+02  0.22268358878E+02  0.59301952127E+02  0.50000014771E+02 0.  0.
         12    1    1    2    0    0  0.47855026094E+01 -0.22314551455E+02 -0.22268358878E+02  0.31886047873E+02  0.00000000000E+00 0. -1.
         11    1    3    3    0    0  0.52510920110E+00 -0.21569756986E+01  0.16853711550E+01  0.27872495455E+01  0.51100000000E-03 0. -1.
        -11    1    3    3    0    0  0.11179933904E+02  0.31736390729E+02  0.81472684786E+01  0.34620332213E+02  0.51100000000E-03 0.  1.
         12    1    3    3    0    0 -0.16490545714E+02 -0.72648635758E+01  0.12435719244E+02  0.21894370369E+02  0.00000000000E+00 0. -1.
</event>
<event>
 7    1  0.6164995E-012  0.5930188E+02  0.7816164E-02  0.1266605E+00
        -11   -1    0    0    0    0  0.00000000000E+00  0.00000000000E+00  0.45593999997E+02  0.45594000000E+02  0.51100000000E-03 0.  1.
         11   -1    0    0    0    0 -0.00000000000E+00 -0.00000000000E+00 -0.45593999997E+02  0.45594000000E+02  0.51100000000E-03 0. -1.
    9900012    2    1    2    0    0 -0.22207028506E+02 -0.35527837893E+01  0.22604212506E+02  0.59301877458E+02  0.49999878593E+02 0.  0.
         12    1    1    2    0    0  0.22207028506E+02  0.35527837893E+01 -0.22604212506E+02  0.31886122542E+02  0.00000000000E+00 0. -1.
         11    1    3    3    0    0 -0.17180667452E+02  0.18829251533E+01  0.19038550678E+02  0.25713559719E+02  0.51100000000E-03 0. -1.
        -11    1    3    3    0    0 -0.15166830123E+02  0.61877350409E+01 -0.32911764945E+01  0.16707861740E+02  0.51100000000E-03 0.  1.
         12    1    3    3    0    0  0.10140469069E+02 -0.11623443983E+02  0.68568383229E+01  0.16880456000E+02  0.00000000000E+00 0. -1.
</event>
<event>
 7    1  0.6164995E-012  0.5930188E+02  0.7816164E-02  0.1266605E+00
        -11   -1    0    0    0    0  0.00000000000E+00  0.00000000000E+00  0.45593999997E+02  0.45594000000E+02  0.51100000000E-03 0. -1.
         11   -1    0    0    0    0 -0.00000000000E+00 -0.00000000000E+00 -0.45593999997E+02  0.45594000000E+02  0.51100000000E-03 0.  1.
    9900012    2    1    2    0    0  0.80752604369E+01  0.23275838185E+02 -0.20242283929E+02  0.59301881813E+02  0.49999886536E+02 0.  0.
         12    1    1    2    0    0 -0.80752604369E+01 -0.23275838185E+02  0.20242283929E+02  0.31886118187E+02  0.00000000000E+00 0. -1.
         11    1    3    3    0    0  0.10795118602E+02  0.11790837691E+02 -0.16900784375E+02  0.23263597139E+02  0.51100000000E-03 0. -1.
        -11    1    3    3    0    0 -0.17825348795E+02  0.32941719951E+01 -0.49189931791E+01  0.18782734704E+02  0.51100000000E-03 0.  1.
         12    1    3    3    0    0  0.15105490630E+02  0.81908284990E+01  0.15774936246E+01  0.17255549971E+02  0.00000000000E+00 0. -1.
</event>
<event>
 7    1  0.6164995E-012  0.5930194E+02  0.7816164E-02  0.1266605E+00
        -11   -1    0    0    0    0  0.00000000000E+00  0.00000000000E+00  0.45593999997E+02  0.45594000000E+02  0.51100000000E-03 0. -1.
         11   -1    0    0    0    0 -0.00000000000E+00 -0.00000000000E+00 -0.45593999997E+02  0.45594000000E+02  0.51100000000E-03 0.  1.
    9900012    2    1    2    0    0 -0.84535079288E+01  0.30229371011E+02 -0.56075233377E+01  0.59301937433E+02  0.49999987973E+02 0.  0.
         12    1    1    2    0    0  0.84535079288E+01 -0.30229371011E+02  0.56075233377E+01  0.31886062567E+02  0.00000000000E+00 0. -1.
         11    1    3    3    0    0  0.59651763590E+00  0.36258719344E+01  0.31055044396E+01  0.48111265480E+01  0.51100000000E-03 0. -1.
        -11    1    3    3    0    0 -0.15278720709E+02  0.35953056312E+02 -0.14726289261E+02  0.41748355181E+02  0.51100000000E-03 0.  1.
         12    1    3    3    0    0  0.62286951440E+01 -0.93495572353E+01  0.60132614837E+01  0.12742455704E+02  0.00000000000E+00 0. -1.
</event>
<event>
 7    1  0.6164995E-012  0.5930194E+02  0.7816164E-02  0.1266605E+00
        -11   -1    0    0    0    0  0.00000000000E+00  0.00000000000E+00  0.45593999997E+02  0.45594000000E+02  0.51100000000E-03 0. -1.
         11   -1    0    0    0    0 -0.00000000000E+00 -0.00000000000E+00 -0.45593999997E+02  0.45594000000E+02  0.51100000000E-03 0.  1.
    9900012    2    1    2    0    0  0.25506644501E+02 -0.92820285649E+01 -0.16732476265E+02  0.59301941449E+02  0.49999995297E+02 0.  0.
         12    1    1    2    0    0 -0.25506644501E+02  0.92820285649E+01  0.16732476265E+02  0.31886058551E+02  0.00000000000E+00 0. -1.
         11    1    3    3    0    0  0.72668308739E+01 -0.21107378940E+01 -0.22553586481E+02  0.23789205721E+02  0.51100000000E-03 0. -1.
        -11    1    3    3    0    0  0.16032279946E+02  0.56634591551E+01 -0.58938857400E+01  0.17995740030E+02  0.51100000000E-03 0.  1.
         12    1    3    3    0    0  0.22075336812E+01 -0.12834749826E+02  0.11714995956E+02  0.17516995698E+02  0.00000000000E+00 0. -1.
</event>
<event>
 7    1  0.6164995E-012  0.5930194E+02  0.7816164E-02  0.1266605E+00
        -11   -1    0    0    0    0  0.00000000000E+00  0.00000000000E+00  0.45593999997E+02  0.45594000000E+02  0.51100000000E-03 0. -1.
         11   -1    0    0    0    0 -0.00000000000E+00 -0.00000000000E+00 -0.45593999997E+02  0.45594000000E+02  0.51100000000E-03 0.  1.
    9900012    2    1    2    0    0 -0.30963671450E+02 -0.75260143881E+01  0.11535622266E+01  0.59301944301E+02  0.50000000499E+02 0.  0.
         12    1    1    2    0    0  0.30963671450E+02  0.75260143881E+01 -0.11535622266E+01  0.31886055699E+02  0.00000000000E+00 0. -1.
         11    1    3    3    0    0 -0.14168484039E+02 -0.14180382828E+02  0.56242122790E+01  0.20819725289E+02  0.51100000000E-03 0. -1.
        -11    1    3    3    0    0 -0.24648592460E+02 -0.37682830254E+01 -0.49571799708E+01  0.25422956176E+02  0.51100000000E-03 0.  1.
        -12    1    3    3    0    0  0.78534050492E+01  0.10422651465E+02  0.48652991833E+00  0.13059262835E+02  0.00000000000E+00 0.  1.
</event>
<event>
 7    1  0.6164995E-012  0.5930194E+02  0.7816164E-02  0.1266605E+00
        -11   -1    0    0    0    0  0.00000000000E+00  0.00000000000E+00  0.45593999997E+02  0.45594000000E+02  0.51100000000E-03 0.  1.
         11   -1    0    0    0    0 -0.00000000000E+00 -0.00000000000E+00 -0.45593999997E+02  0.45594000000E+02  0.51100000000E-03 0. -1.
    9900012    2    1    2    0    0 -0.18918811601E+02 -0.15360102228E+02  0.20563726314E+02  0.59301937014E+02  0.49999987209E+02 0.  0.
         12    1    1    2    0    0  0.18918811601E+02  0.15360102228E+02 -0.20563726314E+02  0.31886062986E+02  0.00000000000E+00 0. -1.
         11    1    3    3    0    0 -0.14209659101E+02  0.72536771271E+00  0.22104671145E+01  0.14398844926E+02  0.51100000000E-03 0. -1.
        -11    1    3    3    0    0 -0.66733951139E+01  0.11159470103E+02  0.97916822692E+01  0.16277131727E+02  0.51100000000E-03 0.  1.
         12    1    3    3    0    0  0.19642426142E+01 -0.27244940044E+02  0.85615769298E+01  0.28625960361E+02  0.00000000000E+00 0. -1.
</event>
<event>
 7    1  0.6164995E-012  0.5930195E+02  0.7816164E-02  0.1266605E+00
        -11   -1    0    0    0    0  0.00000000000E+00  0.00000000000E+00  0.45593999997E+02  0.45594000000E+02  0.51100000000E-03 0.  1.
         11   -1    0    0    0    0 -0.00000000000E+00 -0.00000000000E+00 -0.45593999997E+02  0.45594000000E+02  0.51100000000E-03 0. -1.
    9900012    2    1    2    0    0  0.17546213795E+02 -0.26280931467E+02 -0.42618046490E+01  0.59301953582E+02  0.50000017425E+02 0.  0.
         12    1    1    2    0    0 -0.17546213795E+02  0.26280931467E+02  0.42618046490E+01  0.31886046418E+02  0.00000000000E+00 0. -1.
         11    1    3    3    0    0  0.27407715761E+01 -0.43940382846E+01 -0.40258276207E+01  0.65594732694E+01  0.51100000000E-03 0. -1.
        -11    1    3    3    0    0  0.25228507661E+02 -0.27409736944E+02 -0.86616124057E+01  0.38246500596E+02  0.51100000000E-03 0.  1.
         12    1    3    3    0    0 -0.10423065442E+02  0.55228437620E+01  0.84256353775E+01  0.14495979717E+02  0.00000000000E+00 0. -1.
</event>
<event>
 7    1  0.6164995E-012  0.5930195E+02  0.7816164E-02  0.1266605E+00
        -11   -1    0    0    0    0  0.00000000000E+00  0.00000000000E+00  0.45593999997E+02  0.45594000000E+02  0.51100000000E-03 0. -1.
         11   -1    0    0    0    0 -0.00000000000E+00 -0.00000000000E+00 -0.45593999997E+02  0.45594000000E+02  0.51100000000E-03 0.  1.
    9900012    2    1    2    0    0 -0.12638194328E+02 -0.20178048471E+02  0.21209497381E+02  0.59301947013E+02  0.50000005444E+02 0.  0.
         12    1    1    2    0    0  0.12638194328E+02  0.20178048471E+02 -0.21209497381E+02  0.31886052987E+02  0.00000000000E+00 0. -1.
         11    1    3    3    0    0 -0.22880446468E+02 -0.18791015575E+02 -0.25448294235E+01  0.29716884998E+02  0.51100000000E-03 0.  1.
        -11    1    3    3    0    0  0.31232234851E+01  0.78107212174E+00  0.21598660782E+02  0.21837278823E+02  0.51100000000E-03 0. -1.
        -12    1    3    3    0    0  0.71190286558E+01 -0.21681050178E+01  0.21556660225E+01  0.77477831908E+01  0.00000000000E+00 0.  1.
</event>
<event>
 7    1  0.6164995E-012  0.5930200E+02  0.7816164E-02  0.1266605E+00
        -11   -1    0    0    0    0  0.00000000000E+00  0.00000000000E+00  0.45593999997E+02  0.45594000000E+02  0.51100000000E-03 0. -1.
         11   -1    0    0    0    0 -0.00000000000E+00 -0.00000000000E+00 -0.45593999997E+02  0.45594000000E+02  0.51100000000E-03 0.  1.
    9900012    2    1    2    0    0 -0.29703556206E+02 -0.42812791457E+00 -0.11585864493E+02  0.59302003061E+02  0.50000107662E+02 0.  0.
         12    1    1    2    0    0  0.29703556206E+02  0.42812791457E+00  0.11585864493E+02  0.31885996939E+02  0.00000000000E+00 0. -1.
         11    1    3    3    0    0 -0.66809537263E+01  0.76445385754E+01  0.58942812871E+01  0.11739534270E+02  0.51100000000E-03 0. -1.
        -11    1    3    3    0    0  0.58954471489E+01 -0.11395789261E+02  0.13394700104E+01  0.12900174035E+02  0.51100000000E-03 0.  1.
         12    1    3    3    0    0 -0.28918049628E+02  0.33231227706E+01 -0.18819615790E+02  0.34662294756E+02  0.00000000000E+00 0. -1.
</event>
<event>
 7    1  0.6164995E-012  0.5930196E+02  0.7816164E-02  0.1266605E+00
        -11   -1    0    0    0    0  0.00000000000E+00  0.00000000000E+00  0.45593999997E+02  0.45594000000E+02  0.51100000000E-03 0. -1.
         11   -1    0    0    0    0 -0.00000000000E+00 -0.00000000000E+00 -0.45593999997E+02  0.45594000000E+02  0.51100000000E-03 0.  1.
    9900012    2    1    2    0    0 -0.18211923604E+02 -0.24418465151E+02 -0.94225080135E+01  0.59301964515E+02  0.50000037364E+02 0.  0.
         12    1    1    2    0    0  0.18211923604E+02  0.24418465151E+02  0.94225080135E+01  0.31886035485E+02  0.00000000000E+00 0. -1.
         11    1    3    3    0    0  0.92484933835E+01 -0.64561765929E+01  0.18789291075E+01  0.11434475105E+02  0.51100000000E-03 0. -1.
        -11    1    3    3    0    0 -0.71850191479E+01  0.26919134047E+01  0.95099025398E+01  0.12219212107E+02  0.51100000000E-03 0.  1.
        -12    1    3    3    0    0 -0.20275397840E+02 -0.20654201962E+02 -0.20811339661E+02  0.35648277304E+02  0.00000000000E+00 0.  1.
</event>
<event>
 7    1  0.6164995E-012  0.5930196E+02  0.7816164E-02  0.1266605E+00
        -11   -1    0    0    0    0  0.00000000000E+00  0.00000000000E+00  0.45593999997E+02  0.45594000000E+02  0.51100000000E-03 0. -1.
         11   -1    0    0    0    0 -0.00000000000E+00 -0.00000000000E+00 -0.45593999997E+02  0.45594000000E+02  0.51100000000E-03 0.  1.
    9900012    2    1    2    0    0 -0.23068611283E+02 -0.21200755654E+02  0.59234277550E+01  0.59301955040E+02  0.50000020083E+02 0.  0.
         12    1    1    2    0    0  0.23068611283E+02  0.21200755654E+02 -0.59234277550E+01  0.31886044960E+02  0.00000000000E+00 0. -1.
         11    1    3    3    0    0  0.16929920901E+01  0.27140953169E+01  0.91177239909E+01  0.96625786746E+01  0.51100000000E-03 0. -1.
        -11    1    3    3    0    0 -0.10040847646E+02 -0.21215861120E+02  0.13613513618E+02  0.27134095485E+02  0.51100000000E-03 0.  1.
        -12    1    3    3    0    0 -0.14720755728E+02 -0.26989898503E+01 -0.16807809854E+02  0.22505280880E+02  0.00000000000E+00 0.  1.
</event>
<event>
 7    1  0.6164995E-012  0.5930193E+02  0.7816164E-02  0.1266605E+00
        -11   -1    0    0    0    0  0.00000000000E+00  0.00000000000E+00  0.45593999997E+02  0.45594000000E+02  0.51100000000E-03 0. -1.
         11   -1    0    0    0    0 -0.00000000000E+00 -0.00000000000E+00 -0.45593999997E+02  0.45594000000E+02  0.51100000000E-03 0.  1.
    9900012    2    1    2    0    0 -0.10294862130E+02 -0.16522116170E+02 -0.25253846533E+02  0.59301932922E+02  0.49999979745E+02 0.  0.
         12    1    1    2    0    0  0.10294862130E+02  0.16522116170E+02  0.25253846533E+02  0.31886067078E+02  0.00000000000E+00 0. -1.
         11    1    3    3    0    0 -0.14049659728E+02 -0.28885312788E+01 -0.88313896430E+01  0.16844286708E+02  0.51100000000E-03 0. -1.
        -11    1    3    3    0    0 -0.71171067710E+01 -0.22749489751E+02 -0.52730669527E+01  0.24413064700E+02  0.51100000000E-03 0.  1.
        -12    1    3    3    0    0  0.10871904369E+02  0.91159048595E+01 -0.11149389937E+02  0.18044581513E+02  0.00000000000E+00 0.  1.
</event>
<event>
 7    1  0.6164995E-012  0.5930195E+02  0.7816164E-02  0.1266605E+00
        -11   -1    0    0    0    0  0.00000000000E+00  0.00000000000E+00  0.45593999997E+02  0.45594000000E+02  0.51100000000E-03 0. -1.
         11   -1    0    0    0    0 -0.00000000000E+00 -0.00000000000E+00 -0.45593999997E+02  0.45594000000E+02  0.51100000000E-03 0.  1.
    9900012    2    1    2    0    0  0.46569013540E+01 -0.29544220123E+02 -0.11053157925E+02  0.59301953318E+02  0.50000016943E+02 0.  0.
         12    1    1    2    0    0 -0.46569013540E+01  0.29544220123E+02  0.11053157925E+02  0.31886046682E+02  0.00000000000E+00 0. -1.
         11    1    3    3    0    0 -0.10190747173E+02 -0.13271672180E+02  0.72505207699E+00  0.16748561465E+02  0.51100000000E-03 0. -1.
        -11    1    3    3    0    0  0.25039817717E+01 -0.24821633688E+02 -0.29145234138E+01  0.25117282310E+02  0.51100000000E-03 0.  1.
        -12    1    3    3    0    0  0.12343666755E+02  0.85490857443E+01 -0.88636865881E+01  0.17436109542E+02  0.00000000000E+00 0.  1.
</event>
<event>
 7    1  0.6164995E-012  0.5930191E+02  0.7816164E-02  0.1266605E+00
        -11   -1    0    0    0    0  0.00000000000E+00  0.00000000000E+00  0.45593999997E+02  0.45594000000E+02  0.51100000000E-03 0.  1.
         11   -1    0    0    0    0 -0.00000000000E+00 -0.00000000000E+00 -0.45593999997E+02  0.45594000000E+02  0.51100000000E-03 0. -1.
    9900012    2    1    2    0    0 -0.14031665552E+02 -0.12919751646E+02 -0.25552199120E+02  0.59301913683E+02  0.49999944659E+02 0.  0.
         12    1    1    2    0    0  0.14031665552E+02  0.12919751646E+02  0.25552199120E+02  0.31886086317E+02  0.00000000000E+00 0. -1.
         11    1    3    3    0    0 -0.68258382461E+00  0.10809359539E+02 -0.23172213648E+01  0.11075996092E+02  0.51100000000E-03 0. -1.
        -11    1    3    3    0    0 -0.22197269229E+02 -0.24574449828E+02 -0.16066560591E+02  0.36807019916E+02  0.51100000000E-03 0.  1.
         12    1    3    3    0    0  0.88481875018E+01  0.84533864342E+00 -0.71684171635E+01  0.11418897675E+02  0.00000000000E+00 0. -1.
</event>
<event>
 7    1  0.6164995E-012  0.5930192E+02  0.7816164E-02  0.1266605E+00
        -11   -1    0    0    0    0  0.00000000000E+00  0.00000000000E+00  0.45593999997E+02  0.45594000000E+02  0.51100000000E-03 0. -1.
         11   -1    0    0    0    0 -0.00000000000E+00 -0.00000000000E+00 -0.45593999997E+02  0.45594000000E+02  0.51100000000E-03 0.  1.
    9900012    2    1    2    0    0 -0.74103299957E+01  0.24769723383E+01 -0.30913971041E+02  0.59301921719E+02  0.49999959315E+02 0.  0.
         12    1    1    2    0    0  0.74103299957E+01 -0.24769723383E+01  0.30913971041E+02  0.31886078281E+02  0.00000000000E+00 0. -1.
         11    1    3    3    0    0 -0.21988052641E+02  0.26700815570E+01 -0.19917434047E+02  0.29787715148E+02  0.51100000000E-03 0. -1.
        -11    1    3    3    0    0  0.14677527899E+00 -0.28589319084E+00  0.66840443974E+01  0.66917656613E+01  0.51100000000E-03 0.  1.
        -12    1    3    3    0    0  0.14430947366E+02  0.92783972199E-01 -0.17680581392E+02  0.22822440910E+02  0.00000000000E+00 0.  1.
</event>
<event>
 7    1  0.6164995E-012  0.5930192E+02  0.7816164E-02  0.1266605E+00
        -11   -1    0    0    0    0  0.00000000000E+00  0.00000000000E+00  0.45593999997E+02  0.45594000000E+02  0.51100000000E-03 0.  1.
         11   -1    0    0    0    0 -0.00000000000E+00 -0.00000000000E+00 -0.45593999997E+02  0.45594000000E+02  0.51100000000E-03 0. -1.
    9900012    2    1    2    0    0  0.14229294261E+02  0.19808800849E+02  0.20539254663E+02  0.59301915444E+02  0.49999947869E+02 0.  0.
         12    1    1    2    0    0 -0.14229294261E+02 -0.19808800849E+02 -0.20539254663E+02  0.31886084556E+02  0.00000000000E+00 0. -1.
         11    1    3    3    0    0 -0.99034371743E+00  0.30486439932E+01 -0.10661544426E+02  0.11132993339E+02  0.51100000000E-03 0. -1.
        -11    1    3    3    0    0 -0.84540435991E+00  0.13106554664E+02  0.28462364930E+00  0.13136875374E+02  0.51100000000E-03 0.  1.
        -12    1    3    3    0    0  0.16065042339E+02  0.36536021911E+01  0.30916175440E+02  0.35032046731E+02  0.00000000000E+00 0.  1.
</event>
<event>
 7    1  0.6164995E-012  0.5930189E+02  0.7816164E-02  0.1266605E+00
        -11   -1    0    0    0    0  0.00000000000E+00  0.00000000000E+00  0.45593999997E+02  0.45594000000E+02  0.51100000000E-03 0.  1.
         11   -1    0    0    0    0 -0.00000000000E+00 -0.00000000000E+00 -0.45593999997E+02  0.45594000000E+02  0.51100000000E-03 0. -1.
    9900012    2    1    2    0    0  0.17274081093E+02 -0.21981671853E+02  0.15334156594E+02  0.59301888078E+02  0.49999897961E+02 0.  0.
         12    1    1    2    0    0 -0.17274081093E+02  0.21981671853E+02 -0.15334156594E+02  0.31886111922E+02  0.00000000000E+00 0. -1.
         11    1    3    3    0    0  0.12242987171E+02 -0.45305840636E+01 -0.12400497743E+02  0.18005256770E+02  0.51100000000E-03 0. -1.
        -11    1    3    3    0    0  0.73371056956E+00 -0.17168644758E+02  0.46342812941E+01  0.17798237480E+02  0.51100000000E-03 0.  1.
        -12    1    3    3    0    0  0.42973833521E+01 -0.28244303125E+00  0.23100373043E+02  0.23498393828E+02  0.00000000000E+00 0.  1.
</event>
<event>
 7    1  0.8322373E-012  0.5930194E+02  0.7816164E-02  0.1266605E+00
        -11   -1    0    0    0    0  0.00000000000E+00  0.00000000000E+00  0.45593999997E+02  0.45594000000E+02  0.51100000000E-03 0. -1.
         11   -1    0    0    0    0 -0.00000000000E+00 -0.00000000000E+00 -0.45593999997E+02  0.45594000000E+02  0.51100000000E-03 0.  1.
    9900012    2    1    2    0    0 -0.14297955943E+02 -0.13444155879E+02 -0.25130532917E+02  0.59301944173E+02  0.50000000266E+02 0.  0.
         12    1    1    2    0    0  0.14297955943E+02  0.13444155879E+02  0.25130532917E+02  0.31886055827E+02  0.00000000000E+00 0. -1.
         11    1    3    3    0    0 -0.10134014067E+01 -0.74101277468E+01  0.78454030482E+01  0.10839157019E+02  0.51100000000E-03 0. -1.
        -11    1    3    3    0    0  0.10299103767E+01  0.11624366977E+02 -0.57954544596E+01  0.13029731987E+02  0.51100000000E-03 0.  1.
        -12    1    3    3    0    0 -0.14314464913E+02 -0.17658395109E+02 -0.27180481506E+02  0.35433055167E+02  0.00000000000E+00 0.  1.
</event>
<event>
 7    1  0.6164995E-012  0.5930195E+02  0.7816164E-02  0.1266605E+00
        -11   -1    0    0    0    0  0.00000000000E+00  0.00000000000E+00  0.45593999997E+02  0.45594000000E+02  0.51100000000E-03 0.  1.
         11   -1    0    0    0    0 -0.00000000000E+00 -0.00000000000E+00 -0.45593999997E+02  0.45594000000E+02  0.51100000000E-03 0. -1.
    9900012    2    1    2    0    0  0.31625601517E+02 -0.24726588399E+01 -0.32291665855E+01  0.59301949290E+02  0.50000009597E+02 0.  0.
         12    1    1    2    0    0 -0.31625601517E+02  0.24726588399E+01  0.32291665855E+01  0.31886050710E+02  0.00000000000E+00 0. -1.
         11    1    3    3    0    0 -0.67012867814E+01 -0.28424461598E+01 -0.89395455480E+01  0.11528322496E+02  0.51100000000E-03 0. -1.
        -11    1    3    3    0    0  0.18919974831E+01 -0.75240639242E+01  0.70306901402E+01  0.10470042814E+02  0.51100000000E-03 0.  1.
        -12    1    3    3    0    0  0.36434890815E+02  0.78938512441E+01 -0.13203111777E+01  0.37303583981E+02  0.00000000000E+00 0.  1.
</event>
<event>
 7    1  0.6164995E-012  0.5930201E+02  0.7816164E-02  0.1266605E+00
        -11   -1    0    0    0    0  0.00000000000E+00  0.00000000000E+00  0.45593999997E+02  0.45594000000E+02  0.51100000000E-03 0. -1.
         11   -1    0    0    0    0 -0.00000000000E+00 -0.00000000000E+00 -0.45593999997E+02  0.45594000000E+02  0.51100000000E-03 0.  1.
    9900012    2    1    2    0    0  0.23671777608E+02  0.20429951966E+02 -0.62434367519E+01  0.59302007857E+02  0.50000116409E+02 0.  0.
         12    1    1    2    0    0 -0.23671777608E+02 -0.20429951966E+02  0.62434367519E+01  0.31885992143E+02  0.00000000000E+00 0. -1.
         11    1    3    3    0    0  0.20486201030E+02  0.15304347414E+02 -0.10258950405E+02  0.27552741172E+02  0.51100000000E-03 0. -1.
        -11    1    3    3    0    0  0.99868418458E+00  0.34726282251E+01 -0.13523193378E+02  0.13997616807E+02  0.51100000000E-03 0.  1.
         12    1    3    3    0    0  0.21868923932E+01  0.16529763268E+01  0.17538707031E+02  0.17751649878E+02  0.00000000000E+00 0. -1.
</event>
<event>
 7    1  0.6164995E-012  0.5930193E+02  0.7816164E-02  0.1266605E+00
        -11   -1    0    0    0    0  0.00000000000E+00  0.00000000000E+00  0.45593999997E+02  0.45594000000E+02  0.51100000000E-03 0.  1.
         11   -1    0    0    0    0 -0.00000000000E+00 -0.00000000000E+00 -0.45593999997E+02  0.45594000000E+02  0.51100000000E-03 0. -1.
    9900012    2    1    2    0    0  0.22172319673E+02  0.22487391964E+02 -0.44075664866E+01  0.59301934088E+02  0.49999981872E+02 0.  0.
         12    1    1    2    0    0 -0.22172319673E+02 -0.22487391964E+02  0.44075664866E+01  0.31886065912E+02  0.00000000000E+00 0. -1.
         11    1    3    3    0    0  0.60679091006E+01  0.80466122298E+01  0.60799867146E+01  0.11770035172E+02  0.51100000000E-03 0.  1.
        -11    1    3    3    0    0 -0.72362238525E+01 -0.37110420875E+01  0.89919349261E+01  0.12123929355E+02  0.51100000000E-03 0. -1.
        -12    1    3    3    0    0  0.23340634425E+02  0.18151821822E+02 -0.19479488127E+02  0.35407969562E+02  0.00000000000E+00 0.  1.
</event>
<event>
 7    1  0.6164995E-012  0.5930195E+02  0.7816164E-02  0.1266605E+00
        -11   -1    0    0    0    0  0.00000000000E+00  0.00000000000E+00  0.45593999997E+02  0.45594000000E+02  0.51100000000E-03 0. -1.
         11   -1    0    0    0    0 -0.00000000000E+00 -0.00000000000E+00 -0.45593999997E+02  0.45594000000E+02  0.51100000000E-03 0.  1.
    9900012    2    1    2    0    0  0.13129999998E+02  0.16139980867E+02 -0.24162458306E+02  0.59301948603E+02  0.50000008344E+02 0.  0.
         12    1    1    2    0    0 -0.13129999998E+02 -0.16139980867E+02  0.24162458306E+02  0.31886051397E+02  0.00000000000E+00 0. -1.
         11    1    3    3    0    0  0.32964319956E+01  0.14231578878E+02 -0.10543978201E+01  0.14646366658E+02  0.51100000000E-03 0. -1.
        -11    1    3    3    0    0  0.17452843901E+02  0.99623890305E+01 -0.12359992287E+01  0.20134017229E+02  0.51100000000E-03 0.  1.
        -12    1    3    3    0    0 -0.76192758988E+01 -0.80539870420E+01 -0.21872061257E+02  0.24521564716E+02  0.00000000000E+00 0.  1.
</event>
<event>
 7    1  0.6164995E-012  0.5930193E+02  0.7816164E-02  0.1266605E+00
        -11   -1    0    0    0    0  0.00000000000E+00  0.00000000000E+00  0.45593999997E+02  0.45594000000E+02  0.51100000000E-03 0.  1.
         11   -1    0    0    0    0 -0.00000000000E+00 -0.00000000000E+00 -0.45593999997E+02  0.45594000000E+02  0.51100000000E-03 0. -1.
    9900012    2    1    2    0    0 -0.10225294643E+02 -0.21339938251E+02  0.21372214801E+02  0.59301934382E+02  0.49999982409E+02 0.  0.
         12    1    1    2    0    0  0.10225294643E+02  0.21339938251E+02 -0.21372214801E+02  0.31886065618E+02  0.00000000000E+00 0. -1.
         11    1    3    3    0    0  0.12754138211E+02  0.90635844120E+01  0.11501377084E+02  0.19419018487E+02  0.51100000000E-03 0. -1.
        -11    1    3    3    0    0 -0.37710135850E+01 -0.81221764055E+01  0.34693670168E+00  0.89616214133E+01  0.51100000000E-03 0.  1.
        -12    1    3    3    0    0 -0.19208419270E+02 -0.22281346257E+02  0.95239010154E+01  0.30921294482E+02  0.00000000000E+00 0.  1.
</event>
<event>
 7    1  0.6164995E-012  0.5930195E+02  0.7816164E-02  0.1266605E+00
        -11   -1    0    0    0    0  0.00000000000E+00  0.00000000000E+00  0.45593999997E+02  0.45594000000E+02  0.51100000000E-03 0. -1.
         11   -1    0    0    0    0 -0.00000000000E+00 -0.00000000000E+00 -0.45593999997E+02  0.45594000000E+02  0.51100000000E-03 0.  1.
    9900012    2    1    2    0    0  0.27727390990E+02 -0.79394065237E+01 -0.13596969103E+02  0.59301953587E+02  0.50000017435E+02 0.  0.
         12    1    1    2    0    0 -0.27727390990E+02  0.79394065237E+01  0.13596969103E+02  0.31886046413E+02  0.00000000000E+00 0. -1.
         11    1    3    3    0    0  0.12823664950E+02 -0.17552741434E+02 -0.26249292753E+01  0.21896012618E+02  0.51100000000E-03 0.  1.
        -11    1    3    3    0    0  0.15738338321E+00 -0.65953630620E+01  0.65893231180E+01  0.93243103157E+01  0.51100000000E-03 0. -1.
        -12    1    3    3    0    0  0.14746342656E+02  0.16208697972E+02 -0.17561362945E+02  0.28081630654E+02  0.00000000000E+00 0.  1.
</event>
<event>
 7    1  0.6164995E-012  0.5930187E+02  0.7816164E-02  0.1266605E+00
        -11   -1    0    0    0    0  0.00000000000E+00  0.00000000000E+00  0.45593999997E+02  0.45594000000E+02  0.51100000000E-03 0. -1.
         11   -1    0    0    0    0 -0.00000000000E+00 -0.00000000000E+00 -0.45593999997E+02  0.45594000000E+02  0.51100000000E-03 0.  1.
    9900012    2    1    2    0    0 -0.64598631264E+01  0.38698247463E+01 -0.30984191929E+02  0.59301866263E+02  0.49999858176E+02 0.  0.
         12    1    1    2    0    0  0.64598631264E+01 -0.38698247463E+01  0.30984191929E+02  0.31886133737E+02  0.00000000000E+00 0. -1.
         11    1    3    3    0    0 -0.17214614761E+02 -0.10710828345E+01 -0.14832746283E+02  0.22748638253E+02  0.51100000000E-03 0. -1.
        -11    1    3    3    0    0 -0.75213747225E+01  0.61014126618E+01 -0.15440428631E+02  0.18226495844E+02  0.51100000000E-03 0.  1.
         12    1    3    3    0    0  0.18276126357E+02 -0.11605050811E+01 -0.71101701494E+00  0.18326732166E+02  0.00000000000E+00 0. -1.
</event>
<event>
 7    1  0.6164995E-012  0.5930194E+02  0.7816164E-02  0.1266605E+00
        -11   -1    0    0    0    0  0.00000000000E+00  0.00000000000E+00  0.45593999997E+02  0.45594000000E+02  0.51100000000E-03 0.  1.
         11   -1    0    0    0    0 -0.00000000000E+00 -0.00000000000E+00 -0.45593999997E+02  0.45594000000E+02  0.51100000000E-03 0. -1.
    9900012    2    1    2    0    0 -0.27635593875E+02  0.12516136859E+02  0.98153614815E+01  0.59301936403E+02  0.49999986095E+02 0.  0.
         12    1    1    2    0    0  0.27635593875E+02 -0.12516136859E+02 -0.98153614815E+01  0.31886063597E+02  0.00000000000E+00 0. -1.
         11    1    3    3    0    0 -0.48490662240E+01 -0.36378166116E+01 -0.16204973676E+01  0.62748039750E+01  0.51100000000E-03 0. -1.
        -11    1    3    3    0    0 -0.34123605101E+02  0.33858924771E+01  0.44511543140E+01  0.34578858685E+02  0.51100000000E-03 0.  1.
         12    1    3    3    0    0  0.11337077451E+02  0.12768060993E+02  0.69847045352E+01  0.18448273743E+02  0.00000000000E+00 0. -1.
</event>
<event>
 7    1  0.6164995E-012  0.5930194E+02  0.7816164E-02  0.1266605E+00
        -11   -1    0    0    0    0  0.00000000000E+00  0.00000000000E+00  0.45593999997E+02  0.45594000000E+02  0.51100000000E-03 0.  1.
         11   -1    0    0    0    0 -0.00000000000E+00 -0.00000000000E+00 -0.45593999997E+02  0.45594000000E+02  0.51100000000E-03 0. -1.
    9900012    2    1    2    0    0 -0.22071234087E+02 -0.23012618920E+02 -0.33008767786E-01  0.59301935751E+02  0.49999984906E+02 0.  0.
         12    1    1    2    0    0  0.22071234087E+02  0.23012618920E+02  0.33008767786E-01  0.31886064249E+02  0.00000000000E+00 0. -1.
         11    1    3    3    0    0  0.51965639885E+01  0.85881792206E+01  0.21023368817E+01  0.10255774970E+02  0.51100000000E-03 0. -1.
        -11    1    3    3    0    0 -0.13410901736E+02 -0.95121438239E+01  0.11066575041E+02  0.19819239362E+02  0.51100000000E-03 0.  1.
         12    1    3    3    0    0 -0.13856896340E+02 -0.22088654317E+02 -0.13201920691E+02  0.29226921419E+02  0.00000000000E+00 0. -1.
</event>
<event>
 7    1  0.6164995E-012  0.5930194E+02  0.7816164E-02  0.1266605E+00
        -11   -1    0    0    0    0  0.00000000000E+00  0.00000000000E+00  0.45593999997E+02  0.45594000000E+02  0.51100000000E-03 0. -1.
         11   -1    0    0    0    0 -0.00000000000E+00 -0.00000000000E+00 -0.45593999997E+02  0.45594000000E+02  0.51100000000E-03 0.  1.
    9900012    2    1    2    0    0  0.11055620157E+02 -0.28437208666E+02  0.92638627643E+01  0.59301941494E+02  0.49999995379E+02 0.  0.
         12    1    1    2    0    0 -0.11055620157E+02  0.28437208666E+02 -0.92638627643E+01  0.31886058506E+02  0.00000000000E+00 0. -1.
         11    1    3    3    0    0  0.17423307039E+02 -0.10827459868E+02  0.11391403939E+01  0.20545149221E+02  0.51100000000E-03 0.  1.
        -11    1    3    3    0    0 -0.18682750410E+02 -0.44859436159E+01  0.78557739057E+01  0.20757698257E+02  0.51100000000E-03 0. -1.
         12    1    3    3    0    0  0.12315063528E+02 -0.13123805181E+02  0.26894846465E+00  0.17999094016E+02  0.00000000000E+00 0. -1.
</event>
<event>
 7    1  0.6164995E-012  0.5930196E+02  0.7816164E-02  0.1266605E+00
        -11   -1    0    0    0    0  0.00000000000E+00  0.00000000000E+00  0.45593999997E+02  0.45594000000E+02  0.51100000000E-03 0.  1.
         11   -1    0    0    0    0 -0.00000000000E+00 -0.00000000000E+00 -0.45593999997E+02  0.45594000000E+02  0.51100000000E-03 0. -1.
    9900012    2    1    2    0    0  0.11023240959E+02  0.11126593946E+02  0.27774202648E+02  0.59301964392E+02  0.50000037139E+02 0.  0.
         12    1    1    2    0    0 -0.11023240959E+02 -0.11126593946E+02 -0.27774202648E+02  0.31886035608E+02  0.00000000000E+00 0. -1.
         11    1    3    3    0    0  0.25725003137E+01  0.12644906236E+02  0.31951382694E+01  0.13293619537E+02  0.51100000000E-03 0.  1.
        -11    1    3    3    0    0 -0.12482455397E+02 -0.56627921503E+01  0.33565381020E+00  0.13711001839E+02  0.51100000000E-03 0. -1.
         12    1    3    3    0    0  0.20933196043E+02  0.41444798605E+01  0.24243410568E+02  0.32297343016E+02  0.00000000000E+00 0. -1.
</event>
<event>
 7    1  0.6164995E-012  0.5930205E+02  0.7816164E-02  0.1266604E+00
        -11   -1    0    0    0    0  0.00000000000E+00  0.00000000000E+00  0.45593999997E+02  0.45594000000E+02  0.51100000000E-03 0.  1.
         11   -1    0    0    0    0 -0.00000000000E+00 -0.00000000000E+00 -0.45593999997E+02  0.45594000000E+02  0.51100000000E-03 0. -1.
    9900012    2    1    2    0    0  0.43497699077E+01  0.52919266760E+01  0.31141431763E+02  0.59302050767E+02  0.50000194667E+02 0.  0.
         12    1    1    2    0    0 -0.43497699077E+01 -0.52919266760E+01 -0.31141431763E+02  0.31885949233E+02  0.00000000000E+00 0. -1.
         11    1    3    3    0    0  0.13280904458E+02  0.20399186830E+01  0.32062172031E+01  0.13813888680E+02  0.51100000000E-03 0.  1.
        -11    1    3    3    0    0 -0.13961158525E+02  0.15374739021E+02  0.24101718650E+02  0.31814924005E+02  0.51100000000E-03 0. -1.
         12    1    3    3    0    0  0.50300239745E+01 -0.12122731028E+02  0.38334959102E+01  0.13673238082E+02  0.00000000000E+00 0. -1.
</event>
<event>
 7    1  0.6164995E-012  0.5930194E+02  0.7816164E-02  0.1266605E+00
        -11   -1    0    0    0    0  0.00000000000E+00  0.00000000000E+00  0.45593999997E+02  0.45594000000E+02  0.51100000000E-03 0.  1.
         11   -1    0    0    0    0 -0.00000000000E+00 -0.00000000000E+00 -0.45593999997E+02  0.45594000000E+02  0.51100000000E-03 0. -1.
    9900012    2    1    2    0    0 -0.17179669258E+02  0.26099045166E+02 -0.63576367963E+01  0.59301941291E+02  0.49999995008E+02 0.  0.
         12    1    1    2    0    0  0.17179669258E+02 -0.26099045166E+02  0.63576367963E+01  0.31886058709E+02  0.00000000000E+00 0. -1.
         11    1    3    3    0    0  0.56829910096E+01  0.99185621676E+01  0.37255905604E+01  0.12023073133E+02  0.51100000000E-03 0. -1.
        -11    1    3    3    0    0 -0.96419117644E+01 -0.48847948819E+01  0.10444930451E+02  0.15030776956E+02  0.51100000000E-03 0.  1.
         12    1    3    3    0    0 -0.13220748503E+02  0.21065277880E+02 -0.20528157808E+02  0.32248091201E+02  0.00000000000E+00 0. -1.
</event>
<event>
 7    1  0.6164995E-012  0.5930194E+02  0.7816164E-02  0.1266605E+00
        -11   -1    0    0    0    0  0.00000000000E+00  0.00000000000E+00  0.45593999997E+02  0.45594000000E+02  0.51100000000E-03 0. -1.
         11   -1    0    0    0    0 -0.00000000000E+00 -0.00000000000E+00 -0.45593999997E+02  0.45594000000E+02  0.51100000000E-03 0.  1.
    9900012    2    1    2    0    0  0.23293144250E+02 -0.18521215427E+02  0.11450531697E+02  0.59301942450E+02  0.49999997122E+02 0.  0.
         12    1    1    2    0    0 -0.23293144250E+02  0.18521215427E+02 -0.11450531697E+02  0.31886057550E+02  0.00000000000E+00 0. -1.
         11    1    3    3    0    0  0.53940338148E+01  0.19010107470E+01 -0.22084614986E+01  0.61308029741E+01  0.51100000000E-03 0. -1.
        -11    1    3    3    0    0  0.49407377972E+01 -0.97266417055E+01 -0.15833593594E+02  0.19228133950E+02  0.51100000000E-03 0.  1.
         12    1    3    3    0    0  0.12958372638E+02 -0.10695584469E+02  0.29492586789E+02  0.33943005525E+02  0.00000000000E+00 0. -1.
</event>
<event>
 7    1  0.6164995E-012  0.5930182E+02  0.7816164E-02  0.1266605E+00
        -11   -1    0    0    0    0  0.00000000000E+00  0.00000000000E+00  0.45593999997E+02  0.45594000000E+02  0.51100000000E-03 0. -1.
         11   -1    0    0    0    0 -0.00000000000E+00 -0.00000000000E+00 -0.45593999997E+02  0.45594000000E+02  0.51100000000E-03 0.  1.
    9900012    2    1    2    0    0 -0.29917154871E+01 -0.10453442516E+02 -0.29975045269E+02  0.59301824925E+02  0.49999782785E+02 0.  0.
         12    1    1    2    0    0  0.29917154871E+01  0.10453442516E+02  0.29975045269E+02  0.31886175075E+02  0.00000000000E+00 0. -1.
         11    1    3    3    0    0 -0.40619398173E+01 -0.17040635302E+02 -0.17027975976E+02  0.24430197967E+02  0.51100000000E-03 0. -1.
        -11    1    3    3    0    0 -0.13197643333E+02  0.15394470222E+01 -0.14488714918E+02  0.19658854161E+02  0.51100000000E-03 0.  1.
        -12    1    3    3    0    0  0.14267867663E+02  0.50477457638E+01  0.15416456247E+01  0.15212772798E+02  0.00000000000E+00 0.  1.
</event>
<event>
 7    1  0.6164995E-012  0.5930196E+02  0.7816164E-02  0.1266605E+00
        -11   -1    0    0    0    0  0.00000000000E+00  0.00000000000E+00  0.45593999997E+02  0.45594000000E+02  0.51100000000E-03 0.  1.
         11   -1    0    0    0    0 -0.00000000000E+00 -0.00000000000E+00 -0.45593999997E+02  0.45594000000E+02  0.51100000000E-03 0. -1.
    9900012    2    1    2    0    0  0.27571064635E+02 -0.89644927023E+00  0.15992257822E+02  0.59301960161E+02  0.50000029423E+02 0.  0.
         12    1    1    2    0    0 -0.27571064635E+02  0.89644927023E+00 -0.15992257822E+02  0.31886039839E+02  0.00000000000E+00 0. -1.
         11    1    3    3    0    0  0.29205530062E+01  0.96221761713E+01 -0.56392186421E+01  0.11528950138E+02  0.51100000000E-03 0. -1.
        -11    1    3    3    0    0  0.22990705632E+02 -0.12123745490E+02 -0.27296765988E-01  0.25991508143E+02  0.51100000000E-03 0.  1.
        -12    1    3    3    0    0  0.16598059961E+01  0.16051200486E+01  0.21658773230E+02  0.21781501880E+02  0.00000000000E+00 0.  1.
</event>
<event>
 7    1  0.6164995E-012  0.5930196E+02  0.7816164E-02  0.1266605E+00
        -11   -1    0    0    0    0  0.00000000000E+00  0.00000000000E+00  0.45593999997E+02  0.45594000000E+02  0.51100000000E-03 0. -1.
         11   -1    0    0    0    0 -0.00000000000E+00 -0.00000000000E+00 -0.45593999997E+02  0.45594000000E+02  0.51100000000E-03 0.  1.
    9900012    2    1    2    0    0  0.10206050438E+02 -0.15358325833E+02 -0.26013027819E+02  0.59301964589E+02  0.50000037499E+02 0.  0.
         12    1    1    2    0    0 -0.10206050438E+02  0.15358325833E+02  0.26013027819E+02  0.31886035411E+02  0.00000000000E+00 0. -1.
         11    1    3    3    0    0 -0.10789941814E+02  0.21983547541E+01 -0.54680383475E+01  0.12294513069E+02  0.51100000000E-03 0. -1.
        -11    1    3    3    0    0 -0.21935388117E+01 -0.16185808131E+02 -0.16882209778E+02  0.23490444965E+02  0.51100000000E-03 0.  1.
         12    1    3    3    0    0  0.23189531064E+02 -0.13708724556E+01 -0.36627796927E+01  0.23517006555E+02  0.00000000000E+00 0. -1.
</event>
<event>
 7    1  0.6164995E-012  0.5930193E+02  0.7816164E-02  0.1266605E+00
        -11   -1    0    0    0    0  0.00000000000E+00  0.00000000000E+00  0.45593999997E+02  0.45594000000E+02  0.51100000000E-03 0.  1.
         11   -1    0    0    0    0 -0.00000000000E+00 -0.00000000000E+00 -0.45593999997E+02  0.45594000000E+02  0.51100000000E-03 0. -1.
    9900012    2    1    2    0    0  0.31797649596E+02  0.10448034347E+01 -0.21306303506E+01  0.59301925928E+02  0.49999966990E+02 0.  0.
         12    1    1    2    0    0 -0.31797649596E+02 -0.10448034347E+01  0.21306303506E+01  0.31886074072E+02  0.00000000000E+00 0. -1.
         11    1    3    3    0    0  0.75255208089E+01  0.13343522747E+02  0.12151384400E+01  0.15367485951E+02  0.51100000000E-03 0. -1.
        -11    1    3    3    0    0  0.20026154817E+01 -0.16513082767E+01 -0.15990783417E+02  0.16200075381E+02  0.51100000000E-03 0.  1.
        -12    1    3    3    0    0  0.22269513305E+02 -0.10647411036E+02  0.12645014627E+02  0.27734364596E+02  0.00000000000E+00 0.  1.
</event>
<event>
 7    1  0.6164995E-012  0.5930190E+02  0.7816164E-02  0.1266605E+00
        -11   -1    0    0    0    0  0.00000000000E+00  0.00000000000E+00  0.45593999997E+02  0.45594000000E+02  0.51100000000E-03 0.  1.
         11   -1    0    0    0    0 -0.00000000000E+00 -0.00000000000E+00 -0.45593999997E+02  0.45594000000E+02  0.51100000000E-03 0. -1.
    9900012    2    1    2    0    0 -0.39844252895E+01 -0.20299616727E+02  0.24264653058E+02  0.59301898448E+02  0.49999916873E+02 0.  0.
         12    1    1    2    0    0  0.39844252895E+01  0.20299616727E+02 -0.24264653058E+02  0.31886101552E+02  0.00000000000E+00 0. -1.
         11    1    3    3    0    0 -0.14178639470E+02 -0.12349346224E+02  0.82262119658E+01  0.20523419134E+02  0.51100000000E-03 0. -1.
        -11    1    3    3    0    0 -0.10316393722E+02  0.45574446666E+01  0.48313531757E+01  0.12269484711E+02  0.51100000000E-03 0.  1.
        -12    1    3    3    0    0  0.20510607902E+02 -0.12507715170E+02  0.11207087917E+02  0.26508994603E+02  0.00000000000E+00 0.  1.
</event>
<event>
 7    1  0.6164995E-012  0.5930195E+02  0.7816164E-02  0.1266605E+00
        -11   -1    0    0    0    0  0.00000000000E+00  0.00000000000E+00  0.45593999997E+02  0.45594000000E+02  0.51100000000E-03 0. -1.
         11   -1    0    0    0    0 -0.00000000000E+00 -0.00000000000E+00 -0.45593999997E+02  0.45594000000E+02  0.51100000000E-03 0.  1.
    9900012    2    1    2    0    0 -0.23961308701E+02 -0.14731654097E+02  0.15018456486E+02  0.59301953172E+02  0.50000016676E+02 0.  0.
         12    1    1    2    0    0  0.23961308701E+02  0.14731654097E+02 -0.15018456486E+02  0.31886046828E+02  0.00000000000E+00 0. -1.
         11    1    3    3    0    0 -0.11758345506E+02  0.13758812401E+02  0.25567187362E+01  0.18278414008E+02  0.51100000000E-03 0. -1.
        -11    1    3    3    0    0 -0.12531962463E+02 -0.21972465194E+01  0.29486587717E+01  0.13060343191E+02  0.51100000000E-03 0.  1.
        -12    1    3    3    0    0  0.32899926761E+00 -0.26293219979E+02  0.95130789778E+01  0.27963195973E+02  0.00000000000E+00 0.  1.
</event>
<event>
 7    1  0.6164995E-012  0.5930194E+02  0.7816164E-02  0.1266605E+00
        -11   -1    0    0    0    0  0.00000000000E+00  0.00000000000E+00  0.45593999997E+02  0.45594000000E+02  0.51100000000E-03 0. -1.
         11   -1    0    0    0    0 -0.00000000000E+00 -0.00000000000E+00 -0.45593999997E+02  0.45594000000E+02  0.51100000000E-03 0.  1.
    9900012    2    1    2    0    0 -0.13255598932E+02 -0.69707989965E+01 -0.28149921711E+02  0.59301936681E+02  0.49999986601E+02 0.  0.
         12    1    1    2    0    0  0.13255598932E+02  0.69707989965E+01  0.28149921711E+02  0.31886063319E+02  0.00000000000E+00 0. -1.
         11    1    3    3    0    0  0.82442185570E+01 -0.96249701784E+00 -0.17974333312E+02  0.19798237254E+02  0.51100000000E-03 0. -1.
        -11    1    3    3    0    0  0.51896475928E+01  0.10411195728E+01  0.56029267298E+01  0.77077337981E+01  0.51100000000E-03 0.  1.
         12    1    3    3    0    0 -0.26689465081E+02 -0.70494215514E+01 -0.15778515129E+02  0.31795965628E+02  0.00000000000E+00 0. -1.
</event>
<event>
 7    1  0.6164995E-012  0.5930198E+02  0.7816164E-02  0.1266605E+00
        -11   -1    0    0    0    0  0.00000000000E+00  0.00000000000E+00  0.45593999997E+02  0.45594000000E+02  0.51100000000E-03 0. -1.
         11   -1    0    0    0    0 -0.00000000000E+00 -0.00000000000E+00 -0.45593999997E+02  0.45594000000E+02  0.51100000000E-03 0.  1.
    9900012    2    1    2    0    0  0.25394405257E+02  0.71812020215E+01 -0.17896173391E+02  0.59301976371E+02  0.50000058986E+02 0.  0.
         12    1    1    2    0    0 -0.25394405257E+02 -0.71812020215E+01  0.17896173391E+02  0.31886023629E+02  0.00000000000E+00 0. -1.
         11    1    3    3    0    0  0.60603295165E+01  0.77091424518E+01  0.13860153829E+02  0.16978290127E+02  0.51100000000E-03 0. -1.
        -11    1    3    3    0    0  0.69011701588E+01 -0.43161133925E+01 -0.14093567103E+00  0.81409365249E+01  0.51100000000E-03 0.  1.
        -12    1    3    3    0    0  0.12432905582E+02  0.37881729622E+01 -0.31615391549E+02  0.34182749720E+02  0.00000000000E+00 0.  1.
</event>
<event>
 7    1  0.6164995E-012  0.5930187E+02  0.7816164E-02  0.1266605E+00
        -11   -1    0    0    0    0  0.00000000000E+00  0.00000000000E+00  0.45593999997E+02  0.45594000000E+02  0.51100000000E-03 0. -1.
         11   -1    0    0    0    0 -0.00000000000E+00 -0.00000000000E+00 -0.45593999997E+02  0.45594000000E+02  0.51100000000E-03 0.  1.
    9900012    2    1    2    0    0  0.22577875056E+02  0.21011905589E+02 -0.80910146466E+01  0.59301872350E+02  0.49999869277E+02 0.  0.
         12    1    1    2    0    0 -0.22577875056E+02 -0.21011905589E+02  0.80910146466E+01  0.31886127650E+02  0.00000000000E+00 0. -1.
         11    1    3    3    0    0  0.18677563244E+02  0.24798361516E+02 -0.90096565938E+01  0.32326212503E+02  0.51100000000E-03 0. -1.
        -11    1    3    3    0    0  0.10808833911E+02 -0.33087525745E+01 -0.92956597810E+01  0.14635163994E+02  0.51100000000E-03 0.  1.
         12    1    3    3    0    0 -0.69085220991E+01 -0.47770335318E+00  0.10214301728E+02  0.12340495852E+02  0.00000000000E+00 0. -1.
</event>
<event>
 7    1  0.6164995E-012  0.5930195E+02  0.7816164E-02  0.1266605E+00
        -11   -1    0    0    0    0  0.00000000000E+00  0.00000000000E+00  0.45593999997E+02  0.45594000000E+02  0.51100000000E-03 0.  1.
         11   -1    0    0    0    0 -0.00000000000E+00 -0.00000000000E+00 -0.45593999997E+02  0.45594000000E+02  0.51100000000E-03 0. -1.
    9900012    2    1    2    0    0 -0.40329284356E+01  0.28899855647E+02  0.12855122051E+02  0.59301947703E+02  0.50000006703E+02 0.  0.
         12    1    1    2    0    0  0.40329284356E+01 -0.28899855647E+02 -0.12855122051E+02  0.31886052297E+02  0.00000000000E+00 0. -1.
         11    1    3    3    0    0  0.72215842340E+01  0.16169899325E+02  0.79534765730E+00  0.17727083832E+02  0.51100000000E-03 0. -1.
        -11    1    3    3    0    0  0.12776850154E+02  0.73048353180E+01  0.75069620483E+01  0.16521591883E+02  0.51100000000E-03 0.  1.
        -12    1    3    3    0    0 -0.24031362824E+02  0.54251210037E+01  0.45528123451E+01  0.25053271988E+02  0.00000000000E+00 0.  1.
</event>
<event>
 7    1  0.6164995E-012  0.5930194E+02  0.7816164E-02  0.1266605E+00
        -11   -1    0    0    0    0  0.00000000000E+00  0.00000000000E+00  0.45593999997E+02  0.45594000000E+02  0.51100000000E-03 0. -1.
         11   -1    0    0    0    0 -0.00000000000E+00 -0.00000000000E+00 -0.45593999997E+02  0.45594000000E+02  0.51100000000E-03 0.  1.
    9900012    2    1    2    0    0  0.43549574118E+00 -0.53900230307E+01 -0.31424173817E+02  0.59301941841E+02  0.49999996013E+02 0.  0.
         12    1    1    2    0    0 -0.43549574118E+00  0.53900230307E+01  0.31424173817E+02  0.31886058159E+02  0.00000000000E+00 0. -1.
         11    1    3    3    0    0 -0.27082895599E+01 -0.15042448278E+02 -0.76869983083E+01  0.17108478185E+02  0.51100000000E-03 0. -1.
        -11    1    3    3    0    0  0.46512348070E+01 -0.10081145473E+02 -0.18738966579E+02  0.21781008883E+02  0.51100000000E-03 0.  1.
         12    1    3    3    0    0 -0.15074495059E+01  0.19733570720E+02 -0.49982089300E+01  0.20412454774E+02  0.00000000000E+00 0. -1.
</event>
<event>
 7    1  0.6164995E-012  0.5930194E+02  0.7816164E-02  0.1266605E+00
        -11   -1    0    0    0    0  0.00000000000E+00  0.00000000000E+00  0.45593999997E+02  0.45594000000E+02  0.51100000000E-03 0.  1.
         11   -1    0    0    0    0 -0.00000000000E+00 -0.00000000000E+00 -0.45593999997E+02  0.45594000000E+02  0.51100000000E-03 0. -1.
    9900012    2    1    2    0    0  0.25572453635E+02 -0.18409030811E+02 -0.48864960196E+01  0.59301942801E+02  0.49999997763E+02 0.  0.
         12    1    1    2    0    0 -0.25572453635E+02  0.18409030811E+02  0.48864960196E+01  0.31886057199E+02  0.00000000000E+00 0. -1.
         11    1    3    3    0    0  0.23064670552E+01 -0.64471535090E+00 -0.54172435101E+01  0.59230039397E+01  0.51100000000E-03 0. -1.
        -11    1    3    3    0    0  0.11507028233E+02  0.14651382049E+02 -0.23434297979E+01  0.18776750470E+02  0.51100000000E-03 0.  1.
         12    1    3    3    0    0  0.11758958347E+02 -0.32415697510E+02  0.28741772884E+01  0.34602188392E+02  0.00000000000E+00 0. -1.
</event>
<event>
 7    1  0.6164995E-012  0.5930193E+02  0.7816164E-02  0.1266605E+00
        -11   -1    0    0    0    0  0.00000000000E+00  0.00000000000E+00  0.45593999997E+02  0.45594000000E+02  0.51100000000E-03 0.  1.
         11   -1    0    0    0    0 -0.00000000000E+00 -0.00000000000E+00 -0.45593999997E+02  0.45594000000E+02  0.51100000000E-03 0. -1.
    9900012    2    1    2    0    0 -0.22205938854E+02 -0.22698481083E+02 -0.28976561559E+01  0.59301934469E+02  0.49999982567E+02 0.  0.
         12    1    1    2    0    0  0.22205938854E+02  0.22698481083E+02  0.28976561559E+01  0.31886065531E+02  0.00000000000E+00 0. -1.
         11    1    3    3    0    0  0.34155575906E+01  0.44233027065E+00 -0.93822777861E+01  0.99944397762E+01  0.51100000000E-03 0. -1.
        -11    1    3    3    0    0 -0.82702209107E+00 -0.13819221493E+02 -0.10902885256E+02  0.17621797734E+02  0.51100000000E-03 0.  1.
         12    1    3    3    0    0 -0.24794474354E+02 -0.93215898606E+01  0.17387506886E+02  0.31685696958E+02  0.00000000000E+00 0. -1.
</event>
<event>
 7    1  0.6164995E-012  0.5930194E+02  0.7816164E-02  0.1266605E+00
        -11   -1    0    0    0    0  0.00000000000E+00  0.00000000000E+00  0.45593999997E+02  0.45594000000E+02  0.51100000000E-03 0.  1.
         11   -1    0    0    0    0 -0.00000000000E+00 -0.00000000000E+00 -0.45593999997E+02  0.45594000000E+02  0.51100000000E-03 0. -1.
    9900012    2    1    2    0    0 -0.74055493653E+01  0.85237859015E+01  0.29819852558E+02  0.59301942011E+02  0.49999996322E+02 0.  0.
         12    1    1    2    0    0  0.74055493653E+01 -0.85237859015E+01 -0.29819852558E+02  0.31886057989E+02  0.00000000000E+00 0. -1.
         11    1    3    3    0    0  0.34336111866E+01  0.96236991005E+01  0.25008760352E+02  0.27015613351E+02  0.51100000000E-03 0. -1.
        -11    1    3    3    0    0 -0.65935955833E+01  0.55191180387E+01  0.16261993066E+02  0.18395341404E+02  0.51100000000E-03 0.  1.
         12    1    3    3    0    0 -0.42455649686E+01 -0.66190312378E+01 -0.11450900860E+02  0.13890987256E+02  0.00000000000E+00 0. -1.
</event>
<event>
 7    1  0.6164995E-012  0.5930192E+02  0.7816164E-02  0.1266605E+00
        -11   -1    0    0    0    0  0.00000000000E+00  0.00000000000E+00  0.45593999997E+02  0.45594000000E+02  0.51100000000E-03 0.  1.
         11   -1    0    0    0    0 -0.00000000000E+00 -0.00000000000E+00 -0.45593999997E+02  0.45594000000E+02  0.51100000000E-03 0. -1.
    9900012    2    1    2    0    0  0.14476450548E+02  0.62313350916E+01  0.27718679679E+02  0.59301915878E+02  0.49999948662E+02 0.  0.
         12    1    1    2    0    0 -0.14476450548E+02 -0.62313350916E+01 -0.27718679679E+02  0.31886084122E+02  0.00000000000E+00 0. -1.
         11    1    3    3    0    0  0.12811525381E+02 -0.46697164905E+01  0.11009501045E+02  0.17525711062E+02  0.51100000000E-03 0. -1.
        -11    1    3    3    0    0  0.40345224243E+01  0.19190034653E+02  0.23640045184E+02  0.30714598122E+02  0.51100000000E-03 0.  1.
         12    1    3    3    0    0 -0.23695972574E+01 -0.82889830713E+01 -0.69308665508E+01  0.11061606694E+02  0.00000000000E+00 0. -1.
</event>
<event>
 7    1  0.6164995E-012  0.5930193E+02  0.7816164E-02  0.1266605E+00
        -11   -1    0    0    0    0  0.00000000000E+00  0.00000000000E+00  0.45593999997E+02  0.45594000000E+02  0.51100000000E-03 0.  1.
         11   -1    0    0    0    0 -0.00000000000E+00 -0.00000000000E+00 -0.45593999997E+02  0.45594000000E+02  0.51100000000E-03 0. -1.
    9900012    2    1    2    0    0  0.18819592964E+02  0.24903241485E+02  0.65094462963E+01  0.59301930834E+02  0.49999975938E+02 0.  0.
         12    1    1    2    0    0 -0.18819592964E+02 -0.24903241485E+02 -0.65094462963E+01  0.31886069166E+02  0.00000000000E+00 0. -1.
         11    1    3    3    0    0  0.38557011888E+01  0.83577992289E+01 -0.12446873528E+02  0.15480436057E+02  0.51100000000E-03 0. -1.
        -11    1    3    3    0    0  0.24552546776E+01  0.22662081291E+02  0.35741032437E+01  0.23073196966E+02  0.51100000000E-03 0.  1.
         12    1    3    3    0    0  0.12508637097E+02 -0.61166390355E+01  0.15382216581E+02  0.20748297811E+02  0.00000000000E+00 0. -1.
</event>
<event>
 7    1  0.6164995E-012  0.5930187E+02  0.7816164E-02  0.1266605E+00
        -11   -1    0    0    0    0  0.00000000000E+00  0.00000000000E+00  0.45593999997E+02  0.45594000000E+02  0.51100000000E-03 0. -1.
         11   -1    0    0    0    0 -0.00000000000E+00 -0.00000000000E+00 -0.45593999997E+02  0.45594000000E+02  0.51100000000E-03 0.  1.
    9900012    2    1    2    0    0  0.39274768973E+01 -0.31511626045E+02 -0.28840253336E+01  0.59301870525E+02  0.49999865949E+02 0.  0.
         12    1    1    2    0    0 -0.39274768973E+01  0.31511626045E+02  0.28840253336E+01  0.31886129475E+02  0.00000000000E+00 0. -1.
         11    1    3    3    0    0 -0.45213181612E+01 -0.13921257022E+02 -0.82033718740E+01  0.16779124689E+02  0.51100000000E-03 0.  1.
        -11    1    3    3    0    0  0.18558005539E+02 -0.17815962986E+02  0.13918057929E+02  0.29249281077E+02  0.51100000000E-03 0. -1.
         12    1    3    3    0    0 -0.10109210480E+02  0.22559396329E+00 -0.85987113886E+01  0.13273464759E+02  0.00000000000E+00 0. -1.
</event>
<event>
 7    1  0.6164995E-012  0.5930167E+02  0.7816164E-02  0.1266606E+00
        -11   -1    0    0    0    0  0.00000000000E+00  0.00000000000E+00  0.45593999997E+02  0.45594000000E+02  0.51100000000E-03 0.  1.
         11   -1    0    0    0    0 -0.00000000000E+00 -0.00000000000E+00 -0.45593999997E+02  0.45594000000E+02  0.51100000000E-03 0. -1.
    9900012    2    1    2    0    0 -0.24349590999E+02 -0.10897868146E+02  0.17466301979E+02  0.59301673514E+02  0.49999506646E+02 0.  0.
         12    1    1    2    0    0  0.24349590999E+02  0.10897868146E+02 -0.17466301979E+02  0.31886326486E+02  0.00000000000E+00 0. -1.
         11    1    3    3    0    0 -0.17912762798E+01 -0.90912039836E+01  0.46276370457E+01  0.10357301071E+02  0.51100000000E-03 0. -1.
        -11    1    3    3    0    0  0.74719224772E+01 -0.98322555934E+01 -0.47474073439E+01  0.13230296758E+02  0.51100000000E-03 0.  1.
         12    1    3    3    0    0 -0.30030237197E+02  0.80255914313E+01  0.17586072277E+02  0.35714075685E+02  0.00000000000E+00 0. -1.
</event>
<event>
 7    1  0.6164995E-012  0.5930195E+02  0.7816164E-02  0.1266605E+00
        -11   -1    0    0    0    0  0.00000000000E+00  0.00000000000E+00  0.45593999997E+02  0.45594000000E+02  0.51100000000E-03 0. -1.
         11   -1    0    0    0    0 -0.00000000000E+00 -0.00000000000E+00 -0.45593999997E+02  0.45594000000E+02  0.51100000000E-03 0.  1.
    9900012    2    1    2    0    0  0.29998318836E+02  0.58902171810E+01  0.90623690941E+01  0.59301947798E+02  0.50000006876E+02 0.  0.
         12    1    1    2    0    0 -0.29998318836E+02 -0.58902171810E+01 -0.90623690941E+01  0.31886052202E+02  0.00000000000E+00 0. -1.
         11    1    3    3    0    0  0.18725578096E+01 -0.11159689511E+02  0.92326708794E+01  0.14604360806E+02  0.51100000000E-03 0. -1.
        -11    1    3    3    0    0 -0.23014998840E+01 -0.17347357419E+01 -0.76413698620E+01  0.81668074203E+01  0.51100000000E-03 0.  1.
        -12    1    3    3    0    0  0.30427260911E+02  0.18784642434E+02  0.74710680768E+01  0.36530779571E+02  0.00000000000E+00 0.  1.
</event>
<event>
 7    1  0.6164995E-012  0.5930199E+02  0.7816164E-02  0.1266605E+00
        -11   -1    0    0    0    0  0.00000000000E+00  0.00000000000E+00  0.45593999997E+02  0.45594000000E+02  0.51100000000E-03 0. -1.
         11   -1    0    0    0    0 -0.00000000000E+00 -0.00000000000E+00 -0.45593999997E+02  0.45594000000E+02  0.51100000000E-03 0.  1.
    9900012    2    1    2    0    0 -0.19466929750E+02 -0.12511075643E+02 -0.21936935591E+02  0.59301991928E+02  0.50000087359E+02 0.  0.
         12    1    1    2    0    0  0.19466929750E+02  0.12511075643E+02  0.21936935591E+02  0.31886008072E+02  0.00000000000E+00 0. -1.
         11    1    3    3    0    0 -0.25214811454E+02 -0.18101739598E+02 -0.28336766301E+02  0.42028942620E+02  0.51100000000E-03 0. -1.
        -11    1    3    3    0    0 -0.25147902569E+01 -0.31400640413E+01  0.16218313244E+01  0.43375695182E+01  0.51100000000E-03 0.  1.
        -12    1    3    3    0    0  0.82626719603E+01  0.87307279966E+01  0.47779993855E+01  0.12935479790E+02  0.00000000000E+00 0.  1.
</event>
<event>
 7    1  0.6164995E-012  0.5930194E+02  0.7816164E-02  0.1266605E+00
        -11   -1    0    0    0    0  0.00000000000E+00  0.00000000000E+00  0.45593999997E+02  0.45594000000E+02  0.51100000000E-03 0.  1.
         11   -1    0    0    0    0 -0.00000000000E+00 -0.00000000000E+00 -0.45593999997E+02  0.45594000000E+02  0.51100000000E-03 0. -1.
    9900012    2    1    2    0    0 -0.62545552230E+01 -0.20564632561E+02  0.23552013419E+02  0.59301938633E+02  0.49999990161E+02 0.  0.
         12    1    1    2    0    0  0.62545552230E+01  0.20564632561E+02 -0.23552013419E+02  0.31886061367E+02  0.00000000000E+00 0. -1.
         11    1    3    3    0    0  0.17046625411E+02 -0.84625349229E+01  0.78856175612E+01  0.20600604356E+02  0.51100000000E-03 0. -1.
        -11    1    3    3    0    0 -0.11746189376E+01  0.65196901007E+00 -0.54187786692E+01  0.55828268615E+01  0.51100000000E-03 0.  1.
        -12    1    3    3    0    0 -0.22126561697E+02 -0.12754066648E+02  0.21085174527E+02  0.33118507416E+02  0.00000000000E+00 0.  1.
</event>
<event>
 7    1  0.6164995E-012  0.5930196E+02  0.7816164E-02  0.1266605E+00
        -11   -1    0    0    0    0  0.00000000000E+00  0.00000000000E+00  0.45593999997E+02  0.45594000000E+02  0.51100000000E-03 0.  1.
         11   -1    0    0    0    0 -0.00000000000E+00 -0.00000000000E+00 -0.45593999997E+02  0.45594000000E+02  0.51100000000E-03 0. -1.
    9900012    2    1    2    0    0 -0.28432083764E+01  0.31758428180E+02  0.19547672894E+00  0.59301955945E+02  0.50000021735E+02 0.  0.
         12    1    1    2    0    0  0.28432083764E+01 -0.31758428180E+02 -0.19547672894E+00  0.31886044055E+02  0.00000000000E+00 0. -1.
         11    1    3    3    0    0 -0.65202292553E+01  0.14942055063E+02 -0.10448927754E+02  0.19363844931E+02  0.51100000000E-03 0. -1.
        -11    1    3    3    0    0 -0.27879726556E+01  0.25157346173E+02  0.52437117955E+00  0.25316789358E+02  0.51100000000E-03 0.  1.
        -12    1    3    3    0    0  0.64649935344E+01 -0.83409730563E+01  0.10120033303E+02  0.14621321656E+02  0.00000000000E+00 0.  1.
</event>
<event>
 7    1  0.6164995E-012  0.5930193E+02  0.7816164E-02  0.1266605E+00
        -11   -1    0    0    0    0  0.00000000000E+00  0.00000000000E+00  0.45593999997E+02  0.45594000000E+02  0.51100000000E-03 0.  1.
         11   -1    0    0    0    0 -0.00000000000E+00 -0.00000000000E+00 -0.45593999997E+02  0.45594000000E+02  0.51100000000E-03 0. -1.
    9900012    2    1    2    0    0  0.21880317744E+02  0.23061835105E+02  0.24748652929E+01  0.59301929354E+02  0.49999973239E+02 0.  0.
         12    1    1    2    0    0 -0.21880317744E+02 -0.23061835105E+02 -0.24748652929E+01  0.31886070646E+02  0.00000000000E+00 0. -1.
         11    1    3    3    0    0 -0.35092265103E+00  0.46023081356E+01 -0.46782128850E+01  0.65719147088E+01  0.51100000000E-03 0. -1.
        -11    1    3    3    0    0  0.20953879854E+02  0.17769118401E+02 -0.14474693417E+02  0.31053556953E+02  0.51100000000E-03 0.  1.
        -12    1    3    3    0    0  0.12773605414E+01  0.69040856804E+00  0.21627771594E+02  0.21676457692E+02  0.00000000000E+00 0.  1.
</event>
<event>
 7    1  0.6164995E-012  0.5930195E+02  0.7816164E-02  0.1266605E+00
        -11   -1    0    0    0    0  0.00000000000E+00  0.00000000000E+00  0.45593999997E+02  0.45594000000E+02  0.51100000000E-03 0.  1.
         11   -1    0    0    0    0 -0.00000000000E+00 -0.00000000000E+00 -0.45593999997E+02  0.45594000000E+02  0.51100000000E-03 0. -1.
    9900012    2    1    2    0    0 -0.11904286760E+02  0.23134119032E+02  0.18434224481E+02  0.59301950717E+02  0.50000012199E+02 0.  0.
         12    1    1    2    0    0  0.11904286760E+02 -0.23134119032E+02 -0.18434224481E+02  0.31886049283E+02  0.00000000000E+00 0. -1.
         11    1    3    3    0    0  0.32330427942E+00 -0.26095654821E+00 -0.83743830406E+01  0.83846833899E+01  0.51100000000E-03 0. -1.
        -11    1    3    3    0    0  0.82780550747E+01  0.17450309536E+02  0.40928547299E+01  0.19743124343E+02  0.51100000000E-03 0.  1.
         12    1    3    3    0    0 -0.20505646114E+02  0.59447660449E+01  0.22715752792E+02  0.31174142984E+02  0.00000000000E+00 0. -1.
</event>
<event>
 7    1  0.6164995E-012  0.5930192E+02  0.7816164E-02  0.1266605E+00
        -11   -1    0    0    0    0  0.00000000000E+00  0.00000000000E+00  0.45593999997E+02  0.45594000000E+02  0.51100000000E-03 0.  1.
         11   -1    0    0    0    0 -0.00000000000E+00 -0.00000000000E+00 -0.45593999997E+02  0.45594000000E+02  0.51100000000E-03 0. -1.
    9900012    2    1    2    0    0 -0.20888364393E+02 -0.14458222482E+02  0.19270657726E+02  0.59301918184E+02  0.49999952868E+02 0.  0.
         12    1    1    2    0    0  0.20888364393E+02  0.14458222482E+02 -0.19270657726E+02  0.31886081816E+02  0.00000000000E+00 0. -1.
         11    1    3    3    0    0 -0.32475074962E+01  0.65605651806E+00  0.66283887826E+00  0.33787676352E+01  0.51100000000E-03 0. -1.
        -11    1    3    3    0    0 -0.10518163350E+02  0.27468398654E+01  0.31131866925E+02  0.32975294206E+02  0.51100000000E-03 0.  1.
         12    1    3    3    0    0 -0.71226935468E+01 -0.17861118866E+02 -0.12524048077E+02  0.22947856343E+02  0.00000000000E+00 0. -1.
</event>
<event>
 7    1  0.6164995E-012  0.5930194E+02  0.7816164E-02  0.1266605E+00
        -11   -1    0    0    0    0  0.00000000000E+00  0.00000000000E+00  0.45593999997E+02  0.45594000000E+02  0.51100000000E-03 0. -1.
         11   -1    0    0    0    0 -0.00000000000E+00 -0.00000000000E+00 -0.45593999997E+02  0.45594000000E+02  0.51100000000E-03 0.  1.
    9900012    2    1    2    0    0  0.30462471121E+02  0.78893224533E+01 -0.51494842942E+01  0.59301941228E+02  0.49999994893E+02 0.  0.
         12    1    1    2    0    0 -0.30462471121E+02 -0.78893224533E+01  0.51494842942E+01  0.31886058772E+02  0.00000000000E+00 0. -1.
         11    1    3    3    0    0  0.50477996986E+01  0.10574398378E+02  0.10221383220E+02  0.15549111166E+02  0.51100000000E-03 0. -1.
        -11    1    3    3    0    0  0.10018064018E+02  0.12981630172E+02  0.89187865373E+00  0.16421929740E+02  0.51100000000E-03 0.  1.
        -12    1    3    3    0    0  0.15396607404E+02 -0.15666706097E+02 -0.16262746168E+02  0.27330900322E+02  0.00000000000E+00 0.  1.
</event>
<event>
 7    1  0.6164995E-012  0.5930195E+02  0.7816164E-02  0.1266605E+00
        -11   -1    0    0    0    0  0.00000000000E+00  0.00000000000E+00  0.45593999997E+02  0.45594000000E+02  0.51100000000E-03 0. -1.
         11   -1    0    0    0    0 -0.00000000000E+00 -0.00000000000E+00 -0.45593999997E+02  0.45594000000E+02  0.51100000000E-03 0.  1.
    9900012    2    1    2    0    0  0.17043581241E+02 -0.26909297531E+02 -0.14582159224E+01  0.59301947425E+02  0.50000006197E+02 0.  0.
         12    1    1    2    0    0 -0.17043581241E+02  0.26909297531E+02  0.14582159224E+01  0.31886052575E+02  0.00000000000E+00 0. -1.
         11    1    3    3    0    0  0.14159146144E+02 -0.33465874253E+02 -0.54237344827E+01  0.36740482510E+02  0.51100000000E-03 0. -1.
        -11    1    3    3    0    0 -0.31918430284E+01 -0.63553688194E+01  0.42563882933E+01  0.82882698021E+01  0.51100000000E-03 0.  1.
         12    1    3    3    0    0  0.60762781254E+01  0.12911945542E+02 -0.29086973313E+00  0.14273195113E+02  0.00000000000E+00 0. -1.
</event>
<event>
 7    1  0.6164995E-012  0.5930195E+02  0.7816164E-02  0.1266605E+00
        -11   -1    0    0    0    0  0.00000000000E+00  0.00000000000E+00  0.45593999997E+02  0.45594000000E+02  0.51100000000E-03 0.  1.
         11   -1    0    0    0    0 -0.00000000000E+00 -0.00000000000E+00 -0.45593999997E+02  0.45594000000E+02  0.51100000000E-03 0. -1.
    9900012    2    1    2    0    0 -0.24463208656E+02  0.15189765179E+02  0.13694628477E+02  0.59301946731E+02  0.50000004931E+02 0.  0.
         12    1    1    2    0    0  0.24463208656E+02 -0.15189765179E+02 -0.13694628477E+02  0.31886053269E+02  0.00000000000E+00 0. -1.
         11    1    3    3    0    0 -0.50235388062E+00 -0.57663815365E+01  0.60068370443E+01  0.83417987858E+01  0.51100000000E-03 0. -1.
        -11    1    3    3    0    0  0.93065901515E+01 -0.24217028033E+01  0.27454328327E+01  0.10000733294E+02  0.51100000000E-03 0.  1.
         12    1    3    3    0    0 -0.33267444926E+02  0.23377849519E+02  0.49423585996E+01  0.40959414652E+02  0.00000000000E+00 0. -1.
</event>
<event>
 7    1  0.6164995E-012  0.5930194E+02  0.7816164E-02  0.1266605E+00
        -11   -1    0    0    0    0  0.00000000000E+00  0.00000000000E+00  0.45593999997E+02  0.45594000000E+02  0.51100000000E-03 0.  1.
         11   -1    0    0    0    0 -0.00000000000E+00 -0.00000000000E+00 -0.45593999997E+02  0.45594000000E+02  0.51100000000E-03 0. -1.
    9900012    2    1    2    0    0 -0.19249243598E+02 -0.69977761585E+01  0.24438058859E+02  0.59301937667E+02  0.49999988400E+02 0.  0.
         12    1    1    2    0    0  0.19249243598E+02  0.69977761585E+01 -0.24438058859E+02  0.31886062333E+02  0.00000000000E+00 0. -1.
         11    1    3    3    0    0 -0.17004955682E+02  0.79519190026E+00  0.19383597408E+02  0.25797765341E+02  0.51100000000E-03 0. -1.
        -11    1    3    3    0    0 -0.77368759955E+01 -0.18482758111E+02  0.72091759648E+01  0.21294220246E+02  0.51100000000E-03 0.  1.
         12    1    3    3    0    0  0.54925880787E+01  0.10689790052E+02 -0.21547145133E+01  0.12209952080E+02  0.00000000000E+00 0. -1.
</event>
<event>
 7    1  0.6164995E-012  0.5930182E+02  0.7816164E-02  0.1266605E+00
        -11   -1    0    0    0    0  0.00000000000E+00  0.00000000000E+00  0.45593999997E+02  0.45594000000E+02  0.51100000000E-03 0.  1.
         11   -1    0    0    0    0 -0.00000000000E+00 -0.00000000000E+00 -0.45593999997E+02  0.45594000000E+02  0.51100000000E-03 0. -1.
    9900012    2    1    2    0    0  0.28129859837E+00 -0.21707342821E+02  0.23354676691E+02  0.59301815145E+02  0.49999764948E+02 0.  0.
         12    1    1    2    0    0 -0.28129859837E+00  0.21707342821E+02 -0.23354676691E+02  0.31886184855E+02  0.00000000000E+00 0. -1.
         11    1    3    3    0    0  0.13298454508E+01 -0.29745242181E+02  0.12515835301E+02  0.32298514747E+02  0.51100000000E-03 0. -1.
        -11    1    3    3    0    0 -0.19925975419E+01 -0.70629259101E+01 -0.14871181929E+01  0.74877825927E+01  0.51100000000E-03 0.  1.
         12    1    3    3    0    0  0.94405068950E+00  0.15100825270E+02  0.12325959583E+02  0.19515517805E+02  0.00000000000E+00 0. -1.
</event>
<event>
 7    1  0.6164995E-012  0.5930224E+02  0.7816164E-02  0.1266604E+00
        -11   -1    0    0    0    0  0.00000000000E+00  0.00000000000E+00  0.45593999997E+02  0.45594000000E+02  0.51100000000E-03 0.  1.
         11   -1    0    0    0    0 -0.00000000000E+00 -0.00000000000E+00 -0.45593999997E+02  0.45594000000E+02  0.51100000000E-03 0. -1.
    9900012    2    1    2    0    0 -0.15627297268E+02 -0.23518546437E+02  0.14811046690E+02  0.59302242200E+02  0.50000543792E+02 0.  0.
         12    1    1    2    0    0  0.15627297268E+02  0.23518546437E+02 -0.14811046690E+02  0.31885757800E+02  0.00000000000E+00 0. -1.
         11    1    3    3    0    0 -0.12651861748E+02  0.47495501768E+01  0.93477457831E+01  0.16431925756E+02  0.51100000000E-03 0. -1.
        -11    1    3    3    0    0  0.23270589054E+01 -0.97100558936E+01  0.17482602605E+02  0.20133101667E+02  0.51100000000E-03 0.  1.
         12    1    3    3    0    0 -0.53024944255E+01 -0.18558040721E+02 -0.12019301698E+02  0.22737214777E+02  0.00000000000E+00 0. -1.
</event>
<event>
 7    1  0.6164995E-012  0.5930198E+02  0.7816164E-02  0.1266605E+00
        -11   -1    0    0    0    0  0.00000000000E+00  0.00000000000E+00  0.45593999997E+02  0.45594000000E+02  0.51100000000E-03 0.  1.
         11   -1    0    0    0    0 -0.00000000000E+00 -0.00000000000E+00 -0.45593999997E+02  0.45594000000E+02  0.51100000000E-03 0. -1.
    9900012    2    1    2    0    0 -0.29219563710E+01  0.13704219278E+02  0.28642185693E+02  0.59301980237E+02  0.50000066037E+02 0.  0.
         12    1    1    2    0    0  0.29219563710E+01 -0.13704219278E+02 -0.28642185693E+02  0.31886019763E+02  0.00000000000E+00 0. -1.
         11    1    3    3    0    0  0.17314165102E+02  0.97669215246E+01  0.13127298653E+02  0.23822238338E+02  0.51100000000E-03 0. -1.
        -11    1    3    3    0    0 -0.65716831538E+01  0.12804615279E+02  0.12175016359E+02  0.18851424761E+02  0.51100000000E-03 0.  1.
         12    1    3    3    0    0 -0.13664438319E+02 -0.88673175255E+01  0.33398706810E+01  0.16628317138E+02  0.00000000000E+00 0. -1.
</event>
<event>
 7    1  0.6164995E-012  0.5930189E+02  0.7816164E-02  0.1266605E+00
        -11   -1    0    0    0    0  0.00000000000E+00  0.00000000000E+00  0.45593999997E+02  0.45594000000E+02  0.51100000000E-03 0.  1.
         11   -1    0    0    0    0 -0.00000000000E+00 -0.00000000000E+00 -0.45593999997E+02  0.45594000000E+02  0.51100000000E-03 0. -1.
    9900012    2    1    2    0    0  0.28238488054E+02 -0.41200541068E+01  0.14224512608E+02  0.59301893114E+02  0.49999907146E+02 0.  0.
         12    1    1    2    0    0 -0.28238488054E+02  0.41200541068E+01 -0.14224512608E+02  0.31886106886E+02  0.00000000000E+00 0. -1.
         11    1    3    3    0    0 -0.23771629971E+01 -0.55191446585E+01  0.32047578120E+01  0.68104577358E+01  0.51100000000E-03 0. -1.
        -11    1    3    3    0    0 -0.20024393464E+01  0.10535436319E+00 -0.12243500270E+02  0.12406617669E+02  0.51100000000E-03 0.  1.
        -12    1    3    3    0    0  0.32618090397E+02  0.12937361885E+01  0.23263255066E+02  0.40084817709E+02  0.00000000000E+00 0.  1.
</event>
<event>
 7    1  0.6164995E-012  0.5930195E+02  0.7816164E-02  0.1266605E+00
        -11   -1    0    0    0    0  0.00000000000E+00  0.00000000000E+00  0.45593999997E+02  0.45594000000E+02  0.51100000000E-03 0.  1.
         11   -1    0    0    0    0 -0.00000000000E+00 -0.00000000000E+00 -0.45593999997E+02  0.45594000000E+02  0.51100000000E-03 0. -1.
    9900012    2    1    2    0    0 -0.30030048635E+02  0.25050151775E+01  0.10423122922E+02  0.59301946410E+02  0.50000004346E+02 0.  0.
         12    1    1    2    0    0  0.30030048635E+02 -0.25050151775E+01 -0.10423122922E+02  0.31886053590E+02  0.00000000000E+00 0. -1.
         11    1    3    3    0    0 -0.28038395198E+02 -0.92638363754E+01 -0.53326627844E+01  0.30006791936E+02  0.51100000000E-03 0. -1.
        -11    1    3    3    0    0 -0.47406584250E+01 -0.24764489427E+01  0.13617622170E+02  0.14630320417E+02  0.51100000000E-03 0.  1.
         12    1    3    3    0    0  0.27490049878E+01  0.14245300496E+02  0.21381635364E+01  0.14664834058E+02  0.00000000000E+00 0. -1.
</event>
<event>
 7    1  0.6164995E-012  0.5930194E+02  0.7816164E-02  0.1266605E+00
        -11   -1    0    0    0    0  0.00000000000E+00  0.00000000000E+00  0.45593999997E+02  0.45594000000E+02  0.51100000000E-03 0.  1.
         11   -1    0    0    0    0 -0.00000000000E+00 -0.00000000000E+00 -0.45593999997E+02  0.45594000000E+02  0.51100000000E-03 0. -1.
    9900012    2    1    2    0    0  0.16634047375E+02 -0.26203195431E+02  0.73090167658E+01  0.59301941778E+02  0.49999995896E+02 0.  0.
         12    1    1    2    0    0 -0.16634047375E+02  0.26203195431E+02 -0.73090167658E+01  0.31886058222E+02  0.00000000000E+00 0. -1.
         11    1    3    3    0    0  0.28714085140E+01  0.76478380010E+01  0.11320708267E+00  0.81698977380E+01  0.51100000000E-03 0. -1.
        -11    1    3    3    0    0  0.14067364321E+02  0.56939680245E+00  0.89205735865E+01  0.16667080879E+02  0.51100000000E-03 0.  1.
         12    1    3    3    0    0 -0.30472545961E+00 -0.34420430235E+02 -0.17247639034E+01  0.34464963161E+02  0.00000000000E+00 0. -1.
</event>
<event>
 7    1  0.6164995E-012  0.5930195E+02  0.7816164E-02  0.1266605E+00
        -11   -1    0    0    0    0  0.00000000000E+00  0.00000000000E+00  0.45593999997E+02  0.45594000000E+02  0.51100000000E-03 0.  1.
         11   -1    0    0    0    0 -0.00000000000E+00 -0.00000000000E+00 -0.45593999997E+02  0.45594000000E+02  0.51100000000E-03 0. -1.
    9900012    2    1    2    0    0 -0.89010791278E+01 -0.16802705609E+02  0.25596098290E+02  0.59301947044E+02  0.50000005502E+02 0.  0.
         12    1    1    2    0    0  0.89010791278E+01  0.16802705609E+02 -0.25596098290E+02  0.31886052956E+02  0.00000000000E+00 0. -1.
         11    1    3    3    0    0 -0.34641625069E+01 -0.53306449532E+01 -0.42167541747E+01  0.76287098203E+01  0.51100000000E-03 0. -1.
        -11    1    3    3    0    0  0.16705073505E+02  0.10525431374E+01  0.10904408053E+02  0.19976822648E+02  0.51100000000E-03 0.  1.
         12    1    3    3    0    0 -0.22141990126E+02 -0.12524603793E+02  0.18908444412E+02  0.31696414576E+02  0.00000000000E+00 0. -1.
</event>
<event>
 7    1  0.6164995E-012  0.5930192E+02  0.7816164E-02  0.1266605E+00
        -11   -1    0    0    0    0  0.00000000000E+00  0.00000000000E+00  0.45593999997E+02  0.45594000000E+02  0.51100000000E-03 0.  1.
         11   -1    0    0    0    0 -0.00000000000E+00 -0.00000000000E+00 -0.45593999997E+02  0.45594000000E+02  0.51100000000E-03 0. -1.
    9900012    2    1    2    0    0 -0.18472797896E+02  0.54444685042E+01  0.25413290544E+02  0.59301924110E+02  0.49999963675E+02 0.  0.
         12    1    1    2    0    0  0.18472797896E+02 -0.54444685042E+01 -0.25413290544E+02  0.31886075890E+02  0.00000000000E+00 0. -1.
         11    1    3    3    0    0  0.30768996044E+00  0.12348293984E+01 -0.63000931873E+01  0.64273362433E+01  0.51100000000E-03 0. -1.
        -11    1    3    3    0    0 -0.53853395035E+01 -0.13259291202E+02  0.50569233246E-01  0.14311297714E+02  0.51100000000E-03 0.  1.
         12    1    3    3    0    0 -0.13395148353E+02  0.17468930308E+02  0.31662814498E+02  0.38563290153E+02  0.00000000000E+00 0. -1.
</event>
<event>
 7    1  0.6164995E-012  0.5930197E+02  0.7816164E-02  0.1266605E+00
        -11   -1    0    0    0    0  0.00000000000E+00  0.00000000000E+00  0.45593999997E+02  0.45594000000E+02  0.51100000000E-03 0.  1.
         11   -1    0    0    0    0 -0.00000000000E+00 -0.00000000000E+00 -0.45593999997E+02  0.45594000000E+02  0.51100000000E-03 0. -1.
    9900012    2    1    2    0    0  0.19605697830E+02 -0.19426581636E+02  0.15966949853E+02  0.59301969374E+02  0.50000046225E+02 0.  0.
         12    1    1    2    0    0 -0.19605697830E+02  0.19426581636E+02 -0.15966949853E+02  0.31886030626E+02  0.00000000000E+00 0. -1.
         11    1    3    3    0    0  0.13026917428E+02 -0.75047422118E+01  0.31829661052E+01  0.15367270637E+02  0.51100000000E-03 0. -1.
        -11    1    3    3    0    0  0.18262633219E+02 -0.11948979425E+02  0.20492257759E+02  0.29937176048E+02  0.51100000000E-03 0.  1.
        -12    1    3    3    0    0 -0.11683852816E+02  0.27140000945E-01 -0.77082740113E+01  0.13997522689E+02  0.00000000000E+00 0.  1.
</event>
<event>
 7    1  0.6164995E-012  0.5930195E+02  0.7816164E-02  0.1266605E+00
        -11   -1    0    0    0    0  0.00000000000E+00  0.00000000000E+00  0.45593999997E+02  0.45594000000E+02  0.51100000000E-03 0.  1.
         11   -1    0    0    0    0 -0.00000000000E+00 -0.00000000000E+00 -0.45593999997E+02  0.45594000000E+02  0.51100000000E-03 0. -1.
    9900012    2    1    2    0    0  0.18149488008E+02  0.46129285832E+01  0.25807689965E+02  0.59301954676E+02  0.50000019419E+02 0.  0.
         12    1    1    2    0    0 -0.18149488008E+02 -0.46129285832E+01 -0.25807689965E+02  0.31886045324E+02  0.00000000000E+00 0. -1.
         11    1    3    3    0    0  0.20731056717E+02  0.58814999214E+01  0.11955763143E+02  0.24643640692E+02  0.51100000000E-03 0. -1.
        -11    1    3    3    0    0  0.21124480356E+01  0.14156244761E+02  0.15878177696E+01  0.14400794004E+02  0.51100000000E-03 0.  1.
         12    1    3    3    0    0 -0.46940167444E+01 -0.15424816099E+02  0.12264109052E+02  0.20257519980E+02  0.00000000000E+00 0. -1.
</event>
<event>
 7    1  0.6164995E-012  0.5930195E+02  0.7816164E-02  0.1266605E+00
        -11   -1    0    0    0    0  0.00000000000E+00  0.00000000000E+00  0.45593999997E+02  0.45594000000E+02  0.51100000000E-03 0. -1.
         11   -1    0    0    0    0 -0.00000000000E+00 -0.00000000000E+00 -0.45593999997E+02  0.45594000000E+02  0.51100000000E-03 0.  1.
    9900012    2    1    2    0    0 -0.33166126463E+01  0.21475757814E+02 -0.23334779046E+02  0.59301952797E+02  0.50000015992E+02 0.  0.
         12    1    1    2    0    0  0.33166126463E+01 -0.21475757814E+02  0.23334779046E+02  0.31886047203E+02  0.00000000000E+00 0. -1.
         11    1    3    3    0    0 -0.18009774526E+01 -0.13347673259E+02 -0.85949682305E+01  0.15977402178E+02  0.51100000000E-03 0. -1.
        -11    1    3    3    0    0  0.23310086470E+01  0.15902295975E+01 -0.89345147662E+01  0.93695243131E+01  0.51100000000E-03 0.  1.
        -12    1    3    3    0    0 -0.38466438408E+01  0.33233201476E+02 -0.58052960493E+01  0.33955026305E+02  0.00000000000E+00 0.  1.
</event>
<event>
 7    1  0.6164995E-012  0.5930195E+02  0.7816164E-02  0.1266605E+00
        -11   -1    0    0    0    0  0.00000000000E+00  0.00000000000E+00  0.45593999997E+02  0.45594000000E+02  0.51100000000E-03 0.  1.
         11   -1    0    0    0    0 -0.00000000000E+00 -0.00000000000E+00 -0.45593999997E+02  0.45594000000E+02  0.51100000000E-03 0. -1.
    9900012    2    1    2    0    0 -0.18207421980E+02 -0.23697492751E+02  0.11119291901E+02  0.59301952421E+02  0.50000015307E+02 0.  0.
         12    1    1    2    0    0  0.18207421980E+02  0.23697492751E+02 -0.11119291901E+02  0.31886047579E+02  0.00000000000E+00 0. -1.
         11    1    3    3    0    0 -0.10754533053E+02 -0.40566772006E+01  0.60267054341E+00  0.11509987973E+02  0.51100000000E-03 0. -1.
        -11    1    3    3    0    0 -0.82147361995E+01 -0.82694034112E+01 -0.15497006910E+02  0.19391290495E+02  0.51100000000E-03 0.  1.
        -12    1    3    3    0    0  0.76184727269E+00 -0.11371412139E+02  0.26013628268E+02  0.28400673953E+02  0.00000000000E+00 0.  1.
</event>
<event>
 7    1  0.6164995E-012  0.5930197E+02  0.7816164E-02  0.1266605E+00
        -11   -1    0    0    0    0  0.00000000000E+00  0.00000000000E+00  0.45593999997E+02  0.45594000000E+02  0.51100000000E-03 0.  1.
         11   -1    0    0    0    0 -0.00000000000E+00 -0.00000000000E+00 -0.45593999997E+02  0.45594000000E+02  0.51100000000E-03 0. -1.
    9900012    2    1    2    0    0 -0.27944887326E+02 -0.13846847521E+02 -0.66382766686E+01  0.59301974361E+02  0.50000055321E+02 0.  0.
         12    1    1    2    0    0  0.27944887326E+02  0.13846847521E+02  0.66382766686E+01  0.31886025639E+02  0.00000000000E+00 0. -1.
         11    1    3    3    0    0  0.99929056656E+00  0.70728147399E+01 -0.38713125421E+01  0.81246754422E+01  0.51100000000E-03 0. -1.
        -11    1    3    3    0    0  0.87758237070E+01 -0.28419470839E+01 -0.13702814467E+01  0.93257394596E+01  0.51100000000E-03 0.  1.
         12    1    3    3    0    0 -0.37720001599E+02 -0.18077715177E+02 -0.13966826799E+01  0.41851559459E+02  0.00000000000E+00 0. -1.
</event>
<event>
 7    1  0.6164995E-012  0.5930197E+02  0.7816164E-02  0.1266605E+00
        -11   -1    0    0    0    0  0.00000000000E+00  0.00000000000E+00  0.45593999997E+02  0.45594000000E+02  0.51100000000E-03 0.  1.
         11   -1    0    0    0    0 -0.00000000000E+00 -0.00000000000E+00 -0.45593999997E+02  0.45594000000E+02  0.51100000000E-03 0. -1.
    9900012    2    1    2    0    0 -0.30307769014E+02  0.95432778934E+01  0.26615805227E+01  0.59301968161E+02  0.50000044014E+02 0.  0.
         12    1    1    2    0    0  0.30307769014E+02 -0.95432778934E+01 -0.26615805227E+01  0.31886031839E+02  0.00000000000E+00 0. -1.
         11    1    3    3    0    0 -0.21072652205E+01 -0.11529132195E+02 -0.13121048768E+02  0.17593276469E+02  0.51100000000E-03 0. -1.
        -11    1    3    3    0    0 -0.16699277278E+02  0.12985676597E+02  0.80988265007E+00  0.21169543417E+02  0.51100000000E-03 0.  1.
        -12    1    3    3    0    0 -0.11501226515E+02  0.80867334912E+01  0.14972746641E+02  0.20539148275E+02  0.00000000000E+00 0.  1.
</event>
<event>
 7    1  0.6164995E-012  0.5930195E+02  0.7816164E-02  0.1266605E+00
        -11   -1    0    0    0    0  0.00000000000E+00  0.00000000000E+00  0.45593999997E+02  0.45594000000E+02  0.51100000000E-03 0. -1.
         11   -1    0    0    0    0 -0.00000000000E+00 -0.00000000000E+00 -0.45593999997E+02  0.45594000000E+02  0.51100000000E-03 0.  1.
    9900012    2    1    2    0    0  0.29398867442E+02 -0.11274704839E+02 -0.50306987460E+01  0.59301948097E+02  0.50000007421E+02 0.  0.
         12    1    1    2    0    0 -0.29398867442E+02  0.11274704839E+02  0.50306987460E+01  0.31886051903E+02  0.00000000000E+00 0. -1.
         11    1    3    3    0    0  0.14089942809E+01  0.46437296633E+01 -0.29842519963E+01  0.56969509659E+01  0.51100000000E-03 0. -1.
        -11    1    3    3    0    0  0.18090956313E+02 -0.24000098206E+02 -0.16521299787E+02  0.34296366588E+02  0.51100000000E-03 0.  1.
         12    1    3    3    0    0  0.98989168482E+01  0.80816637035E+01  0.14474853037E+02  0.19308630543E+02  0.00000000000E+00 0. -1.
</event>
<event>
 7    1  0.6164995E-012  0.5930195E+02  0.7816164E-02  0.1266605E+00
        -11   -1    0    0    0    0  0.00000000000E+00  0.00000000000E+00  0.45593999997E+02  0.45594000000E+02  0.51100000000E-03 0.  1.
         11   -1    0    0    0    0 -0.00000000000E+00 -0.00000000000E+00 -0.45593999997E+02  0.45594000000E+02  0.51100000000E-03 0. -1.
    9900012    2    1    2    0    0 -0.14651828661E+02  0.22356262691E+02  0.17385095544E+02  0.59301951144E+02  0.50000012978E+02 0.  0.
         12    1    1    2    0    0  0.14651828661E+02 -0.22356262691E+02 -0.17385095544E+02  0.31886048856E+02  0.00000000000E+00 0. -1.
         11    1    3    3    0    0 -0.12772064658E+01  0.12536158999E+02  0.57208390051E+01  0.13838877772E+02  0.51100000000E-03 0. -1.
        -11    1    3    3    0    0  0.12915383095E+02  0.11650938261E+02  0.67348694971E+01  0.18652344363E+02  0.51100000000E-03 0.  1.
         12    1    3    3    0    0 -0.26290005290E+02 -0.18308345692E+01  0.49293870418E+01  0.26810729008E+02  0.00000000000E+00 0. -1.
</event>
<event>
 7    1  0.6164995E-012  0.5930196E+02  0.7816164E-02  0.1266605E+00
        -11   -1    0    0    0    0  0.00000000000E+00  0.00000000000E+00  0.45593999997E+02  0.45594000000E+02  0.51100000000E-03 0. -1.
         11   -1    0    0    0    0 -0.00000000000E+00 -0.00000000000E+00 -0.45593999997E+02  0.45594000000E+02  0.51100000000E-03 0.  1.
    9900012    2    1    2    0    0  0.30216050204E+02 -0.39168683037E+01 -0.94004292381E+01  0.59301958899E+02  0.50000027122E+02 0.  0.
         12    1    1    2    0    0 -0.30216050204E+02  0.39168683037E+01  0.94004292381E+01  0.31886041101E+02  0.00000000000E+00 0. -1.
         11    1    3    3    0    0  0.14707562895E+02  0.13207463617E+02 -0.10595849429E+02  0.22428141405E+02  0.51100000000E-03 0.  1.
        -11    1    3    3    0    0 -0.54483354972E+00 -0.19592234244E+02  0.49251970599E+01  0.20209157643E+02  0.51100000000E-03 0. -1.
         12    1    3    3    0    0  0.16053320859E+02  0.24679023239E+01 -0.37297768688E+01  0.16664659852E+02  0.00000000000E+00 0. -1.
</event>
<event>
 7    1  0.6164995E-012  0.5930193E+02  0.7816164E-02  0.1266605E+00
        -11   -1    0    0    0    0  0.00000000000E+00  0.00000000000E+00  0.45593999997E+02  0.45594000000E+02  0.51100000000E-03 0. -1.
         11   -1    0    0    0    0 -0.00000000000E+00 -0.00000000000E+00 -0.45593999997E+02  0.45594000000E+02  0.51100000000E-03 0.  1.
    9900012    2    1    2    0    0 -0.24915035779E+02 -0.10618026878E+02 -0.16829144509E+02  0.59301927686E+02  0.49999970197E+02 0.  0.
         12    1    1    2    0    0  0.24915035779E+02  0.10618026878E+02  0.16829144509E+02  0.31886072314E+02  0.00000000000E+00 0. -1.
         11    1    3    3    0    0 -0.19189834886E+02 -0.91400287900E+01 -0.22548888339E+02  0.30987775894E+02  0.51100000000E-03 0. -1.
        -11    1    3    3    0    0 -0.16235398100E+02  0.98175013928E+00  0.64454431833E+01  0.17495591528E+02  0.51100000000E-03 0.  1.
         12    1    3    3    0    0  0.10510197206E+02 -0.24597482272E+01 -0.72569935322E+00  0.10818560265E+02  0.00000000000E+00 0. -1.
</event>
<event>
 7    1  0.6164995E-012  0.5930200E+02  0.7816164E-02  0.1266605E+00
        -11   -1    0    0    0    0  0.00000000000E+00  0.00000000000E+00  0.45593999997E+02  0.45594000000E+02  0.51100000000E-03 0. -1.
         11   -1    0    0    0    0 -0.00000000000E+00 -0.00000000000E+00 -0.45593999997E+02  0.45594000000E+02  0.51100000000E-03 0.  1.
    9900012    2    1    2    0    0 -0.13540801011E+02 -0.22888242177E+02 -0.17592382018E+02  0.59302002649E+02  0.50000106912E+02 0.  0.
         12    1    1    2    0    0  0.13540801011E+02  0.22888242177E+02  0.17592382018E+02  0.31885997351E+02  0.00000000000E+00 0. -1.
         11    1    3    3    0    0 -0.39810767002E+01 -0.35774955097E+01  0.10856736313E+02  0.12104386372E+02  0.51100000000E-03 0. -1.
        -11    1    3    3    0    0 -0.94457645365E+01 -0.15464674053E+02  0.36779590833E+00  0.18124952009E+02  0.51100000000E-03 0.  1.
        -12    1    3    3    0    0 -0.11395977394E+00 -0.38460726144E+01 -0.28816914239E+02  0.29072664268E+02  0.00000000000E+00 0.  1.
</event>
<event>
 7    1  0.6164995E-012  0.5930192E+02  0.7816164E-02  0.1266605E+00
        -11   -1    0    0    0    0  0.00000000000E+00  0.00000000000E+00  0.45593999997E+02  0.45594000000E+02  0.51100000000E-03 0.  1.
         11   -1    0    0    0    0 -0.00000000000E+00 -0.00000000000E+00 -0.45593999997E+02  0.45594000000E+02  0.51100000000E-03 0. -1.
    9900012    2    1    2    0    0  0.29619907774E+02  0.71259126983E+01  0.94130022004E+01  0.59301918730E+02  0.49999953863E+02 0.  0.
         12    1    1    2    0    0 -0.29619907774E+02 -0.71259126983E+01 -0.94130022004E+01  0.31886081270E+02  0.00000000000E+00 0. -1.
         11    1    3    3    0    0 -0.92543839763E+00 -0.76519075683E+01  0.16175390311E+01  0.78755671821E+01  0.51100000000E-03 0. -1.
        -11    1    3    3    0    0 -0.55186062968E+01  0.13155004170E+02  0.53756618639E+01  0.15244897209E+02  0.51100000000E-03 0.  1.
         12    1    3    3    0    0  0.36063952468E+02  0.16228160960E+01  0.24198013054E+01  0.36181454339E+02  0.00000000000E+00 0. -1.
</event>
<event>
 7    1  0.6164995E-012  0.5930195E+02  0.7816164E-02  0.1266605E+00
        -11   -1    0    0    0    0  0.00000000000E+00  0.00000000000E+00  0.45593999997E+02  0.45594000000E+02  0.51100000000E-03 0. -1.
         11   -1    0    0    0    0 -0.00000000000E+00 -0.00000000000E+00 -0.45593999997E+02  0.45594000000E+02  0.51100000000E-03 0.  1.
    9900012    2    1    2    0    0 -0.25714148550E+02  0.16618233694E+02  0.89071311788E+01  0.59301951129E+02  0.50000012952E+02 0.  0.
         12    1    1    2    0    0  0.25714148550E+02 -0.16618233694E+02 -0.89071311788E+01  0.31886048871E+02  0.00000000000E+00 0. -1.
         11    1    3    3    0    0 -0.25895329999E+01  0.21938586006E+02  0.25067896670E+01  0.22232661375E+02  0.51100000000E-03 0. -1.
        -11    1    3    3    0    0 -0.19365147180E+02  0.92245643893E+01  0.29125739687E+01  0.21646815028E+02  0.51100000000E-03 0.  1.
         12    1    3    3    0    0 -0.37594683697E+01 -0.14544916701E+02  0.34877675431E+01  0.15422474727E+02  0.00000000000E+00 0. -1.
</event>
<event>
 7    1  0.6164995E-012  0.5930196E+02  0.7816164E-02  0.1266605E+00
        -11   -1    0    0    0    0  0.00000000000E+00  0.00000000000E+00  0.45593999997E+02  0.45594000000E+02  0.51100000000E-03 0. -1.
         11   -1    0    0    0    0 -0.00000000000E+00 -0.00000000000E+00 -0.45593999997E+02  0.45594000000E+02  0.51100000000E-03 0.  1.
    9900012    2    1    2    0    0 -0.29497869393E+02 -0.12009105438E+02 -0.15416142226E+01  0.59301960946E+02  0.50000030856E+02 0.  0.
         12    1    1    2    0    0  0.29497869393E+02  0.12009105438E+02  0.15416142226E+01  0.31886039054E+02  0.00000000000E+00 0. -1.
         11    1    3    3    0    0 -0.13919035055E+02 -0.15797016986E+02  0.10912596607E+02  0.23714342653E+02  0.51100000000E-03 0. -1.
        -11    1    3    3    0    0 -0.11363454328E+02  0.21511605444E+00  0.83236723934E+01  0.14087508352E+02  0.51100000000E-03 0.  1.
         12    1    3    3    0    0 -0.42153800095E+01  0.35727954939E+01 -0.20777883223E+02  0.21500109941E+02  0.00000000000E+00 0. -1.
</event>
<event>
 7    1  0.6164995E-012  0.5930195E+02  0.7816164E-02  0.1266605E+00
        -11   -1    0    0    0    0  0.00000000000E+00  0.00000000000E+00  0.45593999997E+02  0.45594000000E+02  0.51100000000E-03 0.  1.
         11   -1    0    0    0    0 -0.00000000000E+00 -0.00000000000E+00 -0.45593999997E+02  0.45594000000E+02  0.51100000000E-03 0. -1.
    9900012    2    1    2    0    0 -0.23445647449E+02  0.63618537174E+01  0.20653046554E+02  0.59301954479E+02  0.50000019060E+02 0.  0.
         12    1    1    2    0    0  0.23445647449E+02 -0.63618537174E+01 -0.20653046554E+02  0.31886045521E+02  0.00000000000E+00 0. -1.
         11    1    3    3    0    0 -0.32922438432E+01 -0.49065000614E+01  0.71954457309E+01  0.93105881610E+01  0.51100000000E-03 0. -1.
        -11    1    3    3    0    0 -0.68974048406E+01  0.77190305311E+01 -0.15100057674E+02  0.18307631411E+02  0.51100000000E-03 0.  1.
         12    1    3    3    0    0 -0.13255998765E+02  0.35493232477E+01  0.28557658497E+02  0.31683734906E+02  0.00000000000E+00 0. -1.
</event>
<event>
 7    1  0.6164995E-012  0.5930195E+02  0.7816164E-02  0.1266605E+00
        -11   -1    0    0    0    0  0.00000000000E+00  0.00000000000E+00  0.45593999997E+02  0.45594000000E+02  0.51100000000E-03 0.  1.
         11   -1    0    0    0    0 -0.00000000000E+00 -0.00000000000E+00 -0.45593999997E+02  0.45594000000E+02  0.51100000000E-03 0. -1.
    9900012    2    1    2    0    0  0.82682290611E+01  0.10526306654E+01  0.30777405966E+02  0.59301947232E+02  0.50000005844E+02 0.  0.
         12    1    1    2    0    0 -0.82682290611E+01 -0.10526306654E+01 -0.30777405966E+02  0.31886052768E+02  0.00000000000E+00 0. -1.
         11    1    3    3    0    0 -0.30657896029E+00 -0.44709500357E+00  0.43129861922E+01  0.43469224465E+01  0.51100000000E-03 0. -1.
        -11    1    3    3    0    0  0.12416584979E+02  0.14437461463E+02  0.34385478967E+02  0.39306145068E+02  0.51100000000E-03 0.  1.
         12    1    3    3    0    0 -0.38417769580E+01 -0.12937735794E+02 -0.79210591933E+01  0.15648879718E+02  0.00000000000E+00 0. -1.
</event>
<event>
 7    1  0.6164995E-012  0.5930184E+02  0.7816164E-02  0.1266605E+00
        -11   -1    0    0    0    0  0.00000000000E+00  0.00000000000E+00  0.45593999997E+02  0.45594000000E+02  0.51100000000E-03 0.  1.
         11   -1    0    0    0    0 -0.00000000000E+00 -0.00000000000E+00 -0.45593999997E+02  0.45594000000E+02  0.51100000000E-03 0. -1.
    9900012    2    1    2    0    0 -0.21846218895E+02 -0.22081713909E+02  0.72019137508E+01  0.59301844213E+02  0.49999817962E+02 0.  0.
         12    1    1    2    0    0  0.21846218895E+02  0.22081713909E+02 -0.72019137508E+01  0.31886155787E+02  0.00000000000E+00 0. -1.
         11    1    3    3    0    0  0.39685113603E+01 -0.41852894226E+01 -0.61420049882E+01  0.84255537209E+01  0.51100000000E-03 0. -1.
        -11    1    3    3    0    0 -0.10852569175E+02 -0.23923613231E+02  0.20409115644E+02  0.33266342290E+02  0.51100000000E-03 0.  1.
         12    1    3    3    0    0 -0.14962161080E+02  0.60271887451E+01 -0.70651969050E+01  0.17609948202E+02  0.00000000000E+00 0. -1.
</event>
<event>
 7    1  0.6164995E-012  0.5930197E+02  0.7816164E-02  0.1266605E+00
        -11   -1    0    0    0    0  0.00000000000E+00  0.00000000000E+00  0.45593999997E+02  0.45594000000E+02  0.51100000000E-03 0.  1.
         11   -1    0    0    0    0 -0.00000000000E+00 -0.00000000000E+00 -0.45593999997E+02  0.45594000000E+02  0.51100000000E-03 0. -1.
    9900012    2    1    2    0    0 -0.24652258017E+02  0.51035193401E+01  0.19568833479E+02  0.59301968910E+02  0.50000045379E+02 0.  0.
         12    1    1    2    0    0  0.24652258017E+02 -0.51035193401E+01 -0.19568833479E+02  0.31886031090E+02  0.00000000000E+00 0. -1.
         11    1    3    3    0    0 -0.19805853624E+02 -0.11274383265E+02 -0.56372729527E+01  0.23476848221E+02  0.51100000000E-03 0. -1.
        -11    1    3    3    0    0 -0.50129730954E+01 -0.27504571440E+01  0.94376375389E+01  0.11034668837E+02  0.51100000000E-03 0.  1.
        -12    1    3    3    0    0  0.16656870321E+00  0.19128359749E+02  0.15768468893E+02  0.24790451852E+02  0.00000000000E+00 0.  1.
</event>
<event>
 7    1  0.6164995E-012  0.5930194E+02  0.7816164E-02  0.1266605E+00
        -11   -1    0    0    0    0  0.00000000000E+00  0.00000000000E+00  0.45593999997E+02  0.45594000000E+02  0.51100000000E-03 0.  1.
         11   -1    0    0    0    0 -0.00000000000E+00 -0.00000000000E+00 -0.45593999997E+02  0.45594000000E+02  0.51100000000E-03 0. -1.
    9900012    2    1    2    0    0  0.12850599193E+02 -0.96850514511E+01  0.27527850167E+02  0.59301942607E+02  0.49999997409E+02 0.  0.
         12    1    1    2    0    0 -0.12850599193E+02  0.96850514511E+01 -0.27527850167E+02  0.31886057393E+02  0.00000000000E+00 0. -1.
         11    1    3    3    0    0  0.17802106343E+02 -0.10900698097E+02  0.10102331753E+02  0.23190457442E+02  0.51100000000E-03 0. -1.
        -11    1    3    3    0    0  0.65194500784E+01 -0.22715108602E+01 -0.64161745124E+01  0.94249820449E+01  0.51100000000E-03 0.  1.
        -12    1    3    3    0    0 -0.11470957228E+02  0.34871575059E+01  0.23841692926E+02  0.26686503121E+02  0.00000000000E+00 0.  1.
</event>
<event>
 7    1  0.6164995E-012  0.5930194E+02  0.7816164E-02  0.1266605E+00
        -11   -1    0    0    0    0  0.00000000000E+00  0.00000000000E+00  0.45593999997E+02  0.45594000000E+02  0.51100000000E-03 0.  1.
         11   -1    0    0    0    0 -0.00000000000E+00 -0.00000000000E+00 -0.45593999997E+02  0.45594000000E+02  0.51100000000E-03 0. -1.
    9900012    2    1    2    0    0 -0.17227222477E+02 -0.26267509950E+02  0.54737157472E+01  0.59301939765E+02  0.49999992226E+02 0.  0.
         12    1    1    2    0    0  0.17227222477E+02  0.26267509950E+02 -0.54737157472E+01  0.31886060235E+02  0.00000000000E+00 0. -1.
         11    1    3    3    0    0 -0.92942122588E-01 -0.99387638409E+01 -0.82297731306E+01  0.12904140071E+02  0.51100000000E-03 0. -1.
        -11    1    3    3    0    0  0.42342645745E+01 -0.20705146665E+02  0.12497507400E+02  0.24552388608E+02  0.51100000000E-03 0.  1.
         12    1    3    3    0    0 -0.21368544929E+02  0.43764005557E+01  0.12059814779E+01  0.21845411086E+02  0.00000000000E+00 0. -1.
</event>
<event>
 7    1  0.6164995E-012  0.5930199E+02  0.7816164E-02  0.1266605E+00
        -11   -1    0    0    0    0  0.00000000000E+00  0.00000000000E+00  0.45593999997E+02  0.45594000000E+02  0.51100000000E-03 0. -1.
         11   -1    0    0    0    0 -0.00000000000E+00 -0.00000000000E+00 -0.45593999997E+02  0.45594000000E+02  0.51100000000E-03 0.  1.
    9900012    2    1    2    0    0  0.25077653717E+02  0.19686297453E+02 -0.52812405933E+00  0.59301985223E+02  0.50000075130E+02 0.  0.
         12    1    1    2    0    0 -0.25077653717E+02 -0.19686297453E+02  0.52812405933E+00  0.31886014777E+02  0.00000000000E+00 0. -1.
         11    1    3    3    0    0  0.23649533143E+01  0.66750320462E+01 -0.16021287864E+01  0.72605698059E+01  0.51100000000E-03 0. -1.
        -11    1    3    3    0    0  0.10509224819E+02  0.96702608499E+01 -0.21706374820E+02  0.25983157224E+02  0.51100000000E-03 0.  1.
         12    1    3    3    0    0  0.12203475583E+02  0.33410045569E+01  0.22780379547E+02  0.26058258193E+02  0.00000000000E+00 0. -1.
</event>
<event>
 7    1  0.6164995E-012  0.5930196E+02  0.7816164E-02  0.1266605E+00
        -11   -1    0    0    0    0  0.00000000000E+00  0.00000000000E+00  0.45593999997E+02  0.45594000000E+02  0.51100000000E-03 0.  1.
         11   -1    0    0    0    0 -0.00000000000E+00 -0.00000000000E+00 -0.45593999997E+02  0.45594000000E+02  0.51100000000E-03 0. -1.
    9900012    2    1    2    0    0  0.11625823308E+02 -0.13222679983E+01  0.29661618990E+02  0.59301956009E+02  0.50000021852E+02 0.  0.
         12    1    1    2    0    0 -0.11625823308E+02  0.13222679983E+01 -0.29661618990E+02  0.31886043991E+02  0.00000000000E+00 0. -1.
         11    1    3    3    0    0  0.27624462775E+01 -0.86962463240E+01  0.63389499644E+01  0.11110269865E+02  0.51100000000E-03 0. -1.
        -11    1    3    3    0    0 -0.26114724281E+01 -0.86282526591E+01  0.26728790392E+02  0.28208062115E+02  0.51100000000E-03 0.  1.
         12    1    3    3    0    0  0.11474849458E+02  0.16002230985E+02 -0.34061213661E+01  0.19983624029E+02  0.00000000000E+00 0. -1.
</event>
<event>
 7    1  0.6164995E-012  0.5930197E+02  0.7816164E-02  0.1266605E+00
        -11   -1    0    0    0    0  0.00000000000E+00  0.00000000000E+00  0.45593999997E+02  0.45594000000E+02  0.51100000000E-03 0.  1.
         11   -1    0    0    0    0 -0.00000000000E+00 -0.00000000000E+00 -0.45593999997E+02  0.45594000000E+02  0.51100000000E-03 0. -1.
    9900012    2    1    2    0    0  0.14484146816E+02  0.21514299221E+02  0.18548938027E+02  0.59301973564E+02  0.50000053866E+02 0.  0.
         12    1    1    2    0    0 -0.14484146816E+02 -0.21514299221E+02 -0.18548938027E+02  0.31886026436E+02  0.00000000000E+00 0. -1.
         11    1    3    3    0    0  0.70799587520E+01 -0.12015803846E+02  0.16156030021E+02  0.21342976931E+02  0.51100000000E-03 0. -1.
        -11    1    3    3    0    0 -0.27895068961E+01  0.62720260749E+01  0.53560843262E+01  0.87067387338E+01  0.51100000000E-03 0.  1.
         12    1    3    3    0    0  0.10193694961E+02  0.27258076992E+02 -0.29631763204E+01  0.29252257899E+02  0.00000000000E+00 0. -1.
</event>
<event>
 7    1  0.6164995E-012  0.5930195E+02  0.7816164E-02  0.1266605E+00
        -11   -1    0    0    0    0  0.00000000000E+00  0.00000000000E+00  0.45593999997E+02  0.45594000000E+02  0.51100000000E-03 0.  1.
         11   -1    0    0    0    0 -0.00000000000E+00 -0.00000000000E+00 -0.45593999997E+02  0.45594000000E+02  0.51100000000E-03 0. -1.
    9900012    2    1    2    0    0  0.30735752803E+02  0.84104841677E+01 -0.11389739208E+01  0.59301952803E+02  0.50000016004E+02 0.  0.
         12    1    1    2    0    0 -0.30735752803E+02 -0.84104841677E+01  0.11389739208E+01  0.31886047197E+02  0.00000000000E+00 0. -1.
         11    1    3    3    0    0  0.10782334050E+02  0.58602085966E+01  0.89643660632E+01  0.15197388971E+02  0.51100000000E-03 0. -1.
        -11    1    3    3    0    0  0.41564219737E+01 -0.12097466481E+02  0.87326708586E+01  0.15488191614E+02  0.51100000000E-03 0.  1.
         12    1    3    3    0    0  0.15796996779E+02  0.14647742052E+02 -0.18836010843E+02  0.28616372218E+02  0.00000000000E+00 0. -1.
</event>
<event>
 7    1  0.6164995E-012  0.5930196E+02  0.7816164E-02  0.1266605E+00
        -11   -1    0    0    0    0  0.00000000000E+00  0.00000000000E+00  0.45593999997E+02  0.45594000000E+02  0.51100000000E-03 0.  1.
         11   -1    0    0    0    0 -0.00000000000E+00 -0.00000000000E+00 -0.45593999997E+02  0.45594000000E+02  0.51100000000E-03 0. -1.
    9900012    2    1    2    0    0 -0.12217888523E+02 -0.25783194534E+02 -0.14236213794E+02  0.59301957544E+02  0.50000024650E+02 0.  0.
         12    1    1    2    0    0  0.12217888523E+02  0.25783194534E+02  0.14236213794E+02  0.31886042456E+02  0.00000000000E+00 0. -1.
         11    1    3    3    0    0 -0.10079589167E+02  0.51780926870E+01 -0.15557192165E+02  0.19246739723E+02  0.51100000000E-03 0. -1.
        -11    1    3    3    0    0 -0.12300502563E+02 -0.88942549056E+01 -0.27371764885E+01  0.15424080816E+02  0.51100000000E-03 0.  1.
         12    1    3    3    0    0  0.10162203208E+02 -0.22067032316E+02  0.40581548593E+01  0.24631137004E+02  0.00000000000E+00 0. -1.
</event>
<event>
 7    1  0.6164995E-012  0.5930196E+02  0.7816164E-02  0.1266605E+00
        -11   -1    0    0    0    0  0.00000000000E+00  0.00000000000E+00  0.45593999997E+02  0.45594000000E+02  0.51100000000E-03 0.  1.
         11   -1    0    0    0    0 -0.00000000000E+00 -0.00000000000E+00 -0.45593999997E+02  0.45594000000E+02  0.51100000000E-03 0. -1.
    9900012    2    1    2    0    0 -0.88176589786E+01 -0.28407756322E+02  0.11487736827E+02  0.59301955615E+02  0.50000021133E+02 0.  0.
         12    1    1    2    0    0  0.88176589786E+01  0.28407756322E+02 -0.11487736827E+02  0.31886044385E+02  0.00000000000E+00 0. -1.
         11    1    3    3    0    0 -0.80555112770E+01  0.34816234680E+01  0.36955864106E+00  0.87834809590E+01  0.51100000000E-03 0. -1.
        -11    1    3    3    0    0 -0.15714684399E+02 -0.10203879014E+02 -0.53097477881E+01  0.19474698317E+02  0.51100000000E-03 0.  1.
         12    1    3    3    0    0  0.14952536698E+02 -0.21685500776E+02  0.16427925974E+02  0.31043776339E+02  0.00000000000E+00 0. -1.
</event>
<event>
 7    1  0.6164995E-012  0.5930202E+02  0.7816164E-02  0.1266604E+00
        -11   -1    0    0    0    0  0.00000000000E+00  0.00000000000E+00  0.45593999997E+02  0.45594000000E+02  0.51100000000E-03 0.  1.
         11   -1    0    0    0    0 -0.00000000000E+00 -0.00000000000E+00 -0.45593999997E+02  0.45594000000E+02  0.51100000000E-03 0. -1.
    9900012    2    1    2    0    0 -0.10563371376E+02 -0.25198653956E+02  0.16436499665E+02  0.59302023501E+02  0.50000144940E+02 0.  0.
         12    1    1    2    0    0  0.10563371376E+02  0.25198653956E+02 -0.16436499665E+02  0.31885976499E+02  0.00000000000E+00 0. -1.
         11    1    3    3    0    0  0.37838936697E+01 -0.43541186865E+01 -0.18759715958E+01  0.60659270131E+01  0.51100000000E-03 0. -1.
        -11    1    3    3    0    0 -0.85375017132E+00  0.47687389873E+01 -0.11010944425E+02  0.12029574318E+02  0.51100000000E-03 0.  1.
        -12    1    3    3    0    0 -0.13493514875E+02 -0.25613274257E+02  0.29323415686E+02  0.41206522170E+02  0.00000000000E+00 0.  1.
</event>
<event>
 7    1  0.6164995E-012  0.5930196E+02  0.7816164E-02  0.1266605E+00
        -11   -1    0    0    0    0  0.00000000000E+00  0.00000000000E+00  0.45593999997E+02  0.45594000000E+02  0.51100000000E-03 0. -1.
         11   -1    0    0    0    0 -0.00000000000E+00 -0.00000000000E+00 -0.45593999997E+02  0.45594000000E+02  0.51100000000E-03 0.  1.
    9900012    2    1    2    0    0  0.13386962773E+02 -0.13995696233E+02 -0.25330396349E+02  0.59301964427E+02  0.50000037203E+02 0.  0.
         12    1    1    2    0    0 -0.13386962773E+02  0.13995696233E+02  0.25330396349E+02  0.31886035573E+02  0.00000000000E+00 0. -1.
         11    1    3    3    0    0 -0.81830994267E+01 -0.75975832234E+01  0.61640234328E+01  0.12754668644E+02  0.51100000000E-03 0. -1.
        -11    1    3    3    0    0  0.31288167982E+00 -0.10440145764E+02 -0.31933759484E+01  0.10922096352E+02  0.51100000000E-03 0.  1.
        -12    1    3    3    0    0  0.21257180520E+02  0.40420327539E+01 -0.28301043834E+02  0.35625199431E+02  0.00000000000E+00 0.  1.
</event>
<event>
 7    1  0.6164995E-012  0.5930194E+02  0.7816164E-02  0.1266605E+00
        -11   -1    0    0    0    0  0.00000000000E+00  0.00000000000E+00  0.45593999997E+02  0.45594000000E+02  0.51100000000E-03 0. -1.
         11   -1    0    0    0    0 -0.00000000000E+00 -0.00000000000E+00 -0.45593999997E+02  0.45594000000E+02  0.51100000000E-03 0.  1.
    9900012    2    1    2    0    0  0.75246965529E+01  0.22669491956E+02 -0.21123298179E+02  0.59301942707E+02  0.49999997590E+02 0.  0.
         12    1    1    2    0    0 -0.75246965529E+01 -0.22669491956E+02  0.21123298179E+02  0.31886057293E+02  0.00000000000E+00 0. -1.
         11    1    3    3    0    0  0.20813173891E+02  0.34935324486E+01 -0.34286287923E+01  0.21381030659E+02  0.51100000000E-03 0. -1.
        -11    1    3    3    0    0 -0.46315097688E+01  0.18285607068E+02 -0.21343432694E+02  0.28484318985E+02  0.51100000000E-03 0.  1.
         12    1    3    3    0    0 -0.86569675693E+01  0.89035243925E+00  0.36487633071E+01  0.94365930628E+01  0.00000000000E+00 0. -1.
</event>
<event>
 7    1  0.6164995E-012  0.5930194E+02  0.7816164E-02  0.1266605E+00
        -11   -1    0    0    0    0  0.00000000000E+00  0.00000000000E+00  0.45593999997E+02  0.45594000000E+02  0.51100000000E-03 0. -1.
         11   -1    0    0    0    0 -0.00000000000E+00 -0.00000000000E+00 -0.45593999997E+02  0.45594000000E+02  0.51100000000E-03 0.  1.
    9900012    2    1    2    0    0 -0.14969479633E+02 -0.16556023992E+01 -0.28105060430E+02  0.59301940953E+02  0.49999994392E+02 0.  0.
         12    1    1    2    0    0  0.14969479633E+02  0.16556023992E+01  0.28105060430E+02  0.31886059047E+02  0.00000000000E+00 0. -1.
         11    1    3    3    0    0 -0.16067293126E+01  0.93612990596E+01  0.76988771190E+01  0.12226537054E+02  0.51100000000E-03 0. -1.
        -11    1    3    3    0    0  0.73209867706E+00  0.43405912908E+01 -0.21129422794E+02  0.21583076915E+02  0.51100000000E-03 0.  1.
        -12    1    3    3    0    0 -0.14094848997E+02 -0.15357492750E+02 -0.14674514755E+02  0.25492326985E+02  0.00000000000E+00 0.  1.
</event>
<event>
 7    1  0.6164995E-012  0.5930194E+02  0.7816164E-02  0.1266605E+00
        -11   -1    0    0    0    0  0.00000000000E+00  0.00000000000E+00  0.45593999997E+02  0.45594000000E+02  0.51100000000E-03 0.  1.
         11   -1    0    0    0    0 -0.00000000000E+00 -0.00000000000E+00 -0.45593999997E+02  0.45594000000E+02  0.51100000000E-03 0. -1.
    9900012    2    1    2    0    0 -0.19823275265E+02  0.39158461842E+01 -0.24666267428E+02  0.59301939686E+02  0.49999992081E+02 0.  0.
         12    1    1    2    0    0  0.19823275265E+02 -0.39158461842E+01  0.24666267428E+02  0.31886060314E+02  0.00000000000E+00 0. -1.
         11    1    3    3    0    0 -0.16555087134E+01  0.10696515859E+02 -0.17804300419E+02  0.20836249045E+02  0.51100000000E-03 0. -1.
        -11    1    3    3    0    0  0.80852679576E+01 -0.32257011760E+01  0.43102894824E+01  0.97136657193E+01  0.51100000000E-03 0.  1.
        -12    1    3    3    0    0 -0.26253034509E+02 -0.35549684987E+01 -0.11172256491E+02  0.28752024921E+02  0.00000000000E+00 0.  1.
</event>
<event>
 7    1  0.6164995E-012  0.5930194E+02  0.7816164E-02  0.1266605E+00
        -11   -1    0    0    0    0  0.00000000000E+00  0.00000000000E+00  0.45593999997E+02  0.45594000000E+02  0.51100000000E-03 0.  1.
         11   -1    0    0    0    0 -0.00000000000E+00 -0.00000000000E+00 -0.45593999997E+02  0.45594000000E+02  0.51100000000E-03 0. -1.
    9900012    2    1    2    0    0  0.29620299085E+02  0.66094194154E+01  0.97813165712E+01  0.59301941969E+02  0.49999996246E+02 0.  0.
         12    1    1    2    0    0 -0.29620299085E+02 -0.66094194154E+01 -0.97813165712E+01  0.31886058031E+02  0.00000000000E+00 0. -1.
         11    1    3    3    0    0  0.20960773587E+02 -0.25313173669E+01  0.19907805355E+02  0.29018654540E+02  0.51100000000E-03 0. -1.
        -11    1    3    3    0    0  0.92434540604E+01  0.80171339422E+01  0.63313132263E+01  0.13776843145E+02  0.51100000000E-03 0.  1.
         12    1    3    3    0    0 -0.58392856299E+00  0.11236028401E+01 -0.16457802010E+02  0.16506444284E+02  0.00000000000E+00 0. -1.
</event>
<event>
 7    1  0.6164995E-012  0.5930203E+02  0.7816164E-02  0.1266604E+00
        -11   -1    0    0    0    0  0.00000000000E+00  0.00000000000E+00  0.45593999997E+02  0.45594000000E+02  0.51100000000E-03 0. -1.
         11   -1    0    0    0    0 -0.00000000000E+00 -0.00000000000E+00 -0.45593999997E+02  0.45594000000E+02  0.51100000000E-03 0.  1.
    9900012    2    1    2    0    0  0.44411035062E+01 -0.23795308718E+02 -0.20755117364E+02  0.59302031078E+02  0.50000158758E+02 0.  0.
         12    1    1    2    0    0 -0.44411035062E+01  0.23795308718E+02  0.20755117364E+02  0.31885968922E+02  0.00000000000E+00 0. -1.
         11    1    3    3    0    0 -0.10455283419E+02 -0.52569154797E+01 -0.20697973500E+01  0.11884114316E+02  0.51100000000E-03 0. -1.
        -11    1    3    3    0    0 -0.52697645718E+01 -0.98258835526E+01 -0.22509659294E+02  0.25119776432E+02  0.51100000000E-03 0.  1.
         12    1    3    3    0    0  0.20166151497E+02 -0.87125096855E+01  0.38243392799E+01  0.22298140330E+02  0.00000000000E+00 0. -1.
</event>
<event>
 7    1  0.6164995E-012  0.5930198E+02  0.7816164E-02  0.1266605E+00
        -11   -1    0    0    0    0  0.00000000000E+00  0.00000000000E+00  0.45593999997E+02  0.45594000000E+02  0.51100000000E-03 0. -1.
         11   -1    0    0    0    0 -0.00000000000E+00 -0.00000000000E+00 -0.45593999997E+02  0.45594000000E+02  0.51100000000E-03 0.  1.
    9900012    2    1    2    0    0  0.18897852272E-01  0.31364232709E+02 -0.57448153772E+01  0.59301978701E+02  0.50000063236E+02 0.  0.
         12    1    1    2    0    0 -0.18897852272E-01 -0.31364232709E+02  0.57448153772E+01  0.31886021299E+02  0.00000000000E+00 0. -1.
         11    1    3    3    0    0 -0.63358427188E+01  0.61004026708E+01  0.86102976683E+01  0.12308332214E+02  0.51100000000E-03 0. -1.
        -11    1    3    3    0    0 -0.13892400726E+02  0.16395712807E+02 -0.12381566344E+02  0.24801640707E+02  0.51100000000E-03 0.  1.
         12    1    3    3    0    0  0.20247141297E+02  0.88681172315E+01 -0.19735467017E+01  0.22192005779E+02  0.00000000000E+00 0. -1.
</event>
<event>
 7    1  0.6164995E-012  0.5930200E+02  0.7816164E-02  0.1266605E+00
        -11   -1    0    0    0    0  0.00000000000E+00  0.00000000000E+00  0.45593999997E+02  0.45594000000E+02  0.51100000000E-03 0.  1.
         11   -1    0    0    0    0 -0.00000000000E+00 -0.00000000000E+00 -0.45593999997E+02  0.45594000000E+02  0.51100000000E-03 0. -1.
    9900012    2    1    2    0    0 -0.29535599545E+02 -0.40659730818E+01  0.11306331441E+02  0.59302001376E+02  0.50000104589E+02 0.  0.
         12    1    1    2    0    0  0.29535599545E+02  0.40659730818E+01 -0.11306331441E+02  0.31885998624E+02  0.00000000000E+00 0. -1.
         11    1    3    3    0    0 -0.28097866695E+01  0.13755480285E+02  0.14174113399E+01  0.14110889205E+02  0.51100000000E-03 0. -1.
        -11    1    3    3    0    0  0.42513127078E+01 -0.93601620749E+01 -0.28130204637E+01  0.10658300906E+02  0.51100000000E-03 0.  1.
        -12    1    3    3    0    0 -0.30977125584E+02 -0.84612912918E+01  0.12701940565E+02  0.34532811265E+02  0.00000000000E+00 0.  1.
</event>
<event>
 7    1  0.6164995E-012  0.5930196E+02  0.7816164E-02  0.1266605E+00
        -11   -1    0    0    0    0  0.00000000000E+00  0.00000000000E+00  0.45593999997E+02  0.45594000000E+02  0.51100000000E-03 0.  1.
         11   -1    0    0    0    0 -0.00000000000E+00 -0.00000000000E+00 -0.45593999997E+02  0.45594000000E+02  0.51100000000E-03 0. -1.
    9900012    2    1    2    0    0 -0.29921419578E+02  0.67161875756E+01  0.87361910355E+01  0.59301959811E+02  0.50000028786E+02 0.  0.
         12    1    1    2    0    0  0.29921419578E+02 -0.67161875756E+01 -0.87361910355E+01  0.31886040189E+02  0.00000000000E+00 0. -1.
         11    1    3    3    0    0  0.38088668296E+01 -0.12253804536E+02 -0.43170456693E+01  0.13538835832E+02  0.51100000000E-03 0. -1.
        -11    1    3    3    0    0 -0.12940718470E+02  0.68928984789E+01 -0.52207669190E+01  0.15563760839E+02  0.51100000000E-03 0.  1.
         12    1    3    3    0    0 -0.20789567937E+02  0.12077093633E+02  0.18274003624E+02  0.30199363140E+02  0.00000000000E+00 0. -1.
</event>
<event>
 7    1  0.6164995E-012  0.5930194E+02  0.7816164E-02  0.1266605E+00
        -11   -1    0    0    0    0  0.00000000000E+00  0.00000000000E+00  0.45593999997E+02  0.45594000000E+02  0.51100000000E-03 0.  1.
         11   -1    0    0    0    0 -0.00000000000E+00 -0.00000000000E+00 -0.45593999997E+02  0.45594000000E+02  0.51100000000E-03 0. -1.
    9900012    2    1    2    0    0  0.26560841182E+02  0.15554544380E+02  0.83245989150E+01  0.59301935924E+02  0.49999985221E+02 0.  0.
         12    1    1    2    0    0 -0.26560841182E+02 -0.15554544380E+02 -0.83245989150E+01  0.31886064076E+02  0.00000000000E+00 0. -1.
         11    1    3    3    0    0  0.15881513017E+02  0.26869065176E+02  0.41163555132E+00  0.31214396730E+02  0.51100000000E-03 0. -1.
        -11    1    3    3    0    0  0.78937191583E+01  0.37571827692E+01  0.92190288674E+01  0.12705027274E+02  0.51100000000E-03 0.  1.
        -12    1    3    3    0    0  0.27856090065E+01 -0.15071703565E+02 -0.13060655037E+01  0.15382511921E+02  0.00000000000E+00 0.  1.
</event>
<event>
 7    1  0.6164995E-012  0.5930196E+02  0.7816164E-02  0.1266605E+00
        -11   -1    0    0    0    0  0.00000000000E+00  0.00000000000E+00  0.45593999997E+02  0.45594000000E+02  0.51100000000E-03 0.  1.
         11   -1    0    0    0    0 -0.00000000000E+00 -0.00000000000E+00 -0.45593999997E+02  0.45594000000E+02  0.51100000000E-03 0. -1.
    9900012    2    1    2    0    0 -0.21057072338E+02 -0.44286173161E+00  0.23939983900E+02  0.59301964638E+02  0.50000037589E+02 0.  0.
         12    1    1    2    0    0  0.21057072338E+02  0.44286173161E+00 -0.23939983900E+02  0.31886035362E+02  0.00000000000E+00 0. -1.
         11    1    3    3    0    0 -0.19098833181E+02  0.13997577381E+02  0.16114032881E+02  0.28641921328E+02  0.51100000000E-03 0. -1.
        -11    1    3    3    0    0 -0.10165465392E+02 -0.85504856465E+01 -0.51227450388E+01  0.14236924121E+02  0.51100000000E-03 0.  1.
        -12    1    3    3    0    0  0.82072262353E+01 -0.58899534663E+01  0.12948696058E+02  0.16423119189E+02  0.00000000000E+00 0.  1.
</event>
<event>
 7    1  0.6164995E-012  0.5930176E+02  0.7816164E-02  0.1266605E+00
        -11   -1    0    0    0    0  0.00000000000E+00  0.00000000000E+00  0.45593999997E+02  0.45594000000E+02  0.51100000000E-03 0.  1.
         11   -1    0    0    0    0 -0.00000000000E+00 -0.00000000000E+00 -0.45593999997E+02  0.45594000000E+02  0.51100000000E-03 0. -1.
    9900012    2    1    2    0    0 -0.31067631078E+02 -0.71246312618E+01  0.87996978957E+00  0.59301758167E+02  0.49999661034E+02 0.  0.
         12    1    1    2    0    0  0.31067631078E+02  0.71246312618E+01 -0.87996978957E+00  0.31886241833E+02  0.00000000000E+00 0. -1.
         11    1    3    3    0    0 -0.23763701347E+01  0.49237217790E+01 -0.15357667925E+02  0.16301783201E+02  0.51100000000E-03 0. -1.
        -11    1    3    3    0    0 -0.21766312433E+02  0.27141589773E+01  0.15148952441E+02  0.26657640109E+02  0.51100000000E-03 0.  1.
         12    1    3    3    0    0 -0.69249485098E+01 -0.14762512018E+02  0.10886852741E+01  0.16342334857E+02  0.00000000000E+00 0. -1.
</event>
<event>
 7    1  0.6164995E-012  0.5930194E+02  0.7816164E-02  0.1266605E+00
        -11   -1    0    0    0    0  0.00000000000E+00  0.00000000000E+00  0.45593999997E+02  0.45594000000E+02  0.51100000000E-03 0.  1.
         11   -1    0    0    0    0 -0.00000000000E+00 -0.00000000000E+00 -0.45593999997E+02  0.45594000000E+02  0.51100000000E-03 0. -1.
    9900012    2    1    2    0    0 -0.20290768726E+02  0.47349574143E+00  0.24592296863E+02  0.59301944134E+02  0.50000000193E+02 0.  0.
         12    1    1    2    0    0  0.20290768726E+02 -0.47349574143E+00 -0.24592296863E+02  0.31886055866E+02  0.00000000000E+00 0. -1.
         11    1    3    3    0    0 -0.17459650772E+02  0.85832891225E+00 -0.17616776608E+01  0.17569281204E+02  0.51100000000E-03 0. -1.
        -11    1    3    3    0    0 -0.11828970591E+02  0.22606418951E+01  0.29481364510E+02  0.31846285508E+02  0.51100000000E-03 0.  1.
        -12    1    3    3    0    0  0.89978526368E+01 -0.26454750659E+01 -0.31273899860E+01  0.98863774216E+01  0.00000000000E+00 0.  1.
</event>
<event>
 7    1  0.6164995E-012  0.5930194E+02  0.7816164E-02  0.1266605E+00
        -11   -1    0    0    0    0  0.00000000000E+00  0.00000000000E+00  0.45593999997E+02  0.45594000000E+02  0.51100000000E-03 0.  1.
         11   -1    0    0    0    0 -0.00000000000E+00 -0.00000000000E+00 -0.45593999997E+02  0.45594000000E+02  0.51100000000E-03 0. -1.
    9900012    2    1    2    0    0 -0.41387665642E+01 -0.22307780180E+02  0.22404345176E+02  0.59301935207E+02  0.49999983913E+02 0.  0.
         12    1    1    2    0    0  0.41387665642E+01  0.22307780180E+02 -0.22404345176E+02  0.31886064793E+02  0.00000000000E+00 0. -1.
         11    1    3    3    0    0 -0.82178396486E+01  0.34609851653E+01  0.14509120816E+02  0.17030146621E+02  0.51100000000E-03 0. -1.
        -11    1    3    3    0    0 -0.80513920079E+01 -0.27828169509E+02  0.76616820477E+01  0.29965535262E+02  0.51100000000E-03 0.  1.
         12    1    3    3    0    0  0.12130465092E+02  0.20594041635E+01  0.23354231165E+00  0.12306253324E+02  0.00000000000E+00 0. -1.
</event>
<event>
 7    1  0.6164995E-012  0.5930197E+02  0.7816164E-02  0.1266605E+00
        -11   -1    0    0    0    0  0.00000000000E+00  0.00000000000E+00  0.45593999997E+02  0.45594000000E+02  0.51100000000E-03 0. -1.
         11   -1    0    0    0    0 -0.00000000000E+00 -0.00000000000E+00 -0.45593999997E+02  0.45594000000E+02  0.51100000000E-03 0.  1.
    9900012    2    1    2    0    0 -0.28123744381E+02  0.22858725394E+01 -0.14850872455E+02  0.59301974473E+02  0.50000055524E+02 0.  0.
         12    1    1    2    0    0  0.28123744381E+02 -0.22858725394E+01  0.14850872455E+02  0.31886025527E+02  0.00000000000E+00 0. -1.
         11    1    3    3    0    0 -0.25539017544E+02 -0.63574612414E+01  0.63526478921E+01  0.27074247285E+02  0.51100000000E-03 0. -1.
        -11    1    3    3    0    0 -0.49910486106E+01 -0.59122769129E+01 -0.19637027674E+01  0.79825881359E+01  0.51100000000E-03 0.  1.
        -12    1    3    3    0    0  0.24063217736E+01  0.14555610694E+02 -0.19239817579E+02  0.24245139052E+02  0.00000000000E+00 0.  1.
</event>
<event>
 7    1  0.6164995E-012  0.5930193E+02  0.7816164E-02  0.1266605E+00
        -11   -1    0    0    0    0  0.00000000000E+00  0.00000000000E+00  0.45593999997E+02  0.45594000000E+02  0.51100000000E-03 0. -1.
         11   -1    0    0    0    0 -0.00000000000E+00 -0.00000000000E+00 -0.45593999997E+02  0.45594000000E+02  0.51100000000E-03 0.  1.
    9900012    2    1    2    0    0  0.22372625257E+01  0.31234859604E+01 -0.31653751832E+02  0.59301929167E+02  0.49999972898E+02 0.  0.
         12    1    1    2    0    0 -0.22372625257E+01 -0.31234859604E+01  0.31653751832E+02  0.31886070833E+02  0.00000000000E+00 0. -1.
         11    1    3    3    0    0 -0.51518765915E+01  0.62966139030E+01 -0.21481183402E+01  0.84144870148E+01  0.51100000000E-03 0. -1.
        -11    1    3    3    0    0 -0.29613629403E+01  0.16422964212E+02 -0.41193490619E+01  0.17188730638E+02  0.51100000000E-03 0.  1.
        -12    1    3    3    0    0  0.10350502057E+02 -0.19596092155E+02 -0.25386284429E+02  0.33698711514E+02  0.00000000000E+00 0.  1.
</event>
<event>
 7    1  0.6164995E-012  0.5930195E+02  0.7816164E-02  0.1266605E+00
        -11   -1    0    0    0    0  0.00000000000E+00  0.00000000000E+00  0.45593999997E+02  0.45594000000E+02  0.51100000000E-03 0. -1.
         11   -1    0    0    0    0 -0.00000000000E+00 -0.00000000000E+00 -0.45593999997E+02  0.45594000000E+02  0.51100000000E-03 0.  1.
    9900012    2    1    2    0    0  0.21364150504E+02  0.23652253846E+02 -0.92944045622E+00  0.59301954489E+02  0.50000019079E+02 0.  0.
         12    1    1    2    0    0 -0.21364150504E+02 -0.23652253846E+02  0.92944045622E+00  0.31886045511E+02  0.00000000000E+00 0. -1.
         11    1    3    3    0    0 -0.41569646178E+01  0.51152928888E+01 -0.74826887957E+01  0.99718206987E+01  0.51100000000E-03 0. -1.
        -11    1    3    3    0    0  0.29148597267E+02  0.24356483680E+02 -0.23900313130E+01  0.38060363501E+02  0.51100000000E-03 0.  1.
         12    1    3    3    0    0 -0.36274821452E+01 -0.58195227225E+01  0.89432796525E+01  0.11269770289E+02  0.00000000000E+00 0. -1.
</event>
<event>
 7    1  0.6164995E-012  0.5930196E+02  0.7816164E-02  0.1266605E+00
        -11   -1    0    0    0    0  0.00000000000E+00  0.00000000000E+00  0.45593999997E+02  0.45594000000E+02  0.51100000000E-03 0.  1.
         11   -1    0    0    0    0 -0.00000000000E+00 -0.00000000000E+00 -0.45593999997E+02  0.45594000000E+02  0.51100000000E-03 0. -1.
    9900012    2    1    2    0    0 -0.28971538390E+02 -0.13244512180E+02 -0.13973072063E+01  0.59301959058E+02  0.50000027411E+02 0.  0.
         12    1    1    2    0    0  0.28971538390E+02  0.13244512180E+02  0.13973072063E+01  0.31886040942E+02  0.00000000000E+00 0. -1.
         11    1    3    3    0    0 -0.82006045480E+00 -0.17425199335E+02  0.49877793015E+01  0.18143539171E+02  0.51100000000E-03 0. -1.
        -11    1    3    3    0    0 -0.15620230380E+02  0.11560542720E+02  0.77094031978E+01  0.20906282382E+02  0.51100000000E-03 0.  1.
         12    1    3    3    0    0 -0.12531247555E+02 -0.73798555647E+01 -0.14094489706E+02  0.20252137505E+02  0.00000000000E+00 0. -1.
</event>
<event>
 7    1  0.6164995E-012  0.5930187E+02  0.7816164E-02  0.1266605E+00
        -11   -1    0    0    0    0  0.00000000000E+00  0.00000000000E+00  0.45593999997E+02  0.45594000000E+02  0.51100000000E-03 0.  1.
         11   -1    0    0    0    0 -0.00000000000E+00 -0.00000000000E+00 -0.45593999997E+02  0.45594000000E+02  0.51100000000E-03 0. -1.
    9900012    2    1    2    0    0 -0.27907551184E+02 -0.64857754977E+01  0.13993876007E+02  0.59301870372E+02  0.49999865670E+02 0.  0.
         12    1    1    2    0    0  0.27907551184E+02  0.64857754977E+01 -0.13993876007E+02  0.31886129628E+02  0.00000000000E+00 0. -1.
         11    1    3    3    0    0 -0.72975704014E+01  0.16932614262E+02 -0.68392935111E+01  0.19665805234E+02  0.51100000000E-03 0. -1.
        -11    1    3    3    0    0 -0.76904999257E+01 -0.78711172295E+01  0.14986652227E+02  0.18592956214E+02  0.51100000000E-03 0.  1.
        -12    1    3    3    0    0 -0.12919480857E+02 -0.15547272530E+02  0.58465172912E+01  0.21043108924E+02  0.00000000000E+00 0.  1.
</event>
<event>
 7    1  0.6164995E-012  0.5930196E+02  0.7816164E-02  0.1266605E+00
        -11   -1    0    0    0    0  0.00000000000E+00  0.00000000000E+00  0.45593999997E+02  0.45594000000E+02  0.51100000000E-03 0. -1.
         11   -1    0    0    0    0 -0.00000000000E+00 -0.00000000000E+00 -0.45593999997E+02  0.45594000000E+02  0.51100000000E-03 0.  1.
    9900012    2    1    2    0    0 -0.13252729688E+02  0.24651110018E+02 -0.15277689057E+02  0.59301955212E+02  0.50000020398E+02 0.  0.
         12    1    1    2    0    0  0.13252729688E+02 -0.24651110018E+02  0.15277689057E+02  0.31886044788E+02  0.00000000000E+00 0. -1.
         11    1    3    3    0    0 -0.14437119924E+02  0.10450195903E+02  0.76804252521E+01  0.19406853388E+02  0.51100000000E-03 0. -1.
        -11    1    3    3    0    0 -0.52535787689E+01  0.14480757670E+02  0.65526160254E+00  0.15418229490E+02  0.51100000000E-03 0.  1.
         12    1    3    3    0    0  0.64379690052E+01 -0.27984355470E+00 -0.23613375912E+02  0.24476872334E+02  0.00000000000E+00 0. -1.
</event>
<event>
 7    1  0.6164995E-012  0.5930194E+02  0.7816164E-02  0.1266605E+00
        -11   -1    0    0    0    0  0.00000000000E+00  0.00000000000E+00  0.45593999997E+02  0.45594000000E+02  0.51100000000E-03 0.  1.
         11   -1    0    0    0    0 -0.00000000000E+00 -0.00000000000E+00 -0.45593999997E+02  0.45594000000E+02  0.51100000000E-03 0. -1.
    9900012    2    1    2    0    0  0.45402756619E+01 -0.65355309683E+01  0.30877070573E+02  0.59301941051E+02  0.49999994572E+02 0.  0.
         12    1    1    2    0    0 -0.45402756619E+01  0.65355309683E+01 -0.30877070573E+02  0.31886058949E+02  0.00000000000E+00 0. -1.
         11    1    3    3    0    0 -0.51634288068E+01 -0.71143572417E+01 -0.26699583985E+01  0.91871515780E+01  0.51100000000E-03 0. -1.
        -11    1    3    3    0    0  0.11951883775E+01 -0.16922052457E+02  0.20848978778E+02  0.26878695113E+02  0.51100000000E-03 0.  1.
         12    1    3    3    0    0  0.85085160912E+01  0.17500878731E+02  0.12698050193E+02  0.23236094360E+02  0.00000000000E+00 0. -1.
</event>
<event>
 7    1  0.6164995E-012  0.5930197E+02  0.7816164E-02  0.1266605E+00
        -11   -1    0    0    0    0  0.00000000000E+00  0.00000000000E+00  0.45593999997E+02  0.45594000000E+02  0.51100000000E-03 0.  1.
         11   -1    0    0    0    0 -0.00000000000E+00 -0.00000000000E+00 -0.45593999997E+02  0.45594000000E+02  0.51100000000E-03 0. -1.
    9900012    2    1    2    0    0  0.16137027467E+01  0.22948013069E+02  0.22079484413E+02  0.59301969010E+02  0.50000045561E+02 0.  0.
         12    1    1    2    0    0 -0.16137027467E+01 -0.22948013069E+02 -0.22079484413E+02  0.31886030990E+02  0.00000000000E+00 0. -1.
         11    1    3    3    0    0  0.15566290156E+02  0.75050028204E-01 -0.81811440952E+00  0.15587954746E+02  0.51100000000E-03 0. -1.
        -11    1    3    3    0    0 -0.60736242946E+01 -0.50622902005E+01  0.73103066199E+01  0.10768299647E+02  0.51100000000E-03 0.  1.
        -12    1    3    3    0    0 -0.78789631144E+01  0.27935253241E+02  0.15587292203E+02  0.32945714617E+02  0.00000000000E+00 0.  1.
</event>
<event>
 7    1  0.6164995E-012  0.5930194E+02  0.7816164E-02  0.1266605E+00
        -11   -1    0    0    0    0  0.00000000000E+00  0.00000000000E+00  0.45593999997E+02  0.45594000000E+02  0.51100000000E-03 0. -1.
         11   -1    0    0    0    0 -0.00000000000E+00 -0.00000000000E+00 -0.45593999997E+02  0.45594000000E+02  0.51100000000E-03 0.  1.
    9900012    2    1    2    0    0 -0.14122760368E+02  0.12849644433E+02 -0.25537323187E+02  0.59301943517E+02  0.49999999068E+02 0.  0.
         12    1    1    2    0    0  0.14122760368E+02 -0.12849644433E+02  0.25537323187E+02  0.31886056483E+02  0.00000000000E+00 0. -1.
         11    1    3    3    0    0 -0.22416305089E+02  0.45307562507E+00 -0.92291227173E+00  0.22439870291E+02  0.51100000000E-03 0. -1.
        -11    1    3    3    0    0 -0.20917477114E+01  0.16131763743E+02 -0.12839445791E+02  0.20723430662E+02  0.51100000000E-03 0.  1.
        -12    1    3    3    0    0  0.10385292432E+02 -0.37351949344E+01 -0.11774965125E+02  0.16138642563E+02  0.00000000000E+00 0.  1.
</event>
<event>
 7    1  0.6164995E-012  0.5930198E+02  0.7816164E-02  0.1266605E+00
        -11   -1    0    0    0    0  0.00000000000E+00  0.00000000000E+00  0.45593999997E+02  0.45594000000E+02  0.51100000000E-03 0. -1.
         11   -1    0    0    0    0 -0.00000000000E+00 -0.00000000000E+00 -0.45593999997E+02  0.45594000000E+02  0.51100000000E-03 0.  1.
    9900012    2    1    2    0    0  0.23045741351E+02  0.12341149096E+02 -0.18256724869E+02  0.59301981773E+02  0.50000068838E+02 0.  0.
         12    1    1    2    0    0 -0.23045741351E+02 -0.12341149096E+02  0.18256724869E+02  0.31886018227E+02  0.00000000000E+00 0. -1.
         11    1    3    3    0    0  0.10104458146E+02  0.10761087718E+02 -0.30656824998E+01  0.15076454913E+02  0.51100000000E-03 0. -1.
        -11    1    3    3    0    0  0.54415344096E+01  0.19230642741E+02 -0.15097938956E+02  0.25047468493E+02  0.51100000000E-03 0.  1.
         12    1    3    3    0    0  0.74997487961E+01 -0.17650581363E+02 -0.93103413316E-01  0.19178058367E+02  0.00000000000E+00 0. -1.
</event>
<event>
 7    1  0.6164995E-012  0.5930195E+02  0.7816164E-02  0.1266605E+00
        -11   -1    0    0    0    0  0.00000000000E+00  0.00000000000E+00  0.45593999997E+02  0.45594000000E+02  0.51100000000E-03 0. -1.
         11   -1    0    0    0    0 -0.00000000000E+00 -0.00000000000E+00 -0.45593999997E+02  0.45594000000E+02  0.51100000000E-03 0.  1.
    9900012    2    1    2    0    0  0.12722981462E+02  0.25516636737E+02  0.14274010303E+02  0.59301946971E+02  0.50000005368E+02 0.  0.
         12    1    1    2    0    0 -0.12722981462E+02 -0.25516636737E+02 -0.14274010303E+02  0.31886053029E+02  0.00000000000E+00 0. -1.
         11    1    3    3    0    0 -0.21669534720E+01 -0.38782345002E+01 -0.50708824376E+01  0.67416792527E+01  0.51100000000E-03 0. -1.
        -11    1    3    3    0    0  0.19274866858E+02  0.16926057561E+02 -0.37758872026E+01  0.25928155379E+02  0.51100000000E-03 0.  1.
         12    1    3    3    0    0 -0.43849319241E+01  0.12468813676E+02  0.23120779943E+02  0.26632112339E+02  0.00000000000E+00 0. -1.
</event>
<event>
 7    1  0.6164995E-012  0.5930191E+02  0.7816164E-02  0.1266605E+00
        -11   -1    0    0    0    0  0.00000000000E+00  0.00000000000E+00  0.45593999997E+02  0.45594000000E+02  0.51100000000E-03 0. -1.
         11   -1    0    0    0    0 -0.00000000000E+00 -0.00000000000E+00 -0.45593999997E+02  0.45594000000E+02  0.51100000000E-03 0.  1.
    9900012    2    1    2    0    0  0.28136350429E+01 -0.30749594408E+02  0.79541442836E+01  0.59301913541E+02  0.49999944399E+02 0.  0.
         12    1    1    2    0    0 -0.28136350429E+01  0.30749594408E+02 -0.79541442836E+01  0.31886086459E+02  0.00000000000E+00 0. -1.
         11    1    3    3    0    0  0.83134690345E+01  0.37814480546E+01  0.14210740713E+02  0.16892550685E+02  0.51100000000E-03 0. -1.
        -11    1    3    3    0    0  0.74486328946E+01 -0.75578646566E+01  0.31091893658E+01  0.11057599601E+02  0.51100000000E-03 0.  1.
        -12    1    3    3    0    0 -0.12948466886E+02 -0.26973177806E+02 -0.93657857948E+01  0.31351763255E+02  0.00000000000E+00 0.  1.
</event>
<event>
 7    1  0.6164995E-012  0.5930194E+02  0.7816164E-02  0.1266605E+00
        -11   -1    0    0    0    0  0.00000000000E+00  0.00000000000E+00  0.45593999997E+02  0.45594000000E+02  0.51100000000E-03 0.  1.
         11   -1    0    0    0    0 -0.00000000000E+00 -0.00000000000E+00 -0.45593999997E+02  0.45594000000E+02  0.51100000000E-03 0. -1.
    9900012    2    1    2    0    0  0.22283700769E+02 -0.81610451436E+01  0.21296824602E+02  0.59301941668E+02  0.49999995697E+02 0.  0.
         12    1    1    2    0    0 -0.22283700769E+02  0.81610451436E+01 -0.21296824602E+02  0.31886058332E+02  0.00000000000E+00 0. -1.
         11    1    3    3    0    0  0.71275225846E+01  0.14055555410E+02  0.40287911620E+01  0.16266264923E+02  0.51100000000E-03 0. -1.
        -11    1    3    3    0    0  0.39068825759E+01 -0.61456642979E+01 -0.81490300962E+01  0.10928843164E+02  0.51100000000E-03 0.  1.
        -12    1    3    3    0    0  0.11249295609E+02 -0.16070936255E+02  0.25417063536E+02  0.32106833581E+02  0.00000000000E+00 0.  1.
</event>
<event>
 7    1  0.6164995E-012  0.5930192E+02  0.7816164E-02  0.1266605E+00
        -11   -1    0    0    0    0  0.00000000000E+00  0.00000000000E+00  0.45593999997E+02  0.45594000000E+02  0.51100000000E-03 0. -1.
         11   -1    0    0    0    0 -0.00000000000E+00 -0.00000000000E+00 -0.45593999997E+02  0.45594000000E+02  0.51100000000E-03 0.  1.
    9900012    2    1    2    0    0 -0.42608023903E+01  0.15631353245E+02 -0.27463225284E+02  0.59301915507E+02  0.49999947985E+02 0.  0.
         12    1    1    2    0    0  0.42608023903E+01 -0.15631353245E+02  0.27463225284E+02  0.31886084493E+02  0.00000000000E+00 0. -1.
         11    1    3    3    0    0  0.27399044898E+01  0.71949026130E+01  0.56434041213E+01  0.95457692493E+01  0.51100000000E-03 0. -1.
        -11    1    3    3    0    0  0.77574561750E+01 -0.75295795876E+01 -0.83397523954E+00  0.10842887532E+02  0.51100000000E-03 0.  1.
        -12    1    3    3    0    0 -0.14758163055E+02  0.15966030220E+02 -0.32272654166E+02  0.38913258726E+02  0.00000000000E+00 0.  1.
</event>
<event>
 7    1  0.6164995E-012  0.5930195E+02  0.7816164E-02  0.1266605E+00
        -11   -1    0    0    0    0  0.00000000000E+00  0.00000000000E+00  0.45593999997E+02  0.45594000000E+02  0.51100000000E-03 0.  1.
         11   -1    0    0    0    0 -0.00000000000E+00 -0.00000000000E+00 -0.45593999997E+02  0.45594000000E+02  0.51100000000E-03 0. -1.
    9900012    2    1    2    0    0 -0.93574199409E+01 -0.30099603643E+02 -0.48137808485E+01  0.59301953938E+02  0.50000018073E+02 0.  0.
         12    1    1    2    0    0  0.93574199409E+01  0.30099603643E+02  0.48137808485E+01  0.31886046062E+02  0.00000000000E+00 0. -1.
         11    1    3    3    0    0  0.79644571387E+01 -0.38338871595E+01  0.74092874881E+01  0.11533811582E+02  0.51100000000E-03 0. -1.
        -11    1    3    3    0    0 -0.23958302344E+01  0.15987273494E+01  0.91616634977E+01  0.96037497862E+01  0.51100000000E-03 0.  1.
         12    1    3    3    0    0 -0.14926046845E+02 -0.27864443833E+02 -0.21384731834E+02  0.38164392569E+02  0.00000000000E+00 0. -1.
</event>
<event>
 7    1  0.6164995E-012  0.5930194E+02  0.7816164E-02  0.1266605E+00
        -11   -1    0    0    0    0  0.00000000000E+00  0.00000000000E+00  0.45593999997E+02  0.45594000000E+02  0.51100000000E-03 0.  1.
         11   -1    0    0    0    0 -0.00000000000E+00 -0.00000000000E+00 -0.45593999997E+02  0.45594000000E+02  0.51100000000E-03 0. -1.
    9900012    2    1    2    0    0 -0.20947263511E+02  0.20733964476E+02 -0.12167002754E+02  0.59301935841E+02  0.49999985070E+02 0.  0.
         12    1    1    2    0    0  0.20947263511E+02 -0.20733964476E+02  0.12167002754E+02  0.31886064159E+02  0.00000000000E+00 0. -1.
         11    1    3    3    0    0 -0.18580808448E+02  0.74384129762E+01 -0.18455818192E+02  0.27224872003E+02  0.51100000000E-03 0. -1.
        -11    1    3    3    0    0 -0.14295413210E+02  0.23933173731E+01  0.65707594161E+01  0.15914197638E+02  0.51100000000E-03 0.  1.
        -12    1    3    3    0    0  0.11928958146E+02  0.10902234127E+02 -0.28194397884E+00  0.16162866201E+02  0.00000000000E+00 0.  1.
</event>
<event>
 7    1  0.6164995E-012  0.5930196E+02  0.7816164E-02  0.1266605E+00
        -11   -1    0    0    0    0  0.00000000000E+00  0.00000000000E+00  0.45593999997E+02  0.45594000000E+02  0.51100000000E-03 0.  1.
         11   -1    0    0    0    0 -0.00000000000E+00 -0.00000000000E+00 -0.45593999997E+02  0.45594000000E+02  0.51100000000E-03 0. -1.
    9900012    2    1    2    0    0 -0.23458650378E+02  0.21524891112E+02  0.17579751698E+01  0.59301957730E+02  0.50000024990E+02 0.  0.
         12    1    1    2    0    0  0.23458650378E+02 -0.21524891112E+02 -0.17579751698E+01  0.31886042270E+02  0.00000000000E+00 0. -1.
         11    1    3    3    0    0  0.68095079323E+01  0.36750947569E+00  0.34679504245E+01  0.76505648094E+01  0.51100000000E-03 0.  1.
        -11    1    3    3    0    0 -0.80161682676E-02  0.19429217598E+02 -0.74401138835E+01  0.20805043994E+02  0.51100000000E-03 0. -1.
        -12    1    3    3    0    0 -0.30260142142E+02  0.17281640383E+01  0.57301386287E+01  0.30846348927E+02  0.00000000000E+00 0.  1.
</event>
<event>
 7    1  0.6164995E-012  0.5930196E+02  0.7816164E-02  0.1266605E+00
        -11   -1    0    0    0    0  0.00000000000E+00  0.00000000000E+00  0.45593999997E+02  0.45594000000E+02  0.51100000000E-03 0.  1.
         11   -1    0    0    0    0 -0.00000000000E+00 -0.00000000000E+00 -0.45593999997E+02  0.45594000000E+02  0.51100000000E-03 0. -1.
    9900012    2    1    2    0    0 -0.59111303016E+01 -0.29599850076E+02 -0.10277492785E+02  0.59301961614E+02  0.50000032074E+02 0.  0.
         12    1    1    2    0    0  0.59111303016E+01  0.29599850076E+02  0.10277492785E+02  0.31886038386E+02  0.00000000000E+00 0. -1.
         11    1    3    3    0    0  0.99055720110E+01  0.80036184026E+01 -0.89116430576E+01  0.15543347344E+02  0.51100000000E-03 0. -1.
        -11    1    3    3    0    0 -0.45271742448E+01 -0.81541551356E-01  0.31681602548E+00  0.45389787753E+01  0.51100000000E-03 0.  1.
        -12    1    3    3    0    0 -0.11289528068E+02 -0.37521926928E+02 -0.16826657525E+01  0.39219635495E+02  0.00000000000E+00 0.  1.
</event>
<event>
 7    1  0.6164995E-012  0.5930194E+02  0.7816164E-02  0.1266605E+00
        -11   -1    0    0    0    0  0.00000000000E+00  0.00000000000E+00  0.45593999997E+02  0.45594000000E+02  0.51100000000E-03 0. -1.
         11   -1    0    0    0    0 -0.00000000000E+00 -0.00000000000E+00 -0.45593999997E+02  0.45594000000E+02  0.51100000000E-03 0.  1.
    9900012    2    1    2    0    0 -0.28682314402E+00  0.22693521174E+02 -0.22397383963E+02  0.59301937540E+02  0.49999988169E+02 0.  0.
         12    1    1    2    0    0  0.28682314402E+00 -0.22693521174E+02  0.22397383963E+02  0.31886062460E+02  0.00000000000E+00 0. -1.
         11    1    3    3    0    0 -0.74759388731E+01 -0.14373057992E+01 -0.25050219876E+02  0.26181463406E+02  0.51100000000E-03 0.  1.
        -11    1    3    3    0    0  0.68238450317E+01 -0.13567245830E+01  0.31224975210E+01  0.76259788644E+01  0.51100000000E-03 0. -1.
        -12    1    3    3    0    0  0.36527069743E+00  0.25487551557E+02 -0.46966160753E+00  0.25494495270E+02  0.00000000000E+00 0.  1.
</event>
<event>
 7    1  0.6164995E-012  0.5930194E+02  0.7816164E-02  0.1266605E+00
        -11   -1    0    0    0    0  0.00000000000E+00  0.00000000000E+00  0.45593999997E+02  0.45594000000E+02  0.51100000000E-03 0.  1.
         11   -1    0    0    0    0 -0.00000000000E+00 -0.00000000000E+00 -0.45593999997E+02  0.45594000000E+02  0.51100000000E-03 0. -1.
    9900012    2    1    2    0    0 -0.56354062519E+01  0.83401112739E+01  0.30255665237E+02  0.59301944449E+02  0.50000000768E+02 0.  0.
         12    1    1    2    0    0  0.56354062519E+01 -0.83401112739E+01 -0.30255665237E+02  0.31886055551E+02  0.00000000000E+00 0. -1.
         11    1    3    3    0    0  0.62287046636E+00  0.82191129581E+01  0.48047077635E+01  0.95408072190E+01  0.51100000000E-03 0. -1.
        -11    1    3    3    0    0 -0.10348634753E+02  0.14981209038E+02  0.28719963243E+02  0.34005398901E+02  0.51100000000E-03 0.  1.
         12    1    3    3    0    0  0.40903580352E+01 -0.14860210722E+02 -0.32690057701E+01  0.15755738329E+02  0.00000000000E+00 0. -1.
</event>
<event>
 7    1  0.6164995E-012  0.5930207E+02  0.7816164E-02  0.1266604E+00
        -11   -1    0    0    0    0  0.00000000000E+00  0.00000000000E+00  0.45593999997E+02  0.45594000000E+02  0.51100000000E-03 0.  1.
         11   -1    0    0    0    0 -0.00000000000E+00 -0.00000000000E+00 -0.45593999997E+02  0.45594000000E+02  0.51100000000E-03 0. -1.
    9900012    2    1    2    0    0  0.35183133174E+01 -0.21306166647E+02  0.23460210234E+02  0.59302066895E+02  0.50000224080E+02 0.  0.
         12    1    1    2    0    0 -0.35183133174E+01  0.21306166647E+02 -0.23460210234E+02  0.31885933105E+02  0.00000000000E+00 0. -1.
         11    1    3    3    0    0 -0.78437605725E+01 -0.29136655665E+01 -0.55381294676E+01  0.10034186824E+02  0.51100000000E-03 0. -1.
        -11    1    3    3    0    0 -0.99502915865E+01 -0.14461476257E+02  0.17273854444E+02  0.24627802293E+02  0.51100000000E-03 0.  1.
        -12    1    3    3    0    0  0.21312365476E+02 -0.39310248232E+01  0.11724485257E+02  0.24640077778E+02  0.00000000000E+00 0.  1.
</event>
<event>
 7    1  0.6164995E-012  0.5930194E+02  0.7816164E-02  0.1266605E+00
        -11   -1    0    0    0    0  0.00000000000E+00  0.00000000000E+00  0.45593999997E+02  0.45594000000E+02  0.51100000000E-03 0.  1.
         11   -1    0    0    0    0 -0.00000000000E+00 -0.00000000000E+00 -0.45593999997E+02  0.45594000000E+02  0.51100000000E-03 0. -1.
    9900012    2    1    2    0    0 -0.22365398970E+02  0.81334492624E+01 -0.21221604364E+02  0.59301944117E+02  0.50000000162E+02 0.  0.
         12    1    1    2    0    0  0.22365398970E+02 -0.81334492624E+01  0.21221604364E+02  0.31886055883E+02  0.00000000000E+00 0. -1.
         11    1    3    3    0    0 -0.13723403650E+02  0.25451445957E+02 -0.12782377930E+02  0.31614823973E+02  0.51100000000E-03 0.  1.
        -11    1    3    3    0    0 -0.11784207567E+02 -0.53050846646E+01 -0.81266818052E+01  0.15266120290E+02  0.51100000000E-03 0. -1.
        -12    1    3    3    0    0  0.31422122463E+01 -0.12012912030E+02 -0.31254462884E+00  0.12420999854E+02  0.00000000000E+00 0.  1.
</event>
<event>
 7    1  0.6164995E-012  0.5930194E+02  0.7816164E-02  0.1266605E+00
        -11   -1    0    0    0    0  0.00000000000E+00  0.00000000000E+00  0.45593999997E+02  0.45594000000E+02  0.51100000000E-03 0. -1.
         11   -1    0    0    0    0 -0.00000000000E+00 -0.00000000000E+00 -0.45593999997E+02  0.45594000000E+02  0.51100000000E-03 0.  1.
    9900012    2    1    2    0    0  0.65261990711E+01 -0.23836161657E+02 -0.20148613559E+02  0.59301944973E+02  0.50000001723E+02 0.  0.
         12    1    1    2    0    0 -0.65261990711E+01  0.23836161657E+02  0.20148613559E+02  0.31886055027E+02  0.00000000000E+00 0. -1.
         11    1    3    3    0    0 -0.15305520192E+01 -0.81249642503E+00 -0.12906998345E+01  0.21607050350E+01  0.51100000000E-03 0.  1.
        -11    1    3    3    0    0  0.94473780050E+01  0.13892926930E+02 -0.36621706126E+01  0.17195286090E+02  0.51100000000E-03 0. -1.
         12    1    3    3    0    0 -0.13906269147E+01 -0.36916592162E+02 -0.15195743112E+02  0.39945953848E+02  0.00000000000E+00 0. -1.
</event>
<event>
 7    1  0.6164995E-012  0.5930194E+02  0.7816164E-02  0.1266605E+00
        -11   -1    0    0    0    0  0.00000000000E+00  0.00000000000E+00  0.45593999997E+02  0.45594000000E+02  0.51100000000E-03 0. -1.
         11   -1    0    0    0    0 -0.00000000000E+00 -0.00000000000E+00 -0.45593999997E+02  0.45594000000E+02  0.51100000000E-03 0.  1.
    9900012    2    1    2    0    0  0.31261885025E+02  0.34237167817E+01  0.52624714218E+01  0.59301938823E+02  0.49999990509E+02 0.  0.
         12    1    1    2    0    0 -0.31261885025E+02 -0.34237167817E+01 -0.52624714218E+01  0.31886061177E+02  0.00000000000E+00 0. -1.
         11    1    3    3    0    0 -0.23951923891E+01 -0.27808308642E+01  0.10406099408E+00  0.36716203273E+01  0.51100000000E-03 0. -1.
        -11    1    3    3    0    0 -0.41770094726E+01  0.73851641647E+01  0.14356535067E+02  0.16676275282E+02  0.51100000000E-03 0.  1.
        -12    1    3    3    0    0  0.37834086886E+02 -0.11806165188E+01 -0.91981246392E+01  0.38954043215E+02  0.00000000000E+00 0.  1.
</event>
<event>
 7    1  0.6164995E-012  0.5930194E+02  0.7816164E-02  0.1266605E+00
        -11   -1    0    0    0    0  0.00000000000E+00  0.00000000000E+00  0.45593999997E+02  0.45594000000E+02  0.51100000000E-03 0.  1.
         11   -1    0    0    0    0 -0.00000000000E+00 -0.00000000000E+00 -0.45593999997E+02  0.45594000000E+02  0.51100000000E-03 0. -1.
    9900012    2    1    2    0    0 -0.13170735641E+02  0.21596692167E+02  0.19412249532E+02  0.59301940009E+02  0.49999992670E+02 0.  0.
         12    1    1    2    0    0  0.13170735641E+02 -0.21596692167E+02 -0.19412249532E+02  0.31886059991E+02  0.00000000000E+00 0. -1.
         11    1    3    3    0    0 -0.42923334376E+01  0.15010814718E+02 -0.71245700244E+00  0.15628700524E+02  0.51100000000E-03 0. -1.
        -11    1    3    3    0    0  0.97197945316E+01 -0.69665534022E+01 -0.15525518482E+01  0.12058925721E+02  0.51100000000E-03 0.  1.
         12    1    3    3    0    0 -0.18598196734E+02  0.13552430852E+02  0.21677258382E+02  0.31614313764E+02  0.00000000000E+00 0. -1.
</event>
<event>
 7    1  0.6164995E-012  0.5930195E+02  0.7816164E-02  0.1266605E+00
        -11   -1    0    0    0    0  0.00000000000E+00  0.00000000000E+00  0.45593999997E+02  0.45594000000E+02  0.51100000000E-03 0. -1.
         11   -1    0    0    0    0 -0.00000000000E+00 -0.00000000000E+00 -0.45593999997E+02  0.45594000000E+02  0.51100000000E-03 0.  1.
    9900012    2    1    2    0    0 -0.22811393044E+02  0.13540669375E+02 -0.17692116316E+02  0.59301947257E+02  0.50000005890E+02 0.  0.
         12    1    1    2    0    0  0.22811393044E+02 -0.13540669375E+02  0.17692116316E+02  0.31886052743E+02  0.00000000000E+00 0. -1.
         11    1    3    3    0    0  0.15765116341E+01 -0.56761754965E+01  0.98342998810E+01  0.11463760797E+02  0.51100000000E-03 0. -1.
        -11    1    3    3    0    0 -0.53729936888E+01  0.39078140256E+01  0.41599467297E+01  0.78387007019E+01  0.51100000000E-03 0.  1.
         12    1    3    3    0    0 -0.19014910990E+02  0.15309030846E+02 -0.31686362927E+02  0.39999485758E+02  0.00000000000E+00 0. -1.
</event>
<event>
 7    1  0.6164995E-012  0.5930197E+02  0.7816164E-02  0.1266605E+00
        -11   -1    0    0    0    0  0.00000000000E+00  0.00000000000E+00  0.45593999997E+02  0.45594000000E+02  0.51100000000E-03 0.  1.
         11   -1    0    0    0    0 -0.00000000000E+00 -0.00000000000E+00 -0.45593999997E+02  0.45594000000E+02  0.51100000000E-03 0. -1.
    9900012    2    1    2    0    0  0.24963440460E+01  0.30272296944E+02  0.96992477714E+01  0.59301966958E+02  0.50000041819E+02 0.  0.
         12    1    1    2    0    0 -0.24963440460E+01 -0.30272296944E+02 -0.96992477714E+01  0.31886033042E+02  0.00000000000E+00 0. -1.
         11    1    3    3    0    0 -0.63967188359E+00  0.73843229013E+01 -0.20864306361E+01  0.77000388239E+01  0.51100000000E-03 0. -1.
        -11    1    3    3    0    0 -0.19543102628E+02  0.17206111475E+02  0.15638290853E+01  0.26085028159E+02  0.51100000000E-03 0.  1.
        -12    1    3    3    0    0  0.22679118557E+02  0.56818625676E+01  0.10221849322E+02  0.25516899975E+02  0.00000000000E+00 0.  1.
</event>
<event>
 7    1  0.6164995E-012  0.5930193E+02  0.7816164E-02  0.1266605E+00
        -11   -1    0    0    0    0  0.00000000000E+00  0.00000000000E+00  0.45593999997E+02  0.45594000000E+02  0.51100000000E-03 0.  1.
         11   -1    0    0    0    0 -0.00000000000E+00 -0.00000000000E+00 -0.45593999997E+02  0.45594000000E+02  0.51100000000E-03 0. -1.
    9900012    2    1    2    0    0 -0.18729506040E+02 -0.12057896092E+02  0.22815213584E+02  0.59301933677E+02  0.49999981123E+02 0.  0.
         12    1    1    2    0    0  0.18729506040E+02  0.12057896092E+02 -0.22815213584E+02  0.31886066323E+02  0.00000000000E+00 0. -1.
         11    1    3    3    0    0 -0.39524764690E+01 -0.79150894692E+01  0.10855910481E+02  0.14004338762E+02  0.51100000000E-03 0.  1.
        -11    1    3    3    0    0 -0.24455318251E+02 -0.10136630625E+02  0.18379858780E+02  0.32227830833E+02  0.51100000000E-03 0. -1.
         12    1    3    3    0    0  0.96782886797E+01  0.59938240027E+01 -0.64205556768E+01  0.13069764081E+02  0.00000000000E+00 0. -1.
</event>
<event>
 7    1  0.6164995E-012  0.5930190E+02  0.7816164E-02  0.1266605E+00
        -11   -1    0    0    0    0  0.00000000000E+00  0.00000000000E+00  0.45593999997E+02  0.45594000000E+02  0.51100000000E-03 0. -1.
         11   -1    0    0    0    0 -0.00000000000E+00 -0.00000000000E+00 -0.45593999997E+02  0.45594000000E+02  0.51100000000E-03 0.  1.
    9900012    2    1    2    0    0 -0.15342553675E+02  0.27900641397E+02 -0.16981136401E+01  0.59301900621E+02  0.49999920837E+02 0.  0.
         12    1    1    2    0    0  0.15342553675E+02 -0.27900641397E+02  0.16981136401E+01  0.31886099379E+02  0.00000000000E+00 0. -1.
         11    1    3    3    0    0 -0.11405478378E+02  0.53280576536E+00 -0.38668967111E+01  0.12054945436E+02  0.51100000000E-03 0. -1.
        -11    1    3    3    0    0 -0.40546767043E-01 -0.57213061093E+01 -0.10210079617E+02  0.11703876011E+02  0.51100000000E-03 0.  1.
         12    1    3    3    0    0 -0.38965285295E+01  0.33089141741E+02  0.12378862688E+02  0.35543079175E+02  0.00000000000E+00 0. -1.
</event>
<event>
 7    1  0.6164995E-012  0.5930195E+02  0.7816164E-02  0.1266605E+00
        -11   -1    0    0    0    0  0.00000000000E+00  0.00000000000E+00  0.45593999997E+02  0.45594000000E+02  0.51100000000E-03 0.  1.
         11   -1    0    0    0    0 -0.00000000000E+00 -0.00000000000E+00 -0.45593999997E+02  0.45594000000E+02  0.51100000000E-03 0. -1.
    9900012    2    1    2    0    0 -0.91746438248E+01 -0.84039389746E+01  0.29358476663E+02  0.59301946127E+02  0.50000003829E+02 0.  0.
         12    1    1    2    0    0  0.91746438248E+01  0.84039389746E+01 -0.29358476663E+02  0.31886053873E+02  0.00000000000E+00 0. -1.
         11    1    3    3    0    0  0.58814005832E+01 -0.15468978088E+02 -0.48646426380E+00  0.16556473165E+02  0.51100000000E-03 0. -1.
        -11    1    3    3    0    0  0.51481304913E+01 -0.49093069703E+01  0.71368440420E+01  0.10076660440E+02  0.51100000000E-03 0.  1.
         12    1    3    3    0    0 -0.20204174899E+02  0.11974346084E+02  0.22708096885E+02  0.32668812522E+02  0.00000000000E+00 0. -1.
</event>
<event>
 7    1  0.6164995E-012  0.5930195E+02  0.7816164E-02  0.1266605E+00
        -11   -1    0    0    0    0  0.00000000000E+00  0.00000000000E+00  0.45593999997E+02  0.45594000000E+02  0.51100000000E-03 0. -1.
         11   -1    0    0    0    0 -0.00000000000E+00 -0.00000000000E+00 -0.45593999997E+02  0.45594000000E+02  0.51100000000E-03 0.  1.
    9900012    2    1    2    0    0 -0.12441914135E+02  0.28054920920E+02  0.86510445086E+01  0.59301946837E+02  0.50000005124E+02 0.  0.
         12    1    1    2    0    0  0.12441914135E+02 -0.28054920920E+02 -0.86510445086E+01  0.31886053163E+02  0.00000000000E+00 0. -1.
         11    1    3    3    0    0  0.73698707576E+01 -0.61302837785E+01 -0.69880316639E+01  0.11862881648E+02  0.51100000000E-03 0.  1.
        -11    1    3    3    0    0 -0.25886788618E+01  0.96378268823E+01 -0.48752471184E+01  0.11106619647E+02  0.51100000000E-03 0. -1.
         12    1    3    3    0    0 -0.17223106031E+02  0.24547377816E+02  0.20514323291E+02  0.36332445543E+02  0.00000000000E+00 0. -1.
</event>
<event>
 7    1  0.6164995E-012  0.5930195E+02  0.7816164E-02  0.1266605E+00
        -11   -1    0    0    0    0  0.00000000000E+00  0.00000000000E+00  0.45593999997E+02  0.45594000000E+02  0.51100000000E-03 0. -1.
         11   -1    0    0    0    0 -0.00000000000E+00 -0.00000000000E+00 -0.45593999997E+02  0.45594000000E+02  0.51100000000E-03 0.  1.
    9900012    2    1    2    0    0  0.15242059687E+02 -0.26902615482E+02 -0.77877555802E+01  0.59301949127E+02  0.50000009300E+02 0.  0.
         12    1    1    2    0    0 -0.15242059687E+02  0.26902615482E+02  0.77877555802E+01  0.31886050873E+02  0.00000000000E+00 0. -1.
         11    1    3    3    0    0  0.60330592997E+00  0.58022025404E+01  0.67183875113E+01  0.88975425472E+01  0.51100000000E-03 0. -1.
        -11    1    3    3    0    0 -0.91671409559E+01 -0.45212085725E+01  0.12321309893E+01  0.10295433322E+02  0.51100000000E-03 0.  1.
        -12    1    3    3    0    0  0.23805894713E+02 -0.28183609450E+02 -0.15738274081E+02  0.40108973257E+02  0.00000000000E+00 0.  1.
</event>
<event>
 7    1  0.6164995E-012  0.5930194E+02  0.7816164E-02  0.1266605E+00
        -11   -1    0    0    0    0  0.00000000000E+00  0.00000000000E+00  0.45593999997E+02  0.45594000000E+02  0.51100000000E-03 0.  1.
         11   -1    0    0    0    0 -0.00000000000E+00 -0.00000000000E+00 -0.45593999997E+02  0.45594000000E+02  0.51100000000E-03 0. -1.
    9900012    2    1    2    0    0 -0.25983323474E+01 -0.18614835237E+02 -0.25757664765E+02  0.59301941666E+02  0.49999995693E+02 0.  0.
         12    1    1    2    0    0  0.25983323474E+01  0.18614835237E+02  0.25757664765E+02  0.31886058334E+02  0.00000000000E+00 0. -1.
         11    1    3    3    0    0  0.60668839684E+01 -0.82865707029E+01 -0.12396849069E+02  0.16098329174E+02  0.51100000000E-03 0. -1.
        -11    1    3    3    0    0 -0.70442718935E+01  0.68525716786E+01 -0.21859709373E+02  0.23967194230E+02  0.51100000000E-03 0.  1.
        -12    1    3    3    0    0 -0.16209444222E+01 -0.17180836213E+02  0.84988936773E+01  0.19236418262E+02  0.00000000000E+00 0.  1.
</event>
<event>
 7    1  0.6164995E-012  0.5930194E+02  0.7816164E-02  0.1266605E+00
        -11   -1    0    0    0    0  0.00000000000E+00  0.00000000000E+00  0.45593999997E+02  0.45594000000E+02  0.51100000000E-03 0.  1.
         11   -1    0    0    0    0 -0.00000000000E+00 -0.00000000000E+00 -0.45593999997E+02  0.45594000000E+02  0.51100000000E-03 0. -1.
    9900012    2    1    2    0    0  0.60750800717E+01  0.18607448493E+02  0.25170954362E+02  0.59301942219E+02  0.49999996702E+02 0.  0.
         12    1    1    2    0    0 -0.60750800717E+01 -0.18607448493E+02 -0.25170954362E+02  0.31886057781E+02  0.00000000000E+00 0. -1.
         11    1    3    3    0    0  0.83929768431E+01 -0.49390099231E+01 -0.13602746113E+01  0.98329154674E+01  0.51100000000E-03 0. -1.
        -11    1    3    3    0    0 -0.58474823116E+01 -0.76814307727E+01  0.10230545293E+02  0.14066324514E+02  0.51100000000E-03 0.  1.
         12    1    3    3    0    0  0.35295855402E+01  0.31227889188E+02  0.16300683681E+02  0.35402702237E+02  0.00000000000E+00 0. -1.
</event>
<event>
 7    1  0.6164995E-012  0.5930193E+02  0.7816164E-02  0.1266605E+00
        -11   -1    0    0    0    0  0.00000000000E+00  0.00000000000E+00  0.45593999997E+02  0.45594000000E+02  0.51100000000E-03 0. -1.
         11   -1    0    0    0    0 -0.00000000000E+00 -0.00000000000E+00 -0.45593999997E+02  0.45594000000E+02  0.51100000000E-03 0.  1.
    9900012    2    1    2    0    0 -0.41108105048E+01  0.24337817575E+02 -0.20186469782E+02  0.59301926401E+02  0.49999967853E+02 0.  0.
         12    1    1    2    0    0  0.41108105048E+01 -0.24337817575E+02  0.20186469782E+02  0.31886073599E+02  0.00000000000E+00 0. -1.
         11    1    3    3    0    0 -0.14961665221E+02  0.23140150278E+02 -0.27948309844E+02  0.39248261166E+02  0.51100000000E-03 0.  1.
        -11    1    3    3    0    0 -0.36310326923E+00 -0.19009066591E+01  0.81861084921E+01  0.84117574035E+01  0.51100000000E-03 0. -1.
        -12    1    3    3    0    0  0.11213957986E+02  0.30985739553E+01 -0.42426843011E+00  0.11641907832E+02  0.00000000000E+00 0.  1.
</event>
<event>
 7    1  0.6164995E-012  0.5930195E+02  0.7816164E-02  0.1266605E+00
        -11   -1    0    0    0    0  0.00000000000E+00  0.00000000000E+00  0.45593999997E+02  0.45594000000E+02  0.51100000000E-03 0. -1.
         11   -1    0    0    0    0 -0.00000000000E+00 -0.00000000000E+00 -0.45593999997E+02  0.45594000000E+02  0.51100000000E-03 0.  1.
    9900012    2    1    2    0    0 -0.44812134165E+01 -0.24674160369E+02 -0.19693268486E+02  0.59301948390E+02  0.50000007955E+02 0.  0.
         12    1    1    2    0    0  0.44812134165E+01  0.24674160369E+02  0.19693268486E+02  0.31886051610E+02  0.00000000000E+00 0. -1.
         11    1    3    3    0    0 -0.25864393485E+00  0.12232577983E+02 -0.14383369088E+02  0.18883436324E+02  0.51100000000E-03 0. -1.
        -11    1    3    3    0    0  0.52090717662E+01 -0.10312130425E+02 -0.37946066863E+01  0.12160324944E+02  0.51100000000E-03 0.  1.
        -12    1    3    3    0    0 -0.94316412478E+01 -0.26594607927E+02 -0.15152927119E+01  0.28258187122E+02  0.00000000000E+00 0.  1.
</event>
<event>
 7    1  0.6164995E-012  0.5930177E+02  0.7816164E-02  0.1266605E+00
        -11   -1    0    0    0    0  0.00000000000E+00  0.00000000000E+00  0.45593999997E+02  0.45594000000E+02  0.51100000000E-03 0.  1.
         11   -1    0    0    0    0 -0.00000000000E+00 -0.00000000000E+00 -0.45593999997E+02  0.45594000000E+02  0.51100000000E-03 0. -1.
    9900012    2    1    2    0    0 -0.10017014050E+01 -0.27840087176E+02 -0.15513157252E+02  0.59301766174E+02  0.49999675636E+02 0.  0.
         12    1    1    2    0    0  0.10017014050E+01  0.27840087176E+02  0.15513157252E+02  0.31886233826E+02  0.00000000000E+00 0. -1.
         11    1    3    3    0    0 -0.69328569046E+01 -0.17095337689E+02 -0.35070911325E+01  0.18778039408E+02  0.51100000000E-03 0. -1.
        -11    1    3    3    0    0  0.55133398693E+01 -0.16586654693E+02  0.83290370839E+01  0.19361996009E+02  0.51100000000E-03 0.  1.
         12    1    3    3    0    0  0.41781563033E+00  0.58419052057E+01 -0.20335103204E+02  0.21161730757E+02  0.00000000000E+00 0. -1.
</event>
<event>
 7    1  0.6164995E-012  0.5930195E+02  0.7816164E-02  0.1266605E+00
        -11   -1    0    0    0    0  0.00000000000E+00  0.00000000000E+00  0.45593999997E+02  0.45594000000E+02  0.51100000000E-03 0.  1.
         11   -1    0    0    0    0 -0.00000000000E+00 -0.00000000000E+00 -0.45593999997E+02  0.45594000000E+02  0.51100000000E-03 0. -1.
    9900012    2    1    2    0    0 -0.91849742982E+01  0.27876218928E+02  0.12460851998E+02  0.59301950274E+02  0.50000011392E+02 0.  0.
         12    1    1    2    0    0  0.91849742982E+01 -0.27876218928E+02 -0.12460851998E+02  0.31886049726E+02  0.00000000000E+00 0. -1.
         11    1    3    3    0    0 -0.16508540367E+02 -0.55299332490E+00 -0.36659269376E+01  0.16919714159E+02  0.51100000000E-03 0. -1.
        -11    1    3    3    0    0  0.24481879698E+00 -0.48953901155E+01  0.36102748614E+01  0.60875993185E+01  0.51100000000E-03 0.  1.
        -12    1    3    3    0    0  0.70787472717E+01  0.33324602369E+02  0.12516504074E+02  0.36294636797E+02  0.00000000000E+00 0.  1.
</event>
<event>
 7    1  0.6164995E-012  0.5930190E+02  0.7816164E-02  0.1266605E+00
        -11   -1    0    0    0    0  0.00000000000E+00  0.00000000000E+00  0.45593999997E+02  0.45594000000E+02  0.51100000000E-03 0.  1.
         11   -1    0    0    0    0 -0.00000000000E+00 -0.00000000000E+00 -0.45593999997E+02  0.45594000000E+02  0.51100000000E-03 0. -1.
    9900012    2    1    2    0    0  0.70375061141E+01  0.23108243728E+02  0.20813601758E+02  0.59301898975E+02  0.49999917834E+02 0.  0.
         12    1    1    2    0    0 -0.70375061141E+01 -0.23108243728E+02 -0.20813601758E+02  0.31886101025E+02  0.00000000000E+00 0. -1.
         11    1    3    3    0    0 -0.15993717539E-01  0.28010548882E+02 -0.46461136948E+01  0.28393264645E+02  0.51100000000E-03 0. -1.
        -11    1    3    3    0    0  0.42512203435E+01 -0.50620153388E-01 -0.56386259716E+00  0.42887501791E+01  0.51100000000E-03 0.  1.
        -12    1    3    3    0    0  0.28022794881E+01 -0.48516850011E+01  0.26023578049E+02  0.26619884150E+02  0.00000000000E+00 0.  1.
</event>
<event>
 7    1  0.6164995E-012  0.5930196E+02  0.7816164E-02  0.1266605E+00
        -11   -1    0    0    0    0  0.00000000000E+00  0.00000000000E+00  0.45593999997E+02  0.45594000000E+02  0.51100000000E-03 0.  1.
         11   -1    0    0    0    0 -0.00000000000E+00 -0.00000000000E+00 -0.45593999997E+02  0.45594000000E+02  0.51100000000E-03 0. -1.
    9900012    2    1    2    0    0 -0.10798569843E+02 -0.15615201893E+02  0.25617878151E+02  0.59301963529E+02  0.50000035566E+02 0.  0.
         12    1    1    2    0    0  0.10798569843E+02  0.15615201893E+02 -0.25617878151E+02  0.31886036471E+02  0.00000000000E+00 0. -1.
         11    1    3    3    0    0  0.24951577226E+01 -0.11994211883E+01 -0.84129850848E+01  0.88567907024E+01  0.51100000000E-03 0. -1.
        -11    1    3    3    0    0  0.22687663699E+01  0.80260009559E+01  0.14985742784E+02  0.17150407553E+02  0.51100000000E-03 0.  1.
         12    1    3    3    0    0 -0.15562493935E+02 -0.22441781661E+02  0.19045120452E+02  0.33294765274E+02  0.00000000000E+00 0. -1.
</event>
<event>
 7    1  0.6164995E-012  0.5930184E+02  0.7816164E-02  0.1266605E+00
        -11   -1    0    0    0    0  0.00000000000E+00  0.00000000000E+00  0.45593999997E+02  0.45594000000E+02  0.51100000000E-03 0.  1.
         11   -1    0    0    0    0 -0.00000000000E+00 -0.00000000000E+00 -0.45593999997E+02  0.45594000000E+02  0.51100000000E-03 0. -1.
    9900012    2    1    2    0    0  0.12116534011E+02  0.20825732246E+02  0.20885542502E+02  0.59301836768E+02  0.49999804384E+02 0.  0.
         12    1    1    2    0    0 -0.12116534011E+02 -0.20825732246E+02 -0.20885542502E+02  0.31886163232E+02  0.00000000000E+00 0. -1.
         11    1    3    3    0    0  0.23501996317E+02  0.55608879320E+01  0.51798873740E+00  0.24156481906E+02  0.51100000000E-03 0.  1.
        -11    1    3    3    0    0 -0.75875384766E+01  0.11719658214E+02 -0.16835873334E+00  0.13962430795E+02  0.51100000000E-03 0. -1.
        -12    1    3    3    0    0 -0.37979238297E+01  0.35451860998E+01  0.20535912498E+02  0.21182924067E+02  0.00000000000E+00 0.  1.
</event>
<event>
 7    1  0.6164995E-012  0.5930195E+02  0.7816164E-02  0.1266605E+00
        -11   -1    0    0    0    0  0.00000000000E+00  0.00000000000E+00  0.45593999997E+02  0.45594000000E+02  0.51100000000E-03 0. -1.
         11   -1    0    0    0    0 -0.00000000000E+00 -0.00000000000E+00 -0.45593999997E+02  0.45594000000E+02  0.51100000000E-03 0.  1.
    9900012    2    1    2    0    0  0.20632931444E+02 -0.19924315135E+02 -0.13929239687E+02  0.59301954277E+02  0.50000018693E+02 0.  0.
         12    1    1    2    0    0 -0.20632931444E+02  0.19924315135E+02  0.13929239687E+02  0.31886045723E+02  0.00000000000E+00 0. -1.
         11    1    3    3    0    0  0.13889934739E+01  0.74308535263E+01  0.84618798860E+01  0.11346818870E+02  0.51100000000E-03 0. -1.
        -11    1    3    3    0    0  0.44966932703E+01  0.17908974941E+01  0.37461575843E+01  0.61205605225E+01  0.51100000000E-03 0.  1.
        -12    1    3    3    0    0  0.14747244700E+02 -0.29146066156E+02 -0.26137277157E+02  0.41834574885E+02  0.00000000000E+00 0.  1.
</event>
<event>
 7    1  0.6164995E-012  0.5930195E+02  0.7816164E-02  0.1266605E+00
        -11   -1    0    0    0    0  0.00000000000E+00  0.00000000000E+00  0.45593999997E+02  0.45594000000E+02  0.51100000000E-03 0. -1.
         11   -1    0    0    0    0 -0.00000000000E+00 -0.00000000000E+00 -0.45593999997E+02  0.45594000000E+02  0.51100000000E-03 0.  1.
    9900012    2    1    2    0    0  0.30984890588E+02 -0.73831018817E+01 -0.14651444545E+01  0.59301948403E+02  0.50000007980E+02 0.  0.
         12    1    1    2    0    0 -0.30984890588E+02  0.73831018817E+01  0.14651444545E+01  0.31886051597E+02  0.00000000000E+00 0. -1.
         11    1    3    3    0    0  0.91948741595E+01 -0.58132031845E+00  0.89673295183E+01  0.12856774209E+02  0.51100000000E-03 0. -1.
        -11    1    3    3    0    0  0.27394619985E+02 -0.17969785551E+02 -0.76451788077E+01  0.33642638959E+02  0.51100000000E-03 0.  1.
        -12    1    3    3    0    0 -0.56046035559E+01  0.11168003988E+02 -0.27872951651E+01  0.12802535235E+02  0.00000000000E+00 0.  1.
</event>
<event>
 7    1  0.6164995E-012  0.5930195E+02  0.7816164E-02  0.1266605E+00
        -11   -1    0    0    0    0  0.00000000000E+00  0.00000000000E+00  0.45593999997E+02  0.45594000000E+02  0.51100000000E-03 0.  1.
         11   -1    0    0    0    0 -0.00000000000E+00 -0.00000000000E+00 -0.45593999997E+02  0.45594000000E+02  0.51100000000E-03 0. -1.
    9900012    2    1    2    0    0  0.11699639038E+02 -0.29086830681E+02 -0.58133261666E+01  0.59301952365E+02  0.50000015204E+02 0.  0.
         12    1    1    2    0    0 -0.11699639038E+02  0.29086830681E+02  0.58133261666E+01  0.31886047635E+02  0.00000000000E+00 0. -1.
         11    1    3    3    0    0 -0.89172795228E+01 -0.15898857819E+02 -0.32745581089E+01  0.18520644835E+02  0.51100000000E-03 0. -1.
        -11    1    3    3    0    0  0.11105485524E+02 -0.22399893454E+02 -0.82967633417E+01  0.26342424294E+02  0.51100000000E-03 0.  1.
        -12    1    3    3    0    0  0.95114330373E+01  0.92119205917E+01  0.57579952840E+01  0.14438883236E+02  0.00000000000E+00 0.  1.
</event>
<event>
 7    1  0.6164995E-012  0.5930198E+02  0.7816164E-02  0.1266605E+00
        -11   -1    0    0    0    0  0.00000000000E+00  0.00000000000E+00  0.45593999997E+02  0.45594000000E+02  0.51100000000E-03 0. -1.
         11   -1    0    0    0    0 -0.00000000000E+00 -0.00000000000E+00 -0.45593999997E+02  0.45594000000E+02  0.51100000000E-03 0.  1.
    9900012    2    1    2    0    0  0.15068311344E+02  0.18275899244E+02 -0.21346090286E+02  0.59301983152E+02  0.50000071353E+02 0.  0.
         12    1    1    2    0    0 -0.15068311344E+02 -0.18275899244E+02  0.21346090286E+02  0.31886016848E+02  0.00000000000E+00 0. -1.
         11    1    3    3    0    0  0.17430142381E+02  0.34618738863E+01  0.37294615119E+01  0.18157734375E+02  0.51100000000E-03 0. -1.
        -11    1    3    3    0    0  0.51035882182E+00  0.15695580449E+02  0.18568560269E+00  0.15704973454E+02  0.51100000000E-03 0.  1.
        -12    1    3    3    0    0 -0.28721898584E+01 -0.88155509182E+00 -0.25261237401E+02  0.25439275323E+02  0.00000000000E+00 0.  1.
</event>
<event>
 7    1  0.6164995E-012  0.5930194E+02  0.7816164E-02  0.1266605E+00
        -11   -1    0    0    0    0  0.00000000000E+00  0.00000000000E+00  0.45593999997E+02  0.45594000000E+02  0.51100000000E-03 0. -1.
         11   -1    0    0    0    0 -0.00000000000E+00 -0.00000000000E+00 -0.45593999997E+02  0.45594000000E+02  0.51100000000E-03 0.  1.
    9900012    2    1    2    0    0 -0.50797105120E+01 -0.48550611625E+01 -0.31102179196E+02  0.59301943039E+02  0.49999998197E+02 0.  0.
         12    1    1    2    0    0  0.50797105120E+01  0.48550611625E+01  0.31102179196E+02  0.31886056961E+02  0.00000000000E+00 0. -1.
         11    1    3    3    0    0 -0.24396805128E+01 -0.10072729919E+02 -0.29895115420E+01  0.10786524396E+02  0.51100000000E-03 0. -1.
        -11    1    3    3    0    0 -0.15735132473E+02 -0.10438552457E+02 -0.10813231827E+02  0.21759681849E+02  0.51100000000E-03 0.  1.
        -12    1    3    3    0    0  0.13095102474E+02  0.15656221214E+02 -0.17299435827E+02  0.26755736794E+02  0.00000000000E+00 0.  1.
</event>
<event>
 7    1  0.6164995E-012  0.5930194E+02  0.7816164E-02  0.1266605E+00
        -11   -1    0    0    0    0  0.00000000000E+00  0.00000000000E+00  0.45593999997E+02  0.45594000000E+02  0.51100000000E-03 0. -1.
         11   -1    0    0    0    0 -0.00000000000E+00 -0.00000000000E+00 -0.45593999997E+02  0.45594000000E+02  0.51100000000E-03 0.  1.
    9900012    2    1    2    0    0 -0.12018541294E+02  0.29534301542E+02 -0.24231897608E-01  0.59301938945E+02  0.49999990731E+02 0.  0.
         12    1    1    2    0    0  0.12018541294E+02 -0.29534301542E+02  0.24231897608E-01  0.31886061055E+02  0.00000000000E+00 0. -1.
         11    1    3    3    0    0  0.18761289650E+01 -0.11557360577E+01 -0.17966096498E-01  0.22036126634E+01  0.51100000000E-03 0. -1.
        -11    1    3    3    0    0 -0.24225744496E+02 -0.19222717325E+00  0.29237608990E+01  0.24402295501E+02  0.51100000000E-03 0.  1.
         12    1    3    3    0    0  0.10331074237E+02  0.30882264773E+02 -0.29300267001E+01  0.32696030781E+02  0.00000000000E+00 0. -1.
</event>
<event>
 7    1  0.6164995E-012  0.5930196E+02  0.7816164E-02  0.1266605E+00
        -11   -1    0    0    0    0  0.00000000000E+00  0.00000000000E+00  0.45593999997E+02  0.45594000000E+02  0.51100000000E-03 0.  1.
         11   -1    0    0    0    0 -0.00000000000E+00 -0.00000000000E+00 -0.45593999997E+02  0.45594000000E+02  0.51100000000E-03 0. -1.
    9900012    2    1    2    0    0 -0.25007054863E+02  0.40967981027E+01  0.19354145239E+02  0.59301960961E+02  0.50000030883E+02 0.  0.
         12    1    1    2    0    0  0.25007054863E+02 -0.40967981027E+01 -0.19354145239E+02  0.31886039039E+02  0.00000000000E+00 0. -1.
         11    1    3    3    0    0 -0.81023169348E+01 -0.15281342760E+02  0.34728796270E+01  0.17641651550E+02  0.51100000000E-03 0. -1.
        -11    1    3    3    0    0  0.29175502870E+01 -0.42604728825E+00 -0.56165130851E+01  0.63434088206E+01  0.51100000000E-03 0.  1.
        -12    1    3    3    0    0 -0.19822288215E+02  0.19804188151E+02  0.21497778698E+02  0.35316900591E+02  0.00000000000E+00 0.  1.
</event>
<event>
 7    1  0.6164995E-012  0.5930194E+02  0.7816164E-02  0.1266605E+00
        -11   -1    0    0    0    0  0.00000000000E+00  0.00000000000E+00  0.45593999997E+02  0.45594000000E+02  0.51100000000E-03 0.  1.
         11   -1    0    0    0    0 -0.00000000000E+00 -0.00000000000E+00 -0.45593999997E+02  0.45594000000E+02  0.51100000000E-03 0. -1.
    9900012    2    1    2    0    0 -0.19038226579E+02  0.12948304998E+00  0.25578312497E+02  0.59301938668E+02  0.49999990225E+02 0.  0.
         12    1    1    2    0    0  0.19038226579E+02 -0.12948304998E+00 -0.25578312497E+02  0.31886061332E+02  0.00000000000E+00 0. -1.
         11    1    3    3    0    0  0.12682012267E+01 -0.95107347160E+01 -0.37522238045E+01  0.10302504207E+02  0.51100000000E-03 0. -1.
        -11    1    3    3    0    0  0.59643448032E+01  0.32926192868E+01 -0.24869861508E+01  0.72525754788E+01  0.51100000000E-03 0.  1.
        -12    1    3    3    0    0 -0.26270772608E+02  0.63475984791E+01  0.31817522452E+02  0.41746858982E+02  0.00000000000E+00 0.  1.
</event>
<event>
 7    1  0.6164995E-012  0.5930194E+02  0.7816164E-02  0.1266605E+00
        -11   -1    0    0    0    0  0.00000000000E+00  0.00000000000E+00  0.45593999997E+02  0.45594000000E+02  0.51100000000E-03 0.  1.
         11   -1    0    0    0    0 -0.00000000000E+00 -0.00000000000E+00 -0.45593999997E+02  0.45594000000E+02  0.51100000000E-03 0. -1.
    9900012    2    1    2    0    0  0.19809582511E+02  0.58539051360E+01  0.24290599161E+02  0.59301937649E+02  0.49999988368E+02 0.  0.
         12    1    1    2    0    0 -0.19809582511E+02 -0.58539051360E+01 -0.24290599161E+02  0.31886062351E+02  0.00000000000E+00 0. -1.
         11    1    3    3    0    0 -0.33974447567E+01 -0.10749143656E+02  0.11056395337E+02  0.15790205772E+02  0.51100000000E-03 0. -1.
        -11    1    3    3    0    0  0.54324621652E+01  0.26883587512E+01 -0.96320307749E+01  0.11380462867E+02  0.51100000000E-03 0.  1.
        -12    1    3    3    0    0  0.17774565103E+02  0.13914690041E+02  0.22866234599E+02  0.32131269011E+02  0.00000000000E+00 0.  1.
</event>
<event>
 7    1  0.6164995E-012  0.5930192E+02  0.7816164E-02  0.1266605E+00
        -11   -1    0    0    0    0  0.00000000000E+00  0.00000000000E+00  0.45593999997E+02  0.45594000000E+02  0.51100000000E-03 0. -1.
         11   -1    0    0    0    0 -0.00000000000E+00 -0.00000000000E+00 -0.45593999997E+02  0.45594000000E+02  0.51100000000E-03 0.  1.
    9900012    2    1    2    0    0 -0.10698758142E+02  0.29897458763E+02 -0.28983480364E+01  0.59301923296E+02  0.49999962190E+02 0.  0.
         12    1    1    2    0    0  0.10698758142E+02 -0.29897458763E+02  0.28983480364E+01  0.31886076704E+02  0.00000000000E+00 0. -1.
         11    1    3    3    0    0  0.74155739513E+01  0.31543383352E+01  0.59224442617E-01  0.80587899312E+01  0.51100000000E-03 0. -1.
        -11    1    3    3    0    0  0.93765373310E+00  0.23602303016E+02 -0.15468542864E+02  0.28235150447E+02  0.51100000000E-03 0.  1.
        -12    1    3    3    0    0 -0.19051985827E+02  0.31408174111E+01  0.12510970385E+02  0.23007982917E+02  0.00000000000E+00 0.  1.
</event>
<event>
 7    1  0.6164995E-012  0.5930193E+02  0.7816164E-02  0.1266605E+00
        -11   -1    0    0    0    0  0.00000000000E+00  0.00000000000E+00  0.45593999997E+02  0.45594000000E+02  0.51100000000E-03 0.  1.
         11   -1    0    0    0    0 -0.00000000000E+00 -0.00000000000E+00 -0.45593999997E+02  0.45594000000E+02  0.51100000000E-03 0. -1.
    9900012    2    1    2    0    0 -0.12360130391E+02 -0.28431602314E+02  0.74560405714E+01  0.59301931343E+02  0.49999976866E+02 0.  0.
         12    1    1    2    0    0  0.12360130391E+02  0.28431602314E+02 -0.74560405714E+01  0.31886068657E+02  0.00000000000E+00 0. -1.
         11    1    3    3    0    0  0.26893347689E+00  0.51638404300E+01 -0.79474466877E+01  0.94815337534E+01  0.51100000000E-03 0. -1.
        -11    1    3    3    0    0  0.27844963182E+01 -0.26625326592E+01 -0.74500488595E+01  0.83872360273E+01  0.51100000000E-03 0.  1.
        -12    1    3    3    0    0 -0.15413560187E+02 -0.30932910084E+02  0.22853536119E+02  0.41433161562E+02  0.00000000000E+00 0.  1.
</event>
<event>
 7    1  0.6164995E-012  0.5930194E+02  0.7816164E-02  0.1266605E+00
        -11   -1    0    0    0    0  0.00000000000E+00  0.00000000000E+00  0.45593999997E+02  0.45594000000E+02  0.51100000000E-03 0. -1.
         11   -1    0    0    0    0 -0.00000000000E+00 -0.00000000000E+00 -0.45593999997E+02  0.45594000000E+02  0.51100000000E-03 0.  1.
    9900012    2    1    2    0    0 -0.23087252659E+02  0.42702151452E+01 -0.21574635932E+02  0.59301938965E+02  0.49999990767E+02 0.  0.
         12    1    1    2    0    0  0.23087252659E+02 -0.42702151452E+01  0.21574635932E+02  0.31886061035E+02  0.00000000000E+00 0. -1.
         11    1    3    3    0    0  0.27346697683E+01  0.86736969440E+01 -0.29830242212E+01  0.95713045706E+01  0.51100000000E-03 0. -1.
        -11    1    3    3    0    0  0.31420035699E+01 -0.75842235155E+00 -0.20235480036E+02  0.20491999498E+02  0.51100000000E-03 0.  1.
         12    1    3    3    0    0 -0.28963925997E+02 -0.36450594473E+01  0.16438683249E+01  0.29238634896E+02  0.00000000000E+00 0. -1.
</event>
<event>
 7    1  0.6164995E-012  0.5930201E+02  0.7816164E-02  0.1266605E+00
        -11   -1    0    0    0    0  0.00000000000E+00  0.00000000000E+00  0.45593999997E+02  0.45594000000E+02  0.51100000000E-03 0.  1.
         11   -1    0    0    0    0 -0.00000000000E+00 -0.00000000000E+00 -0.45593999997E+02  0.45594000000E+02  0.51100000000E-03 0. -1.
    9900012    2    1    2    0    0  0.76552076294E+01  0.21117463036E+02  0.22631111537E+02  0.59302005295E+02  0.50000111737E+02 0.  0.
         12    1    1    2    0    0 -0.76552076294E+01 -0.21117463036E+02 -0.22631111537E+02  0.31885994705E+02  0.00000000000E+00 0. -1.
         11    1    3    3    0    0 -0.57014550799E+01 -0.88051389676E+01 -0.52350887821E+01  0.11723617918E+02  0.51100000000E-03 0. -1.
        -11    1    3    3    0    0 -0.22598959556E+01  0.19691496628E+02  0.12879489897E+02  0.23637754323E+02  0.51100000000E-03 0.  1.
        -12    1    3    3    0    0  0.15616558665E+02  0.10231105376E+02  0.14986710422E+02  0.23940633054E+02  0.00000000000E+00 0.  1.
</event>
<event>
 7    1  0.6164995E-012  0.5930193E+02  0.7816164E-02  0.1266605E+00
        -11   -1    0    0    0    0  0.00000000000E+00  0.00000000000E+00  0.45593999997E+02  0.45594000000E+02  0.51100000000E-03 0. -1.
         11   -1    0    0    0    0 -0.00000000000E+00 -0.00000000000E+00 -0.45593999997E+02  0.45594000000E+02  0.51100000000E-03 0.  1.
    9900012    2    1    2    0    0 -0.17983558559E+02 -0.29214201775E+01 -0.26168267722E+02  0.59301932355E+02  0.49999978712E+02 0.  0.
         12    1    1    2    0    0  0.17983558559E+02  0.29214201775E+01  0.26168267722E+02  0.31886067645E+02  0.00000000000E+00 0. -1.
         11    1    3    3    0    0 -0.20416614634E+01 -0.18303864377E+01  0.19446947963E+01  0.33616267126E+01  0.51100000000E-03 0.  1.
        -11    1    3    3    0    0 -0.28038581060E+02  0.11947042934E+02 -0.16004732794E+02  0.34424487430E+02  0.51100000000E-03 0. -1.
         12    1    3    3    0    0  0.12096683965E+02 -0.13038076674E+02 -0.12108229724E+02  0.21515818213E+02  0.00000000000E+00 0. -1.
</event>
<event>
 7    1  0.6164995E-012  0.5930233E+02  0.7816164E-02  0.1266603E+00
        -11   -1    0    0    0    0  0.00000000000E+00  0.00000000000E+00  0.45593999997E+02  0.45594000000E+02  0.51100000000E-03 0.  1.
         11   -1    0    0    0    0 -0.00000000000E+00 -0.00000000000E+00 -0.45593999997E+02  0.45594000000E+02  0.51100000000E-03 0. -1.
    9900012    2    1    2    0    0 -0.25023532956E+02 -0.10192120255E+02  0.16930438479E+02  0.59302325098E+02  0.50000694976E+02 0.  0.
         12    1    1    2    0    0  0.25023532956E+02  0.10192120255E+02 -0.16930438479E+02  0.31885674902E+02  0.00000000000E+00 0. -1.
         11    1    3    3    0    0 -0.15795376983E+02 -0.11439893843E+02 -0.70254246547E+01  0.20729729786E+02  0.51100000000E-03 0. -1.
        -11    1    3    3    0    0 -0.12525096172E+01 -0.13371073631E+02  0.88042161910E+01  0.16058287997E+02  0.51100000000E-03 0.  1.
        -12    1    3    3    0    0 -0.79756463560E+01  0.14618847219E+02  0.15151646942E+02  0.22514307315E+02  0.00000000000E+00 0.  1.
</event>
<event>
 7    1  0.6164995E-012  0.5930194E+02  0.7816164E-02  0.1266605E+00
        -11   -1    0    0    0    0  0.00000000000E+00  0.00000000000E+00  0.45593999997E+02  0.45594000000E+02  0.51100000000E-03 0. -1.
         11   -1    0    0    0    0 -0.00000000000E+00 -0.00000000000E+00 -0.45593999997E+02  0.45594000000E+02  0.51100000000E-03 0.  1.
    9900012    2    1    2    0    0 -0.25090315522E+02 -0.10335740551E+02 -0.16744232301E+02  0.59301940646E+02  0.49999993833E+02 0.  0.
         12    1    1    2    0    0  0.25090315522E+02  0.10335740551E+02  0.16744232301E+02  0.31886059354E+02  0.00000000000E+00 0. -1.
         11    1    3    3    0    0  0.35741160316E+01  0.11469901061E+02 -0.44410028457E+01  0.12808412950E+02  0.51100000000E-03 0. -1.
        -11    1    3    3    0    0  0.42759139459E+01 -0.65624673381E+01  0.86975413716E+00  0.78807290371E+01  0.51100000000E-03 0.  1.
        -12    1    3    3    0    0 -0.32940345500E+02 -0.15243174274E+02 -0.13172983593E+02  0.38612798660E+02  0.00000000000E+00 0.  1.
</event>
<event>
 7    1  0.6164995E-012  0.5930195E+02  0.7816164E-02  0.1266605E+00
        -11   -1    0    0    0    0  0.00000000000E+00  0.00000000000E+00  0.45593999997E+02  0.45594000000E+02  0.51100000000E-03 0.  1.
         11   -1    0    0    0    0 -0.00000000000E+00 -0.00000000000E+00 -0.45593999997E+02  0.45594000000E+02  0.51100000000E-03 0. -1.
    9900012    2    1    2    0    0 -0.19761829554E+02 -0.16186333627E+02  0.19083841224E+02  0.59301948199E+02  0.50000007607E+02 0.  0.
         12    1    1    2    0    0  0.19761829554E+02  0.16186333627E+02 -0.19083841224E+02  0.31886051801E+02  0.00000000000E+00 0. -1.
         11    1    3    3    0    0 -0.47736587856E+01  0.73641152570E+01 -0.86325300345E+01  0.12310101006E+02  0.51100000000E-03 0. -1.
        -11    1    3    3    0    0  0.51939958922E+01  0.12304201555E+01  0.12157433779E+01  0.54744460276E+01  0.51100000000E-03 0.  1.
        -12    1    3    3    0    0 -0.20182166660E+02 -0.24780869039E+02  0.26500627881E+02  0.41517401165E+02  0.00000000000E+00 0.  1.
</event>
<event>
 7    1  0.6164995E-012  0.5930196E+02  0.7816164E-02  0.1266605E+00
        -11   -1    0    0    0    0  0.00000000000E+00  0.00000000000E+00  0.45593999997E+02  0.45594000000E+02  0.51100000000E-03 0.  1.
         11   -1    0    0    0    0 -0.00000000000E+00 -0.00000000000E+00 -0.45593999997E+02  0.45594000000E+02  0.51100000000E-03 0. -1.
    9900012    2    1    2    0    0  0.80642196157E+00 -0.99030687810E+01  0.30298491336E+02  0.59301958149E+02  0.50000025754E+02 0.  0.
         12    1    1    2    0    0 -0.80642196157E+00  0.99030687810E+01 -0.30298491336E+02  0.31886041851E+02  0.00000000000E+00 0. -1.
         11    1    3    3    0    0  0.11956174438E+01 -0.24963541605E+02  0.87117729626E+01  0.26467015301E+02  0.51100000000E-03 0. -1.
        -11    1    3    3    0    0 -0.32232115813E+01 -0.38319852574E+00 -0.24898675108E+01  0.40908892053E+01  0.51100000000E-03 0.  1.
        -12    1    3    3    0    0  0.28340160991E+01  0.15443671349E+02  0.24076585884E+02  0.28744053643E+02  0.00000000000E+00 0.  1.
</event>
<event>
 7    1  0.6164995E-012  0.5930196E+02  0.7816164E-02  0.1266605E+00
        -11   -1    0    0    0    0  0.00000000000E+00  0.00000000000E+00  0.45593999997E+02  0.45594000000E+02  0.51100000000E-03 0.  1.
         11   -1    0    0    0    0 -0.00000000000E+00 -0.00000000000E+00 -0.45593999997E+02  0.45594000000E+02  0.51100000000E-03 0. -1.
    9900012    2    1    2    0    0 -0.36211954760E+01  0.17234527508E+02  0.26581528462E+02  0.59301958376E+02  0.50000026167E+02 0.  0.
         12    1    1    2    0    0  0.36211954760E+01 -0.17234527508E+02 -0.26581528462E+02  0.31886041624E+02  0.00000000000E+00 0. -1.
         11    1    3    3    0    0 -0.58519993996E+01 -0.75710567056E+01 -0.72474458352E+01  0.12003843885E+02  0.51100000000E-03 0. -1.
        -11    1    3    3    0    0 -0.51713312172E+01 -0.56290107078E+00  0.11794579915E+02  0.12890757922E+02  0.51100000000E-03 0.  1.
         12    1    3    3    0    0  0.74021351409E+01  0.25368485284E+02  0.22034394382E+02  0.34407356569E+02  0.00000000000E+00 0. -1.
</event>
<event>
 7    1  0.6164995E-012  0.5930195E+02  0.7816164E-02  0.1266605E+00
        -11   -1    0    0    0    0  0.00000000000E+00  0.00000000000E+00  0.45593999997E+02  0.45594000000E+02  0.51100000000E-03 0. -1.
         11   -1    0    0    0    0 -0.00000000000E+00 -0.00000000000E+00 -0.45593999997E+02  0.45594000000E+02  0.51100000000E-03 0.  1.
    9900012    2    1    2    0    0 -0.28769987122E+02 -0.23185089830E+01 -0.13551119167E+02  0.59301945468E+02  0.50000002627E+02 0.  0.
         12    1    1    2    0    0  0.28769987122E+02  0.23185089830E+01  0.13551119167E+02  0.31886054532E+02  0.00000000000E+00 0. -1.
         11    1    3    3    0    0  0.11415778501E+02  0.28554129200E+01  0.51575399858E+01  0.12848097162E+02  0.51100000000E-03 0. -1.
        -11    1    3    3    0    0 -0.22178026090E+01 -0.37571501165E+01 -0.74179218621E+00  0.44255035103E+01  0.51100000000E-03 0.  1.
         12    1    3    3    0    0 -0.37967963014E+02 -0.14167717864E+01 -0.17966866967E+02  0.42028344796E+02  0.00000000000E+00 0. -1.
</event>
<event>
 7    1  0.6164995E-012  0.5930198E+02  0.7816164E-02  0.1266605E+00
        -11   -1    0    0    0    0  0.00000000000E+00  0.00000000000E+00  0.45593999997E+02  0.45594000000E+02  0.51100000000E-03 0.  1.
         11   -1    0    0    0    0 -0.00000000000E+00 -0.00000000000E+00 -0.45593999997E+02  0.45594000000E+02  0.51100000000E-03 0. -1.
    9900012    2    1    2    0    0  0.23462839387E+02 -0.20844770631E+02  0.56310993191E+01  0.59301975250E+02  0.50000056943E+02 0.  0.
         12    1    1    2    0    0 -0.23462839387E+02  0.20844770631E+02 -0.56310993191E+01  0.31886024750E+02  0.00000000000E+00 0. -1.
         11    1    3    3    0    0 -0.87252594284E+01 -0.88481320440E+01 -0.87663940066E+01  0.15207539476E+02  0.51100000000E-03 0. -1.
        -11    1    3    3    0    0 -0.35369002107E+01  0.11830252477E+00  0.31296938319E+01  0.47242610354E+01  0.51100000000E-03 0.  1.
        -12    1    3    3    0    0  0.35724999026E+02 -0.12114941112E+02  0.11267799494E+02  0.39370174739E+02  0.00000000000E+00 0.  1.
</event>
<event>
 7    1  0.6164995E-012  0.5930195E+02  0.7816164E-02  0.1266605E+00
        -11   -1    0    0    0    0  0.00000000000E+00  0.00000000000E+00  0.45593999997E+02  0.45594000000E+02  0.51100000000E-03 0. -1.
         11   -1    0    0    0    0 -0.00000000000E+00 -0.00000000000E+00 -0.45593999997E+02  0.45594000000E+02  0.51100000000E-03 0.  1.
    9900012    2    1    2    0    0 -0.38260545278E+01  0.48680111680E+01 -0.31279133733E+02  0.59301946104E+02  0.50000003786E+02 0.  0.
         12    1    1    2    0    0  0.38260545278E+01 -0.48680111680E+01  0.31279133733E+02  0.31886053896E+02  0.00000000000E+00 0. -1.
         11    1    3    3    0    0  0.62512064468E+00 -0.11634006524E+02 -0.66465125840E+01  0.13413314781E+02  0.51100000000E-03 0. -1.
        -11    1    3    3    0    0  0.86533787369E+01 -0.52327431057E+01 -0.16288773562E+02  0.19172550909E+02  0.51100000000E-03 0.  1.
        -12    1    3    3    0    0 -0.13104553909E+02  0.21734760798E+02 -0.83438475873E+01  0.26716080413E+02  0.00000000000E+00 0.  1.
</event>
<event>
 7    1  0.6164995E-012  0.5930199E+02  0.7816164E-02  0.1266605E+00
        -11   -1    0    0    0    0  0.00000000000E+00  0.00000000000E+00  0.45593999997E+02  0.45594000000E+02  0.51100000000E-03 0.  1.
         11   -1    0    0    0    0 -0.00000000000E+00 -0.00000000000E+00 -0.45593999997E+02  0.45594000000E+02  0.51100000000E-03 0. -1.
    9900012    2    1    2    0    0  0.25147215580E+02 -0.12203309779E+02  0.15343216654E+02  0.59301991810E+02  0.50000087144E+02 0.  0.
         12    1    1    2    0    0 -0.25147215580E+02  0.12203309779E+02 -0.15343216654E+02  0.31886008190E+02  0.00000000000E+00 0. -1.
         11    1    3    3    0    0 -0.24781576051E+01 -0.35804642095E+01  0.54086528407E+01  0.69436672504E+01  0.51100000000E-03 0. -1.
        -11    1    3    3    0    0  0.30465316840E+02 -0.20567061234E+02  0.31146303465E+00  0.36759169570E+02  0.51100000000E-03 0.  1.
         12    1    3    3    0    0 -0.28399436554E+01  0.11944215664E+02  0.96231007788E+01  0.15599154990E+02  0.00000000000E+00 0. -1.
</event>
<event>
 7    1  0.6164995E-012  0.5930195E+02  0.7816164E-02  0.1266605E+00
        -11   -1    0    0    0    0  0.00000000000E+00  0.00000000000E+00  0.45593999997E+02  0.45594000000E+02  0.51100000000E-03 0.  1.
         11   -1    0    0    0    0 -0.00000000000E+00 -0.00000000000E+00 -0.45593999997E+02  0.45594000000E+02  0.51100000000E-03 0. -1.
    9900012    2    1    2    0    0  0.36781912423E+01 -0.31410086442E+02  0.40740172000E+01  0.59301949174E+02  0.50000009386E+02 0.  0.
         12    1    1    2    0    0 -0.36781912423E+01  0.31410086442E+02 -0.40740172000E+01  0.31886050826E+02  0.00000000000E+00 0. -1.
         11    1    3    3    0    0  0.16279053766E+02 -0.11120465189E+02 -0.10436194461E+02  0.22306646826E+02  0.51100000000E-03 0. -1.
        -11    1    3    3    0    0 -0.13023825999E+02 -0.69775018219E+01 -0.29179811543E+01  0.15060550773E+02  0.51100000000E-03 0.  1.
        -12    1    3    3    0    0  0.42296347486E+00 -0.13312119431E+02  0.17428192815E+02  0.21934751575E+02  0.00000000000E+00 0.  1.
</event>
<event>
 7    1  0.6164995E-012  0.5930188E+02  0.7816164E-02  0.1266605E+00
        -11   -1    0    0    0    0  0.00000000000E+00  0.00000000000E+00  0.45593999997E+02  0.45594000000E+02  0.51100000000E-03 0.  1.
         11   -1    0    0    0    0 -0.00000000000E+00 -0.00000000000E+00 -0.45593999997E+02  0.45594000000E+02  0.51100000000E-03 0. -1.
    9900012    2    1    2    0    0 -0.22997489591E+02 -0.86680716041E+00  0.22070080909E+02  0.59301884628E+02  0.49999891670E+02 0.  0.
         12    1    1    2    0    0  0.22997489591E+02  0.86680716041E+00 -0.22070080909E+02  0.31886115372E+02  0.00000000000E+00 0. -1.
         11    1    3    3    0    0  0.10193529606E+02 -0.57611429240E+01  0.47442520631E+01  0.12633556171E+02  0.51100000000E-03 0. -1.
        -11    1    3    3    0    0 -0.24725726251E+01 -0.34652903173E+01 -0.58896226759E+01  0.72670150609E+01  0.51100000000E-03 0.  1.
        -12    1    3    3    0    0 -0.30718446572E+02  0.83596260809E+01  0.23215451522E+02  0.39401313397E+02  0.00000000000E+00 0.  1.
</event>
<event>
 7    1  0.6164995E-012  0.5930195E+02  0.7816164E-02  0.1266605E+00
        -11   -1    0    0    0    0  0.00000000000E+00  0.00000000000E+00  0.45593999997E+02  0.45594000000E+02  0.51100000000E-03 0.  1.
         11   -1    0    0    0    0 -0.00000000000E+00 -0.00000000000E+00 -0.45593999997E+02  0.45594000000E+02  0.51100000000E-03 0. -1.
    9900012    2    1    2    0    0  0.28694910702E+02 -0.90611166228E+01  0.10546015098E+02  0.59301950243E+02  0.50000011335E+02 0.  0.
         12    1    1    2    0    0 -0.28694910702E+02  0.90611166228E+01 -0.10546015098E+02  0.31886049757E+02  0.00000000000E+00 0. -1.
         11    1    3    3    0    0  0.92356055838E+01  0.87596723170E+01  0.27168552184E+01  0.13015743242E+02  0.51100000000E-03 0. -1.
        -11    1    3    3    0    0  0.10421830680E+01  0.12359480697E+01  0.17872225137E+02  0.17945198377E+02  0.51100000000E-03 0.  1.
        -12    1    3    3    0    0  0.18417122051E+02 -0.19056737010E+02 -0.10043065258E+02  0.28341008624E+02  0.00000000000E+00 0.  1.
</event>
<event>
 7    1  0.6164995E-012  0.5930195E+02  0.7816164E-02  0.1266605E+00
        -11   -1    0    0    0    0  0.00000000000E+00  0.00000000000E+00  0.45593999997E+02  0.45594000000E+02  0.51100000000E-03 0. -1.
         11   -1    0    0    0    0 -0.00000000000E+00 -0.00000000000E+00 -0.45593999997E+02  0.45594000000E+02  0.51100000000E-03 0.  1.
    9900012    2    1    2    0    0 -0.15697333712E+01  0.31802052399E+02 -0.16987832314E+01  0.59301945617E+02  0.50000002899E+02 0.  0.
         12    1    1    2    0    0  0.15697333712E+01 -0.31802052399E+02  0.16987832314E+01  0.31886054383E+02  0.00000000000E+00 0. -1.
         11    1    3    3    0    0  0.49174456666E+01  0.23078585615E+02 -0.46363867536E+01  0.24047837081E+02  0.51100000000E-03 0. -1.
        -11    1    3    3    0    0 -0.13245493272E+02  0.13092329162E+02 -0.91361620985E+01  0.20744195165E+02  0.51100000000E-03 0.  1.
         12    1    3    3    0    0  0.67583142340E+01 -0.43688623787E+01  0.12073765621E+02  0.14509913371E+02  0.00000000000E+00 0. -1.
</event>
<event>
 7    1  0.6164995E-012  0.5930196E+02  0.7816164E-02  0.1266605E+00
        -11   -1    0    0    0    0  0.00000000000E+00  0.00000000000E+00  0.45593999997E+02  0.45594000000E+02  0.51100000000E-03 0.  1.
         11   -1    0    0    0    0 -0.00000000000E+00 -0.00000000000E+00 -0.45593999997E+02  0.45594000000E+02  0.51100000000E-03 0. -1.
    9900012    2    1    2    0    0  0.83684852126E+01  0.14832069059E+02 -0.26957337164E+02  0.59301955337E+02  0.50000020625E+02 0.  0.
         12    1    1    2    0    0 -0.83684852126E+01 -0.14832069059E+02  0.26957337164E+02  0.31886044663E+02  0.00000000000E+00 0. -1.
         11    1    3    3    0    0  0.10371731141E+02 -0.65887830544E+01 -0.31797192851E+01  0.12692339579E+02  0.51100000000E-03 0. -1.
        -11    1    3    3    0    0  0.11673994181E+02  0.94828595169E+01  0.19029374350E+01  0.15160077042E+02  0.51100000000E-03 0.  1.
        -12    1    3    3    0    0 -0.13677240110E+02  0.11937992596E+02 -0.25680555314E+02  0.31449538716E+02  0.00000000000E+00 0.  1.
</event>
<event>
 7    1  0.6164995E-012  0.5930195E+02  0.7816164E-02  0.1266605E+00
        -11   -1    0    0    0    0  0.00000000000E+00  0.00000000000E+00  0.45593999997E+02  0.45594000000E+02  0.51100000000E-03 0.  1.
         11   -1    0    0    0    0 -0.00000000000E+00 -0.00000000000E+00 -0.45593999997E+02  0.45594000000E+02  0.51100000000E-03 0. -1.
    9900012    2    1    2    0    0  0.23626931968E+02 -0.71421855525E+01  0.20186073016E+02  0.59301948622E+02  0.50000008378E+02 0.  0.
         12    1    1    2    0    0 -0.23626931968E+02  0.71421855525E+01 -0.20186073016E+02  0.31886051378E+02  0.00000000000E+00 0. -1.
         11    1    3    3    0    0 -0.30249246631E+01 -0.12267121456E+02  0.69146456943E+01  0.14402942872E+02  0.51100000000E-03 0. -1.
        -11    1    3    3    0    0  0.11736858176E+00  0.11892559612E+02 -0.39713109007E+01  0.12538662610E+02  0.51100000000E-03 0.  1.
        -12    1    3    3    0    0  0.26534488050E+02 -0.67676237087E+01  0.17242738222E+02  0.32360343140E+02  0.00000000000E+00 0.  1.
</event>
<event>
 7    1  0.6164995E-012  0.5930197E+02  0.7816164E-02  0.1266605E+00
        -11   -1    0    0    0    0  0.00000000000E+00  0.00000000000E+00  0.45593999997E+02  0.45594000000E+02  0.51100000000E-03 0.  1.
         11   -1    0    0    0    0 -0.00000000000E+00 -0.00000000000E+00 -0.45593999997E+02  0.45594000000E+02  0.51100000000E-03 0. -1.
    9900012    2    1    2    0    0  0.63560046351E+01  0.21603094608E+02 -0.22574911732E+02  0.59301966517E+02  0.50000041015E+02 0.  0.
         12    1    1    2    0    0 -0.63560046351E+01 -0.21603094608E+02  0.22574911732E+02  0.31886033483E+02  0.00000000000E+00 0. -1.
         11    1    3    3    0    0  0.72828895589E+01  0.32605830885E+00 -0.33820370946E+01  0.80364774322E+01  0.51100000000E-03 0. -1.
        -11    1    3    3    0    0  0.11230835190E+02  0.11882797464E+02  0.93610050093E+01  0.18840407365E+02  0.51100000000E-03 0.  1.
         12    1    3    3    0    0 -0.12157720113E+02  0.93942388346E+01 -0.28553879647E+02  0.32425081720E+02  0.00000000000E+00 0. -1.
</event>
<event>
 7    1  0.6164995E-012  0.5930189E+02  0.7816164E-02  0.1266605E+00
        -11   -1    0    0    0    0  0.00000000000E+00  0.00000000000E+00  0.45593999997E+02  0.45594000000E+02  0.51100000000E-03 0. -1.
         11   -1    0    0    0    0 -0.00000000000E+00 -0.00000000000E+00 -0.45593999997E+02  0.45594000000E+02  0.51100000000E-03 0.  1.
    9900012    2    1    2    0    0  0.13965465023E+02  0.27389685633E+02 -0.84554610401E+01  0.59301891523E+02  0.49999904245E+02 0.  0.
         12    1    1    2    0    0 -0.13965465023E+02 -0.27389685633E+02  0.84554610401E+01  0.31886108477E+02  0.00000000000E+00 0. -1.
         11    1    3    3    0    0  0.71247724895E+01 -0.10964386397E+02 -0.24203413873E+01  0.13298052669E+02  0.51100000000E-03 0. -1.
        -11    1    3    3    0    0 -0.15523214564E+01  0.79098712018E+01 -0.11409661475E+02  0.13969829619E+02  0.51100000000E-03 0.  1.
         12    1    3    3    0    0  0.83930139903E+01  0.30444200828E+02  0.53745418226E+01  0.32034009236E+02  0.00000000000E+00 0. -1.
</event>
<event>
 7    1  0.6164995E-012  0.5930194E+02  0.7816164E-02  0.1266605E+00
        -11   -1    0    0    0    0  0.00000000000E+00  0.00000000000E+00  0.45593999997E+02  0.45594000000E+02  0.51100000000E-03 0.  1.
         11   -1    0    0    0    0 -0.00000000000E+00 -0.00000000000E+00 -0.45593999997E+02  0.45594000000E+02  0.51100000000E-03 0. -1.
    9900012    2    1    2    0    0 -0.18017094647E+02  0.19158000725E+02  0.18029861477E+02  0.59301943546E+02  0.49999999122E+02 0.  0.
         12    1    1    2    0    0  0.18017094647E+02 -0.19158000725E+02 -0.18029861477E+02  0.31886056454E+02  0.00000000000E+00 0. -1.
         11    1    3    3    0    0  0.92760179104E+01  0.83365259478E+01 -0.45439590995E+01  0.13273648244E+02  0.51100000000E-03 0. -1.
        -11    1    3    3    0    0 -0.67846903361E+01  0.14744039294E+02  0.13992762822E+01  0.16290386491E+02  0.51100000000E-03 0.  1.
        -12    1    3    3    0    0 -0.20508422221E+02 -0.39225645170E+01  0.21174544294E+02  0.29737908811E+02  0.00000000000E+00 0.  1.
</event>
<event>
 7    1  0.6164995E-012  0.5930194E+02  0.7816164E-02  0.1266605E+00
        -11   -1    0    0    0    0  0.00000000000E+00  0.00000000000E+00  0.45593999997E+02  0.45594000000E+02  0.51100000000E-03 0. -1.
         11   -1    0    0    0    0 -0.00000000000E+00 -0.00000000000E+00 -0.45593999997E+02  0.45594000000E+02  0.51100000000E-03 0.  1.
    9900012    2    1    2    0    0  0.27057797375E+02 -0.15229060697E+02 -0.72575399121E+01  0.59301943893E+02  0.49999999754E+02 0.  0.
         12    1    1    2    0    0 -0.27057797375E+02  0.15229060697E+02  0.72575399121E+01  0.31886056107E+02  0.00000000000E+00 0. -1.
         11    1    3    3    0    0  0.12013253573E+02 -0.44895996620E+01  0.73572283481E+01  0.14785248586E+02  0.51100000000E-03 0. -1.
        -11    1    3    3    0    0  0.17232156885E+02 -0.21794501079E+02 -0.23845736743E+01  0.27886084344E+02  0.51100000000E-03 0.  1.
         12    1    3    3    0    0 -0.21876130836E+01  0.11055040043E+02 -0.12230194586E+02  0.16630610962E+02  0.00000000000E+00 0. -1.
</event>
<event>
 7    1  0.6164995E-012  0.5930188E+02  0.7816164E-02  0.1266605E+00
        -11   -1    0    0    0    0  0.00000000000E+00  0.00000000000E+00  0.45593999997E+02  0.45594000000E+02  0.51100000000E-03 0. -1.
         11   -1    0    0    0    0 -0.00000000000E+00 -0.00000000000E+00 -0.45593999997E+02  0.45594000000E+02  0.51100000000E-03 0.  1.
    9900012    2    1    2    0    0 -0.20003007943E+02 -0.21575628673E+02 -0.12292122218E+02  0.59301884714E+02  0.49999891826E+02 0.  0.
         12    1    1    2    0    0  0.20003007943E+02  0.21575628673E+02  0.12292122218E+02  0.31886115286E+02  0.00000000000E+00 0. -1.
         11    1    3    3    0    0  0.59871558195E+01 -0.11708507998E+02 -0.14411637549E+02  0.19509753751E+02  0.51100000000E-03 0. -1.
        -11    1    3    3    0    0 -0.35504691636E+00 -0.87226977836E+01 -0.83477223543E+01  0.12078740982E+02  0.51100000000E-03 0.  1.
        -12    1    3    3    0    0 -0.25635116846E+02 -0.11444228919E+01  0.10467237686E+02  0.27713389981E+02  0.00000000000E+00 0.  1.
</event>
<event>
 7    1  0.6164995E-012  0.5930196E+02  0.7816164E-02  0.1266605E+00
        -11   -1    0    0    0    0  0.00000000000E+00  0.00000000000E+00  0.45593999997E+02  0.45594000000E+02  0.51100000000E-03 0.  1.
         11   -1    0    0    0    0 -0.00000000000E+00 -0.00000000000E+00 -0.45593999997E+02  0.45594000000E+02  0.51100000000E-03 0. -1.
    9900012    2    1    2    0    0  0.73731153466E+01  0.24384352533E+02  0.19177071625E+02  0.59301959881E+02  0.50000028913E+02 0.  0.
         12    1    1    2    0    0 -0.73731153466E+01 -0.24384352533E+02 -0.19177071625E+02  0.31886040119E+02  0.00000000000E+00 0. -1.
         11    1    3    3    0    0  0.64195259590E+01 -0.79389775005E+01  0.91931831010E+00  0.10250991352E+02  0.51100000000E-03 0. -1.
        -11    1    3    3    0    0  0.65268276330E+01  0.19602592052E+00 -0.56366722099E+01  0.86261218966E+01  0.51100000000E-03 0.  1.
        -12    1    3    3    0    0 -0.55732382453E+01  0.32127304113E+02  0.23894425524E+02  0.40424846632E+02  0.00000000000E+00 0.  1.
</event>
<event>
 7    1  0.6164995E-012  0.5930197E+02  0.7816164E-02  0.1266605E+00
        -11   -1    0    0    0    0  0.00000000000E+00  0.00000000000E+00  0.45593999997E+02  0.45594000000E+02  0.51100000000E-03 0.  1.
         11   -1    0    0    0    0 -0.00000000000E+00 -0.00000000000E+00 -0.45593999997E+02  0.45594000000E+02  0.51100000000E-03 0. -1.
    9900012    2    1    2    0    0 -0.25182491150E+02  0.15771766454E+02  0.11567732444E+02  0.59301969963E+02  0.50000047300E+02 0.  0.
         12    1    1    2    0    0  0.25182491150E+02 -0.15771766454E+02 -0.11567732444E+02  0.31886030037E+02  0.00000000000E+00 0. -1.
         11    1    3    3    0    0 -0.31408245665E+02  0.20056635919E+02 -0.19216235256E+01  0.37315401343E+02  0.51100000000E-03 0. -1.
        -11    1    3    3    0    0 -0.44791219468E+01  0.19959179311E+01  0.45659274325E+01  0.67002921863E+01  0.51100000000E-03 0.  1.
         12    1    3    3    0    0  0.10704876462E+02 -0.62807873953E+01  0.89234285372E+01  0.15286276434E+02  0.00000000000E+00 0. -1.
</event>
<event>
 7    1  0.6164995E-012  0.5930196E+02  0.7816164E-02  0.1266605E+00
        -11   -1    0    0    0    0  0.00000000000E+00  0.00000000000E+00  0.45593999997E+02  0.45594000000E+02  0.51100000000E-03 0. -1.
         11   -1    0    0    0    0 -0.00000000000E+00 -0.00000000000E+00 -0.45593999997E+02  0.45594000000E+02  0.51100000000E-03 0.  1.
    9900012    2    1    2    0    0  0.28234207856E+02 -0.10148474869E+02  0.10796187794E+02  0.59301957500E+02  0.50000024571E+02 0.  0.
         12    1    1    2    0    0 -0.28234207856E+02  0.10148474869E+02 -0.10796187794E+02  0.31886042500E+02  0.00000000000E+00 0. -1.
         11    1    3    3    0    0  0.88384688476E+01 -0.61199877049E+01 -0.53505647239E+01  0.12008385579E+02  0.51100000000E-03 0. -1.
        -11    1    3    3    0    0  0.29490406225E+02  0.57526105276E+01  0.81931840459E+01  0.31143295462E+02  0.51100000000E-03 0.  1.
         12    1    3    3    0    0 -0.10094667217E+02 -0.97810976921E+01  0.79535684721E+01  0.16150276459E+02  0.00000000000E+00 0. -1.
</event>
<event>
 7    1  0.6164995E-012  0.5930196E+02  0.7816164E-02  0.1266605E+00
        -11   -1    0    0    0    0  0.00000000000E+00  0.00000000000E+00  0.45593999997E+02  0.45594000000E+02  0.51100000000E-03 0.  1.
         11   -1    0    0    0    0 -0.00000000000E+00 -0.00000000000E+00 -0.45593999997E+02  0.45594000000E+02  0.51100000000E-03 0. -1.
    9900012    2    1    2    0    0 -0.27580647363E+02 -0.49072146107E+01  0.15229795164E+02  0.59301960344E+02  0.50000029757E+02 0.  0.
         12    1    1    2    0    0  0.27580647363E+02  0.49072146107E+01 -0.15229795164E+02  0.31886039656E+02  0.00000000000E+00 0. -1.
         11    1    3    3    0    0 -0.12715508315E+02  0.69844722774E+00  0.85974063002E+01  0.15365135065E+02  0.51100000000E-03 0. -1.
        -11    1    3    3    0    0 -0.25760869316E+02 -0.14200850528E+02  0.28542787816E+01  0.29553907547E+02  0.51100000000E-03 0.  1.
         12    1    3    3    0    0  0.10895730268E+02  0.85951886899E+01  0.37781100824E+01  0.14382917732E+02  0.00000000000E+00 0. -1.
</event>
<event>
 7    1  0.6164995E-012  0.5930195E+02  0.7816164E-02  0.1266605E+00
        -11   -1    0    0    0    0  0.00000000000E+00  0.00000000000E+00  0.45593999997E+02  0.45594000000E+02  0.51100000000E-03 0.  1.
         11   -1    0    0    0    0 -0.00000000000E+00 -0.00000000000E+00 -0.45593999997E+02  0.45594000000E+02  0.51100000000E-03 0. -1.
    9900012    2    1    2    0    0 -0.50337931794E+01 -0.25419814840E+02  0.18579946975E+02  0.59301945213E+02  0.50000002162E+02 0.  0.
         12    1    1    2    0    0  0.50337931794E+01  0.25419814840E+02 -0.18579946975E+02  0.31886054787E+02  0.00000000000E+00 0. -1.
         11    1    3    3    0    0 -0.31619159747E+01 -0.10456509904E+02  0.36789895271E+01  0.11526980359E+02  0.51100000000E-03 0. -1.
        -11    1    3    3    0    0 -0.19920509207E+02 -0.13588706826E+02  0.17070411360E+02  0.29544518688E+02  0.51100000000E-03 0.  1.
         12    1    3    3    0    0  0.18048632002E+02 -0.13745981105E+01 -0.21694539128E+01  0.18230446166E+02  0.00000000000E+00 0. -1.
</event>
<event>
 7    1  0.6164995E-012  0.5930194E+02  0.7816164E-02  0.1266605E+00
        -11   -1    0    0    0    0  0.00000000000E+00  0.00000000000E+00  0.45593999997E+02  0.45594000000E+02  0.51100000000E-03 0.  1.
         11   -1    0    0    0    0 -0.00000000000E+00 -0.00000000000E+00 -0.45593999997E+02  0.45594000000E+02  0.51100000000E-03 0. -1.
    9900012    2    1    2    0    0  0.16635023510E+02  0.12800894678E+02  0.24002783640E+02  0.59301944518E+02  0.50000000894E+02 0.  0.
         12    1    1    2    0    0 -0.16635023510E+02 -0.12800894678E+02 -0.24002783640E+02  0.31886055482E+02  0.00000000000E+00 0. -1.
         11    1    3    3    0    0  0.32327209404E-01  0.42750348737E+01  0.91282099632E+01  0.10079741346E+02  0.51100000000E-03 0. -1.
        -11    1    3    3    0    0  0.16933594051E+02 -0.15717539956E+01  0.27938497210E+02  0.32707440205E+02  0.51100000000E-03 0.  1.
         12    1    3    3    0    0 -0.33089775056E+00  0.10097613800E+02 -0.13063923533E+02  0.16514762967E+02  0.00000000000E+00 0. -1.
</event>
<event>
 7    1  0.6164995E-012  0.5930194E+02  0.7816164E-02  0.1266605E+00
        -11   -1    0    0    0    0  0.00000000000E+00  0.00000000000E+00  0.45593999997E+02  0.45594000000E+02  0.51100000000E-03 0.  1.
         11   -1    0    0    0    0 -0.00000000000E+00 -0.00000000000E+00 -0.45593999997E+02  0.45594000000E+02  0.51100000000E-03 0. -1.
    9900012    2    1    2    0    0 -0.12721634927E+02 -0.33276056940E+01  0.29048375392E+02  0.59301936151E+02  0.49999985634E+02 0.  0.
         12    1    1    2    0    0  0.12721634927E+02  0.33276056940E+01 -0.29048375392E+02  0.31886063849E+02  0.00000000000E+00 0. -1.
         11    1    3    3    0    0 -0.12746662657E+02 -0.55414071491E+01  0.12714776306E+02  0.18837466359E+02  0.51100000000E-03 0. -1.
        -11    1    3    3    0    0 -0.13899046326E+02  0.96510193940E+01 -0.10863932372E+01  0.16955999370E+02  0.51100000000E-03 0.  1.
         12    1    3    3    0    0  0.13924074056E+02 -0.74372179389E+01  0.17419992324E+02  0.23508470421E+02  0.00000000000E+00 0. -1.
</event>
<event>
 7    1  0.6164995E-012  0.5930196E+02  0.7816164E-02  0.1266605E+00
        -11   -1    0    0    0    0  0.00000000000E+00  0.00000000000E+00  0.45593999997E+02  0.45594000000E+02  0.51100000000E-03 0. -1.
         11   -1    0    0    0    0 -0.00000000000E+00 -0.00000000000E+00 -0.45593999997E+02  0.45594000000E+02  0.51100000000E-03 0.  1.
    9900012    2    1    2    0    0  0.23567295327E+02 -0.64474473674E+01 -0.20487380156E+02  0.59301957094E+02  0.50000023830E+02 0.  0.
         12    1    1    2    0    0 -0.23567295327E+02  0.64474473674E+01  0.20487380156E+02  0.31886042906E+02  0.00000000000E+00 0. -1.
         11    1    3    3    0    0 -0.14299709872E+01 -0.33037754497E+01 -0.19320827632E+02  0.19653349076E+02  0.51100000000E-03 0. -1.
        -11    1    3    3    0    0  0.88674878934E+01 -0.45617669727E+01 -0.15228420582E+02  0.18202935289E+02  0.51100000000E-03 0.  1.
         12    1    3    3    0    0  0.16129778420E+02  0.14180950550E+01  0.14061868059E+02  0.21445672729E+02  0.00000000000E+00 0. -1.
</event>
<event>
 7    1  0.6164995E-012  0.5930193E+02  0.7816164E-02  0.1266605E+00
        -11   -1    0    0    0    0  0.00000000000E+00  0.00000000000E+00  0.45593999997E+02  0.45594000000E+02  0.51100000000E-03 0. -1.
         11   -1    0    0    0    0 -0.00000000000E+00 -0.00000000000E+00 -0.45593999997E+02  0.45594000000E+02  0.51100000000E-03 0.  1.
    9900012    2    1    2    0    0 -0.25989232179E+02  0.64482889436E+01 -0.17311863318E+02  0.59301933590E+02  0.49999980965E+02 0.  0.
         12    1    1    2    0    0  0.25989232179E+02 -0.64482889436E+01  0.17311863318E+02  0.31886066410E+02  0.00000000000E+00 0. -1.
         11    1    3    3    0    0  0.13425680240E+01  0.40133535404E+01 -0.28214501188E+01  0.50862635179E+01  0.51100000000E-03 0. -1.
        -11    1    3    3    0    0 -0.36243099115E+01 -0.28570224274E+01 -0.26653220707E+02  0.27049812824E+02  0.51100000000E-03 0.  1.
         12    1    3    3    0    0 -0.23707490291E+02  0.52919578305E+01  0.12162807508E+02  0.27165857248E+02  0.00000000000E+00 0. -1.
</event>
<event>
 7    1  0.6164995E-012  0.5930192E+02  0.7816164E-02  0.1266605E+00
        -11   -1    0    0    0    0  0.00000000000E+00  0.00000000000E+00  0.45593999997E+02  0.45594000000E+02  0.51100000000E-03 0.  1.
         11   -1    0    0    0    0 -0.00000000000E+00 -0.00000000000E+00 -0.45593999997E+02  0.45594000000E+02  0.51100000000E-03 0. -1.
    9900012    2    1    2    0    0  0.52305714633E+01  0.25172286779E+02  0.18860523780E+02  0.59301917507E+02  0.49999951632E+02 0.  0.
         12    1    1    2    0    0 -0.52305714633E+01 -0.25172286779E+02 -0.18860523780E+02  0.31886082493E+02  0.00000000000E+00 0. -1.
         11    1    3    3    0    0 -0.95291748342E+01  0.99256116469E+01 -0.59441397711E+01  0.14988520189E+02  0.51100000000E-03 0. -1.
        -11    1    3    3    0    0  0.12010549500E+01 -0.83561081220E+01  0.17039242604E+01  0.86122258497E+01  0.51100000000E-03 0.  1.
        -12    1    3    3    0    0  0.13558691348E+02  0.23602783254E+02  0.23100739291E+02  0.35701171468E+02  0.00000000000E+00 0.  1.
</event>
<event>
 7    1  0.6164995E-012  0.5930197E+02  0.7816164E-02  0.1266605E+00
        -11   -1    0    0    0    0  0.00000000000E+00  0.00000000000E+00  0.45593999997E+02  0.45594000000E+02  0.51100000000E-03 0.  1.
         11   -1    0    0    0    0 -0.00000000000E+00 -0.00000000000E+00 -0.45593999997E+02  0.45594000000E+02  0.51100000000E-03 0. -1.
    9900012    2    1    2    0    0  0.15564793223E+02  0.24106822974E+02  0.13903865331E+02  0.59301965861E+02  0.50000039819E+02 0.  0.
         12    1    1    2    0    0 -0.15564793223E+02 -0.24106822974E+02 -0.13903865331E+02  0.31886034139E+02  0.00000000000E+00 0. -1.
         11    1    3    3    0    0 -0.36631338318E+01 -0.44846646470E+01  0.28520585230E+01  0.64548434951E+01  0.51100000000E-03 0. -1.
        -11    1    3    3    0    0  0.89378476051E+00  0.79617083937E+01  0.21802379149E+02  0.23227814976E+02  0.51100000000E-03 0.  1.
         12    1    3    3    0    0  0.18334142294E+02  0.20629779227E+02 -0.10750572341E+02  0.29619307390E+02  0.00000000000E+00 0. -1.
</event>
<event>
 7    1  0.6164995E-012  0.5930195E+02  0.7816164E-02  0.1266605E+00
        -11   -1    0    0    0    0  0.00000000000E+00  0.00000000000E+00  0.45593999997E+02  0.45594000000E+02  0.51100000000E-03 0.  1.
         11   -1    0    0    0    0 -0.00000000000E+00 -0.00000000000E+00 -0.45593999997E+02  0.45594000000E+02  0.51100000000E-03 0. -1.
    9900012    2    1    2    0    0 -0.19686293365E+02  0.25083242628E+02 -0.32238601230E-01  0.59301949029E+02  0.50000009121E+02 0.  0.
         12    1    1    2    0    0  0.19686293365E+02 -0.25083242628E+02  0.32238601230E-01  0.31886050971E+02  0.00000000000E+00 0. -1.
         11    1    3    3    0    0  0.17945361720E+01  0.91238316990E+01  0.98012421760E+01  0.13510329877E+02  0.51100000000E-03 0. -1.
        -11    1    3    3    0    0 -0.15285124895E+02  0.89777244250E+01  0.12430077007E+02  0.21650436337E+02  0.51100000000E-03 0.  1.
         12    1    3    3    0    0 -0.61957046419E+01  0.69816865043E+01 -0.22263557785E+02  0.24141182814E+02  0.00000000000E+00 0. -1.
</event>
<event>
 7    1  0.6164995E-012  0.5930195E+02  0.7816164E-02  0.1266605E+00
        -11   -1    0    0    0    0  0.00000000000E+00  0.00000000000E+00  0.45593999997E+02  0.45594000000E+02  0.51100000000E-03 0. -1.
         11   -1    0    0    0    0 -0.00000000000E+00 -0.00000000000E+00 -0.45593999997E+02  0.45594000000E+02  0.51100000000E-03 0.  1.
    9900012    2    1    2    0    0 -0.12121547208E+01 -0.31769803716E+02 -0.24352101086E+01  0.59301952965E+02  0.50000016300E+02 0.  0.
         12    1    1    2    0    0  0.12121547208E+01  0.31769803716E+02  0.24352101086E+01  0.31886047035E+02  0.00000000000E+00 0. -1.
         11    1    3    3    0    0  0.25671865930E+00 -0.12806125006E+01  0.17532065158E+02  0.17580647935E+02  0.51100000000E-03 0. -1.
        -11    1    3    3    0    0 -0.76442117980E+01 -0.13145825792E+02 -0.92517201036E+00  0.15234915598E+02  0.51100000000E-03 0.  1.
        -12    1    3    3    0    0  0.61753384178E+01 -0.17343365424E+02 -0.19042103256E+02  0.26486389433E+02  0.00000000000E+00 0.  1.
</event>
<event>
 7    1  0.6164995E-012  0.5930194E+02  0.7816164E-02  0.1266605E+00
        -11   -1    0    0    0    0  0.00000000000E+00  0.00000000000E+00  0.45593999997E+02  0.45594000000E+02  0.51100000000E-03 0. -1.
         11   -1    0    0    0    0 -0.00000000000E+00 -0.00000000000E+00 -0.45593999997E+02  0.45594000000E+02  0.51100000000E-03 0.  1.
    9900012    2    1    2    0    0  0.13760340473E+02 -0.22617884034E+02 -0.17770916502E+02  0.59301935310E+02  0.49999984100E+02 0.  0.
         12    1    1    2    0    0 -0.13760340473E+02  0.22617884034E+02  0.17770916502E+02  0.31886064690E+02  0.00000000000E+00 0. -1.
         11    1    3    3    0    0 -0.10774756332E+02 -0.21405579570E+02 -0.83140010302E+01  0.25365662304E+02  0.51100000000E-03 0.  1.
        -11    1    3    3    0    0 -0.16088523340E+01  0.50846404703E+01 -0.35410979283E+01  0.64016677002E+01  0.51100000000E-03 0. -1.
        -12    1    3    3    0    0  0.26143949139E+02 -0.62969449344E+01 -0.59158175433E+01  0.27534605305E+02  0.00000000000E+00 0.  1.
</event>
<event>
 7    1  0.6164995E-012  0.5930191E+02  0.7816164E-02  0.1266605E+00
        -11   -1    0    0    0    0  0.00000000000E+00  0.00000000000E+00  0.45593999997E+02  0.45594000000E+02  0.51100000000E-03 0.  1.
         11   -1    0    0    0    0 -0.00000000000E+00 -0.00000000000E+00 -0.45593999997E+02  0.45594000000E+02  0.51100000000E-03 0. -1.
    9900012    2    1    2    0    0 -0.21569518020E+02 -0.13402153562E+02  0.19283698359E+02  0.59301908202E+02  0.49999934663E+02 0.  0.
         12    1    1    2    0    0  0.21569518020E+02  0.13402153562E+02 -0.19283698359E+02  0.31886091798E+02  0.00000000000E+00 0. -1.
         11    1    3    3    0    0 -0.41920579625E+01 -0.25232460316E+02  0.20064797359E+02  0.32509175580E+02  0.51100000000E-03 0. -1.
        -11    1    3    3    0    0 -0.64756032091E+00  0.28181067988E+01 -0.63611626657E+01  0.69875210926E+01  0.51100000000E-03 0.  1.
        -12    1    3    3    0    0 -0.16729899736E+02  0.90121999553E+01  0.55800636657E+01  0.19805211530E+02  0.00000000000E+00 0.  1.
</event>
<event>
 7    1  0.6164995E-012  0.5930197E+02  0.7816164E-02  0.1266605E+00
        -11   -1    0    0    0    0  0.00000000000E+00  0.00000000000E+00  0.45593999997E+02  0.45594000000E+02  0.51100000000E-03 0. -1.
         11   -1    0    0    0    0 -0.00000000000E+00 -0.00000000000E+00 -0.45593999997E+02  0.45594000000E+02  0.51100000000E-03 0.  1.
    9900012    2    1    2    0    0  0.16330007322E+02  0.14173200705E+02 -0.23434385308E+02  0.59301965877E+02  0.50000039847E+02 0.  0.
         12    1    1    2    0    0 -0.16330007322E+02 -0.14173200705E+02  0.23434385308E+02  0.31886034123E+02  0.00000000000E+00 0. -1.
         11    1    3    3    0    0  0.84836551772E+01 -0.79544516829E+01  0.31619754865E+01  0.12051713404E+02  0.51100000000E-03 0. -1.
        -11    1    3    3    0    0 -0.13520774121E+01 -0.76774182680E+01 -0.42432394514E+01  0.88755814397E+01  0.51100000000E-03 0.  1.
        -12    1    3    3    0    0  0.91984295567E+01  0.29805070656E+02 -0.22353121343E+02  0.38374671033E+02  0.00000000000E+00 0.  1.
</event>
<event>
 7    1  0.6164995E-012  0.5930193E+02  0.7816164E-02  0.1266605E+00
        -11   -1    0    0    0    0  0.00000000000E+00  0.00000000000E+00  0.45593999997E+02  0.45594000000E+02  0.51100000000E-03 0.  1.
         11   -1    0    0    0    0 -0.00000000000E+00 -0.00000000000E+00 -0.45593999997E+02  0.45594000000E+02  0.51100000000E-03 0. -1.
    9900012    2    1    2    0    0 -0.79676459603E+01 -0.30037660098E+02 -0.71398103737E+01  0.59301932534E+02  0.49999979038E+02 0.  0.
         12    1    1    2    0    0  0.79676459603E+01  0.30037660098E+02  0.71398103737E+01  0.31886067466E+02  0.00000000000E+00 0. -1.
         11    1    3    3    0    0  0.92335343295E+01 -0.13893702940E+02  0.88074879078E+01  0.18864383931E+02  0.51100000000E-03 0. -1.
        -11    1    3    3    0    0 -0.44999113210E+01  0.26133954362E+01  0.66477739753E+01  0.84422708255E+01  0.51100000000E-03 0.  1.
         12    1    3    3    0    0 -0.12701268969E+02 -0.18757352594E+02 -0.22595072257E+02  0.31995277777E+02  0.00000000000E+00 0. -1.
</event>
<event>
 7    1  0.6164995E-012  0.5930218E+02  0.7816164E-02  0.1266604E+00
        -11   -1    0    0    0    0  0.00000000000E+00  0.00000000000E+00  0.45593999997E+02  0.45594000000E+02  0.51100000000E-03 0.  1.
         11   -1    0    0    0    0 -0.00000000000E+00 -0.00000000000E+00 -0.45593999997E+02  0.45594000000E+02  0.51100000000E-03 0. -1.
    9900012    2    1    2    0    0  0.73974715186E+01  0.23745997784E+01  0.30924811626E+02  0.59302183669E+02  0.50000437047E+02 0.  0.
         12    1    1    2    0    0 -0.73974715186E+01 -0.23745997784E+01 -0.30924811626E+02  0.31885816331E+02  0.00000000000E+00 0. -1.
         11    1    3    3    0    0  0.10368854910E+02  0.12403037919E+02 -0.60495101727E+01  0.17261085579E+02  0.51100000000E-03 0. -1.
        -11    1    3    3    0    0  0.58992894903E+01 -0.72739584104E+01  0.10949947838E+02  0.14408797499E+02  0.51100000000E-03 0.  1.
        -12    1    3    3    0    0 -0.88706728814E+01 -0.27544797302E+01  0.26024373961E+02  0.27632300592E+02  0.00000000000E+00 0.  1.
</event>
<event>
 7    1  0.6164995E-012  0.5930192E+02  0.7816164E-02  0.1266605E+00
        -11   -1    0    0    0    0  0.00000000000E+00  0.00000000000E+00  0.45593999997E+02  0.45594000000E+02  0.51100000000E-03 0. -1.
         11   -1    0    0    0    0 -0.00000000000E+00 -0.00000000000E+00 -0.45593999997E+02  0.45594000000E+02  0.51100000000E-03 0.  1.
    9900012    2    1    2    0    0  0.28441655398E+02  0.20752234291E+01 -0.14264921780E+02  0.59301916712E+02  0.49999950182E+02 0.  0.
         12    1    1    2    0    0 -0.28441655398E+02 -0.20752234291E+01  0.14264921780E+02  0.31886083288E+02  0.00000000000E+00 0. -1.
         11    1    3    3    0    0  0.19190013299E+02  0.13276718066E+02  0.45138149698E+01  0.23767675083E+02  0.51100000000E-03 0. -1.
        -11    1    3    3    0    0  0.67456581360E+01  0.73383989809E+01 -0.12082630240E+02  0.15663523137E+02  0.51100000000E-03 0.  1.
         12    1    3    3    0    0  0.25059839636E+01 -0.18539893618E+02 -0.66961065097E+01  0.19870718492E+02  0.00000000000E+00 0. -1.
</event>
<event>
 7    1  0.6164995E-012  0.5930193E+02  0.7816164E-02  0.1266605E+00
        -11   -1    0    0    0    0  0.00000000000E+00  0.00000000000E+00  0.45593999997E+02  0.45594000000E+02  0.51100000000E-03 0.  1.
         11   -1    0    0    0    0 -0.00000000000E+00 -0.00000000000E+00 -0.45593999997E+02  0.45594000000E+02  0.51100000000E-03 0. -1.
    9900012    2    1    2    0    0 -0.62139862126E+01 -0.80228920328E+01  0.30228145802E+02  0.59301933766E+02  0.49999981285E+02 0.  0.
         12    1    1    2    0    0  0.62139862126E+01  0.80228920328E+01 -0.30228145802E+02  0.31886066234E+02  0.00000000000E+00 0. -1.
         11    1    3    3    0    0  0.86740139267E+01  0.65378226189E+01  0.58316491354E+00  0.10877578948E+02  0.51100000000E-03 0. -1.
        -11    1    3    3    0    0  0.52843714825E+01 -0.11585180214E+02  0.24157895802E+02  0.27308330457E+02  0.51100000000E-03 0.  1.
        -12    1    3    3    0    0 -0.20172371622E+02 -0.29755344379E+01  0.54870850873E+01  0.21116024361E+02  0.00000000000E+00 0.  1.
</event>
<event>
 7    1  0.6164995E-012  0.5930194E+02  0.7816164E-02  0.1266605E+00
        -11   -1    0    0    0    0  0.00000000000E+00  0.00000000000E+00  0.45593999997E+02  0.45594000000E+02  0.51100000000E-03 0. -1.
         11   -1    0    0    0    0 -0.00000000000E+00 -0.00000000000E+00 -0.45593999997E+02  0.45594000000E+02  0.51100000000E-03 0.  1.
    9900012    2    1    2    0    0  0.24390035196E+02 -0.41185939998E+01 -0.20121741737E+02  0.59301935271E+02  0.49999984029E+02 0.  0.
         12    1    1    2    0    0 -0.24390035196E+02  0.41185939998E+01  0.20121741737E+02  0.31886064729E+02  0.00000000000E+00 0. -1.
         11    1    3    3    0    0 -0.13240902774E+01  0.94251118992E+01  0.22017479216E+01  0.97690144614E+01  0.51100000000E-03 0. -1.
        -11    1    3    3    0    0 -0.26470883333E+01 -0.67224635504E+01  0.56084947029E+01  0.91462454551E+01  0.51100000000E-03 0.  1.
        -12    1    3    3    0    0  0.28361213807E+02 -0.68212423486E+01 -0.27931984362E+02  0.40386675354E+02  0.00000000000E+00 0.  1.
</event>
<event>
 7    1  0.6164995E-012  0.5930197E+02  0.7816164E-02  0.1266605E+00
        -11   -1    0    0    0    0  0.00000000000E+00  0.00000000000E+00  0.45593999997E+02  0.45594000000E+02  0.51100000000E-03 0.  1.
         11   -1    0    0    0    0 -0.00000000000E+00 -0.00000000000E+00 -0.45593999997E+02  0.45594000000E+02  0.51100000000E-03 0. -1.
    9900012    2    1    2    0    0 -0.15726775484E+01  0.31658392966E+02 -0.34629154089E+01  0.59301969469E+02  0.50000046399E+02 0.  0.
         12    1    1    2    0    0  0.15726775484E+01 -0.31658392966E+02  0.34629154089E+01  0.31886030531E+02  0.00000000000E+00 0. -1.
         11    1    3    3    0    0 -0.10306492757E+01  0.56187690881E+01 -0.84948983830E+01  0.10236996766E+02  0.51100000000E-03 0. -1.
        -11    1    3    3    0    0 -0.15214352574E+02  0.53377631262E+01  0.14789771014E+02  0.21879341086E+02  0.51100000000E-03 0.  1.
         12    1    3    3    0    0  0.14672324302E+02  0.20701860752E+02 -0.97577880394E+01  0.27185631617E+02  0.00000000000E+00 0. -1.
</event>
<event>
 7    1  0.6164995E-012  0.5930195E+02  0.7816164E-02  0.1266605E+00
        -11   -1    0    0    0    0  0.00000000000E+00  0.00000000000E+00  0.45593999997E+02  0.45594000000E+02  0.51100000000E-03 0.  1.
         11   -1    0    0    0    0 -0.00000000000E+00 -0.00000000000E+00 -0.45593999997E+02  0.45594000000E+02  0.51100000000E-03 0. -1.
    9900012    2    1    2    0    0  0.96717764164E+01 -0.64076935704E+01  0.29700479425E+02  0.59301948597E+02  0.50000008334E+02 0.  0.
         12    1    1    2    0    0 -0.96717764164E+01  0.64076935704E+01 -0.29700479425E+02  0.31886051403E+02  0.00000000000E+00 0. -1.
         11    1    3    3    0    0  0.21342694523E+01 -0.83145207931E+01  0.10162081840E+02  0.13302415935E+02  0.51100000000E-03 0. -1.
        -11    1    3    3    0    0 -0.69021793544E+01  0.17338648604E+02  0.15978342616E+02  0.24567788835E+02  0.51100000000E-03 0.  1.
         12    1    3    3    0    0  0.14439686318E+02 -0.15431821381E+02  0.35600549700E+01  0.21431743828E+02  0.00000000000E+00 0. -1.
</event>
<event>
 7    1  0.6164995E-012  0.5930195E+02  0.7816164E-02  0.1266605E+00
        -11   -1    0    0    0    0  0.00000000000E+00  0.00000000000E+00  0.45593999997E+02  0.45594000000E+02  0.51100000000E-03 0.  1.
         11   -1    0    0    0    0 -0.00000000000E+00 -0.00000000000E+00 -0.45593999997E+02  0.45594000000E+02  0.51100000000E-03 0. -1.
    9900012    2    1    2    0    0  0.36700565842E+01 -0.12145407273E+02  0.29253036532E+02  0.59301946944E+02  0.50000005318E+02 0.  0.
         12    1    1    2    0    0 -0.36700565842E+01  0.12145407273E+02 -0.29253036532E+02  0.31886053056E+02  0.00000000000E+00 0. -1.
         11    1    3    3    0    0 -0.44921109017E+01 -0.14437655983E+02  0.47799115730E+01  0.15857885279E+02  0.51100000000E-03 0. -1.
        -11    1    3    3    0    0  0.93266799499E+01 -0.13221916858E+02  0.22790422283E+01  0.16340137026E+02  0.51100000000E-03 0.  1.
         12    1    3    3    0    0 -0.11645124639E+01  0.15514165568E+02  0.22194082730E+02  0.27103924638E+02  0.00000000000E+00 0. -1.
</event>
<event>
 7    1  0.6164995E-012  0.5930195E+02  0.7816164E-02  0.1266605E+00
        -11   -1    0    0    0    0  0.00000000000E+00  0.00000000000E+00  0.45593999997E+02  0.45594000000E+02  0.51100000000E-03 0.  1.
         11   -1    0    0    0    0 -0.00000000000E+00 -0.00000000000E+00 -0.45593999997E+02  0.45594000000E+02  0.51100000000E-03 0. -1.
    9900012    2    1    2    0    0 -0.81082333225E+01  0.21330532896E+02  0.22270727284E+02  0.59301947015E+02  0.50000005447E+02 0.  0.
         12    1    1    2    0    0  0.81082333225E+01 -0.21330532896E+02 -0.22270727284E+02  0.31886052985E+02  0.00000000000E+00 0. -1.
         11    1    3    3    0    0  0.11187548635E+02  0.70347288056E+01  0.41816537997E+01  0.13861272762E+02  0.51100000000E-03 0. -1.
        -11    1    3    3    0    0 -0.10929506085E+02  0.57416527920E+01 -0.93627317631E+01  0.15494561187E+02  0.51100000000E-03 0.  1.
        -12    1    3    3    0    0 -0.83662758723E+01  0.85541512987E+01  0.27451805247E+02  0.29946113065E+02  0.00000000000E+00 0.  1.
</event>
<event>
 7    1  0.6164995E-012  0.5930202E+02  0.7816164E-02  0.1266604E+00
        -11   -1    0    0    0    0  0.00000000000E+00  0.00000000000E+00  0.45593999997E+02  0.45594000000E+02  0.51100000000E-03 0. -1.
         11   -1    0    0    0    0 -0.00000000000E+00 -0.00000000000E+00 -0.45593999997E+02  0.45594000000E+02  0.51100000000E-03 0.  1.
    9900012    2    1    2    0    0 -0.19782814739E+02  0.22153240488E+02 -0.11601280302E+02  0.59302023023E+02  0.50000144069E+02 0.  0.
         12    1    1    2    0    0  0.19782814739E+02 -0.22153240488E+02  0.11601280302E+02  0.31885976977E+02  0.00000000000E+00 0. -1.
         11    1    3    3    0    0  0.87751368459E+01  0.76025259054E+01 -0.12713108102E+01  0.11679797012E+02  0.51100000000E-03 0. -1.
        -11    1    3    3    0    0 -0.77937571487E+01  0.13429893128E+02 -0.19473553215E+02  0.24906303520E+02  0.51100000000E-03 0.  1.
         12    1    3    3    0    0 -0.20764194436E+02  0.11208214549E+01  0.91435837239E+01  0.22715922491E+02  0.00000000000E+00 0. -1.
</event>
<event>
 7    1  0.6164995E-012  0.5930199E+02  0.7816164E-02  0.1266605E+00
        -11   -1    0    0    0    0  0.00000000000E+00  0.00000000000E+00  0.45593999997E+02  0.45594000000E+02  0.51100000000E-03 0. -1.
         11   -1    0    0    0    0 -0.00000000000E+00 -0.00000000000E+00 -0.45593999997E+02  0.45594000000E+02  0.51100000000E-03 0.  1.
    9900012    2    1    2    0    0  0.98633781792E+01 -0.14521856018E+02 -0.26618545118E+02  0.59301992481E+02  0.50000088366E+02 0.  0.
         12    1    1    2    0    0 -0.98633781792E+01  0.14521856018E+02  0.26618545118E+02  0.31886007519E+02  0.00000000000E+00 0. -1.
         11    1    3    3    0    0  0.11389687963E+02 -0.12781007698E+02 -0.14655138054E+01  0.17182167519E+02  0.51100000000E-03 0. -1.
        -11    1    3    3    0    0  0.10843749206E+02 -0.11305247746E+02 -0.20511205079E+02  0.25809011169E+02  0.51100000000E-03 0.  1.
        -12    1    3    3    0    0 -0.12370058990E+02  0.95643994263E+01 -0.46418262336E+01  0.16310813793E+02  0.00000000000E+00 0.  1.
</event>
<event>
 7    1  0.6164995E-012  0.5930196E+02  0.7816164E-02  0.1266605E+00
        -11   -1    0    0    0    0  0.00000000000E+00  0.00000000000E+00  0.45593999997E+02  0.45594000000E+02  0.51100000000E-03 0. -1.
         11   -1    0    0    0    0 -0.00000000000E+00 -0.00000000000E+00 -0.45593999997E+02  0.45594000000E+02  0.51100000000E-03 0.  1.
    9900012    2    1    2    0    0  0.25063934646E+02 -0.19379619942E+02  0.35985003704E+01  0.59301957694E+02  0.50000024925E+02 0.  0.
         12    1    1    2    0    0 -0.25063934646E+02  0.19379619942E+02 -0.35985003704E+01  0.31886042306E+02  0.00000000000E+00 0. -1.
         11    1    3    3    0    0  0.13945738623E+02 -0.51810294085E+01  0.20845833108E+01  0.15022389267E+02  0.51100000000E-03 0.  1.
        -11    1    3    3    0    0  0.12311381819E+02  0.82198762276E+01  0.12417355986E+02  0.19321677397E+02  0.51100000000E-03 0. -1.
         12    1    3    3    0    0 -0.11931857962E+01 -0.22418466761E+02 -0.10903438926E+02  0.24957891030E+02  0.00000000000E+00 0. -1.
</event>
<event>
 7    1  0.6164995E-012  0.5930195E+02  0.7816164E-02  0.1266605E+00
        -11   -1    0    0    0    0  0.00000000000E+00  0.00000000000E+00  0.45593999997E+02  0.45594000000E+02  0.51100000000E-03 0.  1.
         11   -1    0    0    0    0 -0.00000000000E+00 -0.00000000000E+00 -0.45593999997E+02  0.45594000000E+02  0.51100000000E-03 0. -1.
    9900012    2    1    2    0    0  0.26517461045E+02  0.29999689599E+00 -0.17704650990E+02  0.59301946543E+02  0.50000004587E+02 0.  0.
         12    1    1    2    0    0 -0.26517461045E+02 -0.29999689599E+00  0.17704650990E+02  0.31886053457E+02  0.00000000000E+00 0. -1.
         11    1    3    3    0    0 -0.56690185383E+01  0.32620770316E+00 -0.12984500934E+02  0.14171854058E+02  0.51100000000E-03 0. -1.
        -11    1    3    3    0    0 -0.79814616188E+00  0.90266254177E+01  0.38855545483E+01  0.98597433099E+01  0.51100000000E-03 0.  1.
         12    1    3    3    0    0  0.32984625745E+02 -0.90528362249E+01 -0.86057046037E+01  0.35270349176E+02  0.00000000000E+00 0. -1.
</event>
<event>
 7    1  0.6164995E-012  0.5930195E+02  0.7816164E-02  0.1266605E+00
        -11   -1    0    0    0    0  0.00000000000E+00  0.00000000000E+00  0.45593999997E+02  0.45594000000E+02  0.51100000000E-03 0. -1.
         11   -1    0    0    0    0 -0.00000000000E+00 -0.00000000000E+00 -0.45593999997E+02  0.45594000000E+02  0.51100000000E-03 0.  1.
    9900012    2    1    2    0    0 -0.15940466632E+02  0.57149814577E+01 -0.27017787695E+02  0.59301947540E+02  0.50000006406E+02 0.  0.
         12    1    1    2    0    0  0.15940466632E+02 -0.57149814577E+01  0.27017787695E+02  0.31886052460E+02  0.00000000000E+00 0. -1.
         11    1    3    3    0    0  0.99022219083E+01  0.58257809092E+01  0.31198693064E+01  0.11904927832E+02  0.51100000000E-03 0. -1.
        -11    1    3    3    0    0  0.27000615210E+01 -0.20492502728E+01  0.23378182654E+01  0.41176635852E+01  0.51100000000E-03 0.  1.
        -12    1    3    3    0    0 -0.28542750061E+02  0.19384508213E+01 -0.32475475267E+02  0.43279356124E+02  0.00000000000E+00 0.  1.
</event>
<event>
 7    1  0.6164995E-012  0.5930194E+02  0.7816164E-02  0.1266605E+00
        -11   -1    0    0    0    0  0.00000000000E+00  0.00000000000E+00  0.45593999997E+02  0.45594000000E+02  0.51100000000E-03 0.  1.
         11   -1    0    0    0    0 -0.00000000000E+00 -0.00000000000E+00 -0.45593999997E+02  0.45594000000E+02  0.51100000000E-03 0. -1.
    9900012    2    1    2    0    0 -0.13614243366E+02  0.23506868222E+02 -0.16697310658E+02  0.59301942557E+02  0.49999997318E+02 0.  0.
         12    1    1    2    0    0  0.13614243366E+02 -0.23506868222E+02  0.16697310658E+02  0.31886057443E+02  0.00000000000E+00 0. -1.
         11    1    3    3    0    0 -0.71705692528E+00 -0.19730159938E+01 -0.31964800692E+01  0.38241924429E+01  0.51100000000E-03 0. -1.
        -11    1    3    3    0    0 -0.14749634530E+02  0.35953816743E+02 -0.19270481309E+02  0.43377184179E+02  0.51100000000E-03 0.  1.
         12    1    3    3    0    0  0.18524480900E+01 -0.10473932528E+02  0.57696507197E+01  0.12100565935E+02  0.00000000000E+00 0. -1.
</event>
<event>
 7    1  0.6164995E-012  0.5930196E+02  0.7816164E-02  0.1266605E+00
        -11   -1    0    0    0    0  0.00000000000E+00  0.00000000000E+00  0.45593999997E+02  0.45594000000E+02  0.51100000000E-03 0.  1.
         11   -1    0    0    0    0 -0.00000000000E+00 -0.00000000000E+00 -0.45593999997E+02  0.45594000000E+02  0.51100000000E-03 0. -1.
    9900012    2    1    2    0    0  0.10274981181E+02 -0.20957445610E+02  0.21723942026E+02  0.59301961960E+02  0.50000032704E+02 0.  0.
         12    1    1    2    0    0 -0.10274981181E+02  0.20957445610E+02 -0.21723942026E+02  0.31886038040E+02  0.00000000000E+00 0. -1.
         11    1    3    3    0    0  0.25626037267E+02 -0.64035051352E+01  0.11567623235E+02  0.28835890338E+02  0.51100000000E-03 0. -1.
        -11    1    3    3    0    0  0.19993935617E+01  0.15074284594E+01  0.59447752371E+01  0.64506021467E+01  0.51100000000E-03 0.  1.
         12    1    3    3    0    0 -0.17350449648E+02 -0.16061368934E+02  0.42115435537E+01  0.24015469475E+02  0.00000000000E+00 0. -1.
</event>
<event>
 7    1  0.6164995E-012  0.5930194E+02  0.7816164E-02  0.1266605E+00
        -11   -1    0    0    0    0  0.00000000000E+00  0.00000000000E+00  0.45593999997E+02  0.45594000000E+02  0.51100000000E-03 0.  1.
         11   -1    0    0    0    0 -0.00000000000E+00 -0.00000000000E+00 -0.45593999997E+02  0.45594000000E+02  0.51100000000E-03 0. -1.
    9900012    2    1    2    0    0  0.13063680897E+02  0.72281105511E+01  0.28174735526E+02  0.59301936231E+02  0.49999985780E+02 0.  0.
         12    1    1    2    0    0 -0.13063680897E+02 -0.72281105511E+01 -0.28174735526E+02  0.31886063769E+02  0.00000000000E+00 0. -1.
         11    1    3    3    0    0  0.17735991221E+02 -0.80833695220E+01  0.26233472312E+02  0.32681819368E+02  0.51100000000E-03 0. -1.
        -11    1    3    3    0    0  0.26829533279E+01  0.92654280692E+01  0.10183599416E+02  0.14026834753E+02  0.51100000000E-03 0.  1.
         12    1    3    3    0    0 -0.73552636520E+01  0.60460520039E+01 -0.82423362018E+01  0.12593282109E+02  0.00000000000E+00 0. -1.
</event>
<event>
 7    1  0.6164995E-012  0.5930193E+02  0.7816164E-02  0.1266605E+00
        -11   -1    0    0    0    0  0.00000000000E+00  0.00000000000E+00  0.45593999997E+02  0.45594000000E+02  0.51100000000E-03 0.  1.
         11   -1    0    0    0    0 -0.00000000000E+00 -0.00000000000E+00 -0.45593999997E+02  0.45594000000E+02  0.51100000000E-03 0. -1.
    9900012    2    1    2    0    0 -0.29809585255E+02 -0.91168050292E+01  0.67077663222E+01  0.59301927240E+02  0.49999969384E+02 0.  0.
         12    1    1    2    0    0  0.29809585255E+02  0.91168050292E+01 -0.67077663222E+01  0.31886072760E+02  0.00000000000E+00 0. -1.
         11    1    3    3    0    0  0.78757535881E+01  0.30715969769E+00 -0.58597032775E+00  0.79034930977E+01  0.51100000000E-03 0. -1.
        -11    1    3    3    0    0 -0.22206751126E+02  0.62047640704E+00  0.19263375750E+02  0.29404122706E+02  0.51100000000E-03 0.  1.
         12    1    3    3    0    0 -0.15478587717E+02 -0.10044441134E+02 -0.11969639100E+02  0.21994311437E+02  0.00000000000E+00 0. -1.
</event>
<event>
 7    1  0.6164995E-012  0.5930193E+02  0.7816164E-02  0.1266605E+00
        -11   -1    0    0    0    0  0.00000000000E+00  0.00000000000E+00  0.45593999997E+02  0.45594000000E+02  0.51100000000E-03 0. -1.
         11   -1    0    0    0    0 -0.00000000000E+00 -0.00000000000E+00 -0.45593999997E+02  0.45594000000E+02  0.51100000000E-03 0.  1.
    9900012    2    1    2    0    0 -0.25520830648E+02  0.36954670290E+01  0.18755056400E+02  0.59301930720E+02  0.49999975731E+02 0.  0.
         12    1    1    2    0    0  0.25520830648E+02 -0.36954670290E+01 -0.18755056400E+02  0.31886069280E+02  0.00000000000E+00 0. -1.
         11    1    3    3    0    0 -0.23765378001E+01  0.58171752543E+01 -0.79934200321E+01  0.10167704949E+02  0.51100000000E-03 0. -1.
        -11    1    3    3    0    0 -0.28894865528E+02 -0.54929127807E+01  0.99307187635E+01  0.31043590645E+02  0.51100000000E-03 0.  1.
         12    1    3    3    0    0  0.57505726799E+01  0.33712045554E+01  0.16817757668E+02  0.18090635127E+02  0.00000000000E+00 0. -1.
</event>
<event>
 7    1  0.6164995E-012  0.5930195E+02  0.7816164E-02  0.1266605E+00
        -11   -1    0    0    0    0  0.00000000000E+00  0.00000000000E+00  0.45593999997E+02  0.45594000000E+02  0.51100000000E-03 0.  1.
         11   -1    0    0    0    0 -0.00000000000E+00 -0.00000000000E+00 -0.45593999997E+02  0.45594000000E+02  0.51100000000E-03 0. -1.
    9900012    2    1    2    0    0 -0.28206207544E+02  0.14758449717E+02 -0.18216100973E+01  0.59301949046E+02  0.50000009152E+02 0.  0.
         12    1    1    2    0    0  0.28206207544E+02 -0.14758449717E+02  0.18216100973E+01  0.31886050954E+02  0.00000000000E+00 0. -1.
         11    1    3    3    0    0 -0.29559095279E+02 -0.30031433747E+01 -0.10270103859E+02  0.31436189613E+02  0.51100000000E-03 0. -1.
        -11    1    3    3    0    0 -0.63962565169E+01  0.30088101450E+01  0.86875002254E+01  0.11199897158E+02  0.51100000000E-03 0.  1.
         12    1    3    3    0    0  0.77491442515E+01  0.14752782946E+02 -0.23900646412E+00  0.16665862275E+02  0.00000000000E+00 0. -1.
</event>
<event>
 7    1  0.6164995E-012  0.5930195E+02  0.7816164E-02  0.1266605E+00
        -11   -1    0    0    0    0  0.00000000000E+00  0.00000000000E+00  0.45593999997E+02  0.45594000000E+02  0.51100000000E-03 0. -1.
         11   -1    0    0    0    0 -0.00000000000E+00 -0.00000000000E+00 -0.45593999997E+02  0.45594000000E+02  0.51100000000E-03 0.  1.
    9900012    2    1    2    0    0  0.24715948255E+02 -0.15628390575E+02  0.12712011241E+02  0.59301954150E+02  0.50000018461E+02 0.  0.
         12    1    1    2    0    0 -0.24715948255E+02  0.15628390575E+02 -0.12712011241E+02  0.31886045850E+02  0.00000000000E+00 0. -1.
         11    1    3    3    0    0  0.18090509658E+02 -0.14129274670E+02 -0.28171482112E+01  0.23126592198E+02  0.51100000000E-03 0. -1.
        -11    1    3    3    0    0  0.18319755398E+02 -0.66716923308E+01  0.66178369242E+01  0.20589334186E+02  0.51100000000E-03 0.  1.
         12    1    3    3    0    0 -0.11694316801E+02  0.51725764256E+01  0.89113225283E+01  0.15586027766E+02  0.00000000000E+00 0. -1.
</event>
<event>
 7    1  0.6164995E-012  0.5930198E+02  0.7816164E-02  0.1266605E+00
        -11   -1    0    0    0    0  0.00000000000E+00  0.00000000000E+00  0.45593999997E+02  0.45594000000E+02  0.51100000000E-03 0.  1.
         11   -1    0    0    0    0 -0.00000000000E+00 -0.00000000000E+00 -0.45593999997E+02  0.45594000000E+02  0.51100000000E-03 0. -1.
    9900012    2    1    2    0    0  0.17453469018E+02 -0.12165193281E+02  0.23750847686E+02  0.59301979957E+02  0.50000065527E+02 0.  0.
         12    1    1    2    0    0 -0.17453469018E+02  0.12165193281E+02 -0.23750847686E+02  0.31886020043E+02  0.00000000000E+00 0. -1.
         11    1    3    3    0    0 -0.12459839342E+02 -0.97195984880E+01 -0.34772984715E+01  0.16180537572E+02  0.51100000000E-03 0. -1.
        -11    1    3    3    0    0 -0.14757578288E+00 -0.17049745472E+01  0.61908575753E+01  0.64230393583E+01  0.51100000000E-03 0.  1.
        -12    1    3    3    0    0  0.30060884143E+02 -0.74062024622E+00  0.21037288582E+02  0.36698403027E+02  0.00000000000E+00 0.  1.
</event>
<event>
 7    1  0.6164995E-012  0.5930193E+02  0.7816164E-02  0.1266605E+00
        -11   -1    0    0    0    0  0.00000000000E+00  0.00000000000E+00  0.45593999997E+02  0.45594000000E+02  0.51100000000E-03 0. -1.
         11   -1    0    0    0    0 -0.00000000000E+00 -0.00000000000E+00 -0.45593999997E+02  0.45594000000E+02  0.51100000000E-03 0.  1.
    9900012    2    1    2    0    0  0.25612256501E+02  0.18376197154E+02  0.48009317506E+01  0.59301933284E+02  0.49999980407E+02 0.  0.
         12    1    1    2    0    0 -0.25612256501E+02 -0.18376197154E+02 -0.48009317506E+01  0.31886066716E+02  0.00000000000E+00 0. -1.
         11    1    3    3    0    0  0.81871613853E+01  0.14160841581E+02  0.28085617325E+01  0.16596597998E+02  0.51100000000E-03 0. -1.
        -11    1    3    3    0    0 -0.99200116617E+01  0.45006540624E+01 -0.80799965131E+01  0.13562774874E+02  0.51100000000E-03 0.  1.
         12    1    3    3    0    0  0.27345106777E+02 -0.28529848908E+00  0.10072366531E+02  0.29142560413E+02  0.00000000000E+00 0. -1.
</event>
<event>
 7    1  0.6164995E-012  0.5930194E+02  0.7816164E-02  0.1266605E+00
        -11   -1    0    0    0    0  0.00000000000E+00  0.00000000000E+00  0.45593999997E+02  0.45594000000E+02  0.51100000000E-03 0.  1.
         11   -1    0    0    0    0 -0.00000000000E+00 -0.00000000000E+00 -0.45593999997E+02  0.45594000000E+02  0.51100000000E-03 0. -1.
    9900012    2    1    2    0    0 -0.20009502212E+02 -0.64960144269E+01  0.23961265139E+02  0.59301943341E+02  0.49999998747E+02 0.  0.
         12    1    1    2    0    0  0.20009502212E+02  0.64960144269E+01 -0.23961265139E+02  0.31886056659E+02  0.00000000000E+00 0. -1.
         11    1    3    3    0    0 -0.26873333353E+01  0.48994821339E+01  0.26802191185E+01  0.61976011827E+01  0.51100000000E-03 0. -1.
        -11    1    3    3    0    0  0.13212434482E+02  0.37948344841E+01  0.10624542862E+02  0.17373833917E+02  0.51100000000E-03 0.  1.
        -12    1    3    3    0    0 -0.30534603359E+02 -0.15190331045E+02  0.10656503159E+02  0.35730508240E+02  0.00000000000E+00 0.  1.
</event>
<event>
 7    1  0.6164995E-012  0.5930185E+02  0.7816164E-02  0.1266605E+00
        -11   -1    0    0    0    0  0.00000000000E+00  0.00000000000E+00  0.45593999997E+02  0.45594000000E+02  0.51100000000E-03 0.  1.
         11   -1    0    0    0    0 -0.00000000000E+00 -0.00000000000E+00 -0.45593999997E+02  0.45594000000E+02  0.51100000000E-03 0. -1.
    9900012    2    1    2    0    0 -0.14953487549E+02  0.29777429826E+01  0.28004513426E+02  0.59301850729E+02  0.49999829845E+02 0.  0.
         12    1    1    2    0    0  0.14953487549E+02 -0.29777429826E+01 -0.28004513426E+02  0.31886149271E+02  0.00000000000E+00 0. -1.
         11    1    3    3    0    0 -0.13697239578E+01 -0.41230694602E+01 -0.27242309416E+01  0.51280873606E+01  0.51100000000E-03 0. -1.
        -11    1    3    3    0    0 -0.38316108547E+01 -0.17623889436E+02  0.12211406301E+02  0.21780752161E+02  0.51100000000E-03 0.  1.
         12    1    3    3    0    0 -0.97521527364E+01  0.24724701879E+02  0.18517338067E+02  0.32393011207E+02  0.00000000000E+00 0. -1.
</event>
<event>
 7    1  0.6164995E-012  0.5930194E+02  0.7816164E-02  0.1266605E+00
        -11   -1    0    0    0    0  0.00000000000E+00  0.00000000000E+00  0.45593999997E+02  0.45594000000E+02  0.51100000000E-03 0.  1.
         11   -1    0    0    0    0 -0.00000000000E+00 -0.00000000000E+00 -0.45593999997E+02  0.45594000000E+02  0.51100000000E-03 0. -1.
    9900012    2    1    2    0    0  0.15204509826E+01  0.22569486113E+02  0.22472815941E+02  0.59301938297E+02  0.49999989548E+02 0.  0.
         12    1    1    2    0    0 -0.15204509826E+01 -0.22569486113E+02 -0.22472815941E+02  0.31886061703E+02  0.00000000000E+00 0. -1.
         11    1    3    3    0    0 -0.49445186665E+01  0.23168321259E+02  0.21109125765E+02  0.31730341404E+02  0.51100000000E-03 0. -1.
        -11    1    3    3    0    0 -0.55634734801E+01 -0.94281427384E-01  0.10883545508E+02  0.12223448336E+02  0.51100000000E-03 0.  1.
         12    1    3    3    0    0  0.12028443129E+02 -0.50455371840E+00 -0.95198553315E+01  0.15348148556E+02  0.00000000000E+00 0. -1.
</event>
<event>
 7    1  0.6164995E-012  0.5930194E+02  0.7816164E-02  0.1266605E+00
        -11   -1    0    0    0    0  0.00000000000E+00  0.00000000000E+00  0.45593999997E+02  0.45594000000E+02  0.51100000000E-03 0. -1.
         11   -1    0    0    0    0 -0.00000000000E+00 -0.00000000000E+00 -0.45593999997E+02  0.45594000000E+02  0.51100000000E-03 0.  1.
    9900012    2    1    2    0    0 -0.19912886661E+02  0.23738136088E+02  0.75298602574E+01  0.59301937910E+02  0.49999988843E+02 0.  0.
         12    1    1    2    0    0  0.19912886661E+02 -0.23738136088E+02 -0.75298602574E+01  0.31886062090E+02  0.00000000000E+00 0. -1.
         11    1    3    3    0    0 -0.18997813751E+02  0.12443490292E+02 -0.70269899785E+01  0.23772588551E+02  0.51100000000E-03 0. -1.
        -11    1    3    3    0    0  0.86281111096E+01  0.10841101096E+02 -0.42012052769E+01  0.14478394259E+02  0.51100000000E-03 0.  1.
         12    1    3    3    0    0 -0.95431840190E+01  0.45354469994E+00  0.18758055513E+02  0.21050955100E+02  0.00000000000E+00 0. -1.
</event>
<event>
 7    1  0.6164995E-012  0.5930201E+02  0.7816164E-02  0.1266605E+00
        -11   -1    0    0    0    0  0.00000000000E+00  0.00000000000E+00  0.45593999997E+02  0.45594000000E+02  0.51100000000E-03 0. -1.
         11   -1    0    0    0    0 -0.00000000000E+00 -0.00000000000E+00 -0.45593999997E+02  0.45594000000E+02  0.51100000000E-03 0.  1.
    9900012    2    1    2    0    0 -0.17782969250E+02  0.17737047120E+02 -0.19643809004E+02  0.59302014550E+02  0.50000128616E+02 0.  0.
         12    1    1    2    0    0  0.17782969250E+02 -0.17737047120E+02  0.19643809004E+02  0.31885985450E+02  0.00000000000E+00 0. -1.
         11    1    3    3    0    0  0.18317343933E+01  0.15376596435E+01 -0.63217437322E+01  0.67590008243E+01  0.51100000000E-03 0. -1.
        -11    1    3    3    0    0  0.22081948506E+01  0.26232414202E+02 -0.10566747619E+02  0.28366738178E+02  0.51100000000E-03 0.  1.
        -12    1    3    3    0    0 -0.21822898494E+02 -0.10033026726E+02 -0.27553176534E+01  0.24176275547E+02  0.00000000000E+00 0.  1.
</event>
<event>
 7    1  0.6164995E-012  0.5930199E+02  0.7816164E-02  0.1266605E+00
        -11   -1    0    0    0    0  0.00000000000E+00  0.00000000000E+00  0.45593999997E+02  0.45594000000E+02  0.51100000000E-03 0. -1.
         11   -1    0    0    0    0 -0.00000000000E+00 -0.00000000000E+00 -0.45593999997E+02  0.45594000000E+02  0.51100000000E-03 0.  1.
    9900012    2    1    2    0    0  0.29645768991E+02  0.88870892500E+01 -0.76724059537E+01  0.59301987588E+02  0.50000079444E+02 0.  0.
         12    1    1    2    0    0 -0.29645768991E+02 -0.88870892500E+01  0.76724059537E+01  0.31886012412E+02  0.00000000000E+00 0. -1.
         11    1    3    3    0    0  0.17335471429E+02  0.11059296591E+02  0.92615456625E+01  0.22552224704E+02  0.51100000000E-03 0. -1.
        -11    1    3    3    0    0  0.10959097863E+02 -0.14947511523E+02 -0.49566632928E+01  0.19185891639E+02  0.51100000000E-03 0.  1.
        -12    1    3    3    0    0  0.13511996991E+01  0.12775304182E+02 -0.11977288323E+02  0.17563871246E+02  0.00000000000E+00 0.  1.
</event>
<event>
 7    1  0.6164995E-012  0.5930194E+02  0.7816164E-02  0.1266605E+00
        -11   -1    0    0    0    0  0.00000000000E+00  0.00000000000E+00  0.45593999997E+02  0.45594000000E+02  0.51100000000E-03 0. -1.
         11   -1    0    0    0    0 -0.00000000000E+00 -0.00000000000E+00 -0.45593999997E+02  0.45594000000E+02  0.51100000000E-03 0.  1.
    9900012    2    1    2    0    0 -0.10244253779E+02  0.26222793789E+02 -0.14971351379E+02  0.59301937031E+02  0.49999987239E+02 0.  0.
         12    1    1    2    0    0  0.10244253779E+02 -0.26222793789E+02  0.14971351379E+02  0.31886062969E+02  0.00000000000E+00 0. -1.
         11    1    3    3    0    0  0.17550968444E+00  0.27238081305E+02 -0.14529095524E+02  0.30871321543E+02  0.51100000000E-03 0.  1.
        -11    1    3    3    0    0 -0.99994554932E+01 -0.73528165424E+01 -0.10685636324E+02  0.16377907228E+02  0.51100000000E-03 0. -1.
         12    1    3    3    0    0 -0.42030797023E+00  0.63375290262E+01  0.10243380469E+02  0.12052708259E+02  0.00000000000E+00 0. -1.
</event>
<event>
 7    1  0.6164995E-012  0.5930183E+02  0.7816164E-02  0.1266605E+00
        -11   -1    0    0    0    0  0.00000000000E+00  0.00000000000E+00  0.45593999997E+02  0.45594000000E+02  0.51100000000E-03 0. -1.
         11   -1    0    0    0    0 -0.00000000000E+00 -0.00000000000E+00 -0.45593999997E+02  0.45594000000E+02  0.51100000000E-03 0.  1.
    9900012    2    1    2    0    0  0.22659470101E+02 -0.58229512712E+01 -0.21664930293E+02  0.59301834483E+02  0.49999800217E+02 0.  0.
         12    1    1    2    0    0 -0.22659470101E+02  0.58229512712E+01  0.21664930293E+02  0.31886165517E+02  0.00000000000E+00 0. -1.
         11    1    3    3    0    0 -0.10399285146E+02 -0.32942320398E+01 -0.70354367802E+01  0.12980541870E+02  0.51100000000E-03 0. -1.
        -11    1    3    3    0    0  0.75117656272E+01 -0.10400141256E+02  0.43389315181E+01  0.13543112196E+02  0.51100000000E-03 0.  1.
         12    1    3    3    0    0  0.25546989620E+02  0.78714220244E+01 -0.18968425031E+02  0.32778180417E+02  0.00000000000E+00 0. -1.
</event>
<event>
 7    1  0.6164995E-012  0.5930194E+02  0.7816164E-02  0.1266605E+00
        -11   -1    0    0    0    0  0.00000000000E+00  0.00000000000E+00  0.45593999997E+02  0.45594000000E+02  0.51100000000E-03 0. -1.
         11   -1    0    0    0    0 -0.00000000000E+00 -0.00000000000E+00 -0.45593999997E+02  0.45594000000E+02  0.51100000000E-03 0.  1.
    9900012    2    1    2    0    0 -0.26472011214E+02 -0.39790467875E+01 -0.17323990491E+02  0.59301939761E+02  0.49999992219E+02 0.  0.
         12    1    1    2    0    0  0.26472011214E+02  0.39790467875E+01  0.17323990491E+02  0.31886060239E+02  0.00000000000E+00 0. -1.
         11    1    3    3    0    0 -0.16114046199E+02 -0.10006585480E+02 -0.20984077765E+02  0.28286494264E+02  0.51100000000E-03 0. -1.
        -11    1    3    3    0    0 -0.13293093567E+02  0.86943168004E+01 -0.86471276307E+01  0.18085084952E+02  0.51100000000E-03 0.  1.
         12    1    3    3    0    0  0.29351285518E+01 -0.26667781075E+01  0.12307214905E+02  0.12930360544E+02  0.00000000000E+00 0. -1.
</event>
<event>
 7    1  0.6164995E-012  0.5930195E+02  0.7816164E-02  0.1266605E+00
        -11   -1    0    0    0    0  0.00000000000E+00  0.00000000000E+00  0.45593999997E+02  0.45594000000E+02  0.51100000000E-03 0.  1.
         11   -1    0    0    0    0 -0.00000000000E+00 -0.00000000000E+00 -0.45593999997E+02  0.45594000000E+02  0.51100000000E-03 0. -1.
    9900012    2    1    2    0    0 -0.26054598366E+01  0.46788096192E+01  0.31433112665E+02  0.59301948940E+02  0.50000008958E+02 0.  0.
         12    1    1    2    0    0  0.26054598366E+01 -0.46788096192E+01 -0.31433112665E+02  0.31886051060E+02  0.00000000000E+00 0. -1.
         11    1    3    3    0    0  0.37645017812E+00  0.10902516983E+02 -0.77578136252E+01  0.13386196764E+02  0.51100000000E-03 0. -1.
        -11    1    3    3    0    0 -0.46210898114E+01  0.72755807422E+01  0.24135038075E+02  0.25627887337E+02  0.51100000000E-03 0.  1.
        -12    1    3    3    0    0  0.16391797967E+01 -0.13499288106E+02  0.15055888215E+02  0.20287864839E+02  0.00000000000E+00 0.  1.
</event>
<event>
 7    1  0.6164995E-012  0.5930193E+02  0.7816164E-02  0.1266605E+00
        -11   -1    0    0    0    0  0.00000000000E+00  0.00000000000E+00  0.45593999997E+02  0.45594000000E+02  0.51100000000E-03 0.  1.
         11   -1    0    0    0    0 -0.00000000000E+00 -0.00000000000E+00 -0.45593999997E+02  0.45594000000E+02  0.51100000000E-03 0. -1.
    9900012    2    1    2    0    0 -0.14980583470E+02 -0.15427508700E+01  0.28105574765E+02  0.59301932600E+02  0.49999979158E+02 0.  0.
         12    1    1    2    0    0  0.14980583470E+02  0.15427508700E+01 -0.28105574765E+02  0.31886067400E+02  0.00000000000E+00 0. -1.
         11    1    3    3    0    0 -0.70627350765E+01  0.31446918211E+01  0.19838233096E+02  0.21291472613E+02  0.51100000000E-03 0. -1.
        -11    1    3    3    0    0 -0.14750240728E+02  0.10971004176E+02 -0.13016828743E+01  0.18428969389E+02  0.51100000000E-03 0.  1.
         12    1    3    3    0    0  0.68323923342E+01 -0.15658446867E+02  0.95690245438E+01  0.19581490598E+02  0.00000000000E+00 0. -1.
</event>
<event>
 7    1  0.6164995E-012  0.5930202E+02  0.7816164E-02  0.1266604E+00
        -11   -1    0    0    0    0  0.00000000000E+00  0.00000000000E+00  0.45593999997E+02  0.45594000000E+02  0.51100000000E-03 0. -1.
         11   -1    0    0    0    0 -0.00000000000E+00 -0.00000000000E+00 -0.45593999997E+02  0.45594000000E+02  0.51100000000E-03 0.  1.
    9900012    2    1    2    0    0  0.11474780019E+02 -0.64891234030E+01 -0.29033365229E+02  0.59302021960E+02  0.50000142130E+02 0.  0.
         12    1    1    2    0    0 -0.11474780019E+02  0.64891234030E+01  0.29033365229E+02  0.31885978040E+02  0.00000000000E+00 0. -1.
         11    1    3    3    0    0 -0.48243542207E+01  0.99415089905E+01  0.46447478761E+01  0.11986729235E+02  0.51100000000E-03 0. -1.
        -11    1    3    3    0    0  0.24980601411E+01 -0.53726783334E+01  0.29667663510E+01  0.66262870286E+01  0.51100000000E-03 0.  1.
        -12    1    3    3    0    0  0.13801074099E+02 -0.11057954060E+02 -0.36644879456E+02  0.40689005697E+02  0.00000000000E+00 0.  1.
</event>
<event>
 7    1  0.6164995E-012  0.5930191E+02  0.7816164E-02  0.1266605E+00
        -11   -1    0    0    0    0  0.00000000000E+00  0.00000000000E+00  0.45593999997E+02  0.45594000000E+02  0.51100000000E-03 0.  1.
         11   -1    0    0    0    0 -0.00000000000E+00 -0.00000000000E+00 -0.45593999997E+02  0.45594000000E+02  0.51100000000E-03 0. -1.
    9900012    2    1    2    0    0 -0.28544552038E+02  0.13694964256E+02 -0.37920104536E+01  0.59301908356E+02  0.49999934943E+02 0.  0.
         12    1    1    2    0    0  0.28544552038E+02 -0.13694964256E+02  0.37920104536E+01  0.31886091644E+02  0.00000000000E+00 0. -1.
         11    1    3    3    0    0 -0.93296109671E+01  0.17128680761E+02 -0.90414004942E+01  0.21498378277E+02  0.51100000000E-03 0. -1.
        -11    1    3    3    0    0  0.60033396518E+01  0.33442248461E+01  0.91049323765E+01  0.11407178470E+02  0.51100000000E-03 0.  1.
         12    1    3    3    0    0 -0.25218280723E+02 -0.67779413505E+01 -0.38555423360E+01  0.26396351609E+02  0.00000000000E+00 0. -1.
</event>
<event>
 7    1  0.6164995E-012  0.5930192E+02  0.7816164E-02  0.1266605E+00
        -11   -1    0    0    0    0  0.00000000000E+00  0.00000000000E+00  0.45593999997E+02  0.45594000000E+02  0.51100000000E-03 0. -1.
         11   -1    0    0    0    0 -0.00000000000E+00 -0.00000000000E+00 -0.45593999997E+02  0.45594000000E+02  0.51100000000E-03 0.  1.
    9900012    2    1    2    0    0 -0.20531896894E+02 -0.24160149117E+02 -0.33838259489E+01  0.59301923517E+02  0.49999962593E+02 0.  0.
         12    1    1    2    0    0  0.20531896894E+02  0.24160149117E+02  0.33838259489E+01  0.31886076483E+02  0.00000000000E+00 0. -1.
         11    1    3    3    0    0  0.24584470242E+01 -0.19199728721E+01  0.52603502778E+01  0.61156800854E+01  0.51100000000E-03 0. -1.
        -11    1    3    3    0    0 -0.16348082704E+02 -0.16191222756E+02  0.15286958044E+02  0.27624383956E+02  0.51100000000E-03 0.  1.
         12    1    3    3    0    0 -0.66422612143E+01 -0.60489534898E+01 -0.23931134271E+02  0.25561859476E+02  0.00000000000E+00 0. -1.
</event>
<event>
 7    1  0.6164995E-012  0.5930194E+02  0.7816164E-02  0.1266605E+00
        -11   -1    0    0    0    0  0.00000000000E+00  0.00000000000E+00  0.45593999997E+02  0.45594000000E+02  0.51100000000E-03 0.  1.
         11   -1    0    0    0    0 -0.00000000000E+00 -0.00000000000E+00 -0.45593999997E+02  0.45594000000E+02  0.51100000000E-03 0. -1.
    9900012    2    1    2    0    0  0.44613139877E+01  0.15084983890E+02  0.27735554514E+02  0.59301936498E+02  0.49999986268E+02 0.  0.
         12    1    1    2    0    0 -0.44613139877E+01 -0.15084983890E+02 -0.27735554514E+02  0.31886063502E+02  0.00000000000E+00 0. -1.
         11    1    3    3    0    0 -0.36208825638E+01  0.64558623046E+01  0.18133622060E+02  0.19586148113E+02  0.51100000000E-03 0. -1.
        -11    1    3    3    0    0 -0.50462570774E+01 -0.10448769586E+02  0.11680113708E+02  0.16464098908E+02  0.51100000000E-03 0.  1.
         12    1    3    3    0    0  0.13128453629E+02  0.19077891171E+02 -0.20781812542E+01  0.23251689478E+02  0.00000000000E+00 0. -1.
</event>
<event>
 7    1  0.6164995E-012  0.5930196E+02  0.7816164E-02  0.1266605E+00
        -11   -1    0    0    0    0  0.00000000000E+00  0.00000000000E+00  0.45593999997E+02  0.45594000000E+02  0.51100000000E-03 0. -1.
         11   -1    0    0    0    0 -0.00000000000E+00 -0.00000000000E+00 -0.45593999997E+02  0.45594000000E+02  0.51100000000E-03 0.  1.
    9900012    2    1    2    0    0 -0.33904899353E+01 -0.15490150894E+02 -0.27663685083E+02  0.59301958084E+02  0.50000025635E+02 0.  0.
         12    1    1    2    0    0  0.33904899353E+01  0.15490150894E+02  0.27663685083E+02  0.31886041916E+02  0.00000000000E+00 0. -1.
         11    1    3    3    0    0  0.57707090627E+01  0.76102906436E+01 -0.15062732289E+02  0.17835456570E+02  0.51100000000E-03 0. -1.
        -11    1    3    3    0    0 -0.27501236897E+01  0.75846370964E+01 -0.14659190596E+01  0.81999279962E+01  0.51100000000E-03 0.  1.
        -12    1    3    3    0    0 -0.64110753084E+01 -0.30685078634E+02 -0.11135033734E+02  0.33266573518E+02  0.00000000000E+00 0.  1.
</event>
<event>
 7    1  0.6164995E-012  0.5930198E+02  0.7816164E-02  0.1266605E+00
        -11   -1    0    0    0    0  0.00000000000E+00  0.00000000000E+00  0.45593999997E+02  0.45594000000E+02  0.51100000000E-03 0.  1.
         11   -1    0    0    0    0 -0.00000000000E+00 -0.00000000000E+00 -0.45593999997E+02  0.45594000000E+02  0.51100000000E-03 0. -1.
    9900012    2    1    2    0    0  0.26681390827E+02  0.17434542208E+02  0.92657795598E+00  0.59301977589E+02  0.50000061208E+02 0.  0.
         12    1    1    2    0    0 -0.26681390827E+02 -0.17434542208E+02 -0.92657795598E+00  0.31886022411E+02  0.00000000000E+00 0. -1.
         11    1    3    3    0    0 -0.53582801730E+01 -0.67439631050E+01 -0.84841388970E+01  0.12090195113E+02  0.51100000000E-03 0. -1.
        -11    1    3    3    0    0  0.54270854050E+01 -0.26973988497E+01  0.70769488366E+01  0.93173183719E+01  0.51100000000E-03 0.  1.
         12    1    3    3    0    0  0.26612585595E+02  0.26875904163E+02  0.23337680165E+01  0.37894464105E+02  0.00000000000E+00 0. -1.
</event>
<event>
 7    1  0.6164995E-012  0.5930196E+02  0.7816164E-02  0.1266605E+00
        -11   -1    0    0    0    0  0.00000000000E+00  0.00000000000E+00  0.45593999997E+02  0.45594000000E+02  0.51100000000E-03 0.  1.
         11   -1    0    0    0    0 -0.00000000000E+00 -0.00000000000E+00 -0.45593999997E+02  0.45594000000E+02  0.51100000000E-03 0. -1.
    9900012    2    1    2    0    0  0.11351076550E+02 -0.58536445359E+01  0.29216566450E+02  0.59301955273E+02  0.50000020509E+02 0.  0.
         12    1    1    2    0    0 -0.11351076550E+02  0.58536445359E+01 -0.29216566450E+02  0.31886044727E+02  0.00000000000E+00 0. -1.
         11    1    3    3    0    0  0.37133412053E+01  0.71637929164E+01  0.12422176039E+02  0.14812808298E+02  0.51100000000E-03 0. -1.
        -11    1    3    3    0    0 -0.14897709572E+02 -0.83771726820E+01  0.21752967322E+01  0.17229355437E+02  0.51100000000E-03 0.  1.
         12    1    3    3    0    0  0.22535444917E+02 -0.46402647704E+01  0.14619093678E+02  0.27259791538E+02  0.00000000000E+00 0. -1.
</event>
<event>
 7    1  0.6164995E-012  0.5930193E+02  0.7816164E-02  0.1266605E+00
        -11   -1    0    0    0    0  0.00000000000E+00  0.00000000000E+00  0.45593999997E+02  0.45594000000E+02  0.51100000000E-03 0.  1.
         11   -1    0    0    0    0 -0.00000000000E+00 -0.00000000000E+00 -0.45593999997E+02  0.45594000000E+02  0.51100000000E-03 0. -1.
    9900012    2    1    2    0    0  0.27223870795E+01  0.26883632818E+01  0.31655693805E+02  0.59301927197E+02  0.49999969305E+02 0.  0.
         12    1    1    2    0    0 -0.27223870795E+01 -0.26883632818E+01 -0.31655693805E+02  0.31886072803E+02  0.00000000000E+00 0. -1.
         11    1    3    3    0    0 -0.18691322280E+01  0.12523980602E+02  0.13766130845E+02  0.18704280369E+02  0.51100000000E-03 0. -1.
        -11    1    3    3    0    0  0.32307781606E-01  0.11679418942E+02 -0.84090618042E+00  0.11709696584E+02  0.51100000000E-03 0.  1.
        -12    1    3    3    0    0  0.45592115259E+01 -0.21515036263E+02  0.18730469140E+02  0.28887950245E+02  0.00000000000E+00 0.  1.
</event>
<event>
 7    1  0.6164995E-012  0.5930196E+02  0.7816164E-02  0.1266605E+00
        -11   -1    0    0    0    0  0.00000000000E+00  0.00000000000E+00  0.45593999997E+02  0.45594000000E+02  0.51100000000E-03 0. -1.
         11   -1    0    0    0    0 -0.00000000000E+00 -0.00000000000E+00 -0.45593999997E+02  0.45594000000E+02  0.51100000000E-03 0.  1.
    9900012    2    1    2    0    0  0.19075781119E+02  0.70944035239E+01 -0.24545951734E+02  0.59301957078E+02  0.50000023801E+02 0.  0.
         12    1    1    2    0    0 -0.19075781119E+02 -0.70944035239E+01  0.24545951734E+02  0.31886042922E+02  0.00000000000E+00 0. -1.
         11    1    3    3    0    0 -0.65905441911E+01  0.60455524435E+00 -0.20595136154E+02  0.21632392222E+02  0.51100000000E-03 0. -1.
        -11    1    3    3    0    0  0.66149872154E+01  0.12374160301E+02 -0.95332041434E+01  0.16963486685E+02  0.51100000000E-03 0.  1.
        -12    1    3    3    0    0  0.19051338095E+02 -0.58843120212E+01  0.55823885634E+01  0.20706078172E+02  0.00000000000E+00 0.  1.
</event>
<event>
 7    1  0.6164995E-012  0.5930197E+02  0.7816164E-02  0.1266605E+00
        -11   -1    0    0    0    0  0.00000000000E+00  0.00000000000E+00  0.45593999997E+02  0.45594000000E+02  0.51100000000E-03 0. -1.
         11   -1    0    0    0    0 -0.00000000000E+00 -0.00000000000E+00 -0.45593999997E+02  0.45594000000E+02  0.51100000000E-03 0.  1.
    9900012    2    1    2    0    0  0.72639891073E+01  0.19973116380E+02 -0.23770320955E+02  0.59301967415E+02  0.50000042653E+02 0.  0.
         12    1    1    2    0    0 -0.72639891073E+01 -0.19973116380E+02  0.23770320955E+02  0.31886032585E+02  0.00000000000E+00 0. -1.
         11    1    3    3    0    0  0.39757848002E+01  0.21023626964E+01 -0.14174153839E+02  0.14870555840E+02  0.51100000000E-03 0. -1.
        -11    1    3    3    0    0  0.43593449852E+01 -0.26255893097E+01 -0.20547392144E+02  0.21168205689E+02  0.51100000000E-03 0.  1.
         12    1    3    3    0    0 -0.10711406781E+01  0.20496342994E+02  0.10951225028E+02  0.23263205886E+02  0.00000000000E+00 0. -1.
</event>
<event>
 7    1  0.6164995E-012  0.5930196E+02  0.7816164E-02  0.1266605E+00
        -11   -1    0    0    0    0  0.00000000000E+00  0.00000000000E+00  0.45593999997E+02  0.45594000000E+02  0.51100000000E-03 0.  1.
         11   -1    0    0    0    0 -0.00000000000E+00 -0.00000000000E+00 -0.45593999997E+02  0.45594000000E+02  0.51100000000E-03 0. -1.
    9900012    2    1    2    0    0 -0.27426141382E+02 -0.11340756866E+02  0.11658189130E+02  0.59301962755E+02  0.50000034153E+02 0.  0.
         12    1    1    2    0    0  0.27426141382E+02  0.11340756866E+02 -0.11658189130E+02  0.31886037245E+02  0.00000000000E+00 0. -1.
         11    1    3    3    0    0  0.26919993369E+01 -0.13424780904E+02 -0.23607040456E+01  0.13894046445E+02  0.51100000000E-03 0. -1.
        -11    1    3    3    0    0 -0.11046720792E+02 -0.11071270982E+02 -0.38997908163E+01  0.16118667751E+02  0.51100000000E-03 0.  1.
        -12    1    3    3    0    0 -0.19071419927E+02  0.13155295020E+02  0.17918683992E+02  0.29289248558E+02  0.00000000000E+00 0.  1.
</event>
<event>
 7    1  0.6164995E-012  0.5930194E+02  0.7816164E-02  0.1266605E+00
        -11   -1    0    0    0    0  0.00000000000E+00  0.00000000000E+00  0.45593999997E+02  0.45594000000E+02  0.51100000000E-03 0. -1.
         11   -1    0    0    0    0 -0.00000000000E+00 -0.00000000000E+00 -0.45593999997E+02  0.45594000000E+02  0.51100000000E-03 0.  1.
    9900012    2    1    2    0    0  0.10035917967E+02  0.29343232734E+02 -0.74145724240E+01  0.59301939708E+02  0.49999992122E+02 0.  0.
         12    1    1    2    0    0 -0.10035917967E+02 -0.29343232734E+02  0.74145724240E+01  0.31886060292E+02  0.00000000000E+00 0. -1.
         11    1    3    3    0    0  0.76169733970E+01  0.12009513860E+01 -0.48950710975E+01  0.91335803096E+01  0.51100000000E-03 0. -1.
        -11    1    3    3    0    0 -0.13352826731E+02 -0.42924638915E+01 -0.12223581540E+01  0.14078969695E+02  0.51100000000E-03 0.  1.
         12    1    3    3    0    0  0.15771771301E+02  0.32434745239E+02 -0.12971431725E+01  0.36089389703E+02  0.00000000000E+00 0. -1.
</event>
<event>
 7    1  0.6164995E-012  0.5930193E+02  0.7816164E-02  0.1266605E+00
        -11   -1    0    0    0    0  0.00000000000E+00  0.00000000000E+00  0.45593999997E+02  0.45594000000E+02  0.51100000000E-03 0.  1.
         11   -1    0    0    0    0 -0.00000000000E+00 -0.00000000000E+00 -0.45593999997E+02  0.45594000000E+02  0.51100000000E-03 0. -1.
    9900012    2    1    2    0    0 -0.91970991899E+01 -0.37027162343E+01  0.30305526957E+02  0.59301926157E+02  0.49999967407E+02 0.  0.
         12    1    1    2    0    0  0.91970991899E+01  0.37027162343E+01 -0.30305526957E+02  0.31886073843E+02  0.00000000000E+00 0. -1.
         11    1    3    3    0    0  0.62851377121E+01 -0.58789703194E+01  0.29192266797E+01  0.90877462963E+01  0.51100000000E-03 0. -1.
        -11    1    3    3    0    0  0.36803196617E+01  0.16042531627E+01  0.30524969784E+02  0.30787857373E+02  0.51100000000E-03 0.  1.
         12    1    3    3    0    0 -0.19162556564E+02  0.57200092246E+00 -0.31386695072E+01  0.19426322487E+02  0.00000000000E+00 0. -1.
</event>
<event>
 7    1  0.6164995E-012  0.5930199E+02  0.7816164E-02  0.1266605E+00
        -11   -1    0    0    0    0  0.00000000000E+00  0.00000000000E+00  0.45593999997E+02  0.45594000000E+02  0.51100000000E-03 0.  1.
         11   -1    0    0    0    0 -0.00000000000E+00 -0.00000000000E+00 -0.45593999997E+02  0.45594000000E+02  0.51100000000E-03 0. -1.
    9900012    2    1    2    0    0  0.28229666879E+01 -0.17128217491E+01  0.31714580916E+02  0.59301991439E+02  0.50000086467E+02 0.  0.
         12    1    1    2    0    0 -0.28229666879E+01  0.17128217491E+01 -0.31714580916E+02  0.31886008561E+02  0.00000000000E+00 0. -1.
         11    1    3    3    0    0  0.20496935656E+02 -0.53903151364E+01  0.37301080185E+01  0.21519609073E+02  0.51100000000E-03 0. -1.
        -11    1    3    3    0    0  0.26515223923E-01  0.42304301230E+01 -0.48105617100E+00  0.42577761077E+01  0.51100000000E-03 0.  1.
        -12    1    3    3    0    0 -0.17700484192E+02 -0.55293673573E+00  0.28465529069E+02  0.33524606259E+02  0.00000000000E+00 0.  1.
</event>
<event>
 7    1  0.6164995E-012  0.5930190E+02  0.7816164E-02  0.1266605E+00
        -11   -1    0    0    0    0  0.00000000000E+00  0.00000000000E+00  0.45593999997E+02  0.45594000000E+02  0.51100000000E-03 0. -1.
         11   -1    0    0    0    0 -0.00000000000E+00 -0.00000000000E+00 -0.45593999997E+02  0.45594000000E+02  0.51100000000E-03 0.  1.
    9900012    2    1    2    0    0  0.10492349525E+02  0.29204197325E+02 -0.73313456533E+01  0.59301903201E+02  0.49999925542E+02 0.  0.
         12    1    1    2    0    0 -0.10492349525E+02 -0.29204197325E+02  0.73313456533E+01  0.31886096799E+02  0.00000000000E+00 0. -1.
         11    1    3    3    0    0 -0.12582075899E+02  0.11771264300E+01  0.13234996645E+01  0.12706136792E+02  0.51100000000E-03 0. -1.
        -11    1    3    3    0    0  0.54324656962E+01 -0.15952153787E+01  0.67694284038E+01  0.88250527942E+01  0.51100000000E-03 0.  1.
        -12    1    3    3    0    0  0.17641959728E+02  0.29622286274E+02 -0.15424273722E+02  0.37770713615E+02  0.00000000000E+00 0.  1.
</event>
<event>
 7    1  0.6164995E-012  0.5930175E+02  0.7816164E-02  0.1266605E+00
        -11   -1    0    0    0    0  0.00000000000E+00  0.00000000000E+00  0.45593999997E+02  0.45594000000E+02  0.51100000000E-03 0.  1.
         11   -1    0    0    0    0 -0.00000000000E+00 -0.00000000000E+00 -0.45593999997E+02  0.45594000000E+02  0.51100000000E-03 0. -1.
    9900012    2    1    2    0    0 -0.13845944898E+02 -0.19448925826E+02  0.21136747310E+02  0.59301749158E+02  0.49999644604E+02 0.  0.
         12    1    1    2    0    0  0.13845944898E+02  0.19448925826E+02 -0.21136747310E+02  0.31886250842E+02  0.00000000000E+00 0. -1.
         11    1    3    3    0    0 -0.27170104999E+01  0.12995639067E+01 -0.90638866646E+01  0.95511807717E+01  0.51100000000E-03 0. -1.
        -11    1    3    3    0    0  0.89593247496E+01  0.79323570297E+00  0.25453065414E+01  0.93475830299E+01  0.51100000000E-03 0.  1.
        -12    1    3    3    0    0 -0.20088259148E+02 -0.21541725436E+02  0.27655327433E+02  0.40402985357E+02  0.00000000000E+00 0.  1.
</event>
<event>
 7    1  0.6164995E-012  0.5930194E+02  0.7816164E-02  0.1266605E+00
        -11   -1    0    0    0    0  0.00000000000E+00  0.00000000000E+00  0.45593999997E+02  0.45594000000E+02  0.51100000000E-03 0.  1.
         11   -1    0    0    0    0 -0.00000000000E+00 -0.00000000000E+00 -0.45593999997E+02  0.45594000000E+02  0.51100000000E-03 0. -1.
    9900012    2    1    2    0    0 -0.11833546986E+02 -0.29608713664E+02 -0.10886056071E+00  0.59301943333E+02  0.49999998734E+02 0.  0.
         12    1    1    2    0    0  0.11833546986E+02  0.29608713664E+02  0.10886056071E+00  0.31886056667E+02  0.00000000000E+00 0. -1.
         11    1    3    3    0    0 -0.17080455096E+02 -0.18067887731E+02 -0.16990175074E+02  0.30114059219E+02  0.51100000000E-03 0. -1.
        -11    1    3    3    0    0  0.16888367889E+01 -0.10274024731E+02 -0.14133820431E+01  0.10507397533E+02  0.51100000000E-03 0.  1.
        -12    1    3    3    0    0  0.35580713214E+01 -0.12668012031E+01  0.18294696556E+02  0.18680486581E+02  0.00000000000E+00 0.  1.
</event>
<event>
 7    1  0.6164995E-012  0.5930192E+02  0.7816164E-02  0.1266605E+00
        -11   -1    0    0    0    0  0.00000000000E+00  0.00000000000E+00  0.45593999997E+02  0.45594000000E+02  0.51100000000E-03 0.  1.
         11   -1    0    0    0    0 -0.00000000000E+00 -0.00000000000E+00 -0.45593999997E+02  0.45594000000E+02  0.51100000000E-03 0. -1.
    9900012    2    1    2    0    0  0.19244869640E+02  0.17379200810E+02  0.18555870540E+02  0.59301922164E+02  0.49999960126E+02 0.  0.
         12    1    1    2    0    0 -0.19244869640E+02 -0.17379200810E+02 -0.18555870540E+02  0.31886077836E+02  0.00000000000E+00 0. -1.
         11    1    3    3    0    0 -0.12319180011E+01 -0.19434517625E+01 -0.21448057582E+01  0.31456030767E+01  0.51100000000E-03 0. -1.
        -11    1    3    3    0    0  0.93171443243E+00 -0.13276971052E+02  0.10064151654E+02  0.16686317774E+02  0.51100000000E-03 0.  1.
        -12    1    3    3    0    0  0.19545073209E+02  0.32599623624E+02  0.10636524644E+02  0.39470001313E+02  0.00000000000E+00 0.  1.
</event>
<event>
 7    1  0.6164995E-012  0.5930194E+02  0.7816164E-02  0.1266605E+00
        -11   -1    0    0    0    0  0.00000000000E+00  0.00000000000E+00  0.45593999997E+02  0.45594000000E+02  0.51100000000E-03 0. -1.
         11   -1    0    0    0    0 -0.00000000000E+00 -0.00000000000E+00 -0.45593999997E+02  0.45594000000E+02  0.51100000000E-03 0.  1.
    9900012    2    1    2    0    0  0.24427422953E+02  0.16101332691E+02 -0.12679459144E+02  0.59301943631E+02  0.49999999277E+02 0.  0.
         12    1    1    2    0    0 -0.24427422953E+02 -0.16101332691E+02  0.12679459144E+02  0.31886056369E+02  0.00000000000E+00 0. -1.
         11    1    3    3    0    0  0.13894012077E+02 -0.56662076932E+01 -0.14866087471E+02  0.21122264040E+02  0.51100000000E-03 0. -1.
        -11    1    3    3    0    0  0.48097404544E+01 -0.71608268270E+01  0.34566487878E+00  0.86331065413E+01  0.51100000000E-03 0.  1.
         12    1    3    3    0    0  0.57236704214E+01  0.28928367211E+02  0.18409634476E+01  0.29546573050E+02  0.00000000000E+00 0. -1.
</event>
<event>
 7    1  0.6164995E-012  0.5930194E+02  0.7816164E-02  0.1266605E+00
        -11   -1    0    0    0    0  0.00000000000E+00  0.00000000000E+00  0.45593999997E+02  0.45594000000E+02  0.51100000000E-03 0. -1.
         11   -1    0    0    0    0 -0.00000000000E+00 -0.00000000000E+00 -0.45593999997E+02  0.45594000000E+02  0.51100000000E-03 0.  1.
    9900012    2    1    2    0    0  0.92031753072E+01  0.58946425179E+01 -0.29954553936E+02  0.59301944307E+02  0.50000000509E+02 0.  0.
         12    1    1    2    0    0 -0.92031753072E+01 -0.58946425179E+01  0.29954553936E+02  0.31886055693E+02  0.00000000000E+00 0. -1.
         11    1    3    3    0    0  0.31545879296E+01  0.17768587729E+01 -0.24079508910E+01  0.43482042108E+01  0.51100000000E-03 0. -1.
        -11    1    3    3    0    0 -0.18066115997E+02  0.34799213445E+01 -0.80852177344E-01  0.18398394960E+02  0.51100000000E-03 0.  1.
         12    1    3    3    0    0  0.24114703374E+02  0.63786240040E+00 -0.27465750868E+02  0.36555345136E+02  0.00000000000E+00 0. -1.
</event>
<event>
 7    1  0.6164995E-012  0.5930196E+02  0.7816164E-02  0.1266605E+00
        -11   -1    0    0    0    0  0.00000000000E+00  0.00000000000E+00  0.45593999997E+02  0.45594000000E+02  0.51100000000E-03 0. -1.
         11   -1    0    0    0    0 -0.00000000000E+00 -0.00000000000E+00 -0.45593999997E+02  0.45594000000E+02  0.51100000000E-03 0.  1.
    9900012    2    1    2    0    0 -0.12006087509E+02  0.13368775609E+02 -0.26341019421E+02  0.59301959125E+02  0.50000027533E+02 0.  0.
         12    1    1    2    0    0  0.12006087509E+02 -0.13368775609E+02  0.26341019421E+02  0.31886040875E+02  0.00000000000E+00 0. -1.
         11    1    3    3    0    0 -0.53001909121E+01 -0.98274561538E+01 -0.25547416914E+02  0.27880843413E+02  0.51100000000E-03 0. -1.
        -11    1    3    3    0    0 -0.94956722433E+00 -0.66506704591E-01 -0.66774967996E+01  0.67450029522E+01  0.51100000000E-03 0.  1.
         12    1    3    3    0    0 -0.57563293725E+01  0.23262738468E+02  0.58838942929E+01  0.24676112759E+02  0.00000000000E+00 0. -1.
</event>
<event>
 7    1  0.6164995E-012  0.5930195E+02  0.7816164E-02  0.1266605E+00
        -11   -1    0    0    0    0  0.00000000000E+00  0.00000000000E+00  0.45593999997E+02  0.45594000000E+02  0.51100000000E-03 0. -1.
         11   -1    0    0    0    0 -0.00000000000E+00 -0.00000000000E+00 -0.45593999997E+02  0.45594000000E+02  0.51100000000E-03 0.  1.
    9900012    2    1    2    0    0  0.12573721285E+01 -0.26292060628E+02 -0.17996292555E+02  0.59301953169E+02  0.50000016672E+02 0.  0.
         12    1    1    2    0    0 -0.12573721285E+01  0.26292060628E+02  0.17996292555E+02  0.31886046831E+02  0.00000000000E+00 0. -1.
         11    1    3    3    0    0  0.35530724441E+01 -0.55602079184E+01  0.29577689797E+01  0.72310879878E+01  0.51100000000E-03 0. -1.
        -11    1    3    3    0    0  0.89051820820E+01 -0.30473190393E+02 -0.19252919871E+02  0.37129402425E+02  0.51100000000E-03 0.  1.
         12    1    3    3    0    0 -0.11200882398E+02  0.97413376830E+01 -0.17011416642E+01  0.14941462756E+02  0.00000000000E+00 0. -1.
</event>
<event>
 7    1  0.6164995E-012  0.5930194E+02  0.7816164E-02  0.1266605E+00
        -11   -1    0    0    0    0  0.00000000000E+00  0.00000000000E+00  0.45593999997E+02  0.45594000000E+02  0.51100000000E-03 0. -1.
         11   -1    0    0    0    0 -0.00000000000E+00 -0.00000000000E+00 -0.45593999997E+02  0.45594000000E+02  0.51100000000E-03 0.  1.
    9900012    2    1    2    0    0  0.29748840766E+02  0.76923751286E+01 -0.85179118400E+01  0.59301937462E+02  0.49999988026E+02 0.  0.
         12    1    1    2    0    0 -0.29748840766E+02 -0.76923751286E+01  0.85179118400E+01  0.31886062538E+02  0.00000000000E+00 0. -1.
         11    1    3    3    0    0 -0.12476453366E+01  0.24437815907E+01  0.16712639109E+01  0.32127574870E+01  0.51100000000E-03 0. -1.
        -11    1    3    3    0    0  0.42600286250E+01  0.75152645341E+01 -0.24287778206E+02  0.25778347801E+02  0.51100000000E-03 0.  1.
         12    1    3    3    0    0  0.26736457478E+02 -0.22666709962E+01  0.14098602456E+02  0.30310832174E+02  0.00000000000E+00 0. -1.
</event>
<event>
 7    1  0.6164995E-012  0.5930195E+02  0.7816164E-02  0.1266605E+00
        -11   -1    0    0    0    0  0.00000000000E+00  0.00000000000E+00  0.45593999997E+02  0.45594000000E+02  0.51100000000E-03 0. -1.
         11   -1    0    0    0    0 -0.00000000000E+00 -0.00000000000E+00 -0.45593999997E+02  0.45594000000E+02  0.51100000000E-03 0.  1.
    9900012    2    1    2    0    0 -0.26221829719E+02 -0.11040526048E+02 -0.14395922654E+02  0.59301950413E+02  0.50000011645E+02 0.  0.
         12    1    1    2    0    0  0.26221829719E+02  0.11040526048E+02  0.14395922654E+02  0.31886049587E+02  0.00000000000E+00 0. -1.
         11    1    3    3    0    0  0.26654839154E+01 -0.11526772558E+02  0.10982793275E+02  0.16142894365E+02  0.51100000000E-03 0. -1.
        -11    1    3    3    0    0 -0.17513706082E+02 -0.93603416258E+01 -0.14013510395E+02  0.24304821948E+02  0.51100000000E-03 0.  1.
        -12    1    3    3    0    0 -0.11373607552E+02  0.98465881353E+01 -0.11365205534E+02  0.18854234100E+02  0.00000000000E+00 0.  1.
</event>
<event>
 7    1  0.6164995E-012  0.5930195E+02  0.7816164E-02  0.1266605E+00
        -11   -1    0    0    0    0  0.00000000000E+00  0.00000000000E+00  0.45593999997E+02  0.45594000000E+02  0.51100000000E-03 0.  1.
         11   -1    0    0    0    0 -0.00000000000E+00 -0.00000000000E+00 -0.45593999997E+02  0.45594000000E+02  0.51100000000E-03 0. -1.
    9900012    2    1    2    0    0  0.21129196358E+02  0.34463035262E+01  0.23630489977E+02  0.59301952844E+02  0.50000016078E+02 0.  0.
         12    1    1    2    0    0 -0.21129196358E+02 -0.34463035262E+01 -0.23630489977E+02  0.31886047156E+02  0.00000000000E+00 0. -1.
         11    1    3    3    0    0 -0.55734916842E+01 -0.30492551642E+01  0.83502196858E+01  0.10492279813E+02  0.51100000000E-03 0. -1.
        -11    1    3    3    0    0  0.85070684084E+01  0.14721102643E+02  0.21942740777E+02  0.27759051659E+02  0.51100000000E-03 0.  1.
         12    1    3    3    0    0  0.18195619633E+02 -0.82255439524E+01 -0.66624704865E+01  0.21050621372E+02  0.00000000000E+00 0. -1.
</event>
<event>
 7    1  0.6164995E-012  0.5930194E+02  0.7816164E-02  0.1266605E+00
        -11   -1    0    0    0    0  0.00000000000E+00  0.00000000000E+00  0.45593999997E+02  0.45594000000E+02  0.51100000000E-03 0.  1.
         11   -1    0    0    0    0 -0.00000000000E+00 -0.00000000000E+00 -0.45593999997E+02  0.45594000000E+02  0.51100000000E-03 0. -1.
    9900012    2    1    2    0    0  0.30598028170E+02  0.89698283018E+01  0.15360151683E+00  0.59301941274E+02  0.49999994977E+02 0.  0.
         12    1    1    2    0    0 -0.30598028170E+02 -0.89698283018E+01 -0.15360151683E+00  0.31886058726E+02  0.00000000000E+00 0. -1.
         11    1    3    3    0    0  0.23383528726E+02  0.87200217239E+01  0.78909794742E+01  0.26174333838E+02  0.51100000000E-03 0. -1.
        -11    1    3    3    0    0  0.48968738210E+01  0.84758503950E+01  0.96548642744E+01  0.13749029695E+02  0.51100000000E-03 0.  1.
         12    1    3    3    0    0  0.23176256236E+01 -0.82260438171E+01 -0.17392242232E+02  0.19378577741E+02  0.00000000000E+00 0. -1.
</event>
<event>
 7    1  0.6164995E-012  0.5930195E+02  0.7816164E-02  0.1266605E+00
        -11   -1    0    0    0    0  0.00000000000E+00  0.00000000000E+00  0.45593999997E+02  0.45594000000E+02  0.51100000000E-03 0.  1.
         11   -1    0    0    0    0 -0.00000000000E+00 -0.00000000000E+00 -0.45593999997E+02  0.45594000000E+02  0.51100000000E-03 0. -1.
    9900012    2    1    2    0    0  0.19063902954E+02 -0.26167118392E+01  0.25425192354E+02  0.59301953163E+02  0.50000016660E+02 0.  0.
         12    1    1    2    0    0 -0.19063902954E+02  0.26167118392E+01 -0.25425192354E+02  0.31886046837E+02  0.00000000000E+00 0. -1.
         11    1    3    3    0    0 -0.32415341489E+01 -0.15762448957E+01  0.99485992143E+01  0.10581432710E+02  0.51100000000E-03 0.  1.
        -11    1    3    3    0    0  0.27717304711E+02  0.10918334426E+02  0.18740217631E+02  0.35194527475E+02  0.51100000000E-03 0. -1.
         12    1    3    3    0    0 -0.54118676078E+01 -0.11958801370E+02 -0.32636244912E+01  0.13525992977E+02  0.00000000000E+00 0. -1.
</event>
<event>
 7    1  0.6164995E-012  0.5930200E+02  0.7816164E-02  0.1266605E+00
        -11   -1    0    0    0    0  0.00000000000E+00  0.00000000000E+00  0.45593999997E+02  0.45594000000E+02  0.51100000000E-03 0.  1.
         11   -1    0    0    0    0 -0.00000000000E+00 -0.00000000000E+00 -0.45593999997E+02  0.45594000000E+02  0.51100000000E-03 0. -1.
    9900012    2    1    2    0    0 -0.28379595915E+02  0.78570795630E+01  0.12230375278E+02  0.59301996127E+02  0.50000095016E+02 0.  0.
         12    1    1    2    0    0  0.28379595915E+02 -0.78570795630E+01 -0.12230375278E+02  0.31886003873E+02  0.00000000000E+00 0. -1.
         11    1    3    3    0    0 -0.14770174638E+02 -0.91949271156E+01 -0.89697316158E+01  0.19574494349E+02  0.51100000000E-03 0. -1.
        -11    1    3    3    0    0 -0.17265310231E+02  0.91682376278E+01  0.32941926987E+01  0.19824208039E+02  0.51100000000E-03 0.  1.
        -12    1    3    3    0    0  0.36558889535E+01  0.78837690508E+01  0.17905914195E+02  0.19903293739E+02  0.00000000000E+00 0.  1.
</event>
<event>
 7    1  0.6164995E-012  0.5930192E+02  0.7816164E-02  0.1266605E+00
        -11   -1    0    0    0    0  0.00000000000E+00  0.00000000000E+00  0.45593999997E+02  0.45594000000E+02  0.51100000000E-03 0. -1.
         11   -1    0    0    0    0 -0.00000000000E+00 -0.00000000000E+00 -0.45593999997E+02  0.45594000000E+02  0.51100000000E-03 0.  1.
    9900012    2    1    2    0    0 -0.25135159647E+02 -0.13115458913E+02 -0.14592151959E+02  0.59301915076E+02  0.49999947199E+02 0.  0.
         12    1    1    2    0    0  0.25135159647E+02  0.13115458913E+02  0.14592151959E+02  0.31886084924E+02  0.00000000000E+00 0. -1.
         11    1    3    3    0    0 -0.18604622948E+01  0.67409955913E+01 -0.25175876939E+01  0.74324013327E+01  0.51100000000E-03 0. -1.
        -11    1    3    3    0    0 -0.18280655526E+01  0.11494274774E+02 -0.69100640720E+01  0.13535477900E+02  0.51100000000E-03 0.  1.
         12    1    3    3    0    0 -0.21446631800E+02 -0.31350729278E+02 -0.51645001927E+01  0.38334035844E+02  0.00000000000E+00 0. -1.
</event>
<event>
 7    1  0.6164995E-012  0.5930191E+02  0.7816164E-02  0.1266605E+00
        -11   -1    0    0    0    0  0.00000000000E+00  0.00000000000E+00  0.45593999997E+02  0.45594000000E+02  0.51100000000E-03 0. -1.
         11   -1    0    0    0    0 -0.00000000000E+00 -0.00000000000E+00 -0.45593999997E+02  0.45594000000E+02  0.51100000000E-03 0.  1.
    9900012    2    1    2    0    0 -0.40344752031E+01 -0.91106802309E+01 -0.30289292458E+02  0.59301910211E+02  0.49999938326E+02 0.  0.
         12    1    1    2    0    0  0.40344752031E+01  0.91106802309E+01  0.30289292458E+02  0.31886089789E+02  0.00000000000E+00 0. -1.
         11    1    3    3    0    0  0.35138027477E+00  0.18592063942E+01  0.22128183507E+01  0.29114741676E+01  0.51100000000E-03 0. -1.
        -11    1    3    3    0    0 -0.16217249963E+02 -0.43799733133E+01  0.41610150777E+01  0.17305993451E+02  0.51100000000E-03 0.  1.
        -12    1    3    3    0    0  0.11831394485E+02 -0.65899133119E+01 -0.36663125887E+02  0.39084442592E+02  0.00000000000E+00 0.  1.
</event>
<event>
 7    1  0.6164995E-012  0.5930189E+02  0.7816164E-02  0.1266605E+00
        -11   -1    0    0    0    0  0.00000000000E+00  0.00000000000E+00  0.45593999997E+02  0.45594000000E+02  0.51100000000E-03 0. -1.
         11   -1    0    0    0    0 -0.00000000000E+00 -0.00000000000E+00 -0.45593999997E+02  0.45594000000E+02  0.51100000000E-03 0.  1.
    9900012    2    1    2    0    0  0.28653648987E+02 -0.13983588228E+02 -0.38935602727E+00  0.59301891141E+02  0.49999903548E+02 0.  0.
         12    1    1    2    0    0 -0.28653648987E+02  0.13983588228E+02  0.38935602727E+00  0.31886108859E+02  0.00000000000E+00 0. -1.
         11    1    3    3    0    0  0.10332421547E+02  0.84981524930E+00  0.14103097519E+02  0.17503670498E+02  0.51100000000E-03 0. -1.
        -11    1    3    3    0    0  0.17261534509E+01  0.84610222776E+01  0.18868277557E+01  0.88390397080E+01  0.51100000000E-03 0.  1.
        -12    1    3    3    0    0  0.16595073990E+02 -0.23294425755E+02 -0.16379281302E+02  0.32959180936E+02  0.00000000000E+00 0.  1.
</event>
<event>
 7    1  0.6164995E-012  0.5930194E+02  0.7816164E-02  0.1266605E+00
        -11   -1    0    0    0    0  0.00000000000E+00  0.00000000000E+00  0.45593999997E+02  0.45594000000E+02  0.51100000000E-03 0. -1.
         11   -1    0    0    0    0 -0.00000000000E+00 -0.00000000000E+00 -0.45593999997E+02  0.45594000000E+02  0.51100000000E-03 0.  1.
    9900012    2    1    2    0    0  0.12671943208E+01 -0.27949222936E+02 -0.15295624016E+02  0.59301937869E+02  0.49999988768E+02 0.  0.
         12    1    1    2    0    0 -0.12671943208E+01  0.27949222936E+02  0.15295624016E+02  0.31886062131E+02  0.00000000000E+00 0. -1.
         11    1    3    3    0    0  0.11237931075E+02 -0.61382767041E+01 -0.90144658800E+01  0.15659825386E+02  0.51100000000E-03 0. -1.
        -11    1    3    3    0    0 -0.75098268042E+01 -0.21886458793E+02 -0.19460659417E+02  0.30234613315E+02  0.51100000000E-03 0.  1.
         12    1    3    3    0    0 -0.24609099503E+01  0.75512561520E-01  0.13179501281E+02  0.13407499168E+02  0.00000000000E+00 0. -1.
</event>
<event>
 7    1  0.6164995E-012  0.5930196E+02  0.7816164E-02  0.1266605E+00
        -11   -1    0    0    0    0  0.00000000000E+00  0.00000000000E+00  0.45593999997E+02  0.45594000000E+02  0.51100000000E-03 0. -1.
         11   -1    0    0    0    0 -0.00000000000E+00 -0.00000000000E+00 -0.45593999997E+02  0.45594000000E+02  0.51100000000E-03 0.  1.
    9900012    2    1    2    0    0  0.27268930887E+02 -0.79846961715E+01  0.14469605947E+02  0.59301961348E+02  0.50000031588E+02 0.  0.
         12    1    1    2    0    0 -0.27268930887E+02  0.79846961715E+01 -0.14469605947E+02  0.31886038652E+02  0.00000000000E+00 0. -1.
         11    1    3    3    0    0 -0.47674396231E+01 -0.55206472292E-01 -0.78933361104E+01  0.92215119980E+01  0.51100000000E-03 0.  1.
        -11    1    3    3    0    0  0.41800236897E+00 -0.97436527230E+01 -0.22041674570E+01  0.99985923413E+01  0.51100000000E-03 0. -1.
         12    1    3    3    0    0  0.31618368141E+02  0.18141630238E+01  0.24567109515E+02  0.40081857009E+02  0.00000000000E+00 0. -1.
</event>
<event>
 7    1  0.6164995E-012  0.5930194E+02  0.7816164E-02  0.1266605E+00
        -11   -1    0    0    0    0  0.00000000000E+00  0.00000000000E+00  0.45593999997E+02  0.45594000000E+02  0.51100000000E-03 0.  1.
         11   -1    0    0    0    0 -0.00000000000E+00 -0.00000000000E+00 -0.45593999997E+02  0.45594000000E+02  0.51100000000E-03 0. -1.
    9900012    2    1    2    0    0  0.14030177391E+02  0.28620429186E+02 -0.86364830220E+00  0.59301941404E+02  0.49999995214E+02 0.  0.
         12    1    1    2    0    0 -0.14030177391E+02 -0.28620429186E+02  0.86364830220E+00  0.31886058596E+02  0.00000000000E+00 0. -1.
         11    1    3    3    0    0 -0.16670669460E+00  0.26179878974E+02 -0.12994561665E+02  0.29227940183E+02  0.51100000000E-03 0. -1.
        -11    1    3    3    0    0  0.12541203025E+02  0.56329148641E+01 -0.33751536385E+01  0.14156382501E+02  0.51100000000E-03 0.  1.
        -12    1    3    3    0    0  0.16556810604E+01 -0.31923646516E+01  0.15506067001E+02  0.15917618719E+02  0.00000000000E+00 0.  1.
</event>
<event>
 7    1  0.6164995E-012  0.5930203E+02  0.7816164E-02  0.1266604E+00
        -11   -1    0    0    0    0  0.00000000000E+00  0.00000000000E+00  0.45593999997E+02  0.45594000000E+02  0.51100000000E-03 0.  1.
         11   -1    0    0    0    0 -0.00000000000E+00 -0.00000000000E+00 -0.45593999997E+02  0.45594000000E+02  0.51100000000E-03 0. -1.
    9900012    2    1    2    0    0  0.21902883946E+01  0.24915230195E+02  0.19777494189E+02  0.59302026041E+02  0.50000149572E+02 0.  0.
         12    1    1    2    0    0 -0.21902883946E+01 -0.24915230195E+02 -0.19777494189E+02  0.31885973959E+02  0.00000000000E+00 0. -1.
         11    1    3    3    0    0  0.53193550498E+01 -0.10542160748E+01  0.38167586130E+01  0.66313314085E+01  0.51100000000E-03 0. -1.
        -11    1    3    3    0    0 -0.25857384854E+01  0.36103763330E+02  0.20449538112E+02  0.41573445604E+02  0.51100000000E-03 0.  1.
         12    1    3    3    0    0 -0.54332816986E+00 -0.10134317060E+02 -0.44888025368E+01  0.11097249028E+02  0.00000000000E+00 0. -1.
</event>
<event>
 7    1  0.6164995E-012  0.5930200E+02  0.7816164E-02  0.1266605E+00
        -11   -1    0    0    0    0  0.00000000000E+00  0.00000000000E+00  0.45593999997E+02  0.45594000000E+02  0.51100000000E-03 0.  1.
         11   -1    0    0    0    0 -0.00000000000E+00 -0.00000000000E+00 -0.45593999997E+02  0.45594000000E+02  0.51100000000E-03 0. -1.
    9900012    2    1    2    0    0  0.85645972377E+01  0.17799693064E+02  0.25030687700E+02  0.59302004238E+02  0.50000109809E+02 0.  0.
         12    1    1    2    0    0 -0.85645972377E+01 -0.17799693064E+02 -0.25030687700E+02  0.31885995762E+02  0.00000000000E+00 0. -1.
         11    1    3    3    0    0  0.33148831389E+01 -0.98978612022E+01 -0.12206262434E+01  0.10509330868E+02  0.51100000000E-03 0. -1.
        -11    1    3    3    0    0  0.14500451263E+02  0.20624313142E+02  0.67842388792E+01  0.26108452211E+02  0.51100000000E-03 0.  1.
         12    1    3    3    0    0 -0.92507371640E+01  0.70732411239E+01  0.19467075064E+02  0.22684221160E+02  0.00000000000E+00 0. -1.
</event>
<event>
 7    1  0.6164995E-012  0.5930195E+02  0.7816164E-02  0.1266605E+00
        -11   -1    0    0    0    0  0.00000000000E+00  0.00000000000E+00  0.45593999997E+02  0.45594000000E+02  0.51100000000E-03 0.  1.
         11   -1    0    0    0    0 -0.00000000000E+00 -0.00000000000E+00 -0.45593999997E+02  0.45594000000E+02  0.51100000000E-03 0. -1.
    9900012    2    1    2    0    0 -0.20868166696E+02 -0.14976525195E+02  0.18892953700E+02  0.59301946815E+02  0.50000005084E+02 0.  0.
         12    1    1    2    0    0  0.20868166696E+02  0.14976525195E+02 -0.18892953700E+02  0.31886053185E+02  0.00000000000E+00 0. -1.
         11    1    3    3    0    0 -0.40274393993E+00  0.45118003870E+01  0.12137873200E+02  0.12955559097E+02  0.51100000000E-03 0. -1.
        -11    1    3    3    0    0 -0.87569735017E+01 -0.23272646620E+02  0.17176512291E+02  0.30221403680E+02  0.51100000000E-03 0.  1.
        -12    1    3    3    0    0 -0.11708449255E+02  0.37843210382E+01 -0.10421431791E+02  0.16124984039E+02  0.00000000000E+00 0.  1.
</event>
<event>
 7    1  0.6164995E-012  0.5930200E+02  0.7816164E-02  0.1266605E+00
        -11   -1    0    0    0    0  0.00000000000E+00  0.00000000000E+00  0.45593999997E+02  0.45594000000E+02  0.51100000000E-03 0.  1.
         11   -1    0    0    0    0 -0.00000000000E+00 -0.00000000000E+00 -0.45593999997E+02  0.45594000000E+02  0.51100000000E-03 0. -1.
    9900012    2    1    2    0    0  0.16395511554E+02 -0.26648902776E+02  0.61433145408E+01  0.59301997870E+02  0.50000098195E+02 0.  0.
         12    1    1    2    0    0 -0.16395511554E+02  0.26648902776E+02 -0.61433145408E+01  0.31886002130E+02  0.00000000000E+00 0. -1.
         11    1    3    3    0    0  0.36350635849E+01  0.48323064565E+00 -0.47258531941E+01  0.59817127812E+01  0.51100000000E-03 0. -1.
        -11    1    3    3    0    0 -0.15807277155E+02 -0.93044126883E+01  0.59835505768E+01  0.19293651398E+02  0.51100000000E-03 0.  1.
         12    1    3    3    0    0  0.28567725123E+02 -0.17827720734E+02  0.48856171581E+01  0.34026633690E+02  0.00000000000E+00 0. -1.
</event>
<event>
 7    1  0.6164995E-012  0.5930198E+02  0.7816164E-02  0.1266605E+00
        -11   -1    0    0    0    0  0.00000000000E+00  0.00000000000E+00  0.45593999997E+02  0.45594000000E+02  0.51100000000E-03 0.  1.
         11   -1    0    0    0    0 -0.00000000000E+00 -0.00000000000E+00 -0.45593999997E+02  0.45594000000E+02  0.51100000000E-03 0. -1.
    9900012    2    1    2    0    0  0.15789063342E+02  0.91883649916E+01  0.26134229201E+02  0.59301976285E+02  0.50000058829E+02 0.  0.
         12    1    1    2    0    0 -0.15789063342E+02 -0.91883649916E+01 -0.26134229201E+02  0.31886023715E+02  0.00000000000E+00 0. -1.
         11    1    3    3    0    0 -0.27959506735E+01 -0.10318011379E+02  0.12326583142E+02  0.16316352263E+02  0.51100000000E-03 0. -1.
        -11    1    3    3    0    0 -0.22244898641E+01  0.42383129479E+01  0.16363784741E+02  0.17049489820E+02  0.51100000000E-03 0.  1.
         12    1    3    3    0    0  0.20809503879E+02  0.15268063422E+02 -0.25561386811E+01  0.25936134202E+02  0.00000000000E+00 0. -1.
</event>
<event>
 7    1  0.6164995E-012  0.5930193E+02  0.7816164E-02  0.1266605E+00
        -11   -1    0    0    0    0  0.00000000000E+00  0.00000000000E+00  0.45593999997E+02  0.45594000000E+02  0.51100000000E-03 0.  1.
         11   -1    0    0    0    0 -0.00000000000E+00 -0.00000000000E+00 -0.45593999997E+02  0.45594000000E+02  0.51100000000E-03 0. -1.
    9900012    2    1    2    0    0 -0.72375645240E+01 -0.24286794343E+01  0.30958688653E+02  0.59301933652E+02  0.49999981077E+02 0.  0.
         12    1    1    2    0    0  0.72375645240E+01  0.24286794343E+01 -0.30958688653E+02  0.31886066348E+02  0.00000000000E+00 0. -1.
         11    1    3    3    0    0 -0.20913377112E+02 -0.43923049032E+01  0.19817539923E+01  0.21461338116E+02  0.51100000000E-03 0. -1.
        -11    1    3    3    0    0 -0.51492590888E+01 -0.88896934506E-01  0.85915681242E+01  0.10016876505E+02  0.51100000000E-03 0.  1.
        -12    1    3    3    0    0  0.18825071677E+02  0.20525224034E+01  0.20385366536E+02  0.27823719030E+02  0.00000000000E+00 0.  1.
</event>
<event>
 7    1  0.6164995E-012  0.5930194E+02  0.7816164E-02  0.1266605E+00
        -11   -1    0    0    0    0  0.00000000000E+00  0.00000000000E+00  0.45593999997E+02  0.45594000000E+02  0.51100000000E-03 0. -1.
         11   -1    0    0    0    0 -0.00000000000E+00 -0.00000000000E+00 -0.45593999997E+02  0.45594000000E+02  0.51100000000E-03 0.  1.
    9900012    2    1    2    0    0 -0.21450903821E+02  0.12829607860E+02 -0.19798496854E+02  0.59301943639E+02  0.49999999291E+02 0.  0.
         12    1    1    2    0    0  0.21450903821E+02 -0.12829607860E+02  0.19798496854E+02  0.31886056361E+02  0.00000000000E+00 0. -1.
         11    1    3    3    0    0 -0.18561764824E+02 -0.53997020507E+01 -0.18229625017E+00  0.19332075103E+02  0.51100000000E-03 0. -1.
        -11    1    3    3    0    0 -0.12306842303E+02  0.20275085261E+00 -0.91836453616E+00  0.12342725350E+02  0.51100000000E-03 0.  1.
        -12    1    3    3    0    0  0.94177033054E+01  0.18026559059E+02 -0.18697836068E+02  0.27627143187E+02  0.00000000000E+00 0.  1.
</event>
<event>
 7    1  0.6164995E-012  0.5930193E+02  0.7816164E-02  0.1266605E+00
        -11   -1    0    0    0    0  0.00000000000E+00  0.00000000000E+00  0.45593999997E+02  0.45594000000E+02  0.51100000000E-03 0. -1.
         11   -1    0    0    0    0 -0.00000000000E+00 -0.00000000000E+00 -0.45593999997E+02  0.45594000000E+02  0.51100000000E-03 0.  1.
    9900012    2    1    2    0    0  0.12327083169E+02 -0.29036804303E+02 -0.46506466075E+01  0.59301929413E+02  0.49999973346E+02 0.  0.
         12    1    1    2    0    0 -0.12327083169E+02  0.29036804303E+02  0.46506466075E+01  0.31886070587E+02  0.00000000000E+00 0. -1.
         11    1    3    3    0    0  0.20308409242E+01 -0.15723344941E+01  0.35333999687E+01  0.43682337644E+01  0.51100000000E-03 0. -1.
        -11    1    3    3    0    0  0.91484720579E+00 -0.94409203719E+01  0.18857784407E+02  0.21108859653E+02  0.51100000000E-03 0.  1.
         12    1    3    3    0    0  0.93813950392E+01 -0.18023549437E+02 -0.27041830983E+02  0.33824835995E+02  0.00000000000E+00 0. -1.
</event>
<event>
 7    1  0.6164995E-012  0.5930194E+02  0.7816164E-02  0.1266605E+00
        -11   -1    0    0    0    0  0.00000000000E+00  0.00000000000E+00  0.45593999997E+02  0.45594000000E+02  0.51100000000E-03 0.  1.
         11   -1    0    0    0    0 -0.00000000000E+00 -0.00000000000E+00 -0.45593999997E+02  0.45594000000E+02  0.51100000000E-03 0. -1.
    9900012    2    1    2    0    0  0.13530950682E+02  0.41886939360E+01  0.28567270842E+02  0.59301941187E+02  0.49999994819E+02 0.  0.
         12    1    1    2    0    0 -0.13530950682E+02 -0.41886939360E+01 -0.28567270842E+02  0.31886058813E+02  0.00000000000E+00 0. -1.
         11    1    3    3    0    0  0.10526597220E+02  0.27643495501E+01  0.17565368200E+02  0.20663809855E+02  0.51100000000E-03 0.  1.
        -11    1    3    3    0    0  0.12547825731E+02  0.23233875590E+01 -0.95644630269E+01  0.15947570774E+02  0.51100000000E-03 0. -1.
         12    1    3    3    0    0 -0.95434722697E+01 -0.89904317316E+00  0.20566365670E+02  0.22690560558E+02  0.00000000000E+00 0. -1.
</event>
<event>
 7    1  0.6164995E-012  0.5930195E+02  0.7816164E-02  0.1266605E+00
        -11   -1    0    0    0    0  0.00000000000E+00  0.00000000000E+00  0.45593999997E+02  0.45594000000E+02  0.51100000000E-03 0.  1.
         11   -1    0    0    0    0 -0.00000000000E+00 -0.00000000000E+00 -0.45593999997E+02  0.45594000000E+02  0.51100000000E-03 0. -1.
    9900012    2    1    2    0    0 -0.26640867385E+02  0.94795632797E+01  0.14735070538E+02  0.59301949150E+02  0.50000009343E+02 0.  0.
         12    1    1    2    0    0  0.26640867385E+02 -0.94795632797E+01 -0.14735070538E+02  0.31886050850E+02  0.00000000000E+00 0. -1.
         11    1    3    3    0    0 -0.17569534982E+02  0.10745040934E+02 -0.20042535687E+01  0.20692063619E+02  0.51100000000E-03 0. -1.
        -11    1    3    3    0    0 -0.14418397469E+02  0.12357874796E+02  0.14302497329E+02  0.23773276702E+02  0.51100000000E-03 0.  1.
         12    1    3    3    0    0  0.53470650664E+01 -0.13623352451E+02  0.24368267783E+01  0.14836608830E+02  0.00000000000E+00 0. -1.
</event>
<event>
 7    1  0.6164995E-012  0.5930192E+02  0.7816164E-02  0.1266605E+00
        -11   -1    0    0    0    0  0.00000000000E+00  0.00000000000E+00  0.45593999997E+02  0.45594000000E+02  0.51100000000E-03 0. -1.
         11   -1    0    0    0    0 -0.00000000000E+00 -0.00000000000E+00 -0.45593999997E+02  0.45594000000E+02  0.51100000000E-03 0.  1.
    9900012    2    1    2    0    0 -0.43606739087E+01  0.27756612286E+02 -0.15075702608E+02  0.59301924486E+02  0.49999964361E+02 0.  0.
         12    1    1    2    0    0  0.43606739087E+01 -0.27756612286E+02  0.15075702608E+02  0.31886075514E+02  0.00000000000E+00 0. -1.
         11    1    3    3    0    0 -0.26095638802E+01  0.17811619219E+02 -0.10119487683E+02  0.20651092806E+02  0.51100000000E-03 0. -1.
        -11    1    3    3    0    0  0.11413211536E+02  0.12135442537E+02 -0.14627441943E+02  0.22169628351E+02  0.51100000000E-03 0.  1.
         12    1    3    3    0    0 -0.13164321565E+02 -0.21904494701E+01  0.96712270183E+01  0.16481203329E+02  0.00000000000E+00 0. -1.
</event>
<event>
 7    1  0.6164995E-012  0.5930195E+02  0.7816164E-02  0.1266605E+00
        -11   -1    0    0    0    0  0.00000000000E+00  0.00000000000E+00  0.45593999997E+02  0.45594000000E+02  0.51100000000E-03 0. -1.
         11   -1    0    0    0    0 -0.00000000000E+00 -0.00000000000E+00 -0.45593999997E+02  0.45594000000E+02  0.51100000000E-03 0.  1.
    9900012    2    1    2    0    0 -0.17398318324E+02  0.26553387657E+02 -0.29894077742E+01  0.59301946068E+02  0.50000003720E+02 0.  0.
         12    1    1    2    0    0  0.17398318324E+02 -0.26553387657E+02  0.29894077742E+01  0.31886053932E+02  0.00000000000E+00 0. -1.
         11    1    3    3    0    0 -0.23244307121E+02  0.15230487252E+02  0.12251528558E+02  0.30370470983E+02  0.51100000000E-03 0. -1.
        -11    1    3    3    0    0 -0.38271923640E+01 -0.17552029329E+01  0.24719547226E+01  0.48824890311E+01  0.51100000000E-03 0.  1.
        -12    1    3    3    0    0  0.96731811612E+01  0.13078103337E+02 -0.17712891055E+02  0.24048986053E+02  0.00000000000E+00 0.  1.
</event>
<event>
 7    1  0.6164995E-012  0.5930194E+02  0.7816164E-02  0.1266605E+00
        -11   -1    0    0    0    0  0.00000000000E+00  0.00000000000E+00  0.45593999997E+02  0.45594000000E+02  0.51100000000E-03 0. -1.
         11   -1    0    0    0    0 -0.00000000000E+00 -0.00000000000E+00 -0.45593999997E+02  0.45594000000E+02  0.51100000000E-03 0.  1.
    9900012    2    1    2    0    0  0.25133190856E+02  0.10830483250E+02 -0.16362886678E+02  0.59301941754E+02  0.49999995852E+02 0.  0.
         12    1    1    2    0    0 -0.25133190856E+02 -0.10830483250E+02  0.16362886678E+02  0.31886058246E+02  0.00000000000E+00 0. -1.
         11    1    3    3    0    0 -0.17142432230E+01  0.48966830131E+01 -0.15199021260E+01  0.54061295852E+01  0.51100000000E-03 0. -1.
        -11    1    3    3    0    0 -0.10958913270E+02 -0.28409125200E+01  0.21567389589E+01  0.11524759746E+02  0.51100000000E-03 0.  1.
        -12    1    3    3    0    0  0.37806347350E+02  0.87747127571E+01 -0.16999723511E+02  0.42371052422E+02  0.00000000000E+00 0.  1.
</event>
<event>
 7    1  0.6164995E-012  0.5930195E+02  0.7816164E-02  0.1266605E+00
        -11   -1    0    0    0    0  0.00000000000E+00  0.00000000000E+00  0.45593999997E+02  0.45594000000E+02  0.51100000000E-03 0. -1.
         11   -1    0    0    0    0 -0.00000000000E+00 -0.00000000000E+00 -0.45593999997E+02  0.45594000000E+02  0.51100000000E-03 0.  1.
    9900012    2    1    2    0    0  0.15673160086E+02  0.23045884549E+02 -0.15490629646E+02  0.59301947429E+02  0.50000006204E+02 0.  0.
         12    1    1    2    0    0 -0.15673160086E+02 -0.23045884549E+02  0.15490629646E+02  0.31886052571E+02  0.00000000000E+00 0. -1.
         11    1    3    3    0    0  0.43131028695E+01 -0.20344884268E+01  0.95242796520E+01  0.10651474202E+02  0.51100000000E-03 0. -1.
        -11    1    3    3    0    0  0.51974351177E+01 -0.66965095372E+01 -0.14206502211E+01  0.85950461952E+01  0.51100000000E-03 0.  1.
         12    1    3    3    0    0  0.61626220988E+01  0.31776882513E+02 -0.23594259077E+02  0.40055427032E+02  0.00000000000E+00 0. -1.
</event>
<event>
 7    1  0.6164995E-012  0.5930194E+02  0.7816164E-02  0.1266605E+00
        -11   -1    0    0    0    0  0.00000000000E+00  0.00000000000E+00  0.45593999997E+02  0.45594000000E+02  0.51100000000E-03 0. -1.
         11   -1    0    0    0    0 -0.00000000000E+00 -0.00000000000E+00 -0.45593999997E+02  0.45594000000E+02  0.51100000000E-03 0.  1.
    9900012    2    1    2    0    0  0.38028864951E+01 -0.44319485542E+00 -0.31655365476E+02  0.59301944571E+02  0.50000000991E+02 0.  0.
         12    1    1    2    0    0 -0.38028864951E+01  0.44319485542E+00  0.31655365476E+02  0.31886055429E+02  0.00000000000E+00 0. -1.
         11    1    3    3    0    0 -0.47000080039E+01  0.10330150037E+02  0.15753304815E+01  0.11457911739E+02  0.51100000000E-03 0. -1.
        -11    1    3    3    0    0 -0.46630654959E+01  0.92667526987E+01 -0.11448028102E+02  0.15449085186E+02  0.51100000000E-03 0.  1.
         12    1    3    3    0    0  0.13165959995E+02 -0.20040097591E+02 -0.21782667856E+02  0.32394947646E+02  0.00000000000E+00 0. -1.
</event>
<event>
 7    1  0.6164995E-012  0.5930195E+02  0.7816164E-02  0.1266605E+00
        -11   -1    0    0    0    0  0.00000000000E+00  0.00000000000E+00  0.45593999997E+02  0.45594000000E+02  0.51100000000E-03 0. -1.
         11   -1    0    0    0    0 -0.00000000000E+00 -0.00000000000E+00 -0.45593999997E+02  0.45594000000E+02  0.51100000000E-03 0.  1.
    9900012    2    1    2    0    0  0.98825160801E+01 -0.62063297433E+01 -0.29673849522E+02  0.59301952919E+02  0.50000016216E+02 0.  0.
         12    1    1    2    0    0 -0.98825160801E+01  0.62063297433E+01  0.29673849522E+02  0.31886047081E+02  0.00000000000E+00 0. -1.
         11    1    3    3    0    0  0.19025205613E+02 -0.45584658639E+01 -0.37153927756E+01  0.19913367454E+02  0.51100000000E-03 0. -1.
        -11    1    3    3    0    0  0.41899521525E+01 -0.97887662206E+01 -0.20721189190E+01  0.10847549043E+02  0.51100000000E-03 0.  1.
         12    1    3    3    0    0 -0.13332641685E+02  0.81409023413E+01 -0.23886337828E+02  0.28541036422E+02  0.00000000000E+00 0. -1.
</event>
<event>
 7    1  0.6164995E-012  0.5930193E+02  0.7816164E-02  0.1266605E+00
        -11   -1    0    0    0    0  0.00000000000E+00  0.00000000000E+00  0.45593999997E+02  0.45594000000E+02  0.51100000000E-03 0.  1.
         11   -1    0    0    0    0 -0.00000000000E+00 -0.00000000000E+00 -0.45593999997E+02  0.45594000000E+02  0.51100000000E-03 0. -1.
    9900012    2    1    2    0    0  0.13297438620E+02  0.48770751232E+01  0.28567701487E+02  0.59301932449E+02  0.49999978884E+02 0.  0.
         12    1    1    2    0    0 -0.13297438620E+02 -0.48770751232E+01 -0.28567701487E+02  0.31886067551E+02  0.00000000000E+00 0. -1.
         11    1    3    3    0    0  0.89730115208E+01  0.12088341665E+02  0.14811720126E+01  0.15127353065E+02  0.51100000000E-03 0. -1.
        -11    1    3    3    0    0 -0.47608376889E+01 -0.15207626371E+02  0.16689885162E+01  0.16022577766E+02  0.51100000000E-03 0.  1.
         12    1    3    3    0    0  0.90852647877E+01  0.79963598289E+01  0.25417540958E+02  0.28152001618E+02  0.00000000000E+00 0. -1.
</event>
<event>
 7    1  0.6164995E-012  0.5930193E+02  0.7816164E-02  0.1266605E+00
        -11   -1    0    0    0    0  0.00000000000E+00  0.00000000000E+00  0.45593999997E+02  0.45594000000E+02  0.51100000000E-03 0. -1.
         11   -1    0    0    0    0 -0.00000000000E+00 -0.00000000000E+00 -0.45593999997E+02  0.45594000000E+02  0.51100000000E-03 0.  1.
    9900012    2    1    2    0    0 -0.25067512045E+02  0.39881951377E+01 -0.19298586510E+02  0.59301932480E+02  0.49999978940E+02 0.  0.
         12    1    1    2    0    0  0.25067512045E+02 -0.39881951377E+01  0.19298586510E+02  0.31886067520E+02  0.00000000000E+00 0. -1.
         11    1    3    3    0    0 -0.58832376448E+01 -0.11262748363E+02 -0.11253130788E+02  0.16973359675E+02  0.51100000000E-03 0. -1.
        -11    1    3    3    0    0 -0.80395353228E+01 -0.25007805086E+01 -0.17434908251E+02  0.19361406389E+02  0.51100000000E-03 0.  1.
         12    1    3    3    0    0 -0.11144739077E+02  0.17751724009E+02  0.93894525291E+01  0.22967166416E+02  0.00000000000E+00 0. -1.
</event>
<event>
 7    1  0.6164995E-012  0.5930194E+02  0.7816164E-02  0.1266605E+00
        -11   -1    0    0    0    0  0.00000000000E+00  0.00000000000E+00  0.45593999997E+02  0.45594000000E+02  0.51100000000E-03 0.  1.
         11   -1    0    0    0    0 -0.00000000000E+00 -0.00000000000E+00 -0.45593999997E+02  0.45594000000E+02  0.51100000000E-03 0. -1.
    9900012    2    1    2    0    0 -0.27086301906E+02 -0.59023265469E+01  0.15754863109E+02  0.59301938450E+02  0.49999989827E+02 0.  0.
         12    1    1    2    0    0  0.27086301906E+02  0.59023265469E+01 -0.15754863109E+02  0.31886061550E+02  0.00000000000E+00 0. -1.
         11    1    3    3    0    0  0.13394633167E+01  0.66632417771E+01 -0.82806860292E+01  0.10712736081E+02  0.51100000000E-03 0. -1.
        -11    1    3    3    0    0 -0.10243340063E+02 -0.10958518041E+02 -0.36403821670E+01  0.15435916425E+02  0.51100000000E-03 0.  1.
         12    1    3    3    0    0 -0.18182425160E+02 -0.16070502827E+01  0.27675931305E+02  0.33153285944E+02  0.00000000000E+00 0. -1.
</event>
<event>
 7    1  0.6164995E-012  0.5930194E+02  0.7816164E-02  0.1266605E+00
        -11   -1    0    0    0    0  0.00000000000E+00  0.00000000000E+00  0.45593999997E+02  0.45594000000E+02  0.51100000000E-03 0.  1.
         11   -1    0    0    0    0 -0.00000000000E+00 -0.00000000000E+00 -0.45593999997E+02  0.45594000000E+02  0.51100000000E-03 0. -1.
    9900012    2    1    2    0    0 -0.16369722310E+02 -0.27330170971E+02  0.13471400525E+01  0.59301939720E+02  0.49999992144E+02 0.  0.
         12    1    1    2    0    0  0.16369722310E+02  0.27330170971E+02 -0.13471400525E+01  0.31886060280E+02  0.00000000000E+00 0. -1.
         11    1    3    3    0    0 -0.10511289218E+02 -0.11148412649E+02 -0.18351967506E+02  0.23907509640E+02  0.51100000000E-03 0. -1.
        -11    1    3    3    0    0 -0.94655693345E+01 -0.20588443871E+02  0.11498852862E+02  0.25410719023E+02  0.51100000000E-03 0.  1.
        -12    1    3    3    0    0  0.36071362419E+01  0.44066855489E+01  0.82002546960E+01  0.99837110572E+01  0.00000000000E+00 0.  1.
</event>
<event>
 7    1  0.6164995E-012  0.5930204E+02  0.7816164E-02  0.1266604E+00
        -11   -1    0    0    0    0  0.00000000000E+00  0.00000000000E+00  0.45593999997E+02  0.45594000000E+02  0.51100000000E-03 0.  1.
         11   -1    0    0    0    0 -0.00000000000E+00 -0.00000000000E+00 -0.45593999997E+02  0.45594000000E+02  0.51100000000E-03 0. -1.
    9900012    2    1    2    0    0  0.26593057416E+02  0.17588911550E+02 -0.39273216330E+00  0.59302035206E+02  0.50000166288E+02 0.  0.
         12    1    1    2    0    0 -0.26593057416E+02 -0.17588911550E+02  0.39273216330E+00  0.31885964794E+02  0.00000000000E+00 0. -1.
         11    1    3    3    0    0  0.86221984906E+01  0.89852976051E+01 -0.13948642724E+02  0.18698730277E+02  0.51100000000E-03 0. -1.
        -11    1    3    3    0    0  0.24098950912E+02  0.14467074490E+02  0.49872442304E+01  0.28546948779E+02  0.51100000000E-03 0.  1.
         12    1    3    3    0    0 -0.61280919863E+01 -0.58634605446E+01  0.85686663300E+01  0.12056356150E+02  0.00000000000E+00 0. -1.
</event>
<event>
 7    1  0.6164995E-012  0.5930196E+02  0.7816164E-02  0.1266605E+00
        -11   -1    0    0    0    0  0.00000000000E+00  0.00000000000E+00  0.45593999997E+02  0.45594000000E+02  0.51100000000E-03 0. -1.
         11   -1    0    0    0    0 -0.00000000000E+00 -0.00000000000E+00 -0.45593999997E+02  0.45594000000E+02  0.51100000000E-03 0.  1.
    9900012    2    1    2    0    0 -0.23929793663E+02  0.33120246005E+01 -0.20811419081E+02  0.59301957664E+02  0.50000024869E+02 0.  0.
         12    1    1    2    0    0  0.23929793663E+02 -0.33120246005E+01  0.20811419081E+02  0.31886042336E+02  0.00000000000E+00 0. -1.
         11    1    3    3    0    0 -0.64584167184E+01 -0.14021388512E+01  0.45922310512E+01  0.80477155861E+01  0.51100000000E-03 0. -1.
        -11    1    3    3    0    0 -0.28501884913E+02 -0.59011153948E+01 -0.18267645003E+02  0.34364043137E+02  0.51100000000E-03 0.  1.
        -12    1    3    3    0    0  0.11030507969E+02  0.10615278847E+02 -0.71360051298E+01  0.16890198941E+02  0.00000000000E+00 0.  1.
</event>
<event>
 7    1  0.6164995E-012  0.5930192E+02  0.7816164E-02  0.1266605E+00
        -11   -1    0    0    0    0  0.00000000000E+00  0.00000000000E+00  0.45593999997E+02  0.45594000000E+02  0.51100000000E-03 0.  1.
         11   -1    0    0    0    0 -0.00000000000E+00 -0.00000000000E+00 -0.45593999997E+02  0.45594000000E+02  0.51100000000E-03 0. -1.
    9900012    2    1    2    0    0  0.13936779928E+02  0.24686304786E+02  0.14597081513E+02  0.59301917339E+02  0.49999951326E+02 0.  0.
         12    1    1    2    0    0 -0.13936779928E+02 -0.24686304786E+02 -0.14597081513E+02  0.31886082661E+02  0.00000000000E+00 0. -1.
         11    1    3    3    0    0 -0.65810535152E+01  0.67686756531E+01 -0.57997146567E+01  0.11079798095E+02  0.51100000000E-03 0. -1.
        -11    1    3    3    0    0  0.25518637892E+01  0.16358140524E+02 -0.47991602014E+01  0.17237537791E+02  0.51100000000E-03 0.  1.
        -12    1    3    3    0    0  0.17965969654E+02  0.15594886088E+01  0.25195956371E+02  0.30984581453E+02  0.00000000000E+00 0.  1.
</event>
<event>
 7    1  0.6164995E-012  0.5930183E+02  0.7816164E-02  0.1266605E+00
        -11   -1    0    0    0    0  0.00000000000E+00  0.00000000000E+00  0.45593999997E+02  0.45594000000E+02  0.51100000000E-03 0.  1.
         11   -1    0    0    0    0 -0.00000000000E+00 -0.00000000000E+00 -0.45593999997E+02  0.45594000000E+02  0.51100000000E-03 0. -1.
    9900012    2    1    2    0    0  0.39491797170E+01  0.29733446445E+02  0.10819151929E+02  0.59301828916E+02  0.49999790064E+02 0.  0.
         12    1    1    2    0    0 -0.39491797170E+01 -0.29733446445E+02 -0.10819151929E+02  0.31886171084E+02  0.00000000000E+00 0. -1.
         11    1    3    3    0    0 -0.72142123638E+01  0.10587506494E+02 -0.99093070058E+00  0.12849984346E+02  0.51100000000E-03 0. -1.
        -11    1    3    3    0    0 -0.10978733995E+02  0.19944840592E+02  0.62080708980E+01  0.23598080661E+02  0.51100000000E-03 0.  1.
         12    1    3    3    0    0  0.22142126075E+02 -0.79890064103E+00  0.56020117311E+01  0.22853763909E+02  0.00000000000E+00 0. -1.
</event>
<event>
 7    1  0.6164995E-012  0.5930194E+02  0.7816164E-02  0.1266605E+00
        -11   -1    0    0    0    0  0.00000000000E+00  0.00000000000E+00  0.45593999997E+02  0.45594000000E+02  0.51100000000E-03 0. -1.
         11   -1    0    0    0    0 -0.00000000000E+00 -0.00000000000E+00 -0.45593999997E+02  0.45594000000E+02  0.51100000000E-03 0.  1.
    9900012    2    1    2    0    0  0.22065369034E+02 -0.67719821252E+01 -0.21999552654E+02  0.59301943965E+02  0.49999999885E+02 0.  0.
         12    1    1    2    0    0 -0.22065369034E+02  0.67719821252E+01  0.21999552654E+02  0.31886056035E+02  0.00000000000E+00 0. -1.
         11    1    3    3    0    0  0.29878007424E+02  0.16208612264E+01 -0.11851091432E+02  0.32183394587E+02  0.51100000000E-03 0. -1.
        -11    1    3    3    0    0  0.52924184444E+01 -0.84040686551E+01  0.90715968447E+00  0.99730136822E+01  0.51100000000E-03 0.  1.
         12    1    3    3    0    0 -0.13105056835E+02  0.11225303545E-01 -0.11055620907E+02  0.17145535695E+02  0.00000000000E+00 0. -1.
</event>
<event>
 7    1  0.6164995E-012  0.5930195E+02  0.7816164E-02  0.1266605E+00
        -11   -1    0    0    0    0  0.00000000000E+00  0.00000000000E+00  0.45593999997E+02  0.45594000000E+02  0.51100000000E-03 0. -1.
         11   -1    0    0    0    0 -0.00000000000E+00 -0.00000000000E+00 -0.45593999997E+02  0.45594000000E+02  0.51100000000E-03 0.  1.
    9900012    2    1    2    0    0 -0.19002464094E+02  0.12645872613E+02  0.22264512604E+02  0.59301948861E+02  0.50000008814E+02 0.  0.
         12    1    1    2    0    0  0.19002464094E+02 -0.12645872613E+02 -0.22264512604E+02  0.31886051139E+02  0.00000000000E+00 0. -1.
         11    1    3    3    0    0 -0.14080357774E+01  0.66482147072E+01  0.99728414688E+01  0.12068093916E+02  0.51100000000E-03 0. -1.
        -11    1    3    3    0    0 -0.31153400514E+01  0.21196025834E+02 -0.24788880815E+01  0.21566681274E+02  0.51100000000E-03 0.  1.
         12    1    3    3    0    0 -0.14479088265E+02 -0.15198367928E+02  0.14770559217E+02  0.25667173671E+02  0.00000000000E+00 0. -1.
</event>
<event>
 7    1  0.6164995E-012  0.5930194E+02  0.7816164E-02  0.1266605E+00
        -11   -1    0    0    0    0  0.00000000000E+00  0.00000000000E+00  0.45593999997E+02  0.45594000000E+02  0.51100000000E-03 0. -1.
         11   -1    0    0    0    0 -0.00000000000E+00 -0.00000000000E+00 -0.45593999997E+02  0.45594000000E+02  0.51100000000E-03 0.  1.
    9900012    2    1    2    0    0 -0.65302409712E+01 -0.29886462610E+02 -0.89931189976E+01  0.59301939036E+02  0.49999990897E+02 0.  0.
         12    1    1    2    0    0  0.65302409712E+01  0.29886462610E+02  0.89931189976E+01  0.31886060964E+02  0.00000000000E+00 0. -1.
         11    1    3    3    0    0  0.19069012384E+01 -0.74387966739E+00 -0.18936005053E+02  0.19046309798E+02  0.51100000000E-03 0. -1.
        -11    1    3    3    0    0  0.12271803289E+00 -0.25950508020E+02 -0.10377633608E+01  0.25971539793E+02  0.51100000000E-03 0.  1.
        -12    1    3    3    0    0 -0.85598602425E+01 -0.31920749231E+01  0.10980649416E+02  0.14284089445E+02  0.00000000000E+00 0.  1.
</event>
<event>
 7    1  0.6164995E-012  0.5930194E+02  0.7816164E-02  0.1266605E+00
        -11   -1    0    0    0    0  0.00000000000E+00  0.00000000000E+00  0.45593999997E+02  0.45594000000E+02  0.51100000000E-03 0.  1.
         11   -1    0    0    0    0 -0.00000000000E+00 -0.00000000000E+00 -0.45593999997E+02  0.45594000000E+02  0.51100000000E-03 0. -1.
    9900012    2    1    2    0    0 -0.72768617399E+01  0.24944144360E+02  0.18481273302E+02  0.59301944780E+02  0.50000001372E+02 0.  0.
         12    1    1    2    0    0  0.72768617399E+01 -0.24944144360E+02 -0.18481273302E+02  0.31886055220E+02  0.00000000000E+00 0. -1.
         11    1    3    3    0    0  0.62339408843E+01  0.10529209599E+02 -0.10283502502E+02  0.15983638437E+02  0.51100000000E-03 0. -1.
        -11    1    3    3    0    0  0.65163116499E+00 -0.57559070116E+01  0.49557044565E+00  0.58138351395E+01  0.51100000000E-03 0.  1.
         12    1    3    3    0    0 -0.14162433789E+02  0.20170841773E+02  0.28269205358E+02  0.37504471203E+02  0.00000000000E+00 0. -1.
</event>
<event>
 7    1  0.6164995E-012  0.5930195E+02  0.7816164E-02  0.1266605E+00
        -11   -1    0    0    0    0  0.00000000000E+00  0.00000000000E+00  0.45593999997E+02  0.45594000000E+02  0.51100000000E-03 0. -1.
         11   -1    0    0    0    0 -0.00000000000E+00 -0.00000000000E+00 -0.45593999997E+02  0.45594000000E+02  0.51100000000E-03 0.  1.
    9900012    2    1    2    0    0  0.80682140201E+01  0.27431904247E+02 -0.14110803864E+02  0.59301949229E+02  0.50000009485E+02 0.  0.
         12    1    1    2    0    0 -0.80682140201E+01 -0.27431904247E+02  0.14110803864E+02  0.31886050771E+02  0.00000000000E+00 0. -1.
         11    1    3    3    0    0 -0.29334498861E+01  0.16236299209E+02 -0.39770076037E+01  0.16971715587E+02  0.51100000000E-03 0. -1.
        -11    1    3    3    0    0  0.12128512611E+02  0.24314910333E+02 -0.29531350916E+01  0.27331971934E+02  0.51100000000E-03 0.  1.
         12    1    3    3    0    0 -0.11268487044E+01 -0.13119305295E+02 -0.71806611689E+01  0.14998261708E+02  0.00000000000E+00 0. -1.
</event>
<event>
 7    1  0.6164995E-012  0.5930195E+02  0.7816164E-02  0.1266605E+00
        -11   -1    0    0    0    0  0.00000000000E+00  0.00000000000E+00  0.45593999997E+02  0.45594000000E+02  0.51100000000E-03 0.  1.
         11   -1    0    0    0    0 -0.00000000000E+00 -0.00000000000E+00 -0.45593999997E+02  0.45594000000E+02  0.51100000000E-03 0. -1.
    9900012    2    1    2    0    0  0.46593675171E+01 -0.29673501993E+02  0.10700189589E+02  0.59301945314E+02  0.50000002346E+02 0.  0.
         12    1    1    2    0    0 -0.46593675171E+01  0.29673501993E+02 -0.10700189589E+02  0.31886054686E+02  0.00000000000E+00 0. -1.
         11    1    3    3    0    0  0.95690135386E+01 -0.18577835039E+02 -0.74775312297E+01  0.22194941955E+02  0.51100000000E-03 0. -1.
        -11    1    3    3    0    0 -0.64212502065E+01 -0.15128306330E+02 -0.19260352321E+01  0.16547136266E+02  0.51100000000E-03 0.  1.
        -12    1    3    3    0    0  0.15116041850E+01  0.40326393754E+01  0.20103756050E+02  0.20559867093E+02  0.00000000000E+00 0.  1.
</event>
<event>
 7    1  0.6164995E-012  0.5930195E+02  0.7816164E-02  0.1266605E+00
        -11   -1    0    0    0    0  0.00000000000E+00  0.00000000000E+00  0.45593999997E+02  0.45594000000E+02  0.51100000000E-03 0. -1.
         11   -1    0    0    0    0 -0.00000000000E+00 -0.00000000000E+00 -0.45593999997E+02  0.45594000000E+02  0.51100000000E-03 0.  1.
    9900012    2    1    2    0    0  0.19613957560E+02  0.24174463619E+02 -0.68998839609E+01  0.59301946291E+02  0.50000004128E+02 0.  0.
         12    1    1    2    0    0 -0.19613957560E+02 -0.24174463619E+02  0.68998839609E+01  0.31886053709E+02  0.00000000000E+00 0. -1.
         11    1    3    3    0    0  0.20816174428E+02  0.81837057482E+01 -0.87143065462E+01  0.24004693216E+02  0.51100000000E-03 0. -1.
        -11    1    3    3    0    0 -0.39421934073E+01  0.12244059360E+02 -0.13884115626E+02  0.18926873631E+02  0.51100000000E-03 0.  1.
         12    1    3    3    0    0  0.27399765398E+01  0.37466985105E+01  0.15698538211E+02  0.16370379444E+02  0.00000000000E+00 0. -1.
</event>
<event>
 7    1  0.6164995E-012  0.5930203E+02  0.7816164E-02  0.1266604E+00
        -11   -1    0    0    0    0  0.00000000000E+00  0.00000000000E+00  0.45593999997E+02  0.45594000000E+02  0.51100000000E-03 0.  1.
         11   -1    0    0    0    0 -0.00000000000E+00 -0.00000000000E+00 -0.45593999997E+02  0.45594000000E+02  0.51100000000E-03 0. -1.
    9900012    2    1    2    0    0  0.16508139987E+02 -0.45465864616E+01  0.26898418510E+02  0.59302030474E+02  0.50000157656E+02 0.  0.
         12    1    1    2    0    0 -0.16508139987E+02  0.45465864616E+01 -0.26898418510E+02  0.31885969526E+02  0.00000000000E+00 0. -1.
         11    1    3    3    0    0 -0.86707377199E+01  0.96538029755E+01 -0.13485589847E+01  0.13045927184E+02  0.51100000000E-03 0. -1.
        -11    1    3    3    0    0  0.14065913751E+02  0.16693168485E+01  0.21489069908E+02  0.25737456637E+02  0.51100000000E-03 0.  1.
        -12    1    3    3    0    0  0.11112963956E+02 -0.15869706286E+02  0.67579075870E+01  0.20518646652E+02  0.00000000000E+00 0.  1.
</event>
<event>
 7    1  0.6164995E-012  0.5930193E+02  0.7816164E-02  0.1266605E+00
        -11   -1    0    0    0    0  0.00000000000E+00  0.00000000000E+00  0.45593999997E+02  0.45594000000E+02  0.51100000000E-03 0. -1.
         11   -1    0    0    0    0 -0.00000000000E+00 -0.00000000000E+00 -0.45593999997E+02  0.45594000000E+02  0.51100000000E-03 0.  1.
    9900012    2    1    2    0    0 -0.29193111184E+02  0.12160304259E+02  0.40756256183E+01  0.59301929931E+02  0.49999974291E+02 0.  0.
         12    1    1    2    0    0  0.29193111184E+02 -0.12160304259E+02 -0.40756256183E+01  0.31886070069E+02  0.00000000000E+00 0. -1.
         11    1    3    3    0    0 -0.20306910697E+02  0.22894576441E+02  0.41794727612E+01  0.30886894393E+02  0.51100000000E-03 0. -1.
        -11    1    3    3    0    0 -0.15555245296E+02 -0.45435104480E+00 -0.29406003444E+01  0.15837273179E+02  0.51100000000E-03 0.  1.
         12    1    3    3    0    0  0.66690448089E+01 -0.10279921136E+02  0.28367532016E+01  0.12577762359E+02  0.00000000000E+00 0. -1.
</event>
<event>
 7    1  0.6164995E-012  0.5930202E+02  0.7816164E-02  0.1266604E+00
        -11   -1    0    0    0    0  0.00000000000E+00  0.00000000000E+00  0.45593999997E+02  0.45594000000E+02  0.51100000000E-03 0.  1.
         11   -1    0    0    0    0 -0.00000000000E+00 -0.00000000000E+00 -0.45593999997E+02  0.45594000000E+02  0.51100000000E-03 0. -1.
    9900012    2    1    2    0    0  0.17549102738E+02  0.45083380652E+00  0.26618440704E+02  0.59302021208E+02  0.50000140758E+02 0.  0.
         12    1    1    2    0    0 -0.17549102738E+02 -0.45083380652E+00 -0.26618440704E+02  0.31885978792E+02  0.00000000000E+00 0. -1.
         11    1    3    3    0    0  0.48727361889E+01 -0.60598522137E+01 -0.49711063218E+01  0.92291530025E+01  0.51100000000E-03 0.  1.
        -11    1    3    3    0    0 -0.12786249330E+02  0.14385060332E+01  0.96968464287E+01  0.16111682174E+02  0.51100000000E-03 0. -1.
        -12    1    3    3    0    0  0.25462615879E+02  0.50721799870E+01  0.21892700597E+02  0.33961186032E+02  0.00000000000E+00 0.  1.
</event>
<event>
 7    1  0.6164995E-012  0.5930194E+02  0.7816164E-02  0.1266605E+00
        -11   -1    0    0    0    0  0.00000000000E+00  0.00000000000E+00  0.45593999997E+02  0.45594000000E+02  0.51100000000E-03 0.  1.
         11   -1    0    0    0    0 -0.00000000000E+00 -0.00000000000E+00 -0.45593999997E+02  0.45594000000E+02  0.51100000000E-03 0. -1.
    9900012    2    1    2    0    0 -0.20530724804E+02  0.59950029479E+00  0.24389562526E+02  0.59301940008E+02  0.49999992669E+02 0.  0.
         12    1    1    2    0    0  0.20530724804E+02 -0.59950029479E+00 -0.24389562526E+02  0.31886059992E+02  0.00000000000E+00 0. -1.
         11    1    3    3    0    0 -0.17368455741E+02 -0.51310282566E+01  0.13908215068E+02  0.22834823241E+02  0.51100000000E-03 0.  1.
        -11    1    3    3    0    0 -0.27587053688E+00  0.10461041583E+02  0.21623710724E+02  0.24022788375E+02  0.51100000000E-03 0. -1.
         12    1    3    3    0    0 -0.28863985262E+01 -0.47305130315E+01 -0.11142363265E+02  0.12444328392E+02  0.00000000000E+00 0. -1.
</event>
<event>
 7    1  0.6164995E-012  0.5930194E+02  0.7816164E-02  0.1266605E+00
        -11   -1    0    0    0    0  0.00000000000E+00  0.00000000000E+00  0.45593999997E+02  0.45594000000E+02  0.51100000000E-03 0. -1.
         11   -1    0    0    0    0 -0.00000000000E+00 -0.00000000000E+00 -0.45593999997E+02  0.45594000000E+02  0.51100000000E-03 0.  1.
    9900012    2    1    2    0    0 -0.27387809807E+01  0.18822610646E+02 -0.25591583710E+02  0.59301941141E+02  0.49999994735E+02 0.  0.
         12    1    1    2    0    0  0.27387809807E+01 -0.18822610646E+02  0.25591583710E+02  0.31886058859E+02  0.00000000000E+00 0. -1.
         11    1    3    3    0    0 -0.19821891735E+01 -0.52131898895E-01  0.70031628616E+01  0.72784670077E+01  0.51100000000E-03 0. -1.
        -11    1    3    3    0    0 -0.17668489029E+02  0.10550943337E+02 -0.23034503100E+02  0.30888286504E+02  0.51100000000E-03 0.  1.
         12    1    3    3    0    0  0.16911897221E+02  0.83237992081E+01 -0.95602434719E+01  0.21135187629E+02  0.00000000000E+00 0. -1.
</event>
<event>
 7    1  0.6164995E-012  0.5930195E+02  0.7816164E-02  0.1266605E+00
        -11   -1    0    0    0    0  0.00000000000E+00  0.00000000000E+00  0.45593999997E+02  0.45594000000E+02  0.51100000000E-03 0.  1.
         11   -1    0    0    0    0 -0.00000000000E+00 -0.00000000000E+00 -0.45593999997E+02  0.45594000000E+02  0.51100000000E-03 0. -1.
    9900012    2    1    2    0    0 -0.27090466281E+02  0.97884107645E+01 -0.13675311275E+02  0.59301945256E+02  0.50000002241E+02 0.  0.
         12    1    1    2    0    0  0.27090466281E+02 -0.97884107645E+01  0.13675311275E+02  0.31886054744E+02  0.00000000000E+00 0. -1.
         11    1    3    3    0    0 -0.20112803398E+02  0.36393454124E+01 -0.24473418446E+01  0.20585411774E+02  0.51100000000E-03 0. -1.
        -11    1    3    3    0    0 -0.17461697118E+02 -0.74497957350E+01 -0.16529633518E+01  0.19056301080E+02  0.51100000000E-03 0.  1.
         12    1    3    3    0    0  0.10484034235E+02  0.13598861087E+02 -0.95750060790E+01  0.19660232402E+02  0.00000000000E+00 0. -1.
</event>
<event>
 7    1  0.6164995E-012  0.5930194E+02  0.7816164E-02  0.1266605E+00
        -11   -1    0    0    0    0  0.00000000000E+00  0.00000000000E+00  0.45593999997E+02  0.45594000000E+02  0.51100000000E-03 0.  1.
         11   -1    0    0    0    0 -0.00000000000E+00 -0.00000000000E+00 -0.45593999997E+02  0.45594000000E+02  0.51100000000E-03 0. -1.
    9900012    2    1    2    0    0  0.14970343554E+02  0.27629572353E+02  0.54052096417E+01  0.59301941200E+02  0.49999994844E+02 0.  0.
         12    1    1    2    0    0 -0.14970343554E+02 -0.27629572353E+02 -0.54052096417E+01  0.31886058800E+02  0.00000000000E+00 0. -1.
         11    1    3    3    0    0 -0.54842613244E+01  0.82189672700E+01 -0.75379506394E+01  0.12427761076E+02  0.51100000000E-03 0. -1.
        -11    1    3    3    0    0  0.12659719825E+02  0.22755547209E+02  0.22272067089E+02  0.34265557160E+02  0.51100000000E-03 0.  1.
         12    1    3    3    0    0  0.77948850537E+01 -0.33449421264E+01 -0.93289068077E+01  0.12608622964E+02  0.00000000000E+00 0. -1.
</event>
<event>
 7    1  0.6164995E-012  0.5930195E+02  0.7816164E-02  0.1266605E+00
        -11   -1    0    0    0    0  0.00000000000E+00  0.00000000000E+00  0.45593999997E+02  0.45594000000E+02  0.51100000000E-03 0.  1.
         11   -1    0    0    0    0 -0.00000000000E+00 -0.00000000000E+00 -0.45593999997E+02  0.45594000000E+02  0.51100000000E-03 0. -1.
    9900012    2    1    2    0    0 -0.74403251809E+01  0.30312081992E+02  0.65222173007E+01  0.59301951766E+02  0.50000014112E+02 0.  0.
         12    1    1    2    0    0  0.74403251809E+01 -0.30312081992E+02 -0.65222173007E+01  0.31886048234E+02  0.00000000000E+00 0. -1.
         11    1    3    3    0    0  0.44924964473E+01  0.36263173786E+01 -0.13630559257E+02  0.14802866208E+02  0.51100000000E-03 0.  1.
        -11    1    3    3    0    0 -0.98011544586E+01 -0.16047233689E+01  0.10690792542E+02  0.14592148959E+02  0.51100000000E-03 0. -1.
        -12    1    3    3    0    0 -0.21316671697E+01  0.28290487982E+02  0.94619840158E+01  0.29906936599E+02  0.00000000000E+00 0.  1.
</event>
<event>
 7    1  0.6164995E-012  0.5930194E+02  0.7816164E-02  0.1266605E+00
        -11   -1    0    0    0    0  0.00000000000E+00  0.00000000000E+00  0.45593999997E+02  0.45594000000E+02  0.51100000000E-03 0.  1.
         11   -1    0    0    0    0 -0.00000000000E+00 -0.00000000000E+00 -0.45593999997E+02  0.45594000000E+02  0.51100000000E-03 0. -1.
    9900012    2    1    2    0    0  0.12752073987E+02 -0.15995585527E+02  0.24459077756E+02  0.59301942984E+02  0.49999998096E+02 0.  0.
         12    1    1    2    0    0 -0.12752073987E+02  0.15995585527E+02 -0.24459077756E+02  0.31886057016E+02  0.00000000000E+00 0. -1.
         11    1    3    3    0    0 -0.66097622718E+01  0.97615097985E+00 -0.68215297459E+01  0.95485651467E+01  0.51100000000E-03 0. -1.
        -11    1    3    3    0    0  0.48877012695E+01  0.45683213924E+01  0.20654066174E+02  0.21710588058E+02  0.51100000000E-03 0.  1.
        -12    1    3    3    0    0  0.14474134990E+02 -0.21540057899E+02  0.10626541329E+02  0.28042789780E+02  0.00000000000E+00 0.  1.
</event>
<event>
 7    1  0.6164995E-012  0.5930196E+02  0.7816164E-02  0.1266605E+00
        -11   -1    0    0    0    0  0.00000000000E+00  0.00000000000E+00  0.45593999997E+02  0.45594000000E+02  0.51100000000E-03 0.  1.
         11   -1    0    0    0    0 -0.00000000000E+00 -0.00000000000E+00 -0.45593999997E+02  0.45594000000E+02  0.51100000000E-03 0. -1.
    9900012    2    1    2    0    0 -0.21328518722E+02  0.15019425787E+02  0.18336600004E+02  0.59301956633E+02  0.50000022990E+02 0.  0.
         12    1    1    2    0    0  0.21328518722E+02 -0.15019425787E+02 -0.18336600004E+02  0.31886043367E+02  0.00000000000E+00 0. -1.
         11    1    3    3    0    0  0.10438073872E+02  0.90784167472E+01 -0.11593540510E+01  0.13882187827E+02  0.51100000000E-03 0. -1.
        -11    1    3    3    0    0 -0.15474024054E+00  0.42758012724E-01  0.12511600260E+02  0.12512630184E+02  0.51100000000E-03 0.  1.
        -12    1    3    3    0    0 -0.31611852353E+02  0.58982510276E+01  0.69843537946E+01  0.32907138623E+02  0.00000000000E+00 0.  1.
</event>
<event>
 7    1  0.6164995E-012  0.5930198E+02  0.7816164E-02  0.1266605E+00
        -11   -1    0    0    0    0  0.00000000000E+00  0.00000000000E+00  0.45593999997E+02  0.45594000000E+02  0.51100000000E-03 0.  1.
         11   -1    0    0    0    0 -0.00000000000E+00 -0.00000000000E+00 -0.45593999997E+02  0.45594000000E+02  0.51100000000E-03 0. -1.
    9900012    2    1    2    0    0  0.26605498605E+02 -0.13716989982E+02  0.10986802127E+02  0.59301981259E+02  0.50000067901E+02 0.  0.
         12    1    1    2    0    0 -0.26605498605E+02  0.13716989982E+02 -0.10986802127E+02  0.31886018741E+02  0.00000000000E+00 0. -1.
         11    1    3    3    0    0  0.14097736998E+02  0.80244458619E+01 -0.22160648315E+01  0.16372197881E+02  0.51100000000E-03 0. -1.
        -11    1    3    3    0    0  0.15904526061E+01  0.77246712325E+01  0.77110064255E+01  0.11029945852E+02  0.51100000000E-03 0.  1.
         12    1    3    3    0    0  0.10917309001E+02 -0.29466107076E+02  0.54918605332E+01  0.31899837526E+02  0.00000000000E+00 0. -1.
</event>
<event>
 7    1  0.6164995E-012  0.5930201E+02  0.7816164E-02  0.1266605E+00
        -11   -1    0    0    0    0  0.00000000000E+00  0.00000000000E+00  0.45593999997E+02  0.45594000000E+02  0.51100000000E-03 0. -1.
         11   -1    0    0    0    0 -0.00000000000E+00 -0.00000000000E+00 -0.45593999997E+02  0.45594000000E+02  0.51100000000E-03 0.  1.
    9900012    2    1    2    0    0  0.12144893081E+02  0.18732697353E+02  0.22766295577E+02  0.59302006329E+02  0.50000113623E+02 0.  0.
         12    1    1    2    0    0 -0.12144893081E+02 -0.18732697353E+02 -0.22766295577E+02  0.31885993671E+02  0.00000000000E+00 0. -1.
         11    1    3    3    0    0  0.11580309923E+02  0.13804748060E+01  0.14907884757E+02  0.18927607265E+02  0.51100000000E-03 0. -1.
        -11    1    3    3    0    0  0.11361944836E+02  0.24208458169E+02  0.64323226182E+01  0.27504872512E+02  0.51100000000E-03 0.  1.
        -12    1    3    3    0    0 -0.10797361678E+02 -0.68562356218E+01  0.14260882023E+01  0.12869526552E+02  0.00000000000E+00 0.  1.
</event>
<event>
 7    1  0.6164995E-012  0.5930196E+02  0.7816164E-02  0.1266605E+00
        -11   -1    0    0    0    0  0.00000000000E+00  0.00000000000E+00  0.45593999997E+02  0.45594000000E+02  0.51100000000E-03 0. -1.
         11   -1    0    0    0    0 -0.00000000000E+00 -0.00000000000E+00 -0.45593999997E+02  0.45594000000E+02  0.51100000000E-03 0.  1.
    9900012    2    1    2    0    0  0.60000371997E+01 -0.30700896867E+02  0.61785240077E+01  0.59301958011E+02  0.50000025502E+02 0.  0.
         12    1    1    2    0    0 -0.60000371997E+01  0.30700896867E+02 -0.61785240077E+01  0.31886041989E+02  0.00000000000E+00 0. -1.
         11    1    3    3    0    0 -0.38696767310E+01 -0.33608169263E+01  0.41812551238E+00  0.51424038756E+01  0.51100000000E-03 0. -1.
        -11    1    3    3    0    0  0.51811038677E+01  0.84816069780E+01  0.13937694587E+02  0.17118435235E+02  0.51100000000E-03 0.  1.
        -12    1    3    3    0    0  0.46886100630E+01 -0.35821686918E+02 -0.81772960921E+01  0.37041118900E+02  0.00000000000E+00 0.  1.
</event>
<event>
 7    1  0.6164995E-012  0.5930194E+02  0.7816164E-02  0.1266605E+00
        -11   -1    0    0    0    0  0.00000000000E+00  0.00000000000E+00  0.45593999997E+02  0.45594000000E+02  0.51100000000E-03 0.  1.
         11   -1    0    0    0    0 -0.00000000000E+00 -0.00000000000E+00 -0.45593999997E+02  0.45594000000E+02  0.51100000000E-03 0. -1.
    9900012    2    1    2    0    0 -0.14337417522E+02  0.23900786900E+02 -0.15489077853E+02  0.59301942101E+02  0.49999996486E+02 0.  0.
         12    1    1    2    0    0  0.14337417522E+02 -0.23900786900E+02  0.15489077853E+02  0.31886057899E+02  0.00000000000E+00 0. -1.
         11    1    3    3    0    0  0.73679578851E+01  0.90572200368E+00  0.12863817530E+01  0.75340503065E+01  0.51100000000E-03 0. -1.
        -11    1    3    3    0    0 -0.44440759994E+01  0.24333210157E+02  0.36374092376E+01  0.25001713427E+02  0.51100000000E-03 0.  1.
         12    1    3    3    0    0 -0.17261299408E+02 -0.13381452612E+01 -0.20412868843E+02  0.26766178368E+02  0.00000000000E+00 0. -1.
</event>
<event>
 7    1  0.6164995E-012  0.5930194E+02  0.7816164E-02  0.1266605E+00
        -11   -1    0    0    0    0  0.00000000000E+00  0.00000000000E+00  0.45593999997E+02  0.45594000000E+02  0.51100000000E-03 0.  1.
         11   -1    0    0    0    0 -0.00000000000E+00 -0.00000000000E+00 -0.45593999997E+02  0.45594000000E+02  0.51100000000E-03 0. -1.
    9900012    2    1    2    0    0  0.19184388842E+02  0.13275922857E+02  0.21735451458E+02  0.59301941086E+02  0.49999994635E+02 0.  0.
         12    1    1    2    0    0 -0.19184388842E+02 -0.13275922857E+02 -0.21735451458E+02  0.31886058914E+02  0.00000000000E+00 0. -1.
         11    1    3    3    0    0  0.26073868690E+02  0.64227485229E+01  0.98183158864E+01  0.28591915888E+02  0.51100000000E-03 0. -1.
        -11    1    3    3    0    0  0.11962722501E+01  0.87985351437E+01  0.18224292975E+02  0.20272398543E+02  0.51100000000E-03 0.  1.
         12    1    3    3    0    0 -0.80857520982E+01 -0.19453608092E+01 -0.63071574036E+01  0.10437626655E+02  0.00000000000E+00 0. -1.
</event>
<event>
 7    1  0.6164995E-012  0.5930188E+02  0.7816164E-02  0.1266605E+00
        -11   -1    0    0    0    0  0.00000000000E+00  0.00000000000E+00  0.45593999997E+02  0.45594000000E+02  0.51100000000E-03 0.  1.
         11   -1    0    0    0    0 -0.00000000000E+00 -0.00000000000E+00 -0.45593999997E+02  0.45594000000E+02  0.51100000000E-03 0. -1.
    9900012    2    1    2    0    0 -0.29022480731E+02 -0.12389947012E+02  0.45726557952E+01  0.59301884592E+02  0.49999891604E+02 0.  0.
         12    1    1    2    0    0  0.29022480731E+02  0.12389947012E+02 -0.45726557952E+01  0.31886115408E+02  0.00000000000E+00 0. -1.
         11    1    3    3    0    0 -0.79098104944E+01 -0.20836435131E+01 -0.55517344763E+01  0.98857689788E+01  0.51100000000E-03 0. -1.
        -11    1    3    3    0    0 -0.24280803523E+02 -0.22304952100E+02 -0.65667688666E+00  0.32977257811E+02  0.51100000000E-03 0.  1.
         12    1    3    3    0    0  0.31681332862E+01  0.11998648602E+02  0.10781067158E+02  0.16438857803E+02  0.00000000000E+00 0. -1.
</event>
<event>
 7    1  0.6164995E-012  0.5930196E+02  0.7816164E-02  0.1266605E+00
        -11   -1    0    0    0    0  0.00000000000E+00  0.00000000000E+00  0.45593999997E+02  0.45594000000E+02  0.51100000000E-03 0.  1.
         11   -1    0    0    0    0 -0.00000000000E+00 -0.00000000000E+00 -0.45593999997E+02  0.45594000000E+02  0.51100000000E-03 0. -1.
    9900012    2    1    2    0    0  0.29881735290E+02 -0.16096574530E+01  0.11009556669E+02  0.59301961690E+02  0.50000032212E+02 0.  0.
         12    1    1    2    0    0 -0.29881735290E+02  0.16096574530E+01 -0.11009556669E+02  0.31886038310E+02  0.00000000000E+00 0. -1.
         11    1    3    3    0    0  0.25570153460E+02  0.16823136475E+02 -0.35393019987E+01  0.30811967281E+02  0.51100000000E-03 0. -1.
        -11    1    3    3    0    0  0.48234480372E+01 -0.82586355888E+01 -0.12975240180E+01  0.96516465742E+01  0.51100000000E-03 0.  1.
        -12    1    3    3    0    0 -0.51186620735E+00 -0.10174158339E+02  0.15846382686E+02  0.18838347835E+02  0.00000000000E+00 0.  1.
</event>
<event>
 7    1  0.6164995E-012  0.5930196E+02  0.7816164E-02  0.1266605E+00
        -11   -1    0    0    0    0  0.00000000000E+00  0.00000000000E+00  0.45593999997E+02  0.45594000000E+02  0.51100000000E-03 0.  1.
         11   -1    0    0    0    0 -0.00000000000E+00 -0.00000000000E+00 -0.45593999997E+02  0.45594000000E+02  0.51100000000E-03 0. -1.
    9900012    2    1    2    0    0  0.18331418900E+02  0.25721585243E+02  0.43678936238E+01  0.59301962915E+02  0.50000034446E+02 0.  0.
         12    1    1    2    0    0 -0.18331418900E+02 -0.25721585243E+02 -0.43678936238E+01  0.31886037085E+02  0.00000000000E+00 0. -1.
         11    1    3    3    0    0  0.64643146683E+01 -0.92977014365E+01  0.94559748083E+00  0.11363484104E+02  0.51100000000E-03 0. -1.
        -11    1    3    3    0    0 -0.18725161853E+01 -0.50050411327E+01  0.16166040628E+01  0.55830244994E+01  0.51100000000E-03 0.  1.
        -12    1    3    3    0    0  0.13739620417E+02  0.40024327812E+02  0.18056920802E+01  0.42355454311E+02  0.00000000000E+00 0.  1.
</event>
<event>
 7    1  0.6164995E-012  0.5930193E+02  0.7816164E-02  0.1266605E+00
        -11   -1    0    0    0    0  0.00000000000E+00  0.00000000000E+00  0.45593999997E+02  0.45594000000E+02  0.51100000000E-03 0. -1.
         11   -1    0    0    0    0 -0.00000000000E+00 -0.00000000000E+00 -0.45593999997E+02  0.45594000000E+02  0.51100000000E-03 0.  1.
    9900012    2    1    2    0    0 -0.26441138248E+02  0.90708170762E+01 -0.15339747316E+02  0.59301931537E+02  0.49999977221E+02 0.  0.
         12    1    1    2    0    0  0.26441138248E+02 -0.90708170762E+01  0.15339747316E+02  0.31886068463E+02  0.00000000000E+00 0. -1.
         11    1    3    3    0    0 -0.63805709627E+01  0.16002424762E+02  0.59556848943E+01  0.18227985815E+02  0.51100000000E-03 0. -1.
        -11    1    3    3    0    0 -0.14093180990E+02  0.99078128599E+01 -0.11294384229E+02  0.20599651003E+02  0.51100000000E-03 0.  1.
        -12    1    3    3    0    0 -0.59673862953E+01 -0.16839420545E+02 -0.10001047981E+02  0.20474294719E+02  0.00000000000E+00 0.  1.
</event>
<event>
 7    1  0.6164995E-012  0.5930192E+02  0.7816164E-02  0.1266605E+00
        -11   -1    0    0    0    0  0.00000000000E+00  0.00000000000E+00  0.45593999997E+02  0.45594000000E+02  0.51100000000E-03 0.  1.
         11   -1    0    0    0    0 -0.00000000000E+00 -0.00000000000E+00 -0.45593999997E+02  0.45594000000E+02  0.51100000000E-03 0. -1.
    9900012    2    1    2    0    0  0.26236373988E+02 -0.15825972577E+02 -0.88268552419E+01  0.59301919941E+02  0.49999956072E+02 0.  0.
         12    1    1    2    0    0 -0.26236373988E+02  0.15825972577E+02  0.88268552419E+01  0.31886080059E+02  0.00000000000E+00 0. -1.
         11    1    3    3    0    0 -0.41239432317E+01 -0.81145795625E+01  0.57290482249E+01  0.10755245375E+02  0.51100000000E-03 0. -1.
        -11    1    3    3    0    0  0.24398007273E+02 -0.64824294025E+01  0.69598068178E+01  0.26186323931E+02  0.51100000000E-03 0.  1.
         12    1    3    3    0    0  0.59623099469E+01 -0.12289636121E+01 -0.21515710284E+02  0.22360350635E+02  0.00000000000E+00 0. -1.
</event>
<event>
 7    1  0.6164995E-012  0.5930194E+02  0.7816164E-02  0.1266605E+00
        -11   -1    0    0    0    0  0.00000000000E+00  0.00000000000E+00  0.45593999997E+02  0.45594000000E+02  0.51100000000E-03 0.  1.
         11   -1    0    0    0    0 -0.00000000000E+00 -0.00000000000E+00 -0.45593999997E+02  0.45594000000E+02  0.51100000000E-03 0. -1.
    9900012    2    1    2    0    0  0.14418121239E+02  0.25735329026E+02  0.12105029586E+02  0.59301935310E+02  0.49999984101E+02 0.  0.
         12    1    1    2    0    0 -0.14418121239E+02 -0.25735329026E+02 -0.12105029586E+02  0.31886064690E+02  0.00000000000E+00 0. -1.
         11    1    3    3    0    0  0.66899031079E+01 -0.45613183707E+01 -0.91807887170E+01  0.12241213608E+02  0.51100000000E-03 0. -1.
        -11    1    3    3    0    0  0.10205912232E+02 -0.96180897141E+00  0.80107546030E+01  0.13009915855E+02  0.51100000000E-03 0.  1.
        -12    1    3    3    0    0 -0.24776941014E+01  0.31258456368E+02  0.13275063700E+02  0.34050805847E+02  0.00000000000E+00 0.  1.
</event>
<event>
 7    1  0.6164995E-012  0.5930197E+02  0.7816164E-02  0.1266605E+00
        -11   -1    0    0    0    0  0.00000000000E+00  0.00000000000E+00  0.45593999997E+02  0.45594000000E+02  0.51100000000E-03 0.  1.
         11   -1    0    0    0    0 -0.00000000000E+00 -0.00000000000E+00 -0.45593999997E+02  0.45594000000E+02  0.51100000000E-03 0. -1.
    9900012    2    1    2    0    0  0.64643801817E+01 -0.79241109984E+01  0.30201637140E+02  0.59301974343E+02  0.50000055288E+02 0.  0.
         12    1    1    2    0    0 -0.64643801817E+01  0.79241109984E+01 -0.30201637140E+02  0.31886025657E+02  0.00000000000E+00 0. -1.
         11    1    3    3    0    0 -0.91534887998E+01  0.12922073113E+02 -0.34598944860E+01  0.16209170270E+02  0.51100000000E-03 0. -1.
        -11    1    3    3    0    0  0.94633328150E+01 -0.71972357344E+01  0.16122870144E+02  0.20032518866E+02  0.51100000000E-03 0.  1.
        -12    1    3    3    0    0  0.61545361666E+01 -0.13648948377E+02  0.17538661482E+02  0.23060285206E+02  0.00000000000E+00 0.  1.
</event>
<event>
 7    1  0.6164995E-012  0.5930196E+02  0.7816164E-02  0.1266605E+00
        -11   -1    0    0    0    0  0.00000000000E+00  0.00000000000E+00  0.45593999997E+02  0.45594000000E+02  0.51100000000E-03 0.  1.
         11   -1    0    0    0    0 -0.00000000000E+00 -0.00000000000E+00 -0.45593999997E+02  0.45594000000E+02  0.51100000000E-03 0. -1.
    9900012    2    1    2    0    0 -0.22322453881E+02 -0.22081913697E+02 -0.55512542671E+01  0.59301964126E+02  0.50000036654E+02 0.  0.
         12    1    1    2    0    0  0.22322453881E+02  0.22081913697E+02  0.55512542671E+01  0.31886035874E+02  0.00000000000E+00 0. -1.
         11    1    3    3    0    0  0.14117483755E+01 -0.18591660339E+02  0.64790883151E+01  0.19738831102E+02  0.51100000000E-03 0. -1.
        -11    1    3    3    0    0 -0.32328299912E+01 -0.13886124221E+02 -0.75891610907E+01  0.16151501539E+02  0.51100000000E-03 0.  1.
        -12    1    3    3    0    0 -0.20501372266E+02  0.10395870862E+02 -0.44411814916E+01  0.23411631485E+02  0.00000000000E+00 0.  1.
</event>
<event>
 7    1  0.6164995E-012  0.5930195E+02  0.7816164E-02  0.1266605E+00
        -11   -1    0    0    0    0  0.00000000000E+00  0.00000000000E+00  0.45593999997E+02  0.45594000000E+02  0.51100000000E-03 0.  1.
         11   -1    0    0    0    0 -0.00000000000E+00 -0.00000000000E+00 -0.45593999997E+02  0.45594000000E+02  0.51100000000E-03 0. -1.
    9900012    2    1    2    0    0  0.29234432911E+02  0.11922927557E+02 -0.44622736778E+01  0.59301950455E+02  0.50000011723E+02 0.  0.
         12    1    1    2    0    0 -0.29234432911E+02 -0.11922927557E+02  0.44622736778E+01  0.31886049545E+02  0.00000000000E+00 0. -1.
         11    1    3    3    0    0 -0.49759227964E+01 -0.63269146991E+01  0.21937237506E+01  0.83427861916E+01  0.51100000000E-03 0. -1.
        -11    1    3    3    0    0  0.17900821428E+02  0.26683507061E+02 -0.33922496486E+01  0.32310312824E+02  0.51100000000E-03 0.  1.
         12    1    3    3    0    0  0.16309534279E+02 -0.84336648043E+01 -0.32637477798E+01  0.18648851439E+02  0.00000000000E+00 0. -1.
</event>
<event>
 7    1  0.6164995E-012  0.5930193E+02  0.7816164E-02  0.1266605E+00
        -11   -1    0    0    0    0  0.00000000000E+00  0.00000000000E+00  0.45593999997E+02  0.45594000000E+02  0.51100000000E-03 0. -1.
         11   -1    0    0    0    0 -0.00000000000E+00 -0.00000000000E+00 -0.45593999997E+02  0.45594000000E+02  0.51100000000E-03 0.  1.
    9900012    2    1    2    0    0 -0.28828344594E+02  0.12870526723E+02 -0.44718333174E+01  0.59301934025E+02  0.49999981758E+02 0.  0.
         12    1    1    2    0    0  0.28828344594E+02 -0.12870526723E+02  0.44718333174E+01  0.31886065975E+02  0.00000000000E+00 0. -1.
         11    1    3    3    0    0  0.12357297549E+01 -0.41415865754E+00 -0.77634208931E+01  0.78720556175E+01  0.51100000000E-03 0. -1.
        -11    1    3    3    0    0 -0.10047247893E+02 -0.85061718532E+01 -0.12271931905E+02  0.17997290429E+02  0.51100000000E-03 0.  1.
        -12    1    3    3    0    0 -0.20016826456E+02  0.21790857234E+02  0.15563519481E+02  0.33432587979E+02  0.00000000000E+00 0.  1.
</event>
<event>
 7    1  0.6164995E-012  0.5930198E+02  0.7816164E-02  0.1266605E+00
        -11   -1    0    0    0    0  0.00000000000E+00  0.00000000000E+00  0.45593999997E+02  0.45594000000E+02  0.51100000000E-03 0.  1.
         11   -1    0    0    0    0 -0.00000000000E+00 -0.00000000000E+00 -0.45593999997E+02  0.45594000000E+02  0.51100000000E-03 0. -1.
    9900012    2    1    2    0    0 -0.24309873180E+02 -0.25387349889E+01  0.20476896873E+02  0.59301977750E+02  0.50000061501E+02 0.  0.
         12    1    1    2    0    0  0.24309873180E+02  0.25387349889E+01 -0.20476896873E+02  0.31886022250E+02  0.00000000000E+00 0. -1.
         11    1    3    3    0    0  0.78552342582E+01  0.97477456636E+01  0.47977838779E+01  0.13406788623E+02  0.51100000000E-03 0. -1.
        -11    1    3    3    0    0 -0.59075126706E+01 -0.63548538067E+01  0.16847621804E+02  0.18950599821E+02  0.51100000000E-03 0.  1.
        -12    1    3    3    0    0 -0.26257594768E+02 -0.59316268457E+01 -0.11685088096E+01  0.26944589306E+02  0.00000000000E+00 0.  1.
</event>
<event>
 7    1  0.6164995E-012  0.5930194E+02  0.7816164E-02  0.1266605E+00
        -11   -1    0    0    0    0  0.00000000000E+00  0.00000000000E+00  0.45593999997E+02  0.45594000000E+02  0.51100000000E-03 0.  1.
         11   -1    0    0    0    0 -0.00000000000E+00 -0.00000000000E+00 -0.45593999997E+02  0.45594000000E+02  0.51100000000E-03 0. -1.
    9900012    2    1    2    0    0 -0.26307935295E+00  0.10645340947E+02  0.30055423107E+02  0.59301937955E+02  0.49999988925E+02 0.  0.
         12    1    1    2    0    0  0.26307935295E+00 -0.10645340947E+02 -0.30055423107E+02  0.31886062045E+02  0.00000000000E+00 0. -1.
         11    1    3    3    0    0 -0.49919125151E+01 -0.57699515676E+01 -0.69553347013E+01  0.10324156756E+02  0.51100000000E-03 0. -1.
        -11    1    3    3    0    0  0.10783608275E+02  0.88631421780E+01  0.39173922406E+01  0.14497843250E+02  0.51100000000E-03 0.  1.
        -12    1    3    3    0    0 -0.60547751124E+01  0.75521503367E+01  0.33093365567E+02  0.34479937949E+02  0.00000000000E+00 0.  1.
</event>
<event>
 7    1  0.6164995E-012  0.5930193E+02  0.7816164E-02  0.1266605E+00
        -11   -1    0    0    0    0  0.00000000000E+00  0.00000000000E+00  0.45593999997E+02  0.45594000000E+02  0.51100000000E-03 0. -1.
         11   -1    0    0    0    0 -0.00000000000E+00 -0.00000000000E+00 -0.45593999997E+02  0.45594000000E+02  0.51100000000E-03 0.  1.
    9900012    2    1    2    0    0  0.28280786890E+02  0.13492119862E+02 -0.59060273088E+01  0.59301931505E+02  0.49999977162E+02 0.  0.
         12    1    1    2    0    0 -0.28280786890E+02 -0.13492119862E+02  0.59060273088E+01  0.31886068495E+02  0.00000000000E+00 0. -1.
         11    1    3    3    0    0 -0.20357370278E+01  0.18765702978E+02 -0.36721016772E+01  0.19229668861E+02  0.51100000000E-03 0. -1.
        -11    1    3    3    0    0  0.98082111195E+01  0.94473153330E+01 -0.53595067608E+01  0.14634790239E+02  0.51100000000E-03 0.  1.
        -12    1    3    3    0    0  0.20508312798E+02 -0.14720898449E+02  0.31255811292E+01  0.25437472405E+02  0.00000000000E+00 0.  1.
</event>
<event>
 7    1  0.6164995E-012  0.5930196E+02  0.7816164E-02  0.1266605E+00
        -11   -1    0    0    0    0  0.00000000000E+00  0.00000000000E+00  0.45593999997E+02  0.45594000000E+02  0.51100000000E-03 0. -1.
         11   -1    0    0    0    0 -0.00000000000E+00 -0.00000000000E+00 -0.45593999997E+02  0.45594000000E+02  0.51100000000E-03 0.  1.
    9900012    2    1    2    0    0  0.22378824602E+02 -0.22677430367E+02 -0.12813118888E+01  0.59301962323E+02  0.50000033366E+02 0.  0.
         12    1    1    2    0    0 -0.22378824602E+02  0.22677430367E+02  0.12813118888E+01  0.31886037677E+02  0.00000000000E+00 0. -1.
         11    1    3    3    0    0  0.75174266674E+01 -0.11922021746E+02 -0.89993244524E+00  0.14122895768E+02  0.51100000000E-03 0. -1.
        -11    1    3    3    0    0  0.13585748734E+02  0.60162943446E+01 -0.16275233644E+02  0.22037504322E+02  0.51100000000E-03 0.  1.
         12    1    3    3    0    0  0.12756492009E+01 -0.16771702965E+02  0.15893854200E+02  0.23141562233E+02  0.00000000000E+00 0. -1.
</event>
<event>
 7    1  0.6164995E-012  0.5930193E+02  0.7816164E-02  0.1266605E+00
        -11   -1    0    0    0    0  0.00000000000E+00  0.00000000000E+00  0.45593999997E+02  0.45594000000E+02  0.51100000000E-03 0. -1.
         11   -1    0    0    0    0 -0.00000000000E+00 -0.00000000000E+00 -0.45593999997E+02  0.45594000000E+02  0.51100000000E-03 0.  1.
    9900012    2    1    2    0    0 -0.18559554679E+02  0.10470024848E+02  0.23720091794E+02  0.59301933374E+02  0.49999980570E+02 0.  0.
         12    1    1    2    0    0  0.18559554679E+02 -0.10470024848E+02 -0.23720091794E+02  0.31886066626E+02  0.00000000000E+00 0. -1.
         11    1    3    3    0    0  0.96439714119E+01  0.64070880953E+01  0.12723138415E+02  0.17202767622E+02  0.51100000000E-03 0. -1.
        -11    1    3    3    0    0 -0.37328422965E+01 -0.17138514487E+01 -0.90524532894E+01  0.99407398727E+01  0.51100000000E-03 0.  1.
         12    1    3    3    0    0 -0.24470683795E+02  0.57767882013E+01  0.20049406668E+02  0.32158425879E+02  0.00000000000E+00 0. -1.
</event>
<event>
 7    1  0.6164995E-012  0.5930200E+02  0.7816164E-02  0.1266605E+00
        -11   -1    0    0    0    0  0.00000000000E+00  0.00000000000E+00  0.45593999997E+02  0.45594000000E+02  0.51100000000E-03 0. -1.
         11   -1    0    0    0    0 -0.00000000000E+00 -0.00000000000E+00 -0.45593999997E+02  0.45594000000E+02  0.51100000000E-03 0.  1.
    9900012    2    1    2    0    0  0.58032032856E+01  0.23386263227E+02 -0.20883539117E+02  0.59302004922E+02  0.50000111056E+02 0.  0.
         12    1    1    2    0    0 -0.58032032856E+01 -0.23386263227E+02  0.20883539117E+02  0.31885995078E+02  0.00000000000E+00 0. -1.
         11    1    3    3    0    0 -0.33071782724E+01  0.12486033030E+02  0.63460327833E+01  0.14391337022E+02  0.51100000000E-03 0. -1.
        -11    1    3    3    0    0 -0.10101454149E+02  0.12765620550E+02 -0.10534598629E+02  0.19390157619E+02  0.51100000000E-03 0.  1.
        -12    1    3    3    0    0  0.19211835707E+02 -0.18653903531E+01 -0.16694973272E+02  0.25520510280E+02  0.00000000000E+00 0.  1.
</event>
<event>
 7    1  0.6164995E-012  0.5930199E+02  0.7816164E-02  0.1266605E+00
        -11   -1    0    0    0    0  0.00000000000E+00  0.00000000000E+00  0.45593999997E+02  0.45594000000E+02  0.51100000000E-03 0. -1.
         11   -1    0    0    0    0 -0.00000000000E+00 -0.00000000000E+00 -0.45593999997E+02  0.45594000000E+02  0.51100000000E-03 0.  1.
    9900012    2    1    2    0    0  0.14461852411E+02  0.26706349488E+02 -0.97130471715E+01  0.59301991101E+02  0.50000085851E+02 0.  0.
         12    1    1    2    0    0 -0.14461852411E+02 -0.26706349488E+02  0.97130471715E+01  0.31886008899E+02  0.00000000000E+00 0. -1.
         11    1    3    3    0    0  0.10488508757E+02 -0.88507938409E+01 -0.25104132818E+01  0.13951614339E+02  0.51100000000E-03 0. -1.
        -11    1    3    3    0    0 -0.10629080321E+02  0.12788826571E+02  0.20676375998E+01  0.16757283760E+02  0.51100000000E-03 0.  1.
         12    1    3    3    0    0  0.14602423974E+02  0.22768316758E+02 -0.92702714895E+01  0.28593093002E+02  0.00000000000E+00 0. -1.
</event>
<event>
 7    1  0.6164995E-012  0.5930185E+02  0.7816164E-02  0.1266605E+00
        -11   -1    0    0    0    0  0.00000000000E+00  0.00000000000E+00  0.45593999997E+02  0.45594000000E+02  0.51100000000E-03 0.  1.
         11   -1    0    0    0    0 -0.00000000000E+00 -0.00000000000E+00 -0.45593999997E+02  0.45594000000E+02  0.51100000000E-03 0. -1.
    9900012    2    1    2    0    0 -0.15268552649E+02  0.27942667070E+02  0.16748462182E+01  0.59301851709E+02  0.49999831632E+02 0.  0.
         12    1    1    2    0    0  0.15268552649E+02 -0.27942667070E+02 -0.16748462182E+01  0.31886148291E+02  0.00000000000E+00 0. -1.
         11    1    3    3    0    0 -0.61105976011E+01  0.30580916881E+02 -0.10930317022E+02  0.33045479431E+02  0.51100000000E-03 0. -1.
        -11    1    3    3    0    0 -0.12389496887E+02  0.59234488844E+01  0.90081366993E+01  0.16423562550E+02  0.51100000000E-03 0.  1.
        -12    1    3    3    0    0  0.32315418391E+01 -0.85616986954E+01  0.35970265407E+01  0.98328097278E+01  0.00000000000E+00 0.  1.
</event>
<event>
 7    1  0.6164995E-012  0.5930196E+02  0.7816164E-02  0.1266605E+00
        -11   -1    0    0    0    0  0.00000000000E+00  0.00000000000E+00  0.45593999997E+02  0.45594000000E+02  0.51100000000E-03 0. -1.
         11   -1    0    0    0    0 -0.00000000000E+00 -0.00000000000E+00 -0.45593999997E+02  0.45594000000E+02  0.51100000000E-03 0.  1.
    9900012    2    1    2    0    0  0.21868266445E+02  0.23475851642E+01 -0.23086514380E+02  0.59301962623E+02  0.50000033913E+02 0.  0.
         12    1    1    2    0    0 -0.21868266445E+02 -0.23475851642E+01  0.23086514380E+02  0.31886037377E+02  0.00000000000E+00 0. -1.
         11    1    3    3    0    0  0.17940126713E+01 -0.15954740835E+01 -0.72136584824E+01  0.76026895227E+01  0.51100000000E-03 0. -1.
        -11    1    3    3    0    0 -0.77951396022E+01  0.16483453884E+02 -0.91796552008E+01  0.20414076595E+02  0.51100000000E-03 0.  1.
         12    1    3    3    0    0  0.27869393376E+02 -0.12540394636E+02 -0.66932006965E+01  0.31285196505E+02  0.00000000000E+00 0. -1.
</event>
<event>
 7    1  0.6164995E-012  0.5930194E+02  0.7816164E-02  0.1266605E+00
        -11   -1    0    0    0    0  0.00000000000E+00  0.00000000000E+00  0.45593999997E+02  0.45594000000E+02  0.51100000000E-03 0.  1.
         11   -1    0    0    0    0 -0.00000000000E+00 -0.00000000000E+00 -0.45593999997E+02  0.45594000000E+02  0.51100000000E-03 0. -1.
    9900012    2    1    2    0    0  0.19349414823E+02  0.97317458047E+01  0.23401153282E+02  0.59301941835E+02  0.49999996001E+02 0.  0.
         12    1    1    2    0    0 -0.19349414823E+02 -0.97317458047E+01 -0.23401153282E+02  0.31886058165E+02  0.00000000000E+00 0. -1.
         11    1    3    3    0    0  0.71712249097E+01  0.14042084541E+02 -0.74612366703E+01  0.17443527679E+02  0.51100000000E-03 0. -1.
        -11    1    3    3    0    0  0.92716067864E+01  0.93658585582E+01  0.91874979205E+01  0.16065245633E+02  0.51100000000E-03 0.  1.
         12    1    3    3    0    0  0.29065831266E+01 -0.13676197295E+02  0.21674892032E+02  0.25793168524E+02  0.00000000000E+00 0. -1.
</event>
<event>
 7    1  0.6164995E-012  0.5930197E+02  0.7816164E-02  0.1266605E+00
        -11   -1    0    0    0    0  0.00000000000E+00  0.00000000000E+00  0.45593999997E+02  0.45594000000E+02  0.51100000000E-03 0. -1.
         11   -1    0    0    0    0 -0.00000000000E+00 -0.00000000000E+00 -0.45593999997E+02  0.45594000000E+02  0.51100000000E-03 0.  1.
    9900012    2    1    2    0    0  0.22457547247E+02 -0.13980698793E+02 -0.17802170982E+02  0.59301973926E+02  0.50000054527E+02 0.  0.
         12    1    1    2    0    0 -0.22457547247E+02  0.13980698793E+02  0.17802170982E+02  0.31886026074E+02  0.00000000000E+00 0. -1.
         11    1    3    3    0    0  0.31421313229E+02 -0.16563916524E+02 -0.61126005051E+01  0.36042005228E+02  0.51100000000E-03 0. -1.
        -11    1    3    3    0    0 -0.48452316741E+00 -0.70315041154E+01 -0.24661002190E+01  0.74671589896E+01  0.51100000000E-03 0.  1.
         12    1    3    3    0    0 -0.84792428147E+01  0.96147218459E+01 -0.92234702584E+01  0.15792809709E+02  0.00000000000E+00 0. -1.
</event>
<event>
 7    1  0.6164995E-012  0.5930192E+02  0.7816164E-02  0.1266605E+00
        -11   -1    0    0    0    0  0.00000000000E+00  0.00000000000E+00  0.45593999997E+02  0.45594000000E+02  0.51100000000E-03 0.  1.
         11   -1    0    0    0    0 -0.00000000000E+00 -0.00000000000E+00 -0.45593999997E+02  0.45594000000E+02  0.51100000000E-03 0. -1.
    9900012    2    1    2    0    0  0.33856039232E+01 -0.73128705389E+01  0.30850962633E+02  0.59301917067E+02  0.49999950830E+02 0.  0.
         12    1    1    2    0    0 -0.33856039232E+01  0.73128705389E+01 -0.30850962633E+02  0.31886082933E+02  0.00000000000E+00 0. -1.
         11    1    3    3    0    0  0.95490635061E+01 -0.90217138193E+01  0.68283431438E+01  0.14805478865E+02  0.51100000000E-03 0. -1.
        -11    1    3    3    0    0 -0.77442699616E+01 -0.15805373392E+02  0.19641098139E+02  0.26373401026E+02  0.51100000000E-03 0.  1.
        -12    1    3    3    0    0  0.15808103788E+01  0.17514216673E+02  0.43815213503E+01  0.18123037175E+02  0.00000000000E+00 0.  1.
</event>
<event>
 7    1  0.6164995E-012  0.5930195E+02  0.7816164E-02  0.1266605E+00
        -11   -1    0    0    0    0  0.00000000000E+00  0.00000000000E+00  0.45593999997E+02  0.45594000000E+02  0.51100000000E-03 0.  1.
         11   -1    0    0    0    0 -0.00000000000E+00 -0.00000000000E+00 -0.45593999997E+02  0.45594000000E+02  0.51100000000E-03 0. -1.
    9900012    2    1    2    0    0 -0.26224085527E+02  0.11773145474E+02  0.13798927407E+02  0.59301952681E+02  0.50000015781E+02 0.  0.
         12    1    1    2    0    0  0.26224085527E+02 -0.11773145474E+02 -0.13798927407E+02  0.31886047319E+02  0.00000000000E+00 0. -1.
         11    1    3    3    0    0 -0.96141357133E+00 -0.11036580852E+02 -0.16484939092E+01  0.11200355592E+02  0.51100000000E-03 0. -1.
        -11    1    3    3    0    0  0.55783839804E+01  0.50164510292E+01  0.93332600786E+01  0.11974677145E+02  0.51100000000E-03 0.  1.
         12    1    3    3    0    0 -0.30841055936E+02  0.17793275297E+02  0.61141612373E+01  0.36126919944E+02  0.00000000000E+00 0. -1.
</event>
<event>
 7    1  0.6164995E-012  0.5930194E+02  0.7816164E-02  0.1266605E+00
        -11   -1    0    0    0    0  0.00000000000E+00  0.00000000000E+00  0.45593999997E+02  0.45594000000E+02  0.51100000000E-03 0.  1.
         11   -1    0    0    0    0 -0.00000000000E+00 -0.00000000000E+00 -0.45593999997E+02  0.45594000000E+02  0.51100000000E-03 0. -1.
    9900012    2    1    2    0    0  0.18553604228E+02  0.11000829907E+02  0.23483325844E+02  0.59301935941E+02  0.49999985252E+02 0.  0.
         12    1    1    2    0    0 -0.18553604228E+02 -0.11000829907E+02 -0.23483325844E+02  0.31886064059E+02  0.00000000000E+00 0. -1.
         11    1    3    3    0    0  0.37870420477E+01 -0.22216433475E+01 -0.58681582490E+01  0.73288926947E+01  0.51100000000E-03 0. -1.
        -11    1    3    3    0    0 -0.58077239977E+01  0.41830539670E+01 -0.64948911219E+01  0.96649474635E+01  0.51100000000E-03 0.  1.
        -12    1    3    3    0    0  0.20574286178E+02  0.90394192875E+01  0.35846375215E+02  0.42308095783E+02  0.00000000000E+00 0.  1.
</event>
<event>
 7    1  0.6164995E-012  0.5930197E+02  0.7816164E-02  0.1266605E+00
        -11   -1    0    0    0    0  0.00000000000E+00  0.00000000000E+00  0.45593999997E+02  0.45594000000E+02  0.51100000000E-03 0. -1.
         11   -1    0    0    0    0 -0.00000000000E+00 -0.00000000000E+00 -0.45593999997E+02  0.45594000000E+02  0.51100000000E-03 0.  1.
    9900012    2    1    2    0    0 -0.92112355862E+01 -0.30408326358E+02 -0.26843747647E+01  0.59301967936E+02  0.50000043603E+02 0.  0.
         12    1    1    2    0    0  0.92112355862E+01  0.30408326358E+02  0.26843747647E+01  0.31886032064E+02  0.00000000000E+00 0. -1.
         11    1    3    3    0    0 -0.90817955983E+01 -0.10910311550E+02  0.80204361683E+01  0.16304640628E+02  0.51100000000E-03 0. -1.
        -11    1    3    3    0    0  0.15479070291E+02 -0.12244916178E+01  0.22600001006E+01  0.15691035579E+02  0.51100000000E-03 0.  1.
        -12    1    3    3    0    0 -0.15608510279E+02 -0.18273523190E+02 -0.12964811034E+02  0.27306291730E+02  0.00000000000E+00 0.  1.
</event>
<event>
 7    1  0.6164995E-012  0.5930194E+02  0.7816164E-02  0.1266605E+00
        -11   -1    0    0    0    0  0.00000000000E+00  0.00000000000E+00  0.45593999997E+02  0.45594000000E+02  0.51100000000E-03 0.  1.
         11   -1    0    0    0    0 -0.00000000000E+00 -0.00000000000E+00 -0.45593999997E+02  0.45594000000E+02  0.51100000000E-03 0. -1.
    9900012    2    1    2    0    0  0.11707977340E+02 -0.16907215757E+02  0.24367805748E+02  0.59301942937E+02  0.49999998011E+02 0.  0.
         12    1    1    2    0    0 -0.11707977340E+02  0.16907215757E+02 -0.24367805748E+02  0.31886057063E+02  0.00000000000E+00 0. -1.
         11    1    3    3    0    0  0.19864212373E+00  0.76277665715E+01 -0.18936098627E+01  0.78618089608E+01  0.51100000000E-03 0. -1.
        -11    1    3    3    0    0  0.14015591202E+02  0.34466328005E+01  0.25057607243E+01  0.14649058382E+02  0.51100000000E-03 0.  1.
        -12    1    3    3    0    0 -0.25062559866E+01 -0.27981615129E+02  0.23755654886E+02  0.36791075594E+02  0.00000000000E+00 0.  1.
</event>
<event>
 7    1  0.6164995E-012  0.5930196E+02  0.7816164E-02  0.1266605E+00
        -11   -1    0    0    0    0  0.00000000000E+00  0.00000000000E+00  0.45593999997E+02  0.45594000000E+02  0.51100000000E-03 0. -1.
         11   -1    0    0    0    0 -0.00000000000E+00 -0.00000000000E+00 -0.45593999997E+02  0.45594000000E+02  0.51100000000E-03 0.  1.
    9900012    2    1    2    0    0  0.15328698640E+02 -0.27378045444E+02  0.56738901054E+01  0.59301962252E+02  0.50000033237E+02 0.  0.
         12    1    1    2    0    0 -0.15328698640E+02  0.27378045444E+02 -0.56738901054E+01  0.31886037748E+02  0.00000000000E+00 0. -1.
         11    1    3    3    0    0 -0.13821193915E+02 -0.23128729377E+01  0.87799653085E+01  0.16536703830E+02  0.51100000000E-03 0. -1.
        -11    1    3    3    0    0 -0.12069891590E+01 -0.74601224815E+01 -0.36483580432E+00  0.75659338944E+01  0.51100000000E-03 0.  1.
         12    1    3    3    0    0  0.30356881714E+02 -0.17605050025E+02 -0.27412393988E+01  0.35199324528E+02  0.00000000000E+00 0. -1.
</event>
<event>
 7    1  0.6164995E-012  0.5930195E+02  0.7816164E-02  0.1266605E+00
        -11   -1    0    0    0    0  0.00000000000E+00  0.00000000000E+00  0.45593999997E+02  0.45594000000E+02  0.51100000000E-03 0. -1.
         11   -1    0    0    0    0 -0.00000000000E+00 -0.00000000000E+00 -0.45593999997E+02  0.45594000000E+02  0.51100000000E-03 0.  1.
    9900012    2    1    2    0    0  0.17174465018E+02  0.21386487312E+02  0.16259655357E+02  0.59301945359E+02  0.50000002428E+02 0.  0.
         12    1    1    2    0    0 -0.17174465018E+02 -0.21386487312E+02 -0.16259655357E+02  0.31886054641E+02  0.00000000000E+00 0. -1.
         11    1    3    3    0    0  0.24604895345E+01  0.44242601613E+01 -0.62406054888E+01  0.80357478713E+01  0.51100000000E-03 0. -1.
        -11    1    3    3    0    0  0.32032013347E+00 -0.99102618371E+01 -0.41749000622E+01  0.10758516880E+02  0.51100000000E-03 0.  1.
         12    1    3    3    0    0  0.14393655350E+02  0.26872488988E+02  0.26675160908E+02  0.40507680608E+02  0.00000000000E+00 0. -1.
</event>
<event>
 7    1  0.6164995E-012  0.5930194E+02  0.7816164E-02  0.1266605E+00
        -11   -1    0    0    0    0  0.00000000000E+00  0.00000000000E+00  0.45593999997E+02  0.45594000000E+02  0.51100000000E-03 0.  1.
         11   -1    0    0    0    0 -0.00000000000E+00 -0.00000000000E+00 -0.45593999997E+02  0.45594000000E+02  0.51100000000E-03 0. -1.
    9900012    2    1    2    0    0  0.16006031327E+02  0.26535592513E+02  0.75093330817E+01  0.59301940473E+02  0.49999993517E+02 0.  0.
         12    1    1    2    0    0 -0.16006031327E+02 -0.26535592513E+02 -0.75093330817E+01  0.31886059527E+02  0.00000000000E+00 0. -1.
         11    1    3    3    0    0  0.35165712646E+01 -0.76909883531E+01 -0.90542119231E+01  0.12389363548E+02  0.51100000000E-03 0. -1.
        -11    1    3    3    0    0 -0.66484839623E+01  0.91184380354E+01  0.51564718569E-01  0.11284986060E+02  0.51100000000E-03 0.  1.
        -12    1    3    3    0    0  0.19137944024E+02  0.25108142830E+02  0.16511980286E+02  0.35627590865E+02  0.00000000000E+00 0.  1.
</event>
<event>
 7    1  0.6164995E-012  0.5930185E+02  0.7816164E-02  0.1266605E+00
        -11   -1    0    0    0    0  0.00000000000E+00  0.00000000000E+00  0.45593999997E+02  0.45594000000E+02  0.51100000000E-03 0. -1.
         11   -1    0    0    0    0 -0.00000000000E+00 -0.00000000000E+00 -0.45593999997E+02  0.45594000000E+02  0.51100000000E-03 0.  1.
    9900012    2    1    2    0    0  0.17326251828E+02 -0.44724648505E+00 -0.26764296002E+02  0.59301849836E+02  0.49999828216E+02 0.  0.
         12    1    1    2    0    0 -0.17326251828E+02  0.44724648505E+00  0.26764296002E+02  0.31886150164E+02  0.00000000000E+00 0. -1.
         11    1    3    3    0    0  0.89595714062E+01  0.89793211115E+00 -0.14715712912E+02  0.17252026218E+02  0.51100000000E-03 0. -1.
        -11    1    3    3    0    0  0.48141515384E+01 -0.16177756389E+02 -0.18891116465E+02  0.25333182555E+02  0.51100000000E-03 0.  1.
         12    1    3    3    0    0  0.35525288834E+01  0.14832577792E+02  0.68425333750E+01  0.16716641063E+02  0.00000000000E+00 0. -1.
</event>
<event>
 7    1  0.6164995E-012  0.5930195E+02  0.7816164E-02  0.1266605E+00
        -11   -1    0    0    0    0  0.00000000000E+00  0.00000000000E+00  0.45593999997E+02  0.45594000000E+02  0.51100000000E-03 0.  1.
         11   -1    0    0    0    0 -0.00000000000E+00 -0.00000000000E+00 -0.45593999997E+02  0.45594000000E+02  0.51100000000E-03 0. -1.
    9900012    2    1    2    0    0 -0.33432297803E+01  0.30205625877E+02  0.96521148954E+01  0.59301947533E+02  0.50000006393E+02 0.  0.
         12    1    1    2    0    0  0.33432297803E+01 -0.30205625877E+02 -0.96521148954E+01  0.31886052467E+02  0.00000000000E+00 0. -1.
         11    1    3    3    0    0 -0.61600145221E+01 -0.65788632123E+01  0.36011189833E+01  0.97054251978E+01  0.51100000000E-03 0. -1.
        -11    1    3    3    0    0  0.18935133723E+01 -0.53565433385E+00 -0.90979712767E+01  0.93083510930E+01  0.51100000000E-03 0.  1.
        -12    1    3    3    0    0  0.92327136948E+00  0.37320143423E+02  0.15148967189E+02  0.40288171242E+02  0.00000000000E+00 0.  1.
</event>
<event>
 7    1  0.6164995E-012  0.5930193E+02  0.7816164E-02  0.1266605E+00
        -11   -1    0    0    0    0  0.00000000000E+00  0.00000000000E+00  0.45593999997E+02  0.45594000000E+02  0.51100000000E-03 0.  1.
         11   -1    0    0    0    0 -0.00000000000E+00 -0.00000000000E+00 -0.45593999997E+02  0.45594000000E+02  0.51100000000E-03 0. -1.
    9900012    2    1    2    0    0 -0.16890458039E+01 -0.27908481107E+01  0.31718758663E+02  0.59301931569E+02  0.49999977277E+02 0.  0.
         12    1    1    2    0    0  0.16890458039E+01  0.27908481107E+01 -0.31718758663E+02  0.31886068431E+02  0.00000000000E+00 0. -1.
         11    1    3    3    0    0  0.11462006954E+02 -0.87090024637E+01 -0.52629816723E+01  0.15327207954E+02  0.51100000000E-03 0. -1.
        -11    1    3    3    0    0 -0.41133499321E+01 -0.61659430355E+01  0.19611098518E+02  0.20965058705E+02  0.51100000000E-03 0.  1.
        -12    1    3    3    0    0 -0.90377028262E+01  0.12084097388E+02  0.17370641818E+02  0.23009664909E+02  0.00000000000E+00 0.  1.
</event>
<event>
 7    1  0.6164995E-012  0.5930194E+02  0.7816164E-02  0.1266605E+00
        -11   -1    0    0    0    0  0.00000000000E+00  0.00000000000E+00  0.45593999997E+02  0.45594000000E+02  0.51100000000E-03 0. -1.
         11   -1    0    0    0    0 -0.00000000000E+00 -0.00000000000E+00 -0.45593999997E+02  0.45594000000E+02  0.51100000000E-03 0.  1.
    9900012    2    1    2    0    0  0.15043154291E+02 -0.73732093079E+01 -0.27130422247E+02  0.59301944774E+02  0.50000001362E+02 0.  0.
         12    1    1    2    0    0 -0.15043154291E+02  0.73732093079E+01  0.27130422247E+02  0.31886055226E+02  0.00000000000E+00 0. -1.
         11    1    3    3    0    0 -0.60752738386E+01 -0.14327998165E+02 -0.31897237620E+01  0.15886309250E+02  0.51100000000E-03 0. -1.
        -11    1    3    3    0    0  0.23733286791E+02 -0.39531284550E+01 -0.11508168335E+02  0.26670846727E+02  0.51100000000E-03 0.  1.
         12    1    3    3    0    0 -0.26148586610E+01  0.10907917312E+02 -0.12432530151E+02  0.16744788797E+02  0.00000000000E+00 0. -1.
</event>
<event>
 7    1  0.6164995E-012  0.5930193E+02  0.7816164E-02  0.1266605E+00
        -11   -1    0    0    0    0  0.00000000000E+00  0.00000000000E+00  0.45593999997E+02  0.45594000000E+02  0.51100000000E-03 0.  1.
         11   -1    0    0    0    0 -0.00000000000E+00 -0.00000000000E+00 -0.45593999997E+02  0.45594000000E+02  0.51100000000E-03 0. -1.
    9900012    2    1    2    0    0  0.22747867290E+02 -0.22310482510E+02 -0.12239928793E+01  0.59301933221E+02  0.49999980291E+02 0.  0.
         12    1    1    2    0    0 -0.22747867290E+02  0.22310482510E+02  0.12239928793E+01  0.31886066779E+02  0.00000000000E+00 0. -1.
         11    1    3    3    0    0  0.12993943498E+02  0.13418263839E+02 -0.59000988192E+01  0.19588352111E+02  0.51100000000E-03 0. -1.
        -11    1    3    3    0    0  0.60490581513E+00 -0.14537971073E+01 -0.30268218531E+01  0.34119038477E+01  0.51100000000E-03 0.  1.
        -12    1    3    3    0    0  0.91490179773E+01 -0.34274949242E+02  0.77029277930E+01  0.36301677262E+02  0.00000000000E+00 0.  1.
</event>
<event>
 7    1  0.6164995E-012  0.5930195E+02  0.7816164E-02  0.1266605E+00
        -11   -1    0    0    0    0  0.00000000000E+00  0.00000000000E+00  0.45593999997E+02  0.45594000000E+02  0.51100000000E-03 0. -1.
         11   -1    0    0    0    0 -0.00000000000E+00 -0.00000000000E+00 -0.45593999997E+02  0.45594000000E+02  0.51100000000E-03 0.  1.
    9900012    2    1    2    0    0 -0.25351706044E+02  0.12246118970E+02  0.14968093748E+02  0.59301948824E+02  0.50000008747E+02 0.  0.
         12    1    1    2    0    0  0.25351706044E+02 -0.12246118970E+02 -0.14968093748E+02  0.31886051176E+02  0.00000000000E+00 0. -1.
         11    1    3    3    0    0 -0.53424122151E+01 -0.76522061728E+00  0.52673554721E+01  0.75413503300E+01  0.51100000000E-03 0. -1.
        -11    1    3    3    0    0 -0.26356009842E+01 -0.16428835604E+02  0.38618278939E+01  0.17081181071E+02  0.51100000000E-03 0.  1.
        -12    1    3    3    0    0 -0.17373692845E+02  0.29440175191E+02  0.58389103824E+01  0.34679417423E+02  0.00000000000E+00 0.  1.
</event>
<event>
 7    1  0.6164995E-012  0.5930196E+02  0.7816164E-02  0.1266605E+00
        -11   -1    0    0    0    0  0.00000000000E+00  0.00000000000E+00  0.45593999997E+02  0.45594000000E+02  0.51100000000E-03 0.  1.
         11   -1    0    0    0    0 -0.00000000000E+00 -0.00000000000E+00 -0.45593999997E+02  0.45594000000E+02  0.51100000000E-03 0. -1.
    9900012    2    1    2    0    0  0.14561347517E+02 -0.34894601473E+01  0.28151563839E+02  0.59301957282E+02  0.50000024173E+02 0.  0.
         12    1    1    2    0    0 -0.14561347517E+02  0.34894601473E+01 -0.28151563839E+02  0.31886042718E+02  0.00000000000E+00 0. -1.
         11    1    3    3    0    0 -0.12030384013E+02 -0.10399824898E+02  0.11000111400E+01  0.15940405333E+02  0.51100000000E-03 0. -1.
        -11    1    3    3    0    0  0.69428357754E+01 -0.38483794675E+01 -0.37758241727E+00  0.79470473682E+01  0.51100000000E-03 0.  1.
        -12    1    3    3    0    0  0.19648895754E+02  0.10758744218E+02  0.27429135116E+02  0.35414504581E+02  0.00000000000E+00 0.  1.
</event>
<event>
 7    1  0.6164995E-012  0.5930200E+02  0.7816164E-02  0.1266605E+00
        -11   -1    0    0    0    0  0.00000000000E+00  0.00000000000E+00  0.45593999997E+02  0.45594000000E+02  0.51100000000E-03 0. -1.
         11   -1    0    0    0    0 -0.00000000000E+00 -0.00000000000E+00 -0.45593999997E+02  0.45594000000E+02  0.51100000000E-03 0.  1.
    9900012    2    1    2    0    0  0.31133382121E+02 -0.68114721816E+01 -0.10166958320E+01  0.59301995139E+02  0.50000093214E+02 0.  0.
         12    1    1    2    0    0 -0.31133382121E+02  0.68114721816E+01  0.10166958320E+01  0.31886004861E+02  0.00000000000E+00 0. -1.
         11    1    3    3    0    0  0.23072857342E+02 -0.12442731933E+02  0.14097159681E+02  0.29764210643E+02  0.51100000000E-03 0. -1.
        -11    1    3    3    0    0  0.58647166088E+01 -0.79547656323E+01 -0.11798653302E+01  0.99531542550E+01  0.51100000000E-03 0.  1.
        -12    1    3    3    0    0  0.21958081706E+01  0.13586025384E+02 -0.13933990183E+02  0.19584630241E+02  0.00000000000E+00 0.  1.
</event>
<event>
 7    1  0.6164995E-012  0.5930201E+02  0.7816164E-02  0.1266605E+00
        -11   -1    0    0    0    0  0.00000000000E+00  0.00000000000E+00  0.45593999997E+02  0.45594000000E+02  0.51100000000E-03 0. -1.
         11   -1    0    0    0    0 -0.00000000000E+00 -0.00000000000E+00 -0.45593999997E+02  0.45594000000E+02  0.51100000000E-03 0.  1.
    9900012    2    1    2    0    0 -0.21915043284E+02 -0.23128781212E+02 -0.12275044404E+01  0.59302009194E+02  0.50000118848E+02 0.  0.
         12    1    1    2    0    0  0.21915043284E+02  0.23128781212E+02  0.12275044404E+01  0.31885990806E+02  0.00000000000E+00 0. -1.
         11    1    3    3    0    0 -0.41104360513E+01  0.74196362700E+01 -0.27114495731E+01  0.89049787175E+01  0.51100000000E-03 0. -1.
        -11    1    3    3    0    0 -0.24854041520E+02 -0.10786231648E+02  0.82988970547E+01  0.28336158272E+02  0.51100000000E-03 0.  1.
         12    1    3    3    0    0  0.70494342871E+01 -0.19762185834E+02 -0.68149519220E+01  0.22060872204E+02  0.00000000000E+00 0. -1.
</event>
<event>
 7    1  0.6164995E-012  0.5930189E+02  0.7816164E-02  0.1266605E+00
        -11   -1    0    0    0    0  0.00000000000E+00  0.00000000000E+00  0.45593999997E+02  0.45594000000E+02  0.51100000000E-03 0. -1.
         11   -1    0    0    0    0 -0.00000000000E+00 -0.00000000000E+00 -0.45593999997E+02  0.45594000000E+02  0.51100000000E-03 0.  1.
    9900012    2    1    2    0    0 -0.61251359606E+01 -0.19940767866E+02 -0.24115813173E+02  0.59301890820E+02  0.49999902962E+02 0.  0.
         12    1    1    2    0    0  0.61251359606E+01  0.19940767866E+02  0.24115813173E+02  0.31886109180E+02  0.00000000000E+00 0. -1.
         11    1    3    3    0    0  0.38503685049E+01  0.53860850507E+01  0.65304141124E+01  0.92995461469E+01  0.51100000000E-03 0. -1.
        -11    1    3    3    0    0  0.67478089499E+01 -0.21174975104E+02 -0.18563850616E+02  0.28957366010E+02  0.51100000000E-03 0.  1.
         12    1    3    3    0    0 -0.16723313415E+02 -0.41518778131E+01 -0.12082376669E+02  0.21044978663E+02  0.00000000000E+00 0. -1.
</event>
<event>
 7    1  0.6164995E-012  0.5930194E+02  0.7816164E-02  0.1266605E+00
        -11   -1    0    0    0    0  0.00000000000E+00  0.00000000000E+00  0.45593999997E+02  0.45594000000E+02  0.51100000000E-03 0.  1.
         11   -1    0    0    0    0 -0.00000000000E+00 -0.00000000000E+00 -0.45593999997E+02  0.45594000000E+02  0.51100000000E-03 0. -1.
    9900012    2    1    2    0    0 -0.86502212066E+01  0.23106806459E+02  0.20198269226E+02  0.59301938603E+02  0.49999990107E+02 0.  0.
         12    1    1    2    0    0  0.86502212066E+01 -0.23106806459E+02 -0.20198269226E+02  0.31886061397E+02  0.00000000000E+00 0. -1.
         11    1    3    3    0    0 -0.54422934106E+01  0.63060057810E+01  0.12857300694E+02  0.15319740464E+02  0.51100000000E-03 0. -1.
        -11    1    3    3    0    0  0.94799686171E+01  0.25020526239E+02  0.10129344142E+02  0.28609441645E+02  0.51100000000E-03 0.  1.
         12    1    3    3    0    0 -0.12687896413E+02 -0.82197255606E+01 -0.27883756100E+01  0.15372756494E+02  0.00000000000E+00 0. -1.
</event>
<event>
 7    1  0.6164995E-012  0.5930195E+02  0.7816164E-02  0.1266605E+00
        -11   -1    0    0    0    0  0.00000000000E+00  0.00000000000E+00  0.45593999997E+02  0.45594000000E+02  0.51100000000E-03 0. -1.
         11   -1    0    0    0    0 -0.00000000000E+00 -0.00000000000E+00 -0.45593999997E+02  0.45594000000E+02  0.51100000000E-03 0.  1.
    9900012    2    1    2    0    0 -0.21871260082E+02 -0.22063650661E+02  0.71807745269E+01  0.59301949431E+02  0.50000009854E+02 0.  0.
         12    1    1    2    0    0  0.21871260082E+02  0.22063650661E+02 -0.71807745269E+01  0.31886050569E+02  0.00000000000E+00 0. -1.
         11    1    3    3    0    0 -0.35602445160E+01  0.80367745144E+01  0.10927619437E+02  0.14024191685E+02  0.51100000000E-03 0. -1.
        -11    1    3    3    0    0  0.41913045458E+01 -0.73555242802E+01  0.75534727984E+01  0.11345735887E+02  0.51100000000E-03 0.  1.
        -12    1    3    3    0    0 -0.22502320112E+02 -0.22744900896E+02 -0.11300317708E+02  0.33932021859E+02  0.00000000000E+00 0.  1.
</event>
<event>
 7    1  0.6164995E-012  0.5930197E+02  0.7816164E-02  0.1266605E+00
        -11   -1    0    0    0    0  0.00000000000E+00  0.00000000000E+00  0.45593999997E+02  0.45594000000E+02  0.51100000000E-03 0.  1.
         11   -1    0    0    0    0 -0.00000000000E+00 -0.00000000000E+00 -0.45593999997E+02  0.45594000000E+02  0.51100000000E-03 0. -1.
    9900012    2    1    2    0    0 -0.69147784217E+00  0.62263555739E+01  0.31264572033E+02  0.59301966855E+02  0.50000041631E+02 0.  0.
         12    1    1    2    0    0  0.69147784217E+00 -0.62263555739E+01 -0.31264572033E+02  0.31886033145E+02  0.00000000000E+00 0. -1.
         11    1    3    3    0    0  0.12248544004E+02 -0.75435722847E+00 -0.59833131352E+01  0.13652689163E+02  0.51100000000E-03 0. -1.
        -11    1    3    3    0    0 -0.71918956563E+01  0.55193575411E+01  0.12328263981E+01  0.91491273893E+01  0.51100000000E-03 0.  1.
        -12    1    3    3    0    0 -0.57481261901E+01  0.14613552613E+01  0.36015058770E+02  0.36500150302E+02  0.00000000000E+00 0.  1.
</event>
<event>
 7    1  0.6164995E-012  0.5930196E+02  0.7816164E-02  0.1266605E+00
        -11   -1    0    0    0    0  0.00000000000E+00  0.00000000000E+00  0.45593999997E+02  0.45594000000E+02  0.51100000000E-03 0.  1.
         11   -1    0    0    0    0 -0.00000000000E+00 -0.00000000000E+00 -0.45593999997E+02  0.45594000000E+02  0.51100000000E-03 0. -1.
    9900012    2    1    2    0    0 -0.22620026444E+02 -0.22450615714E+02 -0.10119262500E+01  0.59301957019E+02  0.50000023693E+02 0.  0.
         12    1    1    2    0    0  0.22620026444E+02  0.22450615714E+02  0.10119262500E+01  0.31886042981E+02  0.00000000000E+00 0. -1.
         11    1    3    3    0    0  0.14296879253E-01  0.80586200100E+01 -0.12114666936E+02  0.14550144883E+02  0.51100000000E-03 0. -1.
        -11    1    3    3    0    0 -0.74906883390E+01 -0.46341642746E+01  0.11845870316E+02  0.14761793052E+02  0.51100000000E-03 0.  1.
        -12    1    3    3    0    0 -0.15143634984E+02 -0.25875071449E+02 -0.74312962935E+00  0.29990019084E+02  0.00000000000E+00 0.  1.
</event>
<event>
 7    1  0.6164995E-012  0.5930196E+02  0.7816164E-02  0.1266605E+00
        -11   -1    0    0    0    0  0.00000000000E+00  0.00000000000E+00  0.45593999997E+02  0.45594000000E+02  0.51100000000E-03 0. -1.
         11   -1    0    0    0    0 -0.00000000000E+00 -0.00000000000E+00 -0.45593999997E+02  0.45594000000E+02  0.51100000000E-03 0.  1.
    9900012    2    1    2    0    0 -0.24774271516E+02 -0.10917919260E+02  0.16845002446E+02  0.59301959206E+02  0.50000027681E+02 0.  0.
         12    1    1    2    0    0  0.24774271516E+02  0.10917919260E+02 -0.16845002446E+02  0.31886040794E+02  0.00000000000E+00 0. -1.
         11    1    3    3    0    0  0.80513752138E+01  0.29410322871E+01  0.17096784647E+02  0.19125228346E+02  0.51100000000E-03 0. -1.
        -11    1    3    3    0    0 -0.56147587099E+01  0.34418268793E+01 -0.40144229183E+01  0.77127997035E+01  0.51100000000E-03 0.  1.
         12    1    3    3    0    0 -0.27210888020E+02 -0.17300778426E+02  0.37626407174E+01  0.32463931157E+02  0.00000000000E+00 0. -1.
</event>
<event>
 7    1  0.6164995E-012  0.5930196E+02  0.7816164E-02  0.1266605E+00
        -11   -1    0    0    0    0  0.00000000000E+00  0.00000000000E+00  0.45593999997E+02  0.45594000000E+02  0.51100000000E-03 0.  1.
         11   -1    0    0    0    0 -0.00000000000E+00 -0.00000000000E+00 -0.45593999997E+02  0.45594000000E+02  0.51100000000E-03 0. -1.
    9900012    2    1    2    0    0 -0.13333162952E+02 -0.62538541665E+01  0.28281367599E+02  0.59301957920E+02  0.50000025337E+02 0.  0.
         12    1    1    2    0    0  0.13333162952E+02  0.62538541665E+01 -0.28281367599E+02  0.31886042080E+02  0.00000000000E+00 0. -1.
         11    1    3    3    0    0 -0.11357016075E+02 -0.61540857843E+01 -0.49290114829E+01  0.13825691318E+02  0.51100000000E-03 0. -1.
        -11    1    3    3    0    0 -0.14101678717E+01 -0.10942997844E+02  0.53764344141E+00  0.11046575758E+02  0.51100000000E-03 0.  1.
         12    1    3    3    0    0 -0.56597900569E+00  0.10843229462E+02  0.32672735640E+02  0.34429690844E+02  0.00000000000E+00 0. -1.
</event>
<event>
 7    1  0.6164995E-012  0.5930200E+02  0.7816164E-02  0.1266605E+00
        -11   -1    0    0    0    0  0.00000000000E+00  0.00000000000E+00  0.45593999997E+02  0.45594000000E+02  0.51100000000E-03 0. -1.
         11   -1    0    0    0    0 -0.00000000000E+00 -0.00000000000E+00 -0.45593999997E+02  0.45594000000E+02  0.51100000000E-03 0.  1.
    9900012    2    1    2    0    0  0.11863946757E+02 -0.46687145080E+00 -0.29593005911E+02  0.59301996794E+02  0.50000096234E+02 0.  0.
         12    1    1    2    0    0 -0.11863946757E+02  0.46687145080E+00  0.29593005911E+02  0.31886003206E+02  0.00000000000E+00 0. -1.
         11    1    3    3    0    0  0.11073013071E+01 -0.26360660495E+01 -0.11506074134E+02  0.11855998593E+02  0.51100000000E-03 0.  1.
        -11    1    3    3    0    0  0.17894705587E+02  0.87453511613E+01  0.65496202975E+01  0.20966620645E+02  0.51100000000E-03 0. -1.
         12    1    3    3    0    0 -0.71380601371E+01 -0.65761565626E+01 -0.24636552074E+02  0.26479377556E+02  0.00000000000E+00 0. -1.
</event>
<event>
 7    1  0.6164995E-012  0.5930196E+02  0.7816164E-02  0.1266605E+00
        -11   -1    0    0    0    0  0.00000000000E+00  0.00000000000E+00  0.45593999997E+02  0.45594000000E+02  0.51100000000E-03 0.  1.
         11   -1    0    0    0    0 -0.00000000000E+00 -0.00000000000E+00 -0.45593999997E+02  0.45594000000E+02  0.51100000000E-03 0. -1.
    9900012    2    1    2    0    0  0.28483311403E+02 -0.91304358786E+01  0.11047892442E+02  0.59301955792E+02  0.50000021456E+02 0.  0.
         12    1    1    2    0    0 -0.28483311403E+02  0.91304358786E+01 -0.11047892442E+02  0.31886044208E+02  0.00000000000E+00 0. -1.
         11    1    3    3    0    0  0.18407146558E+02  0.28250876685E+01 -0.10807354022E+02  0.21531443658E+02  0.51100000000E-03 0. -1.
        -11    1    3    3    0    0  0.17201727484E+02 -0.10177061969E+02  0.69614676639E+01  0.21164452534E+02  0.51100000000E-03 0.  1.
        -12    1    3    3    0    0 -0.71255626394E+01 -0.17784615778E+01  0.14893778800E+02  0.16606059601E+02  0.00000000000E+00 0.  1.
</event>
<event>
 7    1  0.6164995E-012  0.5930196E+02  0.7816164E-02  0.1266605E+00
        -11   -1    0    0    0    0  0.00000000000E+00  0.00000000000E+00  0.45593999997E+02  0.45594000000E+02  0.51100000000E-03 0. -1.
         11   -1    0    0    0    0 -0.00000000000E+00 -0.00000000000E+00 -0.45593999997E+02  0.45594000000E+02  0.51100000000E-03 0.  1.
    9900012    2    1    2    0    0 -0.77748848626E+01 -0.71172041367E+01 -0.30093460008E+02  0.59301956586E+02  0.50000022903E+02 0.  0.
         12    1    1    2    0    0  0.77748848626E+01  0.71172041367E+01  0.30093460008E+02  0.31886043414E+02  0.00000000000E+00 0. -1.
         11    1    3    3    0    0 -0.17985030101E+02 -0.11916298205E+02 -0.13594045030E+02  0.25500147670E+02  0.51100000000E-03 0.  1.
        -11    1    3    3    0    0  0.10814129853E+02  0.11851980058E+02 -0.21521726916E+00  0.16045596110E+02  0.51100000000E-03 0. -1.
         12    1    3    3    0    0 -0.60398461526E+00 -0.70528859899E+01 -0.16284197709E+02  0.17756212806E+02  0.00000000000E+00 0. -1.
</event>
<event>
 7    1  0.6164995E-012  0.5930197E+02  0.7816164E-02  0.1266605E+00
        -11   -1    0    0    0    0  0.00000000000E+00  0.00000000000E+00  0.45593999997E+02  0.45594000000E+02  0.51100000000E-03 0.  1.
         11   -1    0    0    0    0 -0.00000000000E+00 -0.00000000000E+00 -0.45593999997E+02  0.45594000000E+02  0.51100000000E-03 0. -1.
    9900012    2    1    2    0    0  0.31874807613E+02 -0.61030165235E+00 -0.58578491965E+00  0.59301969007E+02  0.50000045557E+02 0.  0.
         12    1    1    2    0    0 -0.31874807613E+02  0.61030165235E+00  0.58578491965E+00  0.31886030993E+02  0.00000000000E+00 0. -1.
         11    1    3    3    0    0 -0.90280217239E+01 -0.10627922207E+02  0.68973447005E+01  0.15557354237E+02  0.51100000000E-03 0. -1.
        -11    1    3    3    0    0  0.92119100905E+01  0.49328671580E+00 -0.51643383179E+01  0.10572275527E+02  0.51100000000E-03 0.  1.
        -12    1    3    3    0    0  0.31690919247E+02  0.95243338386E+01 -0.23187913023E+01  0.33172339243E+02  0.00000000000E+00 0.  1.
</event>
<event>
 7    1  0.6164995E-012  0.5930193E+02  0.7816164E-02  0.1266605E+00
        -11   -1    0    0    0    0  0.00000000000E+00  0.00000000000E+00  0.45593999997E+02  0.45594000000E+02  0.51100000000E-03 0. -1.
         11   -1    0    0    0    0 -0.00000000000E+00 -0.00000000000E+00 -0.45593999997E+02  0.45594000000E+02  0.51100000000E-03 0.  1.
    9900012    2    1    2    0    0 -0.10407043899E+01  0.24448023312E+02 -0.20443393036E+02  0.59301933634E+02  0.49999981044E+02 0.  0.
         12    1    1    2    0    0  0.10407043899E+01 -0.24448023312E+02  0.20443393036E+02  0.31886066366E+02  0.00000000000E+00 0. -1.
         11    1    3    3    0    0  0.42427536161E+01  0.33969893365E+01  0.43379742493E+00  0.54524008718E+01  0.51100000000E-03 0. -1.
        -11    1    3    3    0    0  0.30112537387E+01  0.57252434713E+01 -0.32346784129E+02  0.32987277937E+02  0.51100000000E-03 0.  1.
         12    1    3    3    0    0 -0.82947117447E+01  0.15325790504E+02  0.11469593668E+02  0.20862254826E+02  0.00000000000E+00 0. -1.
</event>
<event>
 7    1  0.6164995E-012  0.5930190E+02  0.7816164E-02  0.1266605E+00
        -11   -1    0    0    0    0  0.00000000000E+00  0.00000000000E+00  0.45593999997E+02  0.45594000000E+02  0.51100000000E-03 0.  1.
         11   -1    0    0    0    0 -0.00000000000E+00 -0.00000000000E+00 -0.45593999997E+02  0.45594000000E+02  0.51100000000E-03 0. -1.
    9900012    2    1    2    0    0 -0.10207337092E+02  0.65668853592E+00  0.30201031018E+02  0.59301902012E+02  0.49999923373E+02 0.  0.
         12    1    1    2    0    0  0.10207337092E+02 -0.65668853592E+00 -0.30201031018E+02  0.31886097988E+02  0.00000000000E+00 0. -1.
         11    1    3    3    0    0  0.42233461195E+00  0.31660562210E+01 -0.18061511797E+01  0.36693951632E+01  0.51100000000E-03 0. -1.
        -11    1    3    3    0    0 -0.22341097896E+02  0.77841132770E+01  0.46013011736E+01  0.24101639933E+02  0.51100000000E-03 0.  1.
         12    1    3    3    0    0  0.11711426192E+02 -0.10293480962E+02  0.27405881024E+02  0.31530866916E+02  0.00000000000E+00 0. -1.
</event>
<event>
 7    1  0.6164995E-012  0.5930193E+02  0.7816164E-02  0.1266605E+00
        -11   -1    0    0    0    0  0.00000000000E+00  0.00000000000E+00  0.45593999997E+02  0.45594000000E+02  0.51100000000E-03 0.  1.
         11   -1    0    0    0    0 -0.00000000000E+00 -0.00000000000E+00 -0.45593999997E+02  0.45594000000E+02  0.51100000000E-03 0. -1.
    9900012    2    1    2    0    0 -0.92856833455E+01  0.30473843813E+02 -0.13573577169E+01  0.59301929500E+02  0.49999973506E+02 0.  0.
         12    1    1    2    0    0  0.92856833455E+01 -0.30473843813E+02  0.13573577169E+01  0.31886070500E+02  0.00000000000E+00 0. -1.
         11    1    3    3    0    0  0.17867019016E+01  0.51713387641E+00  0.51184349559E+01  0.54459257973E+01  0.51100000000E-03 0. -1.
        -11    1    3    3    0    0  0.63560181060E+01 -0.57850268831E+01 -0.10861235007E+02  0.13850340369E+02  0.51100000000E-03 0.  1.
        -12    1    3    3    0    0 -0.17428403353E+02  0.35741736820E+02  0.43854423343E+01  0.40005663334E+02  0.00000000000E+00 0.  1.
</event>
<event>
 7    1  0.6164995E-012  0.5930195E+02  0.7816164E-02  0.1266605E+00
        -11   -1    0    0    0    0  0.00000000000E+00  0.00000000000E+00  0.45593999997E+02  0.45594000000E+02  0.51100000000E-03 0.  1.
         11   -1    0    0    0    0 -0.00000000000E+00 -0.00000000000E+00 -0.45593999997E+02  0.45594000000E+02  0.51100000000E-03 0. -1.
    9900012    2    1    2    0    0  0.52289105003E+01  0.21817410711E+02  0.22657877737E+02  0.59301947583E+02  0.50000006485E+02 0.  0.
         12    1    1    2    0    0 -0.52289105003E+01 -0.21817410711E+02 -0.22657877737E+02  0.31886052417E+02  0.00000000000E+00 0. -1.
         11    1    3    3    0    0 -0.33404136159E+01 -0.72711106028E+01  0.17557102495E+02  0.19294539663E+02  0.51100000000E-03 0. -1.
        -11    1    3    3    0    0  0.95774887297E+01  0.11622076548E+00 -0.27652059009E+01  0.99693611415E+01  0.51100000000E-03 0.  1.
        -12    1    3    3    0    0 -0.10081646135E+01  0.28972300549E+02  0.78659811432E+01  0.30038046779E+02  0.00000000000E+00 0.  1.
</event>
<event>
 7    1  0.6164995E-012  0.5930194E+02  0.7816164E-02  0.1266605E+00
        -11   -1    0    0    0    0  0.00000000000E+00  0.00000000000E+00  0.45593999997E+02  0.45594000000E+02  0.51100000000E-03 0.  1.
         11   -1    0    0    0    0 -0.00000000000E+00 -0.00000000000E+00 -0.45593999997E+02  0.45594000000E+02  0.51100000000E-03 0. -1.
    9900012    2    1    2    0    0 -0.25170748596E+01  0.31110177132E+02 -0.65224445537E+01  0.59301936116E+02  0.49999985571E+02 0.  0.
         12    1    1    2    0    0  0.25170748596E+01 -0.31110177132E+02  0.65224445537E+01  0.31886063884E+02  0.00000000000E+00 0. -1.
         11    1    3    3    0    0  0.13046672716E+02  0.79294945184E+01 -0.21618035639E+01  0.15419661059E+02  0.51100000000E-03 0. -1.
        -11    1    3    3    0    0  0.23848202064E+01 -0.75133253880E+01 -0.25291075953E+01  0.82785150415E+01  0.51100000000E-03 0.  1.
        -12    1    3    3    0    0 -0.17948567782E+02  0.30694008002E+02 -0.18315333945E+01  0.35603760015E+02  0.00000000000E+00 0.  1.
</event>
<event>
 7    1  0.6164995E-012  0.5930196E+02  0.7816164E-02  0.1266605E+00
        -11   -1    0    0    0    0  0.00000000000E+00  0.00000000000E+00  0.45593999997E+02  0.45594000000E+02  0.51100000000E-03 0. -1.
         11   -1    0    0    0    0 -0.00000000000E+00 -0.00000000000E+00 -0.45593999997E+02  0.45594000000E+02  0.51100000000E-03 0.  1.
    9900012    2    1    2    0    0  0.16105401290E+02 -0.22472531244E+02  0.15884616482E+02  0.59301958352E+02  0.50000026123E+02 0.  0.
         12    1    1    2    0    0 -0.16105401290E+02  0.22472531244E+02 -0.15884616482E+02  0.31886041648E+02  0.00000000000E+00 0. -1.
         11    1    3    3    0    0  0.93350349651E+01 -0.85173497804E+01  0.15261382446E+02  0.19814083867E+02  0.51100000000E-03 0. -1.
        -11    1    3    3    0    0  0.20414392410E+02 -0.80620684641E+00  0.17537157657E+01  0.20505436016E+02  0.51100000000E-03 0.  1.
         12    1    3    3    0    0 -0.13644026085E+02 -0.13148974617E+02 -0.11304817297E+01  0.18982438469E+02  0.00000000000E+00 0. -1.
</event>
<event>
 7    1  0.6164995E-012  0.5930193E+02  0.7816164E-02  0.1266605E+00
        -11   -1    0    0    0    0  0.00000000000E+00  0.00000000000E+00  0.45593999997E+02  0.45594000000E+02  0.51100000000E-03 0.  1.
         11   -1    0    0    0    0 -0.00000000000E+00 -0.00000000000E+00 -0.45593999997E+02  0.45594000000E+02  0.51100000000E-03 0. -1.
    9900012    2    1    2    0    0  0.18673749512E+02 -0.24583813069E+02  0.79780087973E+01  0.59301930782E+02  0.49999975843E+02 0.  0.
         12    1    1    2    0    0 -0.18673749512E+02  0.24583813069E+02 -0.79780087973E+01  0.31886069218E+02  0.00000000000E+00 0. -1.
         11    1    3    3    0    0  0.20428815830E+02 -0.16432541747E+01  0.62732103866E+01  0.21433384458E+02  0.51100000000E-03 0.  1.
        -11    1    3    3    0    0 -0.22843975295E+01  0.22699007699E+01 -0.96799597979E+01  0.10201595146E+02  0.51100000000E-03 0. -1.
        -12    1    3    3    0    0  0.52933121096E+00 -0.25210459664E+02  0.11384758209E+02  0.27666951178E+02  0.00000000000E+00 0.  1.
</event>
<event>
 7    1  0.6164995E-012  0.5930196E+02  0.7816164E-02  0.1266605E+00
        -11   -1    0    0    0    0  0.00000000000E+00  0.00000000000E+00  0.45593999997E+02  0.45594000000E+02  0.51100000000E-03 0.  1.
         11   -1    0    0    0    0 -0.00000000000E+00 -0.00000000000E+00 -0.45593999997E+02  0.45594000000E+02  0.51100000000E-03 0. -1.
    9900012    2    1    2    0    0  0.16846728909E+02 -0.24551392894E+02  0.11407744218E+02  0.59301956092E+02  0.50000022003E+02 0.  0.
         12    1    1    2    0    0 -0.16846728909E+02  0.24551392894E+02 -0.11407744218E+02  0.31886043908E+02  0.00000000000E+00 0. -1.
         11    1    3    3    0    0 -0.95384520658E+01 -0.59982094332E+01  0.10320922680E+01  0.11314848604E+02  0.51100000000E-03 0.  1.
        -11    1    3    3    0    0  0.12821342959E+02 -0.17593229757E+02 -0.96246628307E+01  0.23802157537E+02  0.51100000000E-03 0. -1.
        -12    1    3    3    0    0  0.13563838016E+02 -0.95995370353E+00  0.20000314781E+02  0.24184949952E+02  0.00000000000E+00 0.  1.
</event>
<event>
 7    1  0.6164995E-012  0.5930196E+02  0.7816164E-02  0.1266605E+00
        -11   -1    0    0    0    0  0.00000000000E+00  0.00000000000E+00  0.45593999997E+02  0.45594000000E+02  0.51100000000E-03 0.  1.
         11   -1    0    0    0    0 -0.00000000000E+00 -0.00000000000E+00 -0.45593999997E+02  0.45594000000E+02  0.51100000000E-03 0. -1.
    9900012    2    1    2    0    0 -0.15450784467E+02  0.75467773175E+01  0.26852167811E+02  0.59301960662E+02  0.50000030337E+02 0.  0.
         12    1    1    2    0    0  0.15450784467E+02 -0.75467773175E+01 -0.26852167811E+02  0.31886039338E+02  0.00000000000E+00 0. -1.
         11    1    3    3    0    0 -0.81915343044E-01  0.71648773347E+01  0.28106423071E+00  0.71708559257E+01  0.51100000000E-03 0. -1.
        -11    1    3    3    0    0  0.14141794822E+02 -0.67064759745E+00  0.14393008715E+02  0.20189076976E+02  0.51100000000E-03 0.  1.
         12    1    3    3    0    0 -0.29510663946E+02  0.10525475803E+01  0.12178094865E+02  0.31942027761E+02  0.00000000000E+00 0. -1.
</event>
<event>
 7    1  0.6164995E-012  0.5930194E+02  0.7816164E-02  0.1266605E+00
        -11   -1    0    0    0    0  0.00000000000E+00  0.00000000000E+00  0.45593999997E+02  0.45594000000E+02  0.51100000000E-03 0.  1.
         11   -1    0    0    0    0 -0.00000000000E+00 -0.00000000000E+00 -0.45593999997E+02  0.45594000000E+02  0.51100000000E-03 0. -1.
    9900012    2    1    2    0    0  0.22725482373E+02  0.93030221262E+01  0.20340277637E+02  0.59301942481E+02  0.49999997179E+02 0.  0.
         12    1    1    2    0    0 -0.22725482373E+02 -0.93030221262E+01 -0.20340277637E+02  0.31886057519E+02  0.00000000000E+00 0. -1.
         11    1    3    3    0    0 -0.54154805191E+01  0.87877025679E-01  0.16692004779E+02  0.17548737147E+02  0.51100000000E-03 0. -1.
        -11    1    3    3    0    0  0.38306023686E+01  0.77575933067E+01  0.13041604782E+02  0.15650470407E+02  0.51100000000E-03 0.  1.
         12    1    3    3    0    0  0.24310360524E+02  0.14575517938E+01 -0.93933319246E+01  0.26102734927E+02  0.00000000000E+00 0. -1.
</event>
<event>
 7    1  0.6541559E-012  0.5930194E+02  0.7816164E-02  0.1266605E+00
        -11   -1    0    0    0    0  0.00000000000E+00  0.00000000000E+00  0.45593999997E+02  0.45594000000E+02  0.51100000000E-03 0. -1.
         11   -1    0    0    0    0 -0.00000000000E+00 -0.00000000000E+00 -0.45593999997E+02  0.45594000000E+02  0.51100000000E-03 0.  1.
    9900012    2    1    2    0    0  0.73962440265E+01  0.41542648523E+01 -0.30736926911E+02  0.59301936930E+02  0.49999987055E+02 0.  0.
         12    1    1    2    0    0 -0.73962440265E+01 -0.41542648523E+01  0.30736926911E+02  0.31886063070E+02  0.00000000000E+00 0. -1.
         11    1    3    3    0    0  0.48829714766E+01  0.93504162466E+00  0.80726748335E+01  0.94808118065E+01  0.51100000000E-03 0. -1.
        -11    1    3    3    0    0  0.16491623851E+02  0.33285259076E+01 -0.25284066832E+02  0.30369997988E+02  0.51100000000E-03 0.  1.
         12    1    3    3    0    0 -0.13978351301E+02 -0.10930267996E+00 -0.13525534912E+02  0.19451127135E+02  0.00000000000E+00 0. -1.
</event>
<event>
 7    1  0.6164995E-012  0.5930196E+02  0.7816164E-02  0.1266605E+00
        -11   -1    0    0    0    0  0.00000000000E+00  0.00000000000E+00  0.45593999997E+02  0.45594000000E+02  0.51100000000E-03 0. -1.
         11   -1    0    0    0    0 -0.00000000000E+00 -0.00000000000E+00 -0.45593999997E+02  0.45594000000E+02  0.51100000000E-03 0.  1.
    9900012    2    1    2    0    0 -0.18895972396E+01 -0.25273952668E+02  0.19348806333E+02  0.59301959674E+02  0.50000028534E+02 0.  0.
         12    1    1    2    0    0  0.18895972396E+01  0.25273952668E+02 -0.19348806333E+02  0.31886040326E+02  0.00000000000E+00 0. -1.
         11    1    3    3    0    0  0.10772957353E+02 -0.11359623618E+01  0.77922860701E+01  0.13344165133E+02  0.51100000000E-03 0. -1.
        -11    1    3    3    0    0  0.21889256699E+01  0.73584532405E+01  0.77820398458E+01  0.10931531187E+02  0.51100000000E-03 0.  1.
        -12    1    3    3    0    0 -0.14851480263E+02 -0.31496443547E+02  0.37744804168E+01  0.35026263354E+02  0.00000000000E+00 0.  1.
</event>
<event>
 7    1  0.6164995E-012  0.5930196E+02  0.7816164E-02  0.1266605E+00
        -11   -1    0    0    0    0  0.00000000000E+00  0.00000000000E+00  0.45593999997E+02  0.45594000000E+02  0.51100000000E-03 0.  1.
         11   -1    0    0    0    0 -0.00000000000E+00 -0.00000000000E+00 -0.45593999997E+02  0.45594000000E+02  0.51100000000E-03 0. -1.
    9900012    2    1    2    0    0 -0.20015651811E+02 -0.24437158760E+02  0.43495134249E+01  0.59301963672E+02  0.50000035827E+02 0.  0.
         12    1    1    2    0    0  0.20015651811E+02  0.24437158760E+02 -0.43495134249E+01  0.31886036328E+02  0.00000000000E+00 0. -1.
         11    1    3    3    0    0  0.92695399198E+01 -0.18325204900E+02  0.86689674520E+01  0.22290995983E+02  0.51100000000E-03 0.  1.
        -11    1    3    3    0    0 -0.13005206622E+02 -0.63544848192E+01 -0.12192629407E+02  0.18925514226E+02  0.51100000000E-03 0. -1.
        -12    1    3    3    0    0 -0.16279985109E+02  0.24253095989E+00  0.78731753804E+01  0.18085453463E+02  0.00000000000E+00 0.  1.
</event>
<event>
 7    1  0.6164995E-012  0.5930191E+02  0.7816164E-02  0.1266605E+00
        -11   -1    0    0    0    0  0.00000000000E+00  0.00000000000E+00  0.45593999997E+02  0.45594000000E+02  0.51100000000E-03 0.  1.
         11   -1    0    0    0    0 -0.00000000000E+00 -0.00000000000E+00 -0.45593999997E+02  0.45594000000E+02  0.51100000000E-03 0. -1.
    9900012    2    1    2    0    0  0.31935288558E+00  0.55729607685E+01  0.31393670728E+02  0.59301914637E+02  0.49999946398E+02 0.  0.
         12    1    1    2    0    0 -0.31935288558E+00 -0.55729607685E+01 -0.31393670728E+02  0.31886085363E+02  0.00000000000E+00 0. -1.
         11    1    3    3    0    0  0.25792462272E+01 -0.14019525771E+01  0.20065001088E+02  0.20278615610E+02  0.51100000000E-03 0. -1.
        -11    1    3    3    0    0  0.12610940983E+02 -0.44351002290E+01  0.14818591148E+02  0.19957369325E+02  0.51100000000E-03 0.  1.
         12    1    3    3    0    0 -0.14870834324E+02  0.11410013575E+02 -0.34899215074E+01  0.19065929702E+02  0.00000000000E+00 0. -1.
</event>
<event>
 7    1  0.6164995E-012  0.5930196E+02  0.7816164E-02  0.1266605E+00
        -11   -1    0    0    0    0  0.00000000000E+00  0.00000000000E+00  0.45593999997E+02  0.45594000000E+02  0.51100000000E-03 0.  1.
         11   -1    0    0    0    0 -0.00000000000E+00 -0.00000000000E+00 -0.45593999997E+02  0.45594000000E+02  0.51100000000E-03 0. -1.
    9900012    2    1    2    0    0  0.44057206073E+01  0.53958617842E+01  0.31115810038E+02  0.59301963357E+02  0.50000035252E+02 0.  0.
         12    1    1    2    0    0 -0.44057206073E+01 -0.53958617842E+01 -0.31115810038E+02  0.31886036643E+02  0.00000000000E+00 0. -1.
         11    1    3    3    0    0 -0.64435328646E+01 -0.10348082922E+02  0.17740451867E+02  0.21524998690E+02  0.51100000000E-03 0. -1.
        -11    1    3    3    0    0 -0.22288337024E+01 -0.69077270227E+01  0.84880356820E+01  0.11168309733E+02  0.51100000000E-03 0.  1.
        -12    1    3    3    0    0  0.13078087174E+02  0.22651671729E+02  0.48873224898E+01  0.26608654933E+02  0.00000000000E+00 0.  1.
</event>
<event>
 7    1  0.6164995E-012  0.5930197E+02  0.7816164E-02  0.1266605E+00
        -11   -1    0    0    0    0  0.00000000000E+00  0.00000000000E+00  0.45593999997E+02  0.45594000000E+02  0.51100000000E-03 0. -1.
         11   -1    0    0    0    0 -0.00000000000E+00 -0.00000000000E+00 -0.45593999997E+02  0.45594000000E+02  0.51100000000E-03 0.  1.
    9900012    2    1    2    0    0 -0.26796566428E+02 -0.17046796099E+02  0.28406706617E+01  0.59301974231E+02  0.50000055083E+02 0.  0.
         12    1    1    2    0    0  0.26796566428E+02  0.17046796099E+02 -0.28406706617E+01  0.31886025769E+02  0.00000000000E+00 0. -1.
         11    1    3    3    0    0  0.17583750270E+01  0.70762004639E+01 -0.61132898209E+01  0.95150832070E+01  0.51100000000E-03 0. -1.
        -11    1    3    3    0    0 -0.21530936154E+02 -0.16553798128E+02 -0.93898461915E+01  0.28736364695E+02  0.51100000000E-03 0.  1.
         12    1    3    3    0    0 -0.70240053010E+01 -0.75691984351E+01  0.18343806674E+02  0.21050526329E+02  0.00000000000E+00 0. -1.
</event>
<event>
 7    1  0.6164995E-012  0.5930195E+02  0.7816164E-02  0.1266605E+00
        -11   -1    0    0    0    0  0.00000000000E+00  0.00000000000E+00  0.45593999997E+02  0.45594000000E+02  0.51100000000E-03 0.  1.
         11   -1    0    0    0    0 -0.00000000000E+00 -0.00000000000E+00 -0.45593999997E+02  0.45594000000E+02  0.51100000000E-03 0. -1.
    9900012    2    1    2    0    0 -0.75701441022E+01  0.25201315809E+02  0.18008514316E+02  0.59301953081E+02  0.50000016512E+02 0.  0.
         12    1    1    2    0    0  0.75701441022E+01 -0.25201315809E+02 -0.18008514316E+02  0.31886046919E+02  0.00000000000E+00 0. -1.
         11    1    3    3    0    0  0.61564592746E+00 -0.12109908438E+01  0.67173868196E+01  0.68533790700E+01  0.51100000000E-03 0. -1.
        -11    1    3    3    0    0  0.30025045535E+01  0.21486933870E+02  0.25647248445E+02  0.33592926544E+02  0.51100000000E-03 0.  1.
         12    1    3    3    0    0 -0.11188294583E+02  0.49253727825E+01 -0.14356120948E+02  0.18855647467E+02  0.00000000000E+00 0. -1.
</event>
<event>
 7    1  0.6164995E-012  0.5930194E+02  0.7816164E-02  0.1266605E+00
        -11   -1    0    0    0    0  0.00000000000E+00  0.00000000000E+00  0.45593999997E+02  0.45594000000E+02  0.51100000000E-03 0.  1.
         11   -1    0    0    0    0 -0.00000000000E+00 -0.00000000000E+00 -0.45593999997E+02  0.45594000000E+02  0.51100000000E-03 0. -1.
    9900012    2    1    2    0    0  0.31800551534E+02  0.22849335696E+01 -0.47407786595E+00  0.59301941148E+02  0.49999994747E+02 0.  0.
         12    1    1    2    0    0 -0.31800551534E+02 -0.22849335696E+01  0.47407786595E+00  0.31886058852E+02  0.00000000000E+00 0. -1.
         11    1    3    3    0    0  0.16627028519E+01 -0.83939231338E+00  0.11261829206E+02  0.11414813076E+02  0.51100000000E-03 0. -1.
        -11    1    3    3    0    0  0.25597269461E+02  0.55585957389E+01  0.80805413933E+01  0.27411919669E+02  0.51100000000E-03 0.  1.
         12    1    3    3    0    0  0.45405792213E+01 -0.24342698560E+01 -0.19816448465E+02  0.20475208403E+02  0.00000000000E+00 0. -1.
</event>
<event>
 7    1  0.6164995E-012  0.5930196E+02  0.7816164E-02  0.1266605E+00
        -11   -1    0    0    0    0  0.00000000000E+00  0.00000000000E+00  0.45593999997E+02  0.45594000000E+02  0.51100000000E-03 0.  1.
         11   -1    0    0    0    0 -0.00000000000E+00 -0.00000000000E+00 -0.45593999997E+02  0.45594000000E+02  0.51100000000E-03 0. -1.
    9900012    2    1    2    0    0  0.13408264219E+01 -0.28893800886E+02  0.13419005696E+02  0.59301964514E+02  0.50000037362E+02 0.  0.
         12    1    1    2    0    0 -0.13408264219E+01  0.28893800886E+02 -0.13419005696E+02  0.31886035486E+02  0.00000000000E+00 0. -1.
         11    1    3    3    0    0 -0.97707102865E+01  0.18244317798E+00 -0.87217189512E+01  0.13098413902E+02  0.51100000000E-03 0. -1.
        -11    1    3    3    0    0  0.50478227870E+01 -0.84328106751E+01 -0.54321805390E+01  0.11229487808E+02  0.51100000000E-03 0.  1.
         12    1    3    3    0    0  0.60637139214E+01 -0.20643433389E+02  0.27572905187E+02  0.34974062804E+02  0.00000000000E+00 0. -1.
</event>
<event>
 7    1  0.6164995E-012  0.5930184E+02  0.7816164E-02  0.1266605E+00
        -11   -1    0    0    0    0  0.00000000000E+00  0.00000000000E+00  0.45593999997E+02  0.45594000000E+02  0.51100000000E-03 0. -1.
         11   -1    0    0    0    0 -0.00000000000E+00 -0.00000000000E+00 -0.45593999997E+02  0.45594000000E+02  0.51100000000E-03 0.  1.
    9900012    2    1    2    0    0  0.11293769806E+02 -0.14909371902E+02 -0.25824189377E+02  0.59301837422E+02  0.49999805577E+02 0.  0.
         12    1    1    2    0    0 -0.11293769806E+02  0.14909371902E+02  0.25824189377E+02  0.31886162578E+02  0.00000000000E+00 0. -1.
         11    1    3    3    0    0  0.54801667888E+01 -0.65489355556E+01  0.50934710765E+01  0.99430494725E+01  0.51100000000E-03 0. -1.
        -11    1    3    3    0    0  0.18269845402E+02 -0.15281665965E+02 -0.22732091319E+02  0.32925135409E+02  0.51100000000E-03 0.  1.
         12    1    3    3    0    0 -0.12456242385E+02  0.69212296185E+01 -0.81855691342E+01  0.16433652541E+02  0.00000000000E+00 0. -1.
</event>
<event>
 7    1  0.6164995E-012  0.5930194E+02  0.7816164E-02  0.1266605E+00
        -11   -1    0    0    0    0  0.00000000000E+00  0.00000000000E+00  0.45593999997E+02  0.45594000000E+02  0.51100000000E-03 0. -1.
         11   -1    0    0    0    0 -0.00000000000E+00 -0.00000000000E+00 -0.45593999997E+02  0.45594000000E+02  0.51100000000E-03 0.  1.
    9900012    2    1    2    0    0  0.54301732162E+01  0.29188171984E+02 -0.11631185825E+02  0.59301942724E+02  0.49999997621E+02 0.  0.
         12    1    1    2    0    0 -0.54301732162E+01 -0.29188171984E+02  0.11631185825E+02  0.31886057276E+02  0.00000000000E+00 0. -1.
         11    1    3    3    0    0 -0.14078188294E+02  0.24005085691E+01 -0.16151834657E+02  0.21560138916E+02  0.51100000000E-03 0. -1.
        -11    1    3    3    0    0  0.32349105423E+00  0.13918976680E+02  0.45284258289E+01  0.14640669350E+02  0.51100000000E-03 0.  1.
        -12    1    3    3    0    0  0.19184870456E+02  0.12868686736E+02 -0.77769969452E-02  0.23101134457E+02  0.00000000000E+00 0.  1.
</event>
<event>
 7    1  0.6164995E-012  0.5930204E+02  0.7816164E-02  0.1266604E+00
        -11   -1    0    0    0    0  0.00000000000E+00  0.00000000000E+00  0.45593999997E+02  0.45594000000E+02  0.51100000000E-03 0. -1.
         11   -1    0    0    0    0 -0.00000000000E+00 -0.00000000000E+00 -0.45593999997E+02  0.45594000000E+02  0.51100000000E-03 0.  1.
    9900012    2    1    2    0    0  0.14637279944E+02 -0.25604491625E+02 -0.12119166689E+02  0.59302044522E+02  0.50000183276E+02 0.  0.
         12    1    1    2    0    0 -0.14637279944E+02  0.25604491625E+02  0.12119166689E+02  0.31885955478E+02  0.00000000000E+00 0. -1.
         11    1    3    3    0    0 -0.88995881079E+01  0.19354408822E+01 -0.13655395371E+02  0.16413970358E+02  0.51100000000E-03 0. -1.
        -11    1    3    3    0    0 -0.34526625945E+01 -0.68496222347E+01 -0.36369685559E+01  0.84891545095E+01  0.51100000000E-03 0.  1.
        -12    1    3    3    0    0  0.26989530647E+02 -0.20690310272E+02  0.51731972382E+01  0.34398919654E+02  0.00000000000E+00 0.  1.
</event>
<event>
 7    1  0.6164995E-012  0.5930196E+02  0.7816164E-02  0.1266605E+00
        -11   -1    0    0    0    0  0.00000000000E+00  0.00000000000E+00  0.45593999997E+02  0.45594000000E+02  0.51100000000E-03 0.  1.
         11   -1    0    0    0    0 -0.00000000000E+00 -0.00000000000E+00 -0.45593999997E+02  0.45594000000E+02  0.51100000000E-03 0. -1.
    9900012    2    1    2    0    0  0.21720292658E+02 -0.23282873547E+02  0.16900680704E+01  0.59301958480E+02  0.50000026357E+02 0.  0.
         12    1    1    2    0    0 -0.21720292658E+02  0.23282873547E+02 -0.16900680704E+01  0.31886041520E+02  0.00000000000E+00 0. -1.
         11    1    3    3    0    0  0.17507864987E+02 -0.96895256068E+01 -0.11182034110E+02  0.22922699012E+02  0.51100000000E-03 0. -1.
        -11    1    3    3    0    0  0.10259439964E+02  0.49431953031E+01 -0.23681570056E+01  0.11631829436E+02  0.51100000000E-03 0.  1.
        -12    1    3    3    0    0 -0.60470122931E+01 -0.18536543243E+02  0.15240259186E+02  0.24747430031E+02  0.00000000000E+00 0.  1.
</event>
<event>
 7    1  0.6164995E-012  0.5930213E+02  0.7816164E-02  0.1266604E+00
        -11   -1    0    0    0    0  0.00000000000E+00  0.00000000000E+00  0.45593999997E+02  0.45594000000E+02  0.51100000000E-03 0. -1.
         11   -1    0    0    0    0 -0.00000000000E+00 -0.00000000000E+00 -0.45593999997E+02  0.45594000000E+02  0.51100000000E-03 0.  1.
    9900012    2    1    2    0    0  0.53287702670E+01 -0.24162133672E+02 -0.20112289607E+02  0.59302130255E+02  0.50000339632E+02 0.  0.
         12    1    1    2    0    0 -0.53287702670E+01  0.24162133672E+02  0.20112289607E+02  0.31885869745E+02  0.00000000000E+00 0. -1.
         11    1    3    3    0    0  0.11805609923E+02 -0.31829536367E+01 -0.66263580602E+00  0.12245109472E+02  0.51100000000E-03 0. -1.
        -11    1    3    3    0    0  0.13687169238E+02 -0.17225699620E+02 -0.13006513653E+02  0.25558417924E+02  0.51100000000E-03 0.  1.
        -12    1    3    3    0    0 -0.20164008894E+02 -0.37534804154E+01 -0.64431401488E+01  0.21498602858E+02  0.00000000000E+00 0.  1.
</event>
<event>
 7    1  0.6164995E-012  0.5930192E+02  0.7816164E-02  0.1266605E+00
        -11   -1    0    0    0    0  0.00000000000E+00  0.00000000000E+00  0.45593999997E+02  0.45594000000E+02  0.51100000000E-03 0. -1.
         11   -1    0    0    0    0 -0.00000000000E+00 -0.00000000000E+00 -0.45593999997E+02  0.45594000000E+02  0.51100000000E-03 0.  1.
    9900012    2    1    2    0    0  0.53891532660E+01 -0.31411354237E+02  0.10029231141E+01  0.59301921491E+02  0.49999958898E+02 0.  0.
         12    1    1    2    0    0 -0.53891532660E+01  0.31411354237E+02 -0.10029231141E+01  0.31886078509E+02  0.00000000000E+00 0. -1.
         11    1    3    3    0    0 -0.17257993230E-01 -0.59533950669E+01  0.92204396587E+01  0.10975414271E+02  0.51100000000E-03 0. -1.
        -11    1    3    3    0    0  0.15941734889E+02  0.38739998738E+01 -0.38935440240E+01  0.16861389967E+02  0.51100000000E-03 0.  1.
        -12    1    3    3    0    0 -0.10535323630E+02 -0.29331959044E+02 -0.43239725206E+01  0.31465117252E+02  0.00000000000E+00 0.  1.
</event>
<event>
 7    1  0.6164995E-012  0.5930195E+02  0.7816164E-02  0.1266605E+00
        -11   -1    0    0    0    0  0.00000000000E+00  0.00000000000E+00  0.45593999997E+02  0.45594000000E+02  0.51100000000E-03 0. -1.
         11   -1    0    0    0    0 -0.00000000000E+00 -0.00000000000E+00 -0.45593999997E+02  0.45594000000E+02  0.51100000000E-03 0.  1.
    9900012    2    1    2    0    0 -0.28916961507E+02 -0.59146654550E+01 -0.12064262719E+02  0.59301947168E+02  0.50000005728E+02 0.  0.
         12    1    1    2    0    0  0.28916961507E+02  0.59146654550E+01  0.12064262719E+02  0.31886052832E+02  0.00000000000E+00 0. -1.
         11    1    3    3    0    0  0.15790701215E+01  0.29889273618E+01 -0.29528623906E+00  0.33932791584E+01  0.51100000000E-03 0. -1.
        -11    1    3    3    0    0 -0.20516321853E+02 -0.26959416454E+02 -0.92981986693E+01  0.35130984852E+02  0.51100000000E-03 0.  1.
         12    1    3    3    0    0 -0.99797097748E+01  0.18055823637E+02 -0.24707778112E+01  0.20777683158E+02  0.00000000000E+00 0. -1.
</event>
<event>
 7    1  0.6164995E-012  0.5930195E+02  0.7816164E-02  0.1266605E+00
        -11   -1    0    0    0    0  0.00000000000E+00  0.00000000000E+00  0.45593999997E+02  0.45594000000E+02  0.51100000000E-03 0. -1.
         11   -1    0    0    0    0 -0.00000000000E+00 -0.00000000000E+00 -0.45593999997E+02  0.45594000000E+02  0.51100000000E-03 0.  1.
    9900012    2    1    2    0    0 -0.16230952219E+01 -0.31674780733E+02  0.32854305541E+01  0.59301949343E+02  0.50000009694E+02 0.  0.
         12    1    1    2    0    0  0.16230952219E+01  0.31674780733E+02 -0.32854305541E+01  0.31886050657E+02  0.00000000000E+00 0. -1.
         11    1    3    3    0    0 -0.24399690052E+01  0.54768749493E+01  0.30314036824E+01  0.67185576208E+01  0.51100000000E-03 0. -1.
        -11    1    3    3    0    0 -0.33971543665E+01 -0.87423821301E+01 -0.16757111036E+02  0.19203402658E+02  0.51100000000E-03 0.  1.
        -12    1    3    3    0    0  0.42140281498E+01 -0.28409273552E+02  0.17011137908E+02  0.33379989064E+02  0.00000000000E+00 0.  1.
</event>
<event>
 7    1  0.6164995E-012  0.5930189E+02  0.7816164E-02  0.1266605E+00
        -11   -1    0    0    0    0  0.00000000000E+00  0.00000000000E+00  0.45593999997E+02  0.45594000000E+02  0.51100000000E-03 0. -1.
         11   -1    0    0    0    0 -0.00000000000E+00 -0.00000000000E+00 -0.45593999997E+02  0.45594000000E+02  0.51100000000E-03 0.  1.
    9900012    2    1    2    0    0  0.25182261664E+02 -0.14971380372E+02 -0.12587106050E+02  0.59301893755E+02  0.49999908314E+02 0.  0.
         12    1    1    2    0    0 -0.25182261664E+02  0.14971380372E+02  0.12587106050E+02  0.31886106245E+02  0.00000000000E+00 0. -1.
         11    1    3    3    0    0  0.57066274477E+01  0.21501880856E+01 -0.95348214643E+01  0.11318203314E+02  0.51100000000E-03 0. -1.
        -11    1    3    3    0    0  0.19737551623E+02 -0.11608035210E+02 -0.19848875531E+02  0.30303387362E+02  0.51100000000E-03 0.  1.
         12    1    3    3    0    0 -0.26191740608E+00 -0.55135332478E+01  0.16796590945E+02  0.17680303079E+02  0.00000000000E+00 0. -1.
</event>
<event>
 7    1  0.6164995E-012  0.5930193E+02  0.7816164E-02  0.1266605E+00
        -11   -1    0    0    0    0  0.00000000000E+00  0.00000000000E+00  0.45593999997E+02  0.45594000000E+02  0.51100000000E-03 0.  1.
         11   -1    0    0    0    0 -0.00000000000E+00 -0.00000000000E+00 -0.45593999997E+02  0.45594000000E+02  0.51100000000E-03 0. -1.
    9900012    2    1    2    0    0  0.76698788278E+00  0.68312257632E+01  0.31136278764E+02  0.59301925123E+02  0.49999965522E+02 0.  0.
         12    1    1    2    0    0 -0.76698788278E+00 -0.68312257632E+01 -0.31136278764E+02  0.31886074877E+02  0.00000000000E+00 0. -1.
         11    1    3    3    0    0  0.12635566022E+01 -0.20176499564E+01  0.14567364725E+02  0.14760609808E+02  0.51100000000E-03 0.  1.
        -11    1    3    3    0    0 -0.30784173318E+01  0.22173510946E+02  0.20559195214E+02  0.30394436153E+02  0.51100000000E-03 0. -1.
        -12    1    3    3    0    0  0.25818486124E+01 -0.13324635226E+02 -0.39902811748E+01  0.14146879162E+02  0.00000000000E+00 0.  1.
</event>
<event>
 7    1  0.6164995E-012  0.5930195E+02  0.7816164E-02  0.1266605E+00
        -11   -1    0    0    0    0  0.00000000000E+00  0.00000000000E+00  0.45593999997E+02  0.45594000000E+02  0.51100000000E-03 0.  1.
         11   -1    0    0    0    0 -0.00000000000E+00 -0.00000000000E+00 -0.45593999997E+02  0.45594000000E+02  0.51100000000E-03 0. -1.
    9900012    2    1    2    0    0 -0.14481025435E+02 -0.28407896976E+02 -0.10826648590E+00  0.59301946153E+02  0.50000003877E+02 0.  0.
         12    1    1    2    0    0  0.14481025435E+02  0.28407896976E+02  0.10826648590E+00  0.31886053847E+02  0.00000000000E+00 0. -1.
         11    1    3    3    0    0  0.10696712560E+01  0.79139405510E+01  0.99264997883E+00  0.80473601810E+01  0.51100000000E-03 0. -1.
        -11    1    3    3    0    0 -0.56964387740E+01 -0.10152523026E+02  0.14999871779E+02  0.18987345579E+02  0.51100000000E-03 0.  1.
         12    1    3    3    0    0 -0.98542579174E+01 -0.26169314501E+02 -0.16100788243E+02  0.32267240393E+02  0.00000000000E+00 0. -1.
</event>
<event>
 7    1  0.6164995E-012  0.5930194E+02  0.7816164E-02  0.1266605E+00
        -11   -1    0    0    0    0  0.00000000000E+00  0.00000000000E+00  0.45593999997E+02  0.45594000000E+02  0.51100000000E-03 0. -1.
         11   -1    0    0    0    0 -0.00000000000E+00 -0.00000000000E+00 -0.45593999997E+02  0.45594000000E+02  0.51100000000E-03 0.  1.
    9900012    2    1    2    0    0  0.15135410304E+02 -0.10897519514E+02 -0.25862793852E+02  0.59301942193E+02  0.49999996654E+02 0.  0.
         12    1    1    2    0    0 -0.15135410304E+02  0.10897519514E+02  0.25862793852E+02  0.31886057807E+02  0.00000000000E+00 0. -1.
         11    1    3    3    0    0  0.21083105903E+02 -0.10328880125E+02  0.13626854158E+00  0.23477684906E+02  0.51100000000E-03 0. -1.
        -11    1    3    3    0    0  0.78555591667E+01  0.28859119875E+01 -0.32213710816E+01  0.89674706427E+01  0.51100000000E-03 0.  1.
         12    1    3    3    0    0 -0.13803254766E+02 -0.34545513765E+01 -0.22777691312E+02  0.26856786644E+02  0.00000000000E+00 0. -1.
</event>
<event>
 7    1  0.6164995E-012  0.5930204E+02  0.7816164E-02  0.1266604E+00
        -11   -1    0    0    0    0  0.00000000000E+00  0.00000000000E+00  0.45593999997E+02  0.45594000000E+02  0.51100000000E-03 0. -1.
         11   -1    0    0    0    0 -0.00000000000E+00 -0.00000000000E+00 -0.45593999997E+02  0.45594000000E+02  0.51100000000E-03 0.  1.
    9900012    2    1    2    0    0 -0.26408578780E+01  0.27949435064E+02 -0.15118501484E+02  0.59302044819E+02  0.50000183818E+02 0.  0.
         12    1    1    2    0    0  0.26408578780E+01 -0.27949435064E+02  0.15118501484E+02  0.31885955181E+02  0.00000000000E+00 0. -1.
         11    1    3    3    0    0  0.80311610255E+00  0.49081000885E+01 -0.57855161578E+00  0.50069116415E+01  0.51100000000E-03 0. -1.
        -11    1    3    3    0    0 -0.20520920564E+02  0.25947295407E+02 -0.24519596105E+01  0.33172012690E+02  0.51100000000E-03 0.  1.
        -12    1    3    3    0    0  0.17076946583E+02 -0.29059604317E+01 -0.12087990257E+02  0.21123120487E+02  0.00000000000E+00 0.  1.
</event>
<event>
 7    1  0.6164995E-012  0.5930200E+02  0.7816164E-02  0.1266605E+00
        -11   -1    0    0    0    0  0.00000000000E+00  0.00000000000E+00  0.45593999997E+02  0.45594000000E+02  0.51100000000E-03 0. -1.
         11   -1    0    0    0    0 -0.00000000000E+00 -0.00000000000E+00 -0.45593999997E+02  0.45594000000E+02  0.51100000000E-03 0.  1.
    9900012    2    1    2    0    0 -0.26772902467E+02 -0.74766019746E+01  0.15621433090E+02  0.59301999069E+02  0.50000100381E+02 0.  0.
         12    1    1    2    0    0  0.26772902467E+02  0.74766019746E+01 -0.15621433090E+02  0.31886000931E+02  0.00000000000E+00 0. -1.
         11    1    3    3    0    0 -0.11721157173E+02  0.21619283540E+01  0.15423736017E+02  0.19492334202E+02  0.51100000000E-03 0. -1.
        -11    1    3    3    0    0 -0.20491958358E+02  0.66812481121E+01 -0.44109845855E+01  0.22000368610E+02  0.51100000000E-03 0.  1.
         12    1    3    3    0    0  0.54402130638E+01 -0.16319778441E+02  0.46086816589E+01  0.17809296257E+02  0.00000000000E+00 0. -1.
</event>
<event>
 7    1  0.6164995E-012  0.5930196E+02  0.7816164E-02  0.1266605E+00
        -11   -1    0    0    0    0  0.00000000000E+00  0.00000000000E+00  0.45593999997E+02  0.45594000000E+02  0.51100000000E-03 0.  1.
         11   -1    0    0    0    0 -0.00000000000E+00 -0.00000000000E+00 -0.45593999997E+02  0.45594000000E+02  0.51100000000E-03 0. -1.
    9900012    2    1    2    0    0 -0.20234385649E+02 -0.16825961006E+02  0.18004893556E+02  0.59301960448E+02  0.50000029946E+02 0.  0.
         12    1    1    2    0    0  0.20234385649E+02  0.16825961006E+02 -0.18004893556E+02  0.31886039552E+02  0.00000000000E+00 0. -1.
         11    1    3    3    0    0  0.26613287464E+01 -0.39346113795E+01 -0.14544091942E+02  0.15300145361E+02  0.51100000000E-03 0. -1.
        -11    1    3    3    0    0 -0.12781623142E+02 -0.36638525558E-01  0.18221776823E+02  0.22257681446E+02  0.51100000000E-03 0.  1.
        -12    1    3    3    0    0 -0.10114091254E+02 -0.12854711101E+02  0.14327208674E+02  0.21744133640E+02  0.00000000000E+00 0.  1.
</event>
<event>
 7    1  0.6164995E-012  0.5930196E+02  0.7816164E-02  0.1266605E+00
        -11   -1    0    0    0    0  0.00000000000E+00  0.00000000000E+00  0.45593999997E+02  0.45594000000E+02  0.51100000000E-03 0. -1.
         11   -1    0    0    0    0 -0.00000000000E+00 -0.00000000000E+00 -0.45593999997E+02  0.45594000000E+02  0.51100000000E-03 0.  1.
    9900012    2    1    2    0    0 -0.27706005206E+02  0.14739413599E+02  0.56432939310E+01  0.59301955966E+02  0.50000021773E+02 0.  0.
         12    1    1    2    0    0  0.27706005206E+02 -0.14739413599E+02 -0.56432939310E+01  0.31886044034E+02  0.00000000000E+00 0. -1.
         11    1    3    3    0    0 -0.35550603708E+01 -0.15586685289E+01 -0.92040236246E+01  0.99890916988E+01  0.51100000000E-03 0.  1.
        -11    1    3    3    0    0 -0.20229690357E+02 -0.83423290161E+01  0.91615433864E+01  0.23722746528E+02  0.51100000000E-03 0. -1.
         12    1    3    3    0    0 -0.39212544785E+01  0.24640411144E+02  0.56857741692E+01  0.25590117740E+02  0.00000000000E+00 0. -1.
</event>
<event>
 7    1  0.6164995E-012  0.5930154E+02  0.7816164E-02  0.1266606E+00
        -11   -1    0    0    0    0  0.00000000000E+00  0.00000000000E+00  0.45593999997E+02  0.45594000000E+02  0.51100000000E-03 0.  1.
         11   -1    0    0    0    0 -0.00000000000E+00 -0.00000000000E+00 -0.45593999997E+02  0.45594000000E+02  0.51100000000E-03 0. -1.
    9900012    2    1    2    0    0  0.12281700343E+02 -0.29397483860E+02 -0.13014913919E+01  0.59301543620E+02  0.49999269747E+02 0.  0.
         12    1    1    2    0    0 -0.12281700343E+02  0.29397483860E+02  0.13014913919E+01  0.31886456380E+02  0.00000000000E+00 0. -1.
         11    1    3    3    0    0  0.99942293794E+01 -0.13151024567E+02  0.73488014042E-02  0.16517691192E+02  0.51100000000E-03 0.  1.
        -11    1    3    3    0    0 -0.17986302460E+02 -0.24200609270E+01 -0.18154420399E+01  0.18238958334E+02  0.51100000000E-03 0. -1.
         12    1    3    3    0    0  0.20273773424E+02 -0.13826398366E+02  0.50660184668E+00  0.24544894093E+02  0.00000000000E+00 0. -1.
</event>
<event>
 7    1  0.6164995E-012  0.5930198E+02  0.7816164E-02  0.1266605E+00
        -11   -1    0    0    0    0  0.00000000000E+00  0.00000000000E+00  0.45593999997E+02  0.45594000000E+02  0.51100000000E-03 0.  1.
         11   -1    0    0    0    0 -0.00000000000E+00 -0.00000000000E+00 -0.45593999997E+02  0.45594000000E+02  0.51100000000E-03 0. -1.
    9900012    2    1    2    0    0 -0.21467804276E+02  0.14420057335E+02  0.18652440936E+02  0.59301980699E+02  0.50000066880E+02 0.  0.
         12    1    1    2    0    0  0.21467804276E+02 -0.14420057335E+02 -0.18652440936E+02  0.31886019301E+02  0.00000000000E+00 0. -1.
         11    1    3    3    0    0 -0.11522402442E+02  0.28879784037E+01  0.72277420869E+01  0.13904906804E+02  0.51100000000E-03 0.  1.
        -11    1    3    3    0    0 -0.13869868079E+02 -0.20475240106E+01 -0.11722458964E+02  0.18275164556E+02  0.51100000000E-03 0. -1.
         12    1    3    3    0    0  0.39244662458E+01  0.13579602942E+02  0.23147157814E+02  0.27121909340E+02  0.00000000000E+00 0. -1.
</event>
<event>
 7    1  0.6164995E-012  0.5930184E+02  0.7816164E-02  0.1266605E+00
        -11   -1    0    0    0    0  0.00000000000E+00  0.00000000000E+00  0.45593999997E+02  0.45594000000E+02  0.51100000000E-03 0. -1.
         11   -1    0    0    0    0 -0.00000000000E+00 -0.00000000000E+00 -0.45593999997E+02  0.45594000000E+02  0.51100000000E-03 0.  1.
    9900012    2    1    2    0    0  0.21504283716E+02 -0.21598639959E+01 -0.23444148992E+02  0.59301837600E+02  0.49999805902E+02 0.  0.
         12    1    1    2    0    0 -0.21504283716E+02  0.21598639959E+01  0.23444148992E+02  0.31886162400E+02  0.00000000000E+00 0. -1.
         11    1    3    3    0    0  0.57967072736E+01 -0.32339297926E+01  0.16241803808E+01  0.68335992925E+01  0.51100000000E-03 0. -1.
        -11    1    3    3    0    0 -0.10618046521E+02  0.88535412399E+01  0.19376514865E+01  0.13960035743E+02  0.51100000000E-03 0.  1.
        -12    1    3    3    0    0  0.26325622963E+02 -0.77794754431E+01 -0.27005980859E+02  0.38508202565E+02  0.00000000000E+00 0.  1.
</event>
<event>
 7    1  0.6164995E-012  0.5930195E+02  0.7816164E-02  0.1266605E+00
        -11   -1    0    0    0    0  0.00000000000E+00  0.00000000000E+00  0.45593999997E+02  0.45594000000E+02  0.51100000000E-03 0. -1.
         11   -1    0    0    0    0 -0.00000000000E+00 -0.00000000000E+00 -0.45593999997E+02  0.45594000000E+02  0.51100000000E-03 0.  1.
    9900012    2    1    2    0    0  0.20522107318E+02 -0.13400472648E+02 -0.20395848572E+02  0.59301949838E+02  0.50000010597E+02 0.  0.
         12    1    1    2    0    0 -0.20522107318E+02  0.13400472648E+02  0.20395848572E+02  0.31886050162E+02  0.00000000000E+00 0. -1.
         11    1    3    3    0    0  0.22362055656E+02  0.50757375483E+01  0.41506583732E+01  0.23303489224E+02  0.51100000000E-03 0. -1.
        -11    1    3    3    0    0  0.67166300951E+01 -0.31640929744E+01 -0.25191465718E+01  0.78403254968E+01  0.51100000000E-03 0.  1.
         12    1    3    3    0    0 -0.85565784329E+01 -0.15312117222E+02 -0.22027360373E+02  0.28158135117E+02  0.00000000000E+00 0. -1.
</event>
<event>
 7    1  0.6164995E-012  0.5930195E+02  0.7816164E-02  0.1266605E+00
        -11   -1    0    0    0    0  0.00000000000E+00  0.00000000000E+00  0.45593999997E+02  0.45594000000E+02  0.51100000000E-03 0. -1.
         11   -1    0    0    0    0 -0.00000000000E+00 -0.00000000000E+00 -0.45593999997E+02  0.45594000000E+02  0.51100000000E-03 0.  1.
    9900012    2    1    2    0    0  0.28097331857E+02 -0.14009929755E+02  0.55661742594E+01  0.59301945288E+02  0.50000002298E+02 0.  0.
         12    1    1    2    0    0 -0.28097331857E+02  0.14009929755E+02 -0.55661742594E+01  0.31886054712E+02  0.00000000000E+00 0. -1.
         11    1    3    3    0    0  0.16309404278E+02  0.34603697397E+01  0.39266214670E+01  0.17128607154E+02  0.51100000000E-03 0. -1.
        -11    1    3    3    0    0  0.12670712002E+02 -0.10601763764E+01  0.15938994529E+02  0.20389273245E+02  0.51100000000E-03 0.  1.
         12    1    3    3    0    0 -0.88278442260E+00 -0.16410123119E+02 -0.14299441737E+02  0.21784064889E+02  0.00000000000E+00 0. -1.
</event>
<event>
 7    1  0.6164995E-012  0.5930195E+02  0.7816164E-02  0.1266605E+00
        -11   -1    0    0    0    0  0.00000000000E+00  0.00000000000E+00  0.45593999997E+02  0.45594000000E+02  0.51100000000E-03 0. -1.
         11   -1    0    0    0    0 -0.00000000000E+00 -0.00000000000E+00 -0.45593999997E+02  0.45594000000E+02  0.51100000000E-03 0.  1.
    9900012    2    1    2    0    0 -0.10886692313E+02  0.13249479054E+02 -0.26882179561E+02  0.59301947521E+02  0.50000006372E+02 0.  0.
         12    1    1    2    0    0  0.10886692313E+02 -0.13249479054E+02  0.26882179561E+02  0.31886052479E+02  0.00000000000E+00 0. -1.
         11    1    3    3    0    0 -0.44158930587E+01  0.69563696285E+01  0.11055559313E+02  0.13788276974E+02  0.51100000000E-03 0. -1.
        -11    1    3    3    0    0 -0.99765343117E+01  0.73735131412E+01 -0.67736963528E+01  0.14134457735E+02  0.51100000000E-03 0.  1.
        -12    1    3    3    0    0  0.35057350574E+01 -0.10804037152E+01 -0.31164042521E+02  0.31379212813E+02  0.00000000000E+00 0.  1.
</event>
<event>
 7    1  0.6164995E-012  0.5930196E+02  0.7816164E-02  0.1266605E+00
        -11   -1    0    0    0    0  0.00000000000E+00  0.00000000000E+00  0.45593999997E+02  0.45594000000E+02  0.51100000000E-03 0. -1.
         11   -1    0    0    0    0 -0.00000000000E+00 -0.00000000000E+00 -0.45593999997E+02  0.45594000000E+02  0.51100000000E-03 0.  1.
    9900012    2    1    2    0    0  0.82071770187E+01 -0.62512778203E+01 -0.30170898795E+02  0.59301962882E+02  0.50000034385E+02 0.  0.
         12    1    1    2    0    0 -0.82071770187E+01  0.62512778203E+01  0.30170898795E+02  0.31886037118E+02  0.00000000000E+00 0. -1.
         11    1    3    3    0    0  0.10672598848E+02 -0.11104224718E+02 -0.37004012640E+01  0.15839859297E+02  0.51100000000E-03 0. -1.
        -11    1    3    3    0    0  0.18432640000E+01 -0.81079137938E+01 -0.28468997657E+02  0.29658383572E+02  0.51100000000E-03 0.  1.
         12    1    3    3    0    0 -0.43086858293E+01  0.12960860692E+02  0.19985001257E+01  0.13803720013E+02  0.00000000000E+00 0. -1.
</event>
<event>
 7    1  0.6164995E-012  0.5930194E+02  0.7816164E-02  0.1266605E+00
        -11   -1    0    0    0    0  0.00000000000E+00  0.00000000000E+00  0.45593999997E+02  0.45594000000E+02  0.51100000000E-03 0.  1.
         11   -1    0    0    0    0 -0.00000000000E+00 -0.00000000000E+00 -0.45593999997E+02  0.45594000000E+02  0.51100000000E-03 0. -1.
    9900012    2    1    2    0    0  0.31846343128E+02  0.11554670494E+01  0.10937514134E+01  0.59301937733E+02  0.49999988520E+02 0.  0.
         12    1    1    2    0    0 -0.31846343128E+02 -0.11554670494E+01 -0.10937514134E+01  0.31886062267E+02  0.00000000000E+00 0. -1.
         11    1    3    3    0    0 -0.99586026413E+01 -0.15473152988E+01  0.54331035416E+01  0.11449304152E+02  0.51100000000E-03 0. -1.
        -11    1    3    3    0    0  0.12658883406E+02  0.40159856891E+00  0.91791582576E+01  0.15641788807E+02  0.51100000000E-03 0.  1.
        -12    1    3    3    0    0  0.29146062363E+02  0.23011837793E+01 -0.13518510386E+02  0.32210844775E+02  0.00000000000E+00 0.  1.
</event>
<event>
 7    1  0.6164995E-012  0.5930198E+02  0.7816164E-02  0.1266605E+00
        -11   -1    0    0    0    0  0.00000000000E+00  0.00000000000E+00  0.45593999997E+02  0.45594000000E+02  0.51100000000E-03 0.  1.
         11   -1    0    0    0    0 -0.00000000000E+00 -0.00000000000E+00 -0.45593999997E+02  0.45594000000E+02  0.51100000000E-03 0. -1.
    9900012    2    1    2    0    0 -0.11823402761E+02 -0.24906189118E+02  0.16018965026E+02  0.59301978773E+02  0.50000063367E+02 0.  0.
         12    1    1    2    0    0  0.11823402761E+02  0.24906189118E+02 -0.16018965026E+02  0.31886021227E+02  0.00000000000E+00 0. -1.
         11    1    3    3    0    0 -0.11985487613E+02  0.31393174277E+01 -0.43400473389E+01  0.13127956368E+02  0.51100000000E-03 0. -1.
        -11    1    3    3    0    0 -0.14972355147E+02 -0.10814573860E+02  0.10092272410E+02  0.21047099303E+02  0.51100000000E-03 0.  1.
        -12    1    3    3    0    0  0.15134439999E+02 -0.17230932685E+02  0.10266739955E+02  0.25126923102E+02  0.00000000000E+00 0.  1.
</event>
<event>
 7    1  0.6164995E-012  0.5930196E+02  0.7816164E-02  0.1266605E+00
        -11   -1    0    0    0    0  0.00000000000E+00  0.00000000000E+00  0.45593999997E+02  0.45594000000E+02  0.51100000000E-03 0. -1.
         11   -1    0    0    0    0 -0.00000000000E+00 -0.00000000000E+00 -0.45593999997E+02  0.45594000000E+02  0.51100000000E-03 0.  1.
    9900012    2    1    2    0    0  0.33755332215E+01 -0.21510197765E+02 -0.23294559112E+02  0.59301963610E+02  0.50000035714E+02 0.  0.
         12    1    1    2    0    0 -0.33755332215E+01  0.21510197765E+02  0.23294559112E+02  0.31886036390E+02  0.00000000000E+00 0. -1.
         11    1    3    3    0    0 -0.31233060645E+01  0.56584400344E+01  0.84195552928E+01  0.10614230824E+02  0.51100000000E-03 0.  1.
        -11    1    3    3    0    0 -0.41133880353E+01  0.13972556278E+01  0.46529133270E+00  0.43690709200E+01  0.51100000000E-03 0. -1.
        -12    1    3    3    0    0  0.10612227321E+02 -0.28565893427E+02 -0.32179405738E+02  0.44318661866E+02  0.00000000000E+00 0.  1.
</event>
<event>
 7    1  0.6164995E-012  0.5930195E+02  0.7816164E-02  0.1266605E+00
        -11   -1    0    0    0    0  0.00000000000E+00  0.00000000000E+00  0.45593999997E+02  0.45594000000E+02  0.51100000000E-03 0. -1.
         11   -1    0    0    0    0 -0.00000000000E+00 -0.00000000000E+00 -0.45593999997E+02  0.45594000000E+02  0.51100000000E-03 0.  1.
    9900012    2    1    2    0    0 -0.13912051351E+02  0.25758774980E+02 -0.12635694516E+02  0.59301946040E+02  0.50000003669E+02 0.  0.
         12    1    1    2    0    0  0.13912051351E+02 -0.25758774980E+02  0.12635694516E+02  0.31886053960E+02  0.00000000000E+00 0. -1.
         11    1    3    3    0    0 -0.57023946691E+01  0.12880275269E+01 -0.11331251156E+02  0.12750434224E+02  0.51100000000E-03 0. -1.
        -11    1    3    3    0    0  0.15092891917E+02  0.44362986083E+01  0.77406119722E+00  0.15750406432E+02  0.51100000000E-03 0.  1.
         12    1    3    3    0    0 -0.23302548599E+02  0.20034448845E+02 -0.20785045571E+01  0.30801105384E+02  0.00000000000E+00 0. -1.
</event>
<event>
 7    1  0.6164995E-012  0.5930193E+02  0.7816164E-02  0.1266605E+00
        -11   -1    0    0    0    0  0.00000000000E+00  0.00000000000E+00  0.45593999997E+02  0.45594000000E+02  0.51100000000E-03 0.  1.
         11   -1    0    0    0    0 -0.00000000000E+00 -0.00000000000E+00 -0.45593999997E+02  0.45594000000E+02  0.51100000000E-03 0. -1.
    9900012    2    1    2    0    0 -0.92046868190E+01 -0.30517055549E+02  0.83923015976E+00  0.59301933355E+02  0.49999980535E+02 0.  0.
         12    1    1    2    0    0  0.92046868190E+01  0.30517055549E+02 -0.83923015976E+00  0.31886066645E+02  0.00000000000E+00 0. -1.
         11    1    3    3    0    0 -0.24272669701E+02 -0.25258072850E+02 -0.56106847318E+01  0.35476929432E+02  0.51100000000E-03 0. -1.
        -11    1    3    3    0    0  0.22356884528E+01 -0.63942599079E+01 -0.34275858550E+01  0.75916538174E+01  0.51100000000E-03 0.  1.
        -12    1    3    3    0    0  0.12832294429E+02  0.11352772085E+01  0.98775007466E+01  0.16233350106E+02  0.00000000000E+00 0.  1.
</event>
<event>
 7    1  0.6164995E-012  0.5930195E+02  0.7816164E-02  0.1266605E+00
        -11   -1    0    0    0    0  0.00000000000E+00  0.00000000000E+00  0.45593999997E+02  0.45594000000E+02  0.51100000000E-03 0.  1.
         11   -1    0    0    0    0 -0.00000000000E+00 -0.00000000000E+00 -0.45593999997E+02  0.45594000000E+02  0.51100000000E-03 0. -1.
    9900012    2    1    2    0    0  0.69156823173E+01  0.38912780443E+01  0.30882862092E+02  0.59301954812E+02  0.50000019668E+02 0.  0.
         12    1    1    2    0    0 -0.69156823173E+01 -0.38912780443E+01 -0.30882862092E+02  0.31886045188E+02  0.00000000000E+00 0. -1.
         11    1    3    3    0    0  0.98057784073E+01  0.32621320140E+01 -0.28197520636E+01  0.10711946481E+02  0.51100000000E-03 0. -1.
        -11    1    3    3    0    0  0.15448894837E+02  0.34386962200E+01  0.11016911211E+02  0.19283809693E+02  0.51100000000E-03 0.  1.
         12    1    3    3    0    0 -0.18338990927E+02 -0.28095501897E+01  0.22685702945E+02  0.29306198638E+02  0.00000000000E+00 0. -1.
</event>
<event>
 7    1  0.6164995E-012  0.5930193E+02  0.7816164E-02  0.1266605E+00
        -11   -1    0    0    0    0  0.00000000000E+00  0.00000000000E+00  0.45593999997E+02  0.45594000000E+02  0.51100000000E-03 0.  1.
         11   -1    0    0    0    0 -0.00000000000E+00 -0.00000000000E+00 -0.45593999997E+02  0.45594000000E+02  0.51100000000E-03 0. -1.
    9900012    2    1    2    0    0  0.20898267331E+02 -0.65669987498E+01  0.23170211739E+02  0.59301925264E+02  0.49999965780E+02 0.  0.
         12    1    1    2    0    0 -0.20898267331E+02  0.65669987498E+01 -0.23170211739E+02  0.31886074736E+02  0.00000000000E+00 0. -1.
         11    1    3    3    0    0  0.30936154962E+02  0.31343535704E+01  0.12306157337E+02  0.33441162731E+02  0.51100000000E-03 0. -1.
        -11    1    3    3    0    0 -0.80340373092E+01  0.44414435532E+01  0.40162347547E+01  0.10020095718E+02  0.51100000000E-03 0.  1.
         12    1    3    3    0    0 -0.20038503218E+01 -0.14142795874E+02  0.68478196474E+01  0.15840666815E+02  0.00000000000E+00 0. -1.
</event>
<event>
 7    1  0.6164995E-012  0.5930182E+02  0.7816164E-02  0.1266605E+00
        -11   -1    0    0    0    0  0.00000000000E+00  0.00000000000E+00  0.45593999997E+02  0.45594000000E+02  0.51100000000E-03 0. -1.
         11   -1    0    0    0    0 -0.00000000000E+00 -0.00000000000E+00 -0.45593999997E+02  0.45594000000E+02  0.51100000000E-03 0.  1.
    9900012    2    1    2    0    0 -0.64316834580E+00 -0.20083728362E+02 -0.24757998518E+02  0.59301822727E+02  0.49999778777E+02 0.  0.
         12    1    1    2    0    0  0.64316834580E+00  0.20083728362E+02  0.24757998518E+02  0.31886177273E+02  0.00000000000E+00 0. -1.
         11    1    3    3    0    0 -0.62770133767E+01 -0.44534603784E+01  0.92817875025E+01  0.12057602820E+02  0.51100000000E-03 0. -1.
        -11    1    3    3    0    0 -0.57570232420E+01  0.37101564772E+01 -0.47422854797E+00  0.68653820484E+01  0.51100000000E-03 0.  1.
         12    1    3    3    0    0  0.11390868273E+02 -0.19340424461E+02 -0.33565557473E+02  0.40378837858E+02  0.00000000000E+00 0. -1.
</event>
<event>
 7    1  0.6164995E-012  0.5930207E+02  0.7816164E-02  0.1266604E+00
        -11   -1    0    0    0    0  0.00000000000E+00  0.00000000000E+00  0.45593999997E+02  0.45594000000E+02  0.51100000000E-03 0. -1.
         11   -1    0    0    0    0 -0.00000000000E+00 -0.00000000000E+00 -0.45593999997E+02  0.45594000000E+02  0.51100000000E-03 0.  1.
    9900012    2    1    2    0    0 -0.68580491340E+01  0.20649209078E+02 -0.23308580719E+02  0.59302068798E+02  0.50000227551E+02 0.  0.
         12    1    1    2    0    0  0.68580491340E+01 -0.20649209078E+02  0.23308580719E+02  0.31885931202E+02  0.00000000000E+00 0. -1.
         11    1    3    3    0    0 -0.79990955449E+01 -0.29880092612E+01 -0.14521327116E+01  0.86615482770E+01  0.51100000000E-03 0.  1.
        -11    1    3    3    0    0  0.93203461781E+01 -0.19330132813E+01  0.65504766976E+01  0.11554831823E+02  0.51100000000E-03 0. -1.
        -12    1    3    3    0    0 -0.81792997672E+01  0.25570231621E+02 -0.28406924705E+02  0.39085688698E+02  0.00000000000E+00 0.  1.
</event>
<event>
 7    1  0.6164995E-012  0.5930194E+02  0.7816164E-02  0.1266605E+00
        -11   -1    0    0    0    0  0.00000000000E+00  0.00000000000E+00  0.45593999997E+02  0.45594000000E+02  0.51100000000E-03 0.  1.
         11   -1    0    0    0    0 -0.00000000000E+00 -0.00000000000E+00 -0.45593999997E+02  0.45594000000E+02  0.51100000000E-03 0. -1.
    9900012    2    1    2    0    0 -0.37864312127E+01  0.31657452467E+02 -0.43532426487E+00  0.59301939327E+02  0.49999991427E+02 0.  0.
         12    1    1    2    0    0  0.37864312127E+01 -0.31657452467E+02  0.43532426487E+00  0.31886060673E+02  0.00000000000E+00 0. -1.
         11    1    3    3    0    0 -0.13804901187E+02 -0.52757899914E+01  0.82889252319E+01  0.16944484016E+02  0.51100000000E-03 0. -1.
        -11    1    3    3    0    0  0.37831210945E+01 -0.57282769729E-01  0.23220703399E+00  0.37906736735E+01  0.51100000000E-03 0.  1.
        -12    1    3    3    0    0  0.62353488796E+01  0.36990525228E+02 -0.89564565308E+01  0.38566781638E+02  0.00000000000E+00 0.  1.
</event>
<event>
 7    1  0.6164995E-012  0.5930192E+02  0.7816164E-02  0.1266605E+00
        -11   -1    0    0    0    0  0.00000000000E+00  0.00000000000E+00  0.45593999997E+02  0.45594000000E+02  0.51100000000E-03 0.  1.
         11   -1    0    0    0    0 -0.00000000000E+00 -0.00000000000E+00 -0.45593999997E+02  0.45594000000E+02  0.51100000000E-03 0. -1.
    9900012    2    1    2    0    0 -0.13328263658E+02  0.74657997486E+00  0.28957242370E+02  0.59301923423E+02  0.49999962422E+02 0.  0.
         12    1    1    2    0    0  0.13328263658E+02 -0.74657997486E+00 -0.28957242370E+02  0.31886076577E+02  0.00000000000E+00 0. -1.
         11    1    3    3    0    0 -0.15552732787E+01 -0.10571989014E+02 -0.92387664534E+01  0.14125885194E+02  0.51100000000E-03 0. -1.
        -11    1    3    3    0    0 -0.78220238378E+01 -0.26073835937E+01  0.71197197438E+01  0.10893709911E+02  0.51100000000E-03 0.  1.
        -12    1    3    3    0    0 -0.39509665416E+01  0.13925952583E+02  0.31076289080E+02  0.34282328318E+02  0.00000000000E+00 0.  1.
</event>
<event>
 7    1  0.6164995E-012  0.5930195E+02  0.7816164E-02  0.1266605E+00
        -11   -1    0    0    0    0  0.00000000000E+00  0.00000000000E+00  0.45593999997E+02  0.45594000000E+02  0.51100000000E-03 0.  1.
         11   -1    0    0    0    0 -0.00000000000E+00 -0.00000000000E+00 -0.45593999997E+02  0.45594000000E+02  0.51100000000E-03 0. -1.
    9900012    2    1    2    0    0 -0.25188299588E+02 -0.53295592892E+01  0.18811321836E+02  0.59301945563E+02  0.50000002800E+02 0.  0.
         12    1    1    2    0    0  0.25188299588E+02  0.53295592892E+01 -0.18811321836E+02  0.31886054437E+02  0.00000000000E+00 0. -1.
         11    1    3    3    0    0 -0.20188881924E+02 -0.14891022429E+02  0.11711327820E+02  0.27685532357E+02  0.51100000000E-03 0. -1.
        -11    1    3    3    0    0 -0.13668869384E+02  0.30774930241E+01  0.13149359777E+02  0.19214958141E+02  0.51100000000E-03 0.  1.
        -12    1    3    3    0    0  0.86694517203E+01  0.64839701158E+01 -0.60493657616E+01  0.12401455064E+02  0.00000000000E+00 0.  1.
</event>
<event>
 7    1  0.6164995E-012  0.5930194E+02  0.7816164E-02  0.1266605E+00
        -11   -1    0    0    0    0  0.00000000000E+00  0.00000000000E+00  0.45593999997E+02  0.45594000000E+02  0.51100000000E-03 0.  1.
         11   -1    0    0    0    0 -0.00000000000E+00 -0.00000000000E+00 -0.45593999997E+02  0.45594000000E+02  0.51100000000E-03 0. -1.
    9900012    2    1    2    0    0 -0.15554991419E+02 -0.12450746476E+02  0.24894613801E+02  0.59301942825E+02  0.49999997807E+02 0.  0.
         12    1    1    2    0    0  0.15554991419E+02  0.12450746476E+02 -0.24894613801E+02  0.31886057175E+02  0.00000000000E+00 0. -1.
         11    1    3    3    0    0  0.18145685643E+01 -0.14666543631E+02  0.10351000637E+02  0.18042820611E+02  0.51100000000E-03 0.  1.
        -11    1    3    3    0    0  0.30092689251E+01 -0.11288096881E+02 -0.18450970234E+01  0.11827138874E+02  0.51100000000E-03 0. -1.
        -12    1    3    3    0    0 -0.20378828908E+02  0.13503894035E+02  0.16388710188E+02  0.29431983341E+02  0.00000000000E+00 0.  1.
</event>
<event>
 7    1  0.6164995E-012  0.5930190E+02  0.7816164E-02  0.1266605E+00
        -11   -1    0    0    0    0  0.00000000000E+00  0.00000000000E+00  0.45593999997E+02  0.45594000000E+02  0.51100000000E-03 0.  1.
         11   -1    0    0    0    0 -0.00000000000E+00 -0.00000000000E+00 -0.45593999997E+02  0.45594000000E+02  0.51100000000E-03 0. -1.
    9900012    2    1    2    0    0  0.17526135358E+02 -0.73030579004E+01  0.25616854804E+02  0.59301900751E+02  0.49999921073E+02 0.  0.
         12    1    1    2    0    0 -0.17526135358E+02  0.73030579004E+01 -0.25616854804E+02  0.31886099249E+02  0.00000000000E+00 0. -1.
         11    1    3    3    0    0 -0.10846735005E+02  0.61446201484E+01  0.79462451029E+01  0.14783464700E+02  0.51100000000E-03 0. -1.
        -11    1    3    3    0    0  0.21481608822E+02  0.24740974496E+01  0.16368969706E+02  0.27120542865E+02  0.51100000000E-03 0.  1.
        -12    1    3    3    0    0  0.68912615407E+01 -0.15921775498E+02  0.13016399954E+01  0.17397893186E+02  0.00000000000E+00 0.  1.
</event>
<event>
 7    1  0.6164995E-012  0.5930191E+02  0.7816164E-02  0.1266605E+00
        -11   -1    0    0    0    0  0.00000000000E+00  0.00000000000E+00  0.45593999997E+02  0.45594000000E+02  0.51100000000E-03 0. -1.
         11   -1    0    0    0    0 -0.00000000000E+00 -0.00000000000E+00 -0.45593999997E+02  0.45594000000E+02  0.51100000000E-03 0.  1.
    9900012    2    1    2    0    0  0.20721509901E+02 -0.24053407426E+02 -0.29623192071E+01  0.59301910298E+02  0.49999938485E+02 0.  0.
         12    1    1    2    0    0 -0.20721509901E+02  0.24053407426E+02  0.29623192071E+01  0.31886089702E+02  0.00000000000E+00 0. -1.
         11    1    3    3    0    0 -0.73844815272E+01  0.77500742013E+01  0.32870345765E+01  0.11198161194E+02  0.51100000000E-03 0. -1.
        -11    1    3    3    0    0 -0.31010568224E+01 -0.42004660327E+01 -0.36289044503E+01  0.63584130157E+01  0.51100000000E-03 0.  1.
         12    1    3    3    0    0  0.31207048251E+02 -0.27603015594E+02 -0.26204493334E+01  0.41745336089E+02  0.00000000000E+00 0. -1.
</event>
<event>
 7    1  0.6164995E-012  0.5930191E+02  0.7816164E-02  0.1266605E+00
        -11   -1    0    0    0    0  0.00000000000E+00  0.00000000000E+00  0.45593999997E+02  0.45594000000E+02  0.51100000000E-03 0.  1.
         11   -1    0    0    0    0 -0.00000000000E+00 -0.00000000000E+00 -0.45593999997E+02  0.45594000000E+02  0.51100000000E-03 0. -1.
    9900012    2    1    2    0    0  0.92742372753E+01  0.13010735250E+02  0.27594058132E+02  0.59301909726E+02  0.49999937442E+02 0.  0.
         12    1    1    2    0    0 -0.92742372753E+01 -0.13010735250E+02 -0.27594058132E+02  0.31886090274E+02  0.00000000000E+00 0. -1.
         11    1    3    3    0    0  0.13969164253E+02  0.68393541474E+01  0.65217777224E+01  0.16865583299E+02  0.51100000000E-03 0. -1.
        -11    1    3    3    0    0  0.98294217261E+01 -0.10395905575E+01  0.24002332273E+02  0.25957854973E+02  0.51100000000E-03 0.  1.
         12    1    3    3    0    0 -0.14524348704E+02  0.72109716596E+01 -0.29300518634E+01  0.16478471455E+02  0.00000000000E+00 0. -1.
</event>
<event>
 7    1  0.6164995E-012  0.5930195E+02  0.7816164E-02  0.1266605E+00
        -11   -1    0    0    0    0  0.00000000000E+00  0.00000000000E+00  0.45593999997E+02  0.45594000000E+02  0.51100000000E-03 0. -1.
         11   -1    0    0    0    0 -0.00000000000E+00 -0.00000000000E+00 -0.45593999997E+02  0.45594000000E+02  0.51100000000E-03 0.  1.
    9900012    2    1    2    0    0 -0.72523275148E+01  0.11503470922E+02 -0.28840842442E+02  0.59301948341E+02  0.50000007867E+02 0.  0.
         12    1    1    2    0    0  0.72523275148E+01 -0.11503470922E+02  0.28840842442E+02  0.31886051659E+02  0.00000000000E+00 0. -1.
         11    1    3    3    0    0  0.11712413829E+01  0.11190003270E+02  0.20547910696E+00  0.11253008553E+02  0.51100000000E-03 0. -1.
        -11    1    3    3    0    0  0.93995159350E+01 -0.93093062440E+01 -0.75024155347E+00  0.13250545091E+02  0.51100000000E-03 0.  1.
        -12    1    3    3    0    0 -0.17823084833E+02  0.96227738955E+01 -0.28296079995E+02  0.34798394697E+02  0.00000000000E+00 0.  1.
</event>
<event>
 7    1  0.6164995E-012  0.5930194E+02  0.7816164E-02  0.1266605E+00
        -11   -1    0    0    0    0  0.00000000000E+00  0.00000000000E+00  0.45593999997E+02  0.45594000000E+02  0.51100000000E-03 0. -1.
         11   -1    0    0    0    0 -0.00000000000E+00 -0.00000000000E+00 -0.45593999997E+02  0.45594000000E+02  0.51100000000E-03 0.  1.
    9900012    2    1    2    0    0  0.10279620795E+02 -0.17881642111E+02 -0.24316602084E+02  0.59301939328E+02  0.49999991430E+02 0.  0.
         12    1    1    2    0    0 -0.10279620795E+02  0.17881642111E+02  0.24316602084E+02  0.31886060672E+02  0.00000000000E+00 0. -1.
         11    1    3    3    0    0  0.77368806626E+01  0.14050054461E+02 -0.13793769519E+02  0.21154938680E+02  0.51100000000E-03 0. -1.
        -11    1    3    3    0    0 -0.22305369377E+01 -0.26937749887E+01  0.38654214965E+01  0.52127921814E+01  0.51100000000E-03 0.  1.
        -12    1    3    3    0    0  0.47732770702E+01 -0.29237921582E+02 -0.14388254061E+02  0.32934208467E+02  0.00000000000E+00 0.  1.
</event>
<event>
 7    1  0.6164995E-012  0.5930193E+02  0.7816164E-02  0.1266605E+00
        -11   -1    0    0    0    0  0.00000000000E+00  0.00000000000E+00  0.45593999997E+02  0.45594000000E+02  0.51100000000E-03 0.  1.
         11   -1    0    0    0    0 -0.00000000000E+00 -0.00000000000E+00 -0.45593999997E+02  0.45594000000E+02  0.51100000000E-03 0. -1.
    9900012    2    1    2    0    0 -0.20325162895E+02  0.18158884058E+02 -0.16548839068E+02  0.59301931075E+02  0.49999976377E+02 0.  0.
         12    1    1    2    0    0  0.20325162895E+02 -0.18158884058E+02  0.16548839068E+02  0.31886068925E+02  0.00000000000E+00 0. -1.
         11    1    3    3    0    0  0.76159740902E+01 -0.44130298550E+01 -0.32541610474E+01  0.93844263664E+01  0.51100000000E-03 0.  1.
        -11    1    3    3    0    0  0.23628965134E+01  0.15026932010E+02  0.16422765117E+01  0.15299968561E+02  0.51100000000E-03 0. -1.
        -12    1    3    3    0    0 -0.30304033499E+02  0.75449819036E+01 -0.14936954533E+02  0.34617536148E+02  0.00000000000E+00 0.  1.
</event>
<event>
 7    1  0.6164995E-012  0.5930193E+02  0.7816164E-02  0.1266605E+00
        -11   -1    0    0    0    0  0.00000000000E+00  0.00000000000E+00  0.45593999997E+02  0.45594000000E+02  0.51100000000E-03 0.  1.
         11   -1    0    0    0    0 -0.00000000000E+00 -0.00000000000E+00 -0.45593999997E+02  0.45594000000E+02  0.51100000000E-03 0. -1.
    9900012    2    1    2    0    0  0.56302764999E+01 -0.22558070162E+02  0.21820975570E+02  0.59301929095E+02  0.49999972767E+02 0.  0.
         12    1    1    2    0    0 -0.56302764999E+01  0.22558070162E+02 -0.21820975570E+02  0.31886070905E+02  0.00000000000E+00 0. -1.
         11    1    3    3    0    0  0.74375228751E+01 -0.20550191520E+02  0.11948736767E+01  0.21887321475E+02  0.51100000000E-03 0. -1.
        -11    1    3    3    0    0 -0.99009086511E+01 -0.10155789671E+02  0.44003152709E+00  0.14190196756E+02  0.51100000000E-03 0.  1.
        -12    1    3    3    0    0  0.80936622759E+01  0.81479110283E+01  0.20186070366E+02  0.23224410864E+02  0.00000000000E+00 0.  1.
</event>
<event>
 7    1  0.6164995E-012  0.5930194E+02  0.7816164E-02  0.1266605E+00
        -11   -1    0    0    0    0  0.00000000000E+00  0.00000000000E+00  0.45593999997E+02  0.45594000000E+02  0.51100000000E-03 0. -1.
         11   -1    0    0    0    0 -0.00000000000E+00 -0.00000000000E+00 -0.45593999997E+02  0.45594000000E+02  0.51100000000E-03 0.  1.
    9900012    2    1    2    0    0 -0.30489044773E+02  0.66764854590E+01 -0.65240597969E+01  0.59301942460E+02  0.49999997140E+02 0.  0.
         12    1    1    2    0    0  0.30489044773E+02 -0.66764854590E+01  0.65240597969E+01  0.31886057540E+02  0.00000000000E+00 0. -1.
         11    1    3    3    0    0 -0.23611046069E+00 -0.67415940720E+01  0.10456766964E+02  0.12443826356E+02  0.51100000000E-03 0. -1.
        -11    1    3    3    0    0 -0.21055595238E+02 -0.17881221117E+01 -0.19688100160E+02  0.28881772101E+02  0.51100000000E-03 0.  1.
         12    1    3    3    0    0 -0.91973390743E+01  0.15206201643E+02  0.27072733992E+01  0.17976344003E+02  0.00000000000E+00 0. -1.
</event>
<event>
 7    1  0.6164995E-012  0.5930199E+02  0.7816164E-02  0.1266605E+00
        -11   -1    0    0    0    0  0.00000000000E+00  0.00000000000E+00  0.45593999997E+02  0.45594000000E+02  0.51100000000E-03 0. -1.
         11   -1    0    0    0    0 -0.00000000000E+00 -0.00000000000E+00 -0.45593999997E+02  0.45594000000E+02  0.51100000000E-03 0.  1.
    9900012    2    1    2    0    0 -0.94067634839E+01 -0.17362507117E+02 -0.25035451331E+02  0.59301989337E+02  0.50000082634E+02 0.  0.
         12    1    1    2    0    0  0.94067634839E+01  0.17362507117E+02  0.25035451331E+02  0.31886010663E+02  0.00000000000E+00 0. -1.
         11    1    3    3    0    0 -0.48427139044E+01 -0.26246219200E+01  0.96699740526E+01  0.11128742814E+02  0.51100000000E-03 0. -1.
        -11    1    3    3    0    0 -0.14248041412E+02 -0.74724191433E+01 -0.62687563039E+01  0.17266761068E+02  0.51100000000E-03 0.  1.
        -12    1    3    3    0    0  0.96839918328E+01 -0.72654660538E+01 -0.28436669080E+02  0.30906485455E+02  0.00000000000E+00 0.  1.
</event>
<event>
 7    1  0.6164995E-012  0.5930195E+02  0.7816164E-02  0.1266605E+00
        -11   -1    0    0    0    0  0.00000000000E+00  0.00000000000E+00  0.45593999997E+02  0.45594000000E+02  0.51100000000E-03 0.  1.
         11   -1    0    0    0    0 -0.00000000000E+00 -0.00000000000E+00 -0.45593999997E+02  0.45594000000E+02  0.51100000000E-03 0. -1.
    9900012    2    1    2    0    0  0.21186828812E+02 -0.23818854110E+02  0.70753473736E+00  0.59301950830E+02  0.50000012406E+02 0.  0.
         12    1    1    2    0    0 -0.21186828812E+02  0.23818854110E+02 -0.70753473736E+00  0.31886049170E+02  0.00000000000E+00 0. -1.
         11    1    3    3    0    0 -0.47439200890E+01 -0.19536622396E+02 -0.75383741265E+00  0.20118465736E+02  0.51100000000E-03 0.  1.
        -11    1    3    3    0    0  0.37767627659E+00  0.44860372016E+01 -0.91191621966E+01  0.10169871610E+02  0.51100000000E-03 0. -1.
        -12    1    3    3    0    0  0.25553072625E+02 -0.87682689156E+01  0.10580534347E+02  0.29013613484E+02  0.00000000000E+00 0.  1.
</event>
<event>
 7    1  0.6164995E-012  0.5930196E+02  0.7816164E-02  0.1266605E+00
        -11   -1    0    0    0    0  0.00000000000E+00  0.00000000000E+00  0.45593999997E+02  0.45594000000E+02  0.51100000000E-03 0. -1.
         11   -1    0    0    0    0 -0.00000000000E+00 -0.00000000000E+00 -0.45593999997E+02  0.45594000000E+02  0.51100000000E-03 0.  1.
    9900012    2    1    2    0    0 -0.11636225038E+01  0.12558077330E+02 -0.29285837012E+02  0.59301959590E+02  0.50000028381E+02 0.  0.
         12    1    1    2    0    0  0.11636225038E+01 -0.12558077330E+02  0.29285837012E+02  0.31886040410E+02  0.00000000000E+00 0. -1.
         11    1    3    3    0    0  0.14039811298E+02 -0.22316818847E+01 -0.13022327681E+02  0.19278945091E+02  0.51100000000E-03 0. -1.
        -11    1    3    3    0    0  0.36160674410E+01  0.16267263284E+02 -0.29508141609E+01  0.16923566497E+02  0.51100000000E-03 0.  1.
        -12    1    3    3    0    0 -0.18819501243E+02 -0.14775040699E+01 -0.13312695170E+02  0.23099448002E+02  0.00000000000E+00 0.  1.
</event>
<event>
 7    1  0.6164995E-012  0.5930167E+02  0.7816164E-02  0.1266606E+00
        -11   -1    0    0    0    0  0.00000000000E+00  0.00000000000E+00  0.45593999997E+02  0.45594000000E+02  0.51100000000E-03 0.  1.
         11   -1    0    0    0    0 -0.00000000000E+00 -0.00000000000E+00 -0.45593999997E+02  0.45594000000E+02  0.51100000000E-03 0. -1.
    9900012    2    1    2    0    0  0.13716229803E+02  0.41288853137E+01  0.28487812606E+02  0.59301668743E+02  0.49999497944E+02 0.  0.
         12    1    1    2    0    0 -0.13716229803E+02 -0.41288853137E+01 -0.28487812606E+02  0.31886331257E+02  0.00000000000E+00 0. -1.
         11    1    3    3    0    0  0.72116795458E+01  0.48711066948E+01  0.58020477710E+01  0.10459434062E+02  0.51100000000E-03 0. -1.
        -11    1    3    3    0    0  0.35394514704E+01 -0.99902803134E+01  0.33008956410E+02  0.34668784532E+02  0.51100000000E-03 0.  1.
         12    1    3    3    0    0  0.29650987868E+01  0.92480589323E+01 -0.10323191574E+02  0.14173450148E+02  0.00000000000E+00 0. -1.
</event>
<event>
 7    1  0.6164995E-012  0.5930200E+02  0.7816164E-02  0.1266605E+00
        -11   -1    0    0    0    0  0.00000000000E+00  0.00000000000E+00  0.45593999997E+02  0.45594000000E+02  0.51100000000E-03 0.  1.
         11   -1    0    0    0    0 -0.00000000000E+00 -0.00000000000E+00 -0.45593999997E+02  0.45594000000E+02  0.51100000000E-03 0. -1.
    9900012    2    1    2    0    0  0.47045963047E+00 -0.30875379001E+02  0.79502777428E+01  0.59301995596E+02  0.50000094047E+02 0.  0.
         12    1    1    2    0    0 -0.47045963047E+00  0.30875379001E+02 -0.79502777428E+01  0.31886004404E+02  0.00000000000E+00 0. -1.
         11    1    3    3    0    0 -0.41973599656E+00  0.25998847094E+01 -0.13801976484E+02  0.14050983379E+02  0.51100000000E-03 0. -1.
        -11    1    3    3    0    0  0.14230803526E+01 -0.98293827654E+01  0.19000352264E+02  0.21439573449E+02  0.51100000000E-03 0.  1.
        -12    1    3    3    0    0 -0.53288472559E+00 -0.23645880945E+02  0.27519019619E+01  0.23811438768E+02  0.00000000000E+00 0.  1.
</event>
<event>
 7    1  0.6164995E-012  0.5930194E+02  0.7816164E-02  0.1266605E+00
        -11   -1    0    0    0    0  0.00000000000E+00  0.00000000000E+00  0.45593999997E+02  0.45594000000E+02  0.51100000000E-03 0. -1.
         11   -1    0    0    0    0 -0.00000000000E+00 -0.00000000000E+00 -0.45593999997E+02  0.45594000000E+02  0.51100000000E-03 0.  1.
    9900012    2    1    2    0    0 -0.31049717772E+02  0.63613868796E+01  0.34883591894E+01  0.59301939306E+02  0.49999991388E+02 0.  0.
         12    1    1    2    0    0  0.31049717772E+02 -0.63613868796E+01 -0.34883591894E+01  0.31886060694E+02  0.00000000000E+00 0. -1.
         11    1    3    3    0    0  0.60564815772E+01  0.21626170009E+01  0.25038410974E+00  0.64358817461E+01  0.51100000000E-03 0. -1.
        -11    1    3    3    0    0 -0.36981199465E+02  0.16363966087E+02  0.42260950379E+01  0.40660157150E+02  0.51100000000E-03 0.  1.
         12    1    3    3    0    0 -0.12499988425E+00 -0.12165196208E+02 -0.98811995821E+00  0.12205900409E+02  0.00000000000E+00 0. -1.
</event>
<event>
 7    1  0.6164995E-012  0.5930198E+02  0.7816164E-02  0.1266605E+00
        -11   -1    0    0    0    0  0.00000000000E+00  0.00000000000E+00  0.45593999997E+02  0.45594000000E+02  0.51100000000E-03 0.  1.
         11   -1    0    0    0    0 -0.00000000000E+00 -0.00000000000E+00 -0.45593999997E+02  0.45594000000E+02  0.51100000000E-03 0. -1.
    9900012    2    1    2    0    0  0.17301611526E+02 -0.20557069726E+02 -0.17169147900E+02  0.59301976154E+02  0.50000058590E+02 0.  0.
         12    1    1    2    0    0 -0.17301611526E+02  0.20557069726E+02  0.17169147900E+02  0.31886023846E+02  0.00000000000E+00 0. -1.
         11    1    3    3    0    0  0.86212460182E+01 -0.11023849806E+02 -0.18512980775E+02  0.23207361007E+02  0.51100000000E-03 0. -1.
        -11    1    3    3    0    0  0.15665483611E+02  0.40510550203E+01 -0.81420983668E+01  0.18113867329E+02  0.51100000000E-03 0.  1.
        -12    1    3    3    0    0 -0.69851181035E+01 -0.13584274940E+02  0.94859312419E+01  0.17980747818E+02  0.00000000000E+00 0.  1.
</event>
<event>
 7    1  0.6164995E-012  0.5930196E+02  0.7816164E-02  0.1266605E+00
        -11   -1    0    0    0    0  0.00000000000E+00  0.00000000000E+00  0.45593999997E+02  0.45594000000E+02  0.51100000000E-03 0. -1.
         11   -1    0    0    0    0 -0.00000000000E+00 -0.00000000000E+00 -0.45593999997E+02  0.45594000000E+02  0.51100000000E-03 0.  1.
    9900012    2    1    2    0    0  0.18371643684E+02  0.24549410249E+01 -0.25945626403E+02  0.59301959849E+02  0.50000028854E+02 0.  0.
         12    1    1    2    0    0 -0.18371643684E+02 -0.24549410249E+01  0.25945626403E+02  0.31886040151E+02  0.00000000000E+00 0. -1.
         11    1    3    3    0    0  0.50889607479E+01  0.63689651327E+01  0.60706625157E+01  0.10164358415E+02  0.51100000000E-03 0. -1.
        -11    1    3    3    0    0 -0.80092793411E+01  0.43306223478E+01  0.82148827028E+00  0.91420833907E+01  0.51100000000E-03 0.  1.
        -12    1    3    3    0    0  0.21291962277E+02 -0.82446464556E+01 -0.32837777189E+02  0.39995518043E+02  0.00000000000E+00 0.  1.
</event>
<event>
 7    1  0.6164995E-012  0.5930183E+02  0.7816164E-02  0.1266605E+00
        -11   -1    0    0    0    0  0.00000000000E+00  0.00000000000E+00  0.45593999997E+02  0.45594000000E+02  0.51100000000E-03 0.  1.
         11   -1    0    0    0    0 -0.00000000000E+00 -0.00000000000E+00 -0.45593999997E+02  0.45594000000E+02  0.51100000000E-03 0. -1.
    9900012    2    1    2    0    0 -0.26772397012E+02  0.10978901955E+02  0.13395149159E+02  0.59301834490E+02  0.49999800230E+02 0.  0.
         12    1    1    2    0    0  0.26772397012E+02 -0.10978901955E+02 -0.13395149159E+02  0.31886165510E+02  0.00000000000E+00 0. -1.
         11    1    3    3    0    0 -0.25924663353E+02 -0.36292414304E+01  0.12119363875E+02  0.28846811684E+02  0.51100000000E-03 0.  1.
        -11    1    3    3    0    0 -0.13706080882E+02  0.73338120392E+01  0.19476890126E+01  0.15666363487E+02  0.51100000000E-03 0. -1.
         12    1    3    3    0    0  0.12858347223E+02  0.72743313463E+01 -0.67190372892E+00  0.14788659319E+02  0.00000000000E+00 0. -1.
</event>
<event>
 7    1  0.6164995E-012  0.5930186E+02  0.7816164E-02  0.1266605E+00
        -11   -1    0    0    0    0  0.00000000000E+00  0.00000000000E+00  0.45593999997E+02  0.45594000000E+02  0.51100000000E-03 0. -1.
         11   -1    0    0    0    0 -0.00000000000E+00 -0.00000000000E+00 -0.45593999997E+02  0.45594000000E+02  0.51100000000E-03 0.  1.
    9900012    2    1    2    0    0  0.14263964989E+02  0.13487769178E+02 -0.25126591144E+02  0.59301855718E+02  0.49999838945E+02 0.  0.
         12    1    1    2    0    0 -0.14263964989E+02 -0.13487769178E+02  0.25126591144E+02  0.31886144282E+02  0.00000000000E+00 0. -1.
         11    1    3    3    0    0  0.84646677931E+01  0.61711615192E+01 -0.11807607429E+02  0.15784594667E+02  0.51100000000E-03 0. -1.
        -11    1    3    3    0    0  0.11476359155E+02 -0.12289154589E+02 -0.15653458484E+02  0.22973047310E+02  0.51100000000E-03 0.  1.
         12    1    3    3    0    0 -0.56770619593E+01  0.19605762248E+02  0.23344747681E+01  0.20544213741E+02  0.00000000000E+00 0. -1.
</event>
<event>
 7    1  0.6164995E-012  0.5930190E+02  0.7816164E-02  0.1266605E+00
        -11   -1    0    0    0    0  0.00000000000E+00  0.00000000000E+00  0.45593999997E+02  0.45594000000E+02  0.51100000000E-03 0. -1.
         11   -1    0    0    0    0 -0.00000000000E+00 -0.00000000000E+00 -0.45593999997E+02  0.45594000000E+02  0.51100000000E-03 0.  1.
    9900012    2    1    2    0    0  0.50028060851E+00 -0.68541311268E+01 -0.31136695920E+02  0.59301902292E+02  0.49999923885E+02 0.  0.
         12    1    1    2    0    0 -0.50028060851E+00  0.68541311268E+01  0.31136695920E+02  0.31886097708E+02  0.00000000000E+00 0. -1.
         11    1    3    3    0    0 -0.62896303626E+01  0.79556254918E+01 -0.13055522701E+02  0.16531730107E+02  0.51100000000E-03 0. -1.
        -11    1    3    3    0    0  0.10069018253E+02  0.88900867437E+01 -0.12169578975E+02  0.18125049616E+02  0.51100000000E-03 0.  1.
        -12    1    3    3    0    0 -0.32791072818E+01 -0.23699843362E+02 -0.59115942434E+01  0.24645122569E+02  0.00000000000E+00 0.  1.
</event>
<event>
 7    1  0.6164995E-012  0.5930193E+02  0.7816164E-02  0.1266605E+00
        -11   -1    0    0    0    0  0.00000000000E+00  0.00000000000E+00  0.45593999997E+02  0.45594000000E+02  0.51100000000E-03 0.  1.
         11   -1    0    0    0    0 -0.00000000000E+00 -0.00000000000E+00 -0.45593999997E+02  0.45594000000E+02  0.51100000000E-03 0. -1.
    9900012    2    1    2    0    0  0.17209517948E+02  0.14218413748E+02  0.22768196373E+02  0.59301928377E+02  0.49999971456E+02 0.  0.
         12    1    1    2    0    0 -0.17209517948E+02 -0.14218413748E+02 -0.22768196373E+02  0.31886071623E+02  0.00000000000E+00 0. -1.
         11    1    3    3    0    0  0.60916657813E+01 -0.93928821059E+01 -0.46099207303E+01  0.12107270363E+02  0.51100000000E-03 0. -1.
        -11    1    3    3    0    0 -0.65583715028E+01 -0.23167794065E+01  0.63686082194E+01  0.94307409306E+01  0.51100000000E-03 0.  1.
        -12    1    3    3    0    0  0.17676223670E+02  0.25928075260E+02  0.21009508883E+02  0.37763917083E+02  0.00000000000E+00 0.  1.
</event>
<event>
 7    1  0.6164995E-012  0.5930194E+02  0.7816164E-02  0.1266605E+00
        -11   -1    0    0    0    0  0.00000000000E+00  0.00000000000E+00  0.45593999997E+02  0.45594000000E+02  0.51100000000E-03 0. -1.
         11   -1    0    0    0    0 -0.00000000000E+00 -0.00000000000E+00 -0.45593999997E+02  0.45594000000E+02  0.51100000000E-03 0.  1.
    9900012    2    1    2    0    0  0.17848213327E+02  0.22587462129E+02  0.13710164940E+02  0.59301940553E+02  0.49999993663E+02 0.  0.
         12    1    1    2    0    0 -0.17848213327E+02 -0.22587462129E+02 -0.13710164940E+02  0.31886059447E+02  0.00000000000E+00 0. -1.
         11    1    3    3    0    0  0.76548898169E+00  0.32651551767E+01  0.14976086685E+02  0.15346999198E+02  0.51100000000E-03 0. -1.
        -11    1    3    3    0    0  0.65458552311E+00 -0.90497910814E+01  0.53155500501E+01  0.10515810640E+02  0.51100000000E-03 0.  1.
         12    1    3    3    0    0  0.16428138822E+02  0.28372098033E+02 -0.65814717955E+01  0.33439130715E+02  0.00000000000E+00 0. -1.
</event>
<event>
 7    1  0.6164995E-012  0.5930189E+02  0.7816164E-02  0.1266605E+00
        -11   -1    0    0    0    0  0.00000000000E+00  0.00000000000E+00  0.45593999997E+02  0.45594000000E+02  0.51100000000E-03 0.  1.
         11   -1    0    0    0    0 -0.00000000000E+00 -0.00000000000E+00 -0.45593999997E+02  0.45594000000E+02  0.51100000000E-03 0. -1.
    9900012    2    1    2    0    0 -0.25965983497E+02  0.16895609739E+02 -0.75518112496E+01  0.59301893613E+02  0.49999908055E+02 0.  0.
         12    1    1    2    0    0  0.25965983497E+02 -0.16895609739E+02  0.75518112496E+01  0.31886106387E+02  0.00000000000E+00 0. -1.
         11    1    3    3    0    0 -0.36677239444E+00 -0.44680660266E+01 -0.18536519202E+02  0.19070938110E+02  0.51100000000E-03 0. -1.
        -11    1    3    3    0    0 -0.14918411995E+02  0.11339101382E+02 -0.41240697808E+01  0.19187031777E+02  0.51100000000E-03 0.  1.
        -12    1    3    3    0    0 -0.10680799107E+02  0.10024574384E+02  0.15108777733E+02  0.21043923725E+02  0.00000000000E+00 0.  1.
</event>
<event>
 7    1  0.6164995E-012  0.5930192E+02  0.7816164E-02  0.1266605E+00
        -11   -1    0    0    0    0  0.00000000000E+00  0.00000000000E+00  0.45593999997E+02  0.45594000000E+02  0.51100000000E-03 0. -1.
         11   -1    0    0    0    0 -0.00000000000E+00 -0.00000000000E+00 -0.45593999997E+02  0.45594000000E+02  0.51100000000E-03 0.  1.
    9900012    2    1    2    0    0  0.45285985235E+01 -0.31558930864E+02 -0.49747706718E+00  0.59301924586E+02  0.49999964542E+02 0.  0.
         12    1    1    2    0    0 -0.45285985235E+01  0.31558930864E+02  0.49747706718E+00  0.31886075414E+02  0.00000000000E+00 0. -1.
         11    1    3    3    0    0  0.84421209453E+01  0.26366992236E+01 -0.13908229257E+00  0.88453904942E+01  0.51100000000E-03 0. -1.
        -11    1    3    3    0    0 -0.46880770367E+01 -0.79816908404E+00  0.13482288138E+02  0.14296406328E+02  0.51100000000E-03 0.  1.
        -12    1    3    3    0    0  0.77455461488E+00 -0.33397461004E+02 -0.13840682913E+02  0.36160127763E+02  0.00000000000E+00 0.  1.
</event>
<event>
 7    1  0.6164995E-012  0.5930194E+02  0.7816164E-02  0.1266605E+00
        -11   -1    0    0    0    0  0.00000000000E+00  0.00000000000E+00  0.45593999997E+02  0.45594000000E+02  0.51100000000E-03 0.  1.
         11   -1    0    0    0    0 -0.00000000000E+00 -0.00000000000E+00 -0.45593999997E+02  0.45594000000E+02  0.51100000000E-03 0. -1.
    9900012    2    1    2    0    0 -0.21366086254E+02 -0.22781000781E+02 -0.64216152311E+01  0.59301940654E+02  0.49999993848E+02 0.  0.
         12    1    1    2    0    0  0.21366086254E+02  0.22781000781E+02  0.64216152311E+01  0.31886059346E+02  0.00000000000E+00 0. -1.
         11    1    3    3    0    0 -0.13760572643E+01  0.58097690180E+01 -0.11113667390E+02  0.12615884937E+02  0.51100000000E-03 0. -1.
        -11    1    3    3    0    0 -0.12197552013E+02  0.34594818215E+01  0.51863084629E+01  0.13698397181E+02  0.51100000000E-03 0.  1.
        -12    1    3    3    0    0 -0.77924769765E+01 -0.32050251621E+02 -0.49425630407E+00  0.32987658536E+02  0.00000000000E+00 0.  1.
</event>
<event>
 7    1  0.6164995E-012  0.5930203E+02  0.7816164E-02  0.1266604E+00
        -11   -1    0    0    0    0  0.00000000000E+00  0.00000000000E+00  0.45593999997E+02  0.45594000000E+02  0.51100000000E-03 0. -1.
         11   -1    0    0    0    0 -0.00000000000E+00 -0.00000000000E+00 -0.45593999997E+02  0.45594000000E+02  0.51100000000E-03 0.  1.
    9900012    2    1    2    0    0  0.13208549303E+02  0.27701968396E+02  0.86516068280E+01  0.59302029285E+02  0.50000155489E+02 0.  0.
         12    1    1    2    0    0 -0.13208549303E+02 -0.27701968396E+02 -0.86516068280E+01  0.31885970715E+02  0.00000000000E+00 0. -1.
         11    1    3    3    0    0 -0.36020306159E+01 -0.66731033416E+01  0.11217298144E+02  0.13540041015E+02  0.51100000000E-03 0. -1.
        -11    1    3    3    0    0  0.16424107308E+02  0.72172887499E+01  0.25611687801E+01  0.18121814025E+02  0.51100000000E-03 0.  1.
        -12    1    3    3    0    0  0.38647261106E+00  0.27157782988E+02 -0.51268600960E+01  0.27640174246E+02  0.00000000000E+00 0.  1.
</event>
<event>
 7    1  0.6164995E-012  0.5930196E+02  0.7816164E-02  0.1266605E+00
        -11   -1    0    0    0    0  0.00000000000E+00  0.00000000000E+00  0.45593999997E+02  0.45594000000E+02  0.51100000000E-03 0.  1.
         11   -1    0    0    0    0 -0.00000000000E+00 -0.00000000000E+00 -0.45593999997E+02  0.45594000000E+02  0.51100000000E-03 0. -1.
    9900012    2    1    2    0    0  0.14416100719E+01 -0.28155012088E+02  0.14897532990E+02  0.59301961763E+02  0.50000032344E+02 0.  0.
         12    1    1    2    0    0 -0.14416100719E+01  0.28155012088E+02 -0.14897532990E+02  0.31886038237E+02  0.00000000000E+00 0. -1.
         11    1    3    3    0    0  0.47701235731E+01 -0.66082186541E+01  0.22225833519E+02  0.23672986895E+02  0.51100000000E-03 0. -1.
        -11    1    3    3    0    0 -0.43948800344E+01  0.57104699404E+01 -0.37316222237E+01  0.81147669183E+01  0.51100000000E-03 0.  1.
        -12    1    3    3    0    0  0.10663665331E+01 -0.27257263374E+02 -0.35966783047E+01  0.27514207949E+02  0.00000000000E+00 0.  1.
</event>
<event>
 7    1  0.6164995E-012  0.5930196E+02  0.7816164E-02  0.1266605E+00
        -11   -1    0    0    0    0  0.00000000000E+00  0.00000000000E+00  0.45593999997E+02  0.45594000000E+02  0.51100000000E-03 0.  1.
         11   -1    0    0    0    0 -0.00000000000E+00 -0.00000000000E+00 -0.45593999997E+02  0.45594000000E+02  0.51100000000E-03 0. -1.
    9900012    2    1    2    0    0 -0.25924282855E+02  0.18123390404E+02 -0.40241481555E+01  0.59301960897E+02  0.50000030765E+02 0.  0.
         12    1    1    2    0    0  0.25924282855E+02 -0.18123390404E+02  0.40241481555E+01  0.31886039103E+02  0.00000000000E+00 0. -1.
         11    1    3    3    0    0  0.21738033705E+01 -0.84825179097E+01 -0.75154971285E+01  0.11539550621E+02  0.51100000000E-03 0. -1.
        -11    1    3    3    0    0 -0.41410027534E+01  0.22500078021E+02 -0.15805940339E+01  0.22932502971E+02  0.51100000000E-03 0.  1.
         12    1    3    3    0    0 -0.23957083473E+02  0.41058302924E+01  0.50719430069E+01  0.24829907305E+02  0.00000000000E+00 0. -1.
</event>
<event>
 7    1  0.6164995E-012  0.5930195E+02  0.7816164E-02  0.1266605E+00
        -11   -1    0    0    0    0  0.00000000000E+00  0.00000000000E+00  0.45593999997E+02  0.45594000000E+02  0.51100000000E-03 0.  1.
         11   -1    0    0    0    0 -0.00000000000E+00 -0.00000000000E+00 -0.45593999997E+02  0.45594000000E+02  0.51100000000E-03 0. -1.
    9900012    2    1    2    0    0 -0.24038171738E+02  0.19633771587E+02  0.73076521843E+01  0.59301945561E+02  0.50000002797E+02 0.  0.
         12    1    1    2    0    0  0.24038171738E+02 -0.19633771587E+02 -0.73076521843E+01  0.31886054439E+02  0.00000000000E+00 0. -1.
         11    1    3    3    0    0  0.14257511607E+01  0.54664590834E+01 -0.66666042046E+01  0.87383381237E+01  0.51100000000E-03 0. -1.
        -11    1    3    3    0    0 -0.28847817102E+02  0.12071743783E+02  0.24231488490E+02  0.39561200491E+02  0.51100000000E-03 0.  1.
         12    1    3    3    0    0  0.33838942038E+01  0.20955687204E+01 -0.10257232101E+02  0.11002406947E+02  0.00000000000E+00 0. -1.
</event>
<event>
 7    1  0.6164995E-012  0.5930193E+02  0.7816164E-02  0.1266605E+00
        -11   -1    0    0    0    0  0.00000000000E+00  0.00000000000E+00  0.45593999997E+02  0.45594000000E+02  0.51100000000E-03 0.  1.
         11   -1    0    0    0    0 -0.00000000000E+00 -0.00000000000E+00 -0.45593999997E+02  0.45594000000E+02  0.51100000000E-03 0. -1.
    9900012    2    1    2    0    0 -0.30895693065E+02  0.77028393687E+01 -0.16863479331E+01  0.59301931668E+02  0.49999977459E+02 0.  0.
         12    1    1    2    0    0  0.30895693065E+02 -0.77028393687E+01  0.16863479331E+01  0.31886068332E+02  0.00000000000E+00 0. -1.
         11    1    3    3    0    0 -0.76050698127E+01 -0.15072232685E+01 -0.74435705697E+01  0.10747816147E+02  0.51100000000E-03 0.  1.
        -11    1    3    3    0    0 -0.27198798911E+02  0.28508852276E+00  0.18217099419E+02  0.32737114246E+02  0.51100000000E-03 0. -1.
         12    1    3    3    0    0  0.39081756580E+01  0.89249741144E+01 -0.12459876782E+02  0.15817001275E+02  0.00000000000E+00 0. -1.
</event>
<event>
 7    1  0.6164995E-012  0.5930208E+02  0.7816164E-02  0.1266604E+00
        -11   -1    0    0    0    0  0.00000000000E+00  0.00000000000E+00  0.45593999997E+02  0.45594000000E+02  0.51100000000E-03 0. -1.
         11   -1    0    0    0    0 -0.00000000000E+00 -0.00000000000E+00 -0.45593999997E+02  0.45594000000E+02  0.51100000000E-03 0.  1.
    9900012    2    1    2    0    0  0.18727576262E+02  0.23130975223E+02 -0.11443236507E+02  0.59302081648E+02  0.50000250986E+02 0.  0.
         12    1    1    2    0    0 -0.18727576262E+02 -0.23130975223E+02  0.11443236507E+02  0.31885918352E+02  0.00000000000E+00 0. -1.
         11    1    3    3    0    0  0.19654300933E+02  0.79986950461E+01  0.36987742357E+01  0.21539535712E+02  0.51100000000E-03 0. -1.
        -11    1    3    3    0    0  0.10135757818E+02  0.15230294109E+02  0.85287336590E+00  0.18314552641E+02  0.51100000000E-03 0.  1.
        -12    1    3    3    0    0 -0.11062482489E+02 -0.98013932465E-01 -0.15994884108E+02  0.19447993295E+02  0.00000000000E+00 0.  1.
</event>
<event>
 7    1  0.6164995E-012  0.5930195E+02  0.7816164E-02  0.1266605E+00
        -11   -1    0    0    0    0  0.00000000000E+00  0.00000000000E+00  0.45593999997E+02  0.45594000000E+02  0.51100000000E-03 0.  1.
         11   -1    0    0    0    0 -0.00000000000E+00 -0.00000000000E+00 -0.45593999997E+02  0.45594000000E+02  0.51100000000E-03 0. -1.
    9900012    2    1    2    0    0  0.26902821130E+02  0.11662606751E+02 -0.12527644000E+02  0.59301952186E+02  0.50000014879E+02 0.  0.
         12    1    1    2    0    0 -0.26902821130E+02 -0.11662606751E+02  0.12527644000E+02  0.31886047814E+02  0.00000000000E+00 0. -1.
         11    1    3    3    0    0 -0.84220229761E+01 -0.10638780568E+01 -0.11062666554E+02  0.13944350077E+02  0.51100000000E-03 0. -1.
        -11    1    3    3    0    0  0.80910576458E+01  0.15677498945E+02 -0.31133083441E+01  0.17914850714E+02  0.51100000000E-03 0.  1.
        -12    1    3    3    0    0  0.27233786461E+02 -0.29510141364E+01  0.16483308977E+01  0.27442751396E+02  0.00000000000E+00 0.  1.
</event>
<event>
 7    1  0.6164995E-012  0.5930196E+02  0.7816164E-02  0.1266605E+00
        -11   -1    0    0    0    0  0.00000000000E+00  0.00000000000E+00  0.45593999997E+02  0.45594000000E+02  0.51100000000E-03 0. -1.
         11   -1    0    0    0    0 -0.00000000000E+00 -0.00000000000E+00 -0.45593999997E+02  0.45594000000E+02  0.51100000000E-03 0.  1.
    9900012    2    1    2    0    0  0.64873630514E+01 -0.24316960494E+02  0.19578534198E+02  0.59301961545E+02  0.50000031947E+02 0.  0.
         12    1    1    2    0    0 -0.64873630514E+01  0.24316960494E+02 -0.19578534198E+02  0.31886038455E+02  0.00000000000E+00 0. -1.
         11    1    3    3    0    0  0.80498087030E+01 -0.14677855260E+02  0.12234733081E+02  0.20734694331E+02  0.51100000000E-03 0. -1.
        -11    1    3    3    0    0  0.12715221333E+02 -0.17415230849E+02  0.50699616747E+01  0.22151109018E+02  0.51100000000E-03 0.  1.
         12    1    3    3    0    0 -0.14277666985E+02  0.77761256148E+01  0.22738394419E+01  0.16416158196E+02  0.00000000000E+00 0. -1.
</event>
<event>
 7    1  0.6164995E-012  0.5930198E+02  0.7816164E-02  0.1266605E+00
        -11   -1    0    0    0    0  0.00000000000E+00  0.00000000000E+00  0.45593999997E+02  0.45594000000E+02  0.51100000000E-03 0. -1.
         11   -1    0    0    0    0 -0.00000000000E+00 -0.00000000000E+00 -0.45593999997E+02  0.45594000000E+02  0.51100000000E-03 0.  1.
    9900012    2    1    2    0    0 -0.25006982410E+02  0.79997043301E+01 -0.18093480732E+02  0.59301976673E+02  0.50000059537E+02 0.  0.
         12    1    1    2    0    0  0.25006982410E+02 -0.79997043301E+01  0.18093480732E+02  0.31886023327E+02  0.00000000000E+00 0. -1.
         11    1    3    3    0    0  0.21779507031E+01 -0.24880644852E+01 -0.42671033744E+01  0.53983428584E+01  0.51100000000E-03 0.  1.
        -11    1    3    3    0    0 -0.59918730553E+01 -0.10364044097E+01  0.15076259840E+02  0.16256392215E+02  0.51100000000E-03 0. -1.
        -12    1    3    3    0    0 -0.21193060057E+02  0.11524173225E+02 -0.28902637198E+02  0.37647241600E+02  0.00000000000E+00 0.  1.
</event>
<event>
 7    1  0.6164995E-012  0.5930195E+02  0.7816164E-02  0.1266605E+00
        -11   -1    0    0    0    0  0.00000000000E+00  0.00000000000E+00  0.45593999997E+02  0.45594000000E+02  0.51100000000E-03 0. -1.
         11   -1    0    0    0    0 -0.00000000000E+00 -0.00000000000E+00 -0.45593999997E+02  0.45594000000E+02  0.51100000000E-03 0.  1.
    9900012    2    1    2    0    0  0.11911546674E+02 -0.13707484632E+02 -0.26209544924E+02  0.59301947811E+02  0.50000006899E+02 0.  0.
         12    1    1    2    0    0 -0.11911546674E+02  0.13707484632E+02  0.26209544924E+02  0.31886052189E+02  0.00000000000E+00 0. -1.
         11    1    3    3    0    0  0.34804358316E+01 -0.22005325375E+02  0.20936820549E+01  0.22377025791E+02  0.51100000000E-03 0. -1.
        -11    1    3    3    0    0  0.96501503848E+01 -0.40239773617E+01 -0.18002534517E+02  0.20818478464E+02  0.51100000000E-03 0.  1.
        -12    1    3    3    0    0 -0.12190395426E+01  0.12321818105E+02 -0.10300692462E+02  0.16106443555E+02  0.00000000000E+00 0.  1.
</event>
<event>
 7    1  0.6164995E-012  0.5930195E+02  0.7816164E-02  0.1266605E+00
        -11   -1    0    0    0    0  0.00000000000E+00  0.00000000000E+00  0.45593999997E+02  0.45594000000E+02  0.51100000000E-03 0.  1.
         11   -1    0    0    0    0 -0.00000000000E+00 -0.00000000000E+00 -0.45593999997E+02  0.45594000000E+02  0.51100000000E-03 0. -1.
    9900012    2    1    2    0    0 -0.17876141945E+02  0.26403848505E+02  0.26597213115E-01  0.59301947029E+02  0.50000005473E+02 0.  0.
         12    1    1    2    0    0  0.17876141945E+02 -0.26403848505E+02 -0.26597213115E-01  0.31886052971E+02  0.00000000000E+00 0. -1.
         11    1    3    3    0    0 -0.15715680132E+02  0.69686233118E+01 -0.11450286902E+02  0.20655589638E+02  0.51100000000E-03 0. -1.
        -11    1    3    3    0    0 -0.11990029205E+02  0.17903961864E+02  0.16837193081E+02  0.27346000107E+02  0.51100000000E-03 0.  1.
         12    1    3    3    0    0  0.98295673932E+01  0.15312633291E+01 -0.53603089660E+01  0.11300357283E+02  0.00000000000E+00 0. -1.
</event>
<event>
 7    1  0.6164995E-012  0.5930196E+02  0.7816164E-02  0.1266605E+00
        -11   -1    0    0    0    0  0.00000000000E+00  0.00000000000E+00  0.45593999997E+02  0.45594000000E+02  0.51100000000E-03 0.  1.
         11   -1    0    0    0    0 -0.00000000000E+00 -0.00000000000E+00 -0.45593999997E+02  0.45594000000E+02  0.51100000000E-03 0. -1.
    9900012    2    1    2    0    0  0.51659460800E+01  0.29857905188E+02  0.99266285585E+01  0.59301961430E+02  0.50000031738E+02 0.  0.
         12    1    1    2    0    0 -0.51659460800E+01 -0.29857905188E+02 -0.99266285585E+01  0.31886038570E+02  0.00000000000E+00 0. -1.
         11    1    3    3    0    0  0.33328010589E+01  0.11978771009E+02  0.85709071622E+01  0.15101621357E+02  0.51100000000E-03 0. -1.
        -11    1    3    3    0    0  0.47446381406E+01  0.29920654528E+02 -0.42706630776E+01  0.30594047163E+02  0.51100000000E-03 0.  1.
         12    1    3    3    0    0 -0.29114931194E+01 -0.12041520348E+02  0.56263844740E+01  0.13606292909E+02  0.00000000000E+00 0. -1.
</event>
<event>
 7    1  0.6164995E-012  0.5930193E+02  0.7816164E-02  0.1266605E+00
        -11   -1    0    0    0    0  0.00000000000E+00  0.00000000000E+00  0.45593999997E+02  0.45594000000E+02  0.51100000000E-03 0.  1.
         11   -1    0    0    0    0 -0.00000000000E+00 -0.00000000000E+00 -0.45593999997E+02  0.45594000000E+02  0.51100000000E-03 0. -1.
    9900012    2    1    2    0    0 -0.25830267346E+02 -0.18039749074E+02 -0.49077621597E+01  0.59301931142E+02  0.49999976499E+02 0.  0.
         12    1    1    2    0    0  0.25830267346E+02  0.18039749074E+02  0.49077621597E+01  0.31886068858E+02  0.00000000000E+00 0. -1.
         11    1    3    3    0    0  0.53680948763E+01 -0.10594003880E+02  0.47946383507E+01  0.12807728838E+02  0.51100000000E-03 0. -1.
        -11    1    3    3    0    0 -0.55774249168E+01 -0.16308549902E+02  0.11908693212E+01  0.17276997384E+02  0.51100000000E-03 0.  1.
        -12    1    3    3    0    0 -0.25620937305E+02  0.88628047078E+01 -0.10893269832E+02  0.29217204920E+02  0.00000000000E+00 0.  1.
</event>
<event>
 7    1  0.6164995E-012  0.5930187E+02  0.7816164E-02  0.1266605E+00
        -11   -1    0    0    0    0  0.00000000000E+00  0.00000000000E+00  0.45593999997E+02  0.45594000000E+02  0.51100000000E-03 0. -1.
         11   -1    0    0    0    0 -0.00000000000E+00 -0.00000000000E+00 -0.45593999997E+02  0.45594000000E+02  0.51100000000E-03 0.  1.
    9900012    2    1    2    0    0  0.17310415945E+02  0.25109806049E+02  0.93044359939E+01  0.59301868388E+02  0.49999862050E+02 0.  0.
         12    1    1    2    0    0 -0.17310415945E+02 -0.25109806049E+02 -0.93044359939E+01  0.31886131612E+02  0.00000000000E+00 0. -1.
         11    1    3    3    0    0  0.28152526711E+01  0.37652839823E+01  0.19162525221E+02  0.19730823201E+02  0.51100000000E-03 0. -1.
        -11    1    3    3    0    0  0.97052313296E+01  0.12285503350E+02  0.90360386992E+01  0.18076921844E+02  0.51100000000E-03 0.  1.
        -12    1    3    3    0    0  0.47899319446E+01  0.90590187167E+01 -0.18894127927E+02  0.21494123342E+02  0.00000000000E+00 0.  1.
</event>
<event>
 7    1  0.6164995E-012  0.5930196E+02  0.7816164E-02  0.1266605E+00
        -11   -1    0    0    0    0  0.00000000000E+00  0.00000000000E+00  0.45593999997E+02  0.45594000000E+02  0.51100000000E-03 0.  1.
         11   -1    0    0    0    0 -0.00000000000E+00 -0.00000000000E+00 -0.45593999997E+02  0.45594000000E+02  0.51100000000E-03 0. -1.
    9900012    2    1    2    0    0  0.77446978630E+00  0.40941995989E+01  0.31612614617E+02  0.59301957964E+02  0.50000025417E+02 0.  0.
         12    1    1    2    0    0 -0.77446978630E+00 -0.40941995989E+01 -0.31612614617E+02  0.31886042036E+02  0.00000000000E+00 0. -1.
         11    1    3    3    0    0  0.76101444929E+01 -0.86942810756E+01  0.22402400865E+02  0.25206594126E+02  0.51100000000E-03 0. -1.
        -11    1    3    3    0    0  0.41795756379E+01  0.13564102998E+02  0.15797657169E+02  0.21237224746E+02  0.51100000000E-03 0.  1.
         12    1    3    3    0    0 -0.11015250344E+02 -0.77562232321E+00 -0.65874434175E+01  0.12858139092E+02  0.00000000000E+00 0. -1.
</event>
<event>
 7    1  0.6164995E-012  0.5930197E+02  0.7816164E-02  0.1266605E+00
        -11   -1    0    0    0    0  0.00000000000E+00  0.00000000000E+00  0.45593999997E+02  0.45594000000E+02  0.51100000000E-03 0.  1.
         11   -1    0    0    0    0 -0.00000000000E+00 -0.00000000000E+00 -0.45593999997E+02  0.45594000000E+02  0.51100000000E-03 0. -1.
    9900012    2    1    2    0    0 -0.18211324834E+02 -0.17518016541E+01  0.26115089005E+02  0.59301968027E+02  0.50000043768E+02 0.  0.
         12    1    1    2    0    0  0.18211324834E+02  0.17518016541E+01 -0.26115089005E+02  0.31886031973E+02  0.00000000000E+00 0. -1.
         11    1    3    3    0    0 -0.20093320277E+02 -0.65338083247E+01  0.34971573846E+02  0.40858819715E+02  0.51100000000E-03 0. -1.
        -11    1    3    3    0    0  0.20981286554E+01  0.23382307164E+01  0.41513011457E+01  0.52060319055E+01  0.51100000000E-03 0.  1.
         12    1    3    3    0    0 -0.21613321214E+00  0.24437759542E+01 -0.13007785986E+02  0.13237116406E+02  0.00000000000E+00 0. -1.
</event>
<event>
 7    1  0.6164995E-012  0.5930233E+02  0.7816164E-02  0.1266603E+00
        -11   -1    0    0    0    0  0.00000000000E+00  0.00000000000E+00  0.45593999997E+02  0.45594000000E+02  0.51100000000E-03 0.  1.
         11   -1    0    0    0    0 -0.00000000000E+00 -0.00000000000E+00 -0.45593999997E+02  0.45594000000E+02  0.51100000000E-03 0. -1.
    9900012    2    1    2    0    0 -0.11136954114E+02 -0.54797463821E+01  0.29370674230E+02  0.59302331243E+02  0.50000706183E+02 0.  0.
         12    1    1    2    0    0  0.11136954114E+02  0.54797463821E+01 -0.29370674230E+02  0.31885668757E+02  0.00000000000E+00 0. -1.
         11    1    3    3    0    0  0.46590325647E+01 -0.69414210151E+00  0.92612079709E+01  0.10390302740E+02  0.51100000000E-03 0. -1.
        -11    1    3    3    0    0 -0.19096746800E+02  0.10603622437E+02  0.24250110658E+02  0.32637255005E+02  0.51100000000E-03 0.  1.
         12    1    3    3    0    0  0.33007601207E+01 -0.15389226718E+02 -0.41406443985E+01  0.16274773497E+02  0.00000000000E+00 0. -1.
</event>
<event>
 7    1  0.6164995E-012  0.5930194E+02  0.7816164E-02  0.1266605E+00
        -11   -1    0    0    0    0  0.00000000000E+00  0.00000000000E+00  0.45593999997E+02  0.45594000000E+02  0.51100000000E-03 0. -1.
         11   -1    0    0    0    0 -0.00000000000E+00 -0.00000000000E+00 -0.45593999997E+02  0.45594000000E+02  0.51100000000E-03 0.  1.
    9900012    2    1    2    0    0 -0.31564294254E+02  0.19626921672E+01 -0.40698586297E+01  0.59301943776E+02  0.49999999540E+02 0.  0.
         12    1    1    2    0    0  0.31564294254E+02 -0.19626921672E+01  0.40698586297E+01  0.31886056224E+02  0.00000000000E+00 0. -1.
         11    1    3    3    0    0 -0.15046103495E+02  0.66509155215E+01  0.20297476728E+02  0.26126757729E+02  0.51100000000E-03 0. -1.
        -11    1    3    3    0    0 -0.85097008732E+01  0.11821714984E+01 -0.21746442379E+01  0.88623708017E+01  0.51100000000E-03 0.  1.
         12    1    3    3    0    0 -0.80084898856E+01 -0.58703948526E+01 -0.22192691120E+02  0.24312815245E+02  0.00000000000E+00 0. -1.
</event>
<event>
 7    1  0.6164995E-012  0.5930194E+02  0.7816164E-02  0.1266605E+00
        -11   -1    0    0    0    0  0.00000000000E+00  0.00000000000E+00  0.45593999997E+02  0.45594000000E+02  0.51100000000E-03 0. -1.
         11   -1    0    0    0    0 -0.00000000000E+00 -0.00000000000E+00 -0.45593999997E+02  0.45594000000E+02  0.51100000000E-03 0.  1.
    9900012    2    1    2    0    0  0.20767573657E+02  0.24190739476E+02  0.48654408703E+00  0.59301941650E+02  0.49999995663E+02 0.  0.
         12    1    1    2    0    0 -0.20767573657E+02 -0.24190739476E+02 -0.48654408703E+00  0.31886058350E+02  0.00000000000E+00 0. -1.
         11    1    3    3    0    0  0.70014702360E+01  0.19710460872E+02  0.20357389945E+02  0.29188117084E+02  0.51100000000E-03 0. -1.
        -11    1    3    3    0    0  0.47119217449E+01  0.96480715264E+01 -0.47345464915E+01  0.11734710114E+02  0.51100000000E-03 0.  1.
        -12    1    3    3    0    0  0.90541816759E+01 -0.51677929232E+01 -0.15136299367E+02  0.18379114452E+02  0.00000000000E+00 0.  1.
</event>
<event>
 7    1  0.6164995E-012  0.5930194E+02  0.7816164E-02  0.1266605E+00
        -11   -1    0    0    0    0  0.00000000000E+00  0.00000000000E+00  0.45593999997E+02  0.45594000000E+02  0.51100000000E-03 0.  1.
         11   -1    0    0    0    0 -0.00000000000E+00 -0.00000000000E+00 -0.45593999997E+02  0.45594000000E+02  0.51100000000E-03 0. -1.
    9900012    2    1    2    0    0  0.24139745105E+02  0.17566625983E+02 -0.11198528405E+02  0.59301942222E+02  0.49999996707E+02 0.  0.
         12    1    1    2    0    0 -0.24139745105E+02 -0.17566625983E+02  0.11198528405E+02  0.31886057778E+02  0.00000000000E+00 0. -1.
         11    1    3    3    0    0 -0.61920712657E+01  0.40142486249E+01 -0.10920621916E+02  0.13180133606E+02  0.51100000000E-03 0. -1.
        -11    1    3    3    0    0 -0.50094442320E+01 -0.34711389681E+01  0.29319278623E+01  0.67631012487E+01  0.51100000000E-03 0.  1.
        -12    1    3    3    0    0  0.35341260603E+02  0.17023516326E+02 -0.32098343516E+01  0.39358707368E+02  0.00000000000E+00 0.  1.
</event>
<event>
 7    1  0.6164995E-012  0.5930183E+02  0.7816164E-02  0.1266605E+00
        -11   -1    0    0    0    0  0.00000000000E+00  0.00000000000E+00  0.45593999997E+02  0.45594000000E+02  0.51100000000E-03 0. -1.
         11   -1    0    0    0    0 -0.00000000000E+00 -0.00000000000E+00 -0.45593999997E+02  0.45594000000E+02  0.51100000000E-03 0.  1.
    9900012    2    1    2    0    0 -0.82805783964E+01 -0.27456323750E+02 -0.13939515991E+02  0.59301830608E+02  0.49999793149E+02 0.  0.
         12    1    1    2    0    0  0.82805783964E+01  0.27456323750E+02  0.13939515991E+02  0.31886169392E+02  0.00000000000E+00 0. -1.
         11    1    3    3    0    0 -0.13178006432E+02 -0.11662587296E+02 -0.39190901875E+01  0.18028728855E+02  0.51100000000E-03 0. -1.
        -11    1    3    3    0    0  0.69102703397E+01 -0.27215780037E+02 -0.95732542059E+01  0.29666440898E+02  0.51100000000E-03 0.  1.
        -12    1    3    3    0    0 -0.20128423037E+01  0.11422043583E+02 -0.44717159749E+00  0.11606660855E+02  0.00000000000E+00 0.  1.
</event>
<event>
 7    1  0.6164995E-012  0.5930195E+02  0.7816164E-02  0.1266605E+00
        -11   -1    0    0    0    0  0.00000000000E+00  0.00000000000E+00  0.45593999997E+02  0.45594000000E+02  0.51100000000E-03 0. -1.
         11   -1    0    0    0    0 -0.00000000000E+00 -0.00000000000E+00 -0.45593999997E+02  0.45594000000E+02  0.51100000000E-03 0.  1.
    9900012    2    1    2    0    0  0.10511402071E+02  0.22425581910E+02 -0.20082927389E+02  0.59301948661E+02  0.50000008450E+02 0.  0.
         12    1    1    2    0    0 -0.10511402071E+02 -0.22425581910E+02  0.20082927389E+02  0.31886051339E+02  0.00000000000E+00 0. -1.
         11    1    3    3    0    0 -0.66877756794E+01 -0.15936676765E+01 -0.10643453068E+02  0.12670801619E+02  0.51100000000E-03 0. -1.
        -11    1    3    3    0    0 -0.46486888861E+01 -0.34486485065E+01 -0.99717083379E+01  0.11529893855E+02  0.51100000000E-03 0.  1.
         12    1    3    3    0    0  0.21847866636E+02  0.27467898093E+02  0.53223401692E+00  0.35101253186E+02  0.00000000000E+00 0. -1.
</event>
<event>
 7    1  0.6164995E-012  0.5930198E+02  0.7816164E-02  0.1266605E+00
        -11   -1    0    0    0    0  0.00000000000E+00  0.00000000000E+00  0.45593999997E+02  0.45594000000E+02  0.51100000000E-03 0. -1.
         11   -1    0    0    0    0 -0.00000000000E+00 -0.00000000000E+00 -0.45593999997E+02  0.45594000000E+02  0.51100000000E-03 0.  1.
    9900012    2    1    2    0    0 -0.81375881666E+01 -0.26488463683E+02 -0.15775267416E+02  0.59301982508E+02  0.50000070178E+02 0.  0.
         12    1    1    2    0    0  0.81375881666E+01  0.26488463683E+02  0.15775267416E+02  0.31886017492E+02  0.00000000000E+00 0. -1.
         11    1    3    3    0    0 -0.12022531007E+02 -0.23608921475E+02 -0.29779374136E+01  0.26660655216E+02  0.51100000000E-03 0.  1.
        -11    1    3    3    0    0  0.12770383446E+02 -0.10521524916E+01  0.41078710696E+01  0.13456014388E+02  0.51100000000E-03 0. -1.
        -12    1    3    3    0    0 -0.88854406059E+01 -0.18273897161E+01 -0.16905201072E+02  0.19185312904E+02  0.00000000000E+00 0.  1.
</event>
<event>
 7    1  0.6164995E-012  0.5930195E+02  0.7816164E-02  0.1266605E+00
        -11   -1    0    0    0    0  0.00000000000E+00  0.00000000000E+00  0.45593999997E+02  0.45594000000E+02  0.51100000000E-03 0. -1.
         11   -1    0    0    0    0 -0.00000000000E+00 -0.00000000000E+00 -0.45593999997E+02  0.45594000000E+02  0.51100000000E-03 0.  1.
    9900012    2    1    2    0    0 -0.41029892399E+01 -0.11183425914E+02 -0.29577297172E+02  0.59301952206E+02  0.50000014916E+02 0.  0.
         12    1    1    2    0    0  0.41029892399E+01  0.11183425914E+02  0.29577297172E+02  0.31886047794E+02  0.00000000000E+00 0. -1.
         11    1    3    3    0    0 -0.18620976706E+01  0.12793598630E+02 -0.18294703482E+02  0.22401780050E+02  0.51100000000E-03 0. -1.
        -11    1    3    3    0    0 -0.10678177286E+02 -0.15612510349E+01 -0.60942056474E+01  0.12393559524E+02  0.51100000000E-03 0.  1.
         12    1    3    3    0    0  0.84372857165E+01 -0.22415773509E+02 -0.51883880433E+01  0.24506612633E+02  0.00000000000E+00 0. -1.
</event>
<event>
 7    1  0.6164995E-012  0.5930196E+02  0.7816164E-02  0.1266605E+00
        -11   -1    0    0    0    0  0.00000000000E+00  0.00000000000E+00  0.45593999997E+02  0.45594000000E+02  0.51100000000E-03 0.  1.
         11   -1    0    0    0    0 -0.00000000000E+00 -0.00000000000E+00 -0.45593999997E+02  0.45594000000E+02  0.51100000000E-03 0. -1.
    9900012    2    1    2    0    0  0.40250079223E+01  0.31527397280E+02 -0.25577184974E+01  0.59301962429E+02  0.50000033560E+02 0.  0.
         12    1    1    2    0    0 -0.40250079223E+01 -0.31527397280E+02  0.25577184974E+01  0.31886037571E+02  0.00000000000E+00 0. -1.
         11    1    3    3    0    0  0.31905329509E+01  0.15904781412E+02 -0.14129137544E+02  0.21512184926E+02  0.51100000000E-03 0. -1.
        -11    1    3    3    0    0  0.11021298899E+02  0.10501778589E+02 -0.63940302596E+01  0.16511814139E+02  0.51100000000E-03 0.  1.
        -12    1    3    3    0    0 -0.10186823927E+02  0.51208372799E+01  0.17965449306E+02  0.21277963365E+02  0.00000000000E+00 0.  1.
</event>
<event>
 7    1  0.6164995E-012  0.5930196E+02  0.7816164E-02  0.1266605E+00
        -11   -1    0    0    0    0  0.00000000000E+00  0.00000000000E+00  0.45593999997E+02  0.45594000000E+02  0.51100000000E-03 0.  1.
         11   -1    0    0    0    0 -0.00000000000E+00 -0.00000000000E+00 -0.45593999997E+02  0.45594000000E+02  0.51100000000E-03 0. -1.
    9900012    2    1    2    0    0  0.10971023509E+02 -0.52406849831E+01  0.29476966820E+02  0.59301957461E+02  0.50000024499E+02 0.  0.
         12    1    1    2    0    0 -0.10971023509E+02  0.52406849831E+01 -0.29476966820E+02  0.31886042539E+02  0.00000000000E+00 0. -1.
         11    1    3    3    0    0 -0.38950766014E+01 -0.38278096095E+01 -0.47003618885E+01  0.72053556665E+01  0.51100000000E-03 0. -1.
        -11    1    3    3    0    0  0.11275232696E+02  0.14059227794E+02  0.47197800305E+01  0.18629790184E+02  0.51100000000E-03 0.  1.
        -12    1    3    3    0    0  0.35908674142E+01 -0.15472103168E+02  0.29457548678E+02  0.33466811610E+02  0.00000000000E+00 0.  1.
</event>
<event>
 7    1  0.6164995E-012  0.5930197E+02  0.7816164E-02  0.1266605E+00
        -11   -1    0    0    0    0  0.00000000000E+00  0.00000000000E+00  0.45593999997E+02  0.45594000000E+02  0.51100000000E-03 0. -1.
         11   -1    0    0    0    0 -0.00000000000E+00 -0.00000000000E+00 -0.45593999997E+02  0.45594000000E+02  0.51100000000E-03 0.  1.
    9900012    2    1    2    0    0  0.24739416523E+02 -0.17816504263E+02  0.93409131413E+01  0.59301965246E+02  0.50000038697E+02 0.  0.
         12    1    1    2    0    0 -0.24739416523E+02  0.17816504263E+02 -0.93409131413E+01  0.31886034754E+02  0.00000000000E+00 0. -1.
         11    1    3    3    0    0  0.69294342833E+00  0.48326253757E+00  0.19170440278E+01  0.20949394599E+01  0.51100000000E-03 0. -1.
        -11    1    3    3    0    0  0.20174678693E+02  0.10316425126E+01  0.24056174151E+02  0.31413077877E+02  0.51100000000E-03 0.  1.
         12    1    3    3    0    0  0.38717944012E+01 -0.19331409313E+02 -0.16632305037E+02  0.25793947909E+02  0.00000000000E+00 0. -1.
</event>
<event>
 7    1  0.6164995E-012  0.5930202E+02  0.7816164E-02  0.1266604E+00
        -11   -1    0    0    0    0  0.00000000000E+00  0.00000000000E+00  0.45593999997E+02  0.45594000000E+02  0.51100000000E-03 0. -1.
         11   -1    0    0    0    0 -0.00000000000E+00 -0.00000000000E+00 -0.45593999997E+02  0.45594000000E+02  0.51100000000E-03 0.  1.
    9900012    2    1    2    0    0 -0.28219609768E+01  0.14113731532E+02 -0.28452674605E+02  0.59302022303E+02  0.50000142755E+02 0.  0.
         12    1    1    2    0    0  0.28219609768E+01 -0.14113731532E+02  0.28452674605E+02  0.31885977697E+02  0.00000000000E+00 0. -1.
         11    1    3    3    0    0 -0.16535597339E+02  0.53843973240E+01 -0.93943423704E+01  0.19765408742E+02  0.51100000000E-03 0. -1.
        -11    1    3    3    0    0  0.94636562164E+01  0.10562769349E+02 -0.26912159081E+02  0.30420341747E+02  0.51100000000E-03 0.  1.
         12    1    3    3    0    0  0.42499801455E+01 -0.18334351414E+01  0.78538268464E+01  0.91162718141E+01  0.00000000000E+00 0. -1.
</event>
<event>
 7    1  0.6164995E-012  0.5930195E+02  0.7816164E-02  0.1266605E+00
        -11   -1    0    0    0    0  0.00000000000E+00  0.00000000000E+00  0.45593999997E+02  0.45594000000E+02  0.51100000000E-03 0. -1.
         11   -1    0    0    0    0 -0.00000000000E+00 -0.00000000000E+00 -0.45593999997E+02  0.45594000000E+02  0.51100000000E-03 0.  1.
    9900012    2    1    2    0    0 -0.78624586875E+01  0.29167997192E+02 -0.10204401310E+02  0.59301950968E+02  0.50000012657E+02 0.  0.
         12    1    1    2    0    0  0.78624586875E+01 -0.29167997192E+02  0.10204401310E+02  0.31886049032E+02  0.00000000000E+00 0. -1.
         11    1    3    3    0    0 -0.19091126628E+02  0.15533036239E+02  0.78126056985E+01  0.25822144349E+02  0.51100000000E-03 0.  1.
        -11    1    3    3    0    0  0.63663319505E+01  0.77665824937E+01  0.35142895341E+01  0.10639559076E+02  0.51100000000E-03 0. -1.
        -12    1    3    3    0    0  0.48623359900E+01  0.58683784588E+01 -0.21531296542E+02  0.22840247543E+02  0.00000000000E+00 0.  1.
</event>
<event>
 7    1  0.6164995E-012  0.5930194E+02  0.7816164E-02  0.1266605E+00
        -11   -1    0    0    0    0  0.00000000000E+00  0.00000000000E+00  0.45593999997E+02  0.45594000000E+02  0.51100000000E-03 0. -1.
         11   -1    0    0    0    0 -0.00000000000E+00 -0.00000000000E+00 -0.45593999997E+02  0.45594000000E+02  0.51100000000E-03 0.  1.
    9900012    2    1    2    0    0  0.46317090803E+01 -0.24684647478E+02 -0.19645267844E+02  0.59301935665E+02  0.49999984748E+02 0.  0.
         12    1    1    2    0    0 -0.46317090803E+01  0.24684647478E+02  0.19645267844E+02  0.31886064335E+02  0.00000000000E+00 0. -1.
         11    1    3    3    0    0  0.20674183016E+02 -0.10470110596E+02  0.64296066616E+01  0.24049634121E+02  0.51100000000E-03 0.  1.
        -11    1    3    3    0    0 -0.30297777631E+01 -0.30036225435E+01 -0.12953069338E+02  0.13637569696E+02  0.51100000000E-03 0. -1.
        -12    1    3    3    0    0 -0.13012696173E+02 -0.11210914338E+02 -0.13121805168E+02  0.21614731847E+02  0.00000000000E+00 0.  1.
</event>
<event>
 7    1  0.6164995E-012  0.5930196E+02  0.7816164E-02  0.1266605E+00
        -11   -1    0    0    0    0  0.00000000000E+00  0.00000000000E+00  0.45593999997E+02  0.45594000000E+02  0.51100000000E-03 0.  1.
         11   -1    0    0    0    0 -0.00000000000E+00 -0.00000000000E+00 -0.45593999997E+02  0.45594000000E+02  0.51100000000E-03 0. -1.
    9900012    2    1    2    0    0 -0.11212630380E+01 -0.15572106596E+02  0.27802365679E+02  0.59301964311E+02  0.50000036992E+02 0.  0.
         12    1    1    2    0    0  0.11212630380E+01  0.15572106596E+02 -0.27802365679E+02  0.31886035689E+02  0.00000000000E+00 0. -1.
         11    1    3    3    0    0  0.16632618415E+01 -0.54132758325E+01  0.75526119532E+01  0.94399122225E+01  0.51100000000E-03 0. -1.
        -11    1    3    3    0    0  0.14417764955E+02 -0.17146773212E+02  0.21762813666E+02  0.31233056796E+02  0.51100000000E-03 0.  1.
         12    1    3    3    0    0 -0.17202289834E+02  0.69879424493E+01 -0.15130599404E+01  0.18628995292E+02  0.00000000000E+00 0. -1.
</event>
<event>
 7    1  0.6164995E-012  0.5930187E+02  0.7816164E-02  0.1266605E+00
        -11   -1    0    0    0    0  0.00000000000E+00  0.00000000000E+00  0.45593999997E+02  0.45594000000E+02  0.51100000000E-03 0.  1.
         11   -1    0    0    0    0 -0.00000000000E+00 -0.00000000000E+00 -0.45593999997E+02  0.45594000000E+02  0.51100000000E-03 0. -1.
    9900012    2    1    2    0    0  0.22292974558E+02  0.22307278051E+02 -0.47046383128E+01  0.59301874642E+02  0.49999873457E+02 0.  0.
         12    1    1    2    0    0 -0.22292974558E+02 -0.22307278051E+02  0.47046383128E+01  0.31886125358E+02  0.00000000000E+00 0. -1.
         11    1    3    3    0    0 -0.18824333742E+01  0.70281054728E+01 -0.11120121429E+02  0.13288902242E+02  0.51100000000E-03 0. -1.
        -11    1    3    3    0    0  0.89594574522E+01 -0.10883683671E+02  0.70046849158E+01  0.15741412234E+02  0.51100000000E-03 0.  1.
        -12    1    3    3    0    0  0.15215950480E+02  0.26162856249E+02 -0.58920179960E+00  0.30271560166E+02  0.00000000000E+00 0.  1.
</event>
<event>
 7    1  0.6164995E-012  0.5930195E+02  0.7816164E-02  0.1266605E+00
        -11   -1    0    0    0    0  0.00000000000E+00  0.00000000000E+00  0.45593999997E+02  0.45594000000E+02  0.51100000000E-03 0.  1.
         11   -1    0    0    0    0 -0.00000000000E+00 -0.00000000000E+00 -0.45593999997E+02  0.45594000000E+02  0.51100000000E-03 0. -1.
    9900012    2    1    2    0    0 -0.22118655078E+02  0.17578139145E+02 -0.14781552636E+02  0.59301950125E+02  0.50000011121E+02 0.  0.
         12    1    1    2    0    0  0.22118655078E+02 -0.17578139145E+02  0.14781552636E+02  0.31886049875E+02  0.00000000000E+00 0. -1.
         11    1    3    3    0    0  0.11448631749E+01  0.11673357314E+02 -0.62980641876E+01  0.13313286425E+02  0.51100000000E-03 0. -1.
        -11    1    3    3    0    0 -0.23888757505E+02  0.95756229133E+01 -0.20819351616E+02  0.33103031451E+02  0.51100000000E-03 0.  1.
         12    1    3    3    0    0  0.62523925161E+00 -0.36708410817E+01  0.12335863168E+02  0.12885632249E+02  0.00000000000E+00 0. -1.
</event>
<event>
 7    1  0.6164995E-012  0.5930195E+02  0.7816164E-02  0.1266605E+00
        -11   -1    0    0    0    0  0.00000000000E+00  0.00000000000E+00  0.45593999997E+02  0.45594000000E+02  0.51100000000E-03 0. -1.
         11   -1    0    0    0    0 -0.00000000000E+00 -0.00000000000E+00 -0.45593999997E+02  0.45594000000E+02  0.51100000000E-03 0.  1.
    9900012    2    1    2    0    0 -0.23954469747E+02 -0.13886279693E+02 -0.15813759693E+02  0.59301946932E+02  0.50000005297E+02 0.  0.
         12    1    1    2    0    0  0.23954469747E+02  0.13886279693E+02  0.15813759693E+02  0.31886053068E+02  0.00000000000E+00 0. -1.
         11    1    3    3    0    0  0.45237713713E+01  0.22524973062E+01  0.67428790873E+01  0.84264268929E+01  0.51100000000E-03 0. -1.
        -11    1    3    3    0    0 -0.13129342231E+02  0.87460155893E+01 -0.41003300409E+01  0.16299850392E+02  0.51100000000E-03 0.  1.
         12    1    3    3    0    0 -0.15348898888E+02 -0.24884792589E+02 -0.18456308740E+02  0.34575669647E+02  0.00000000000E+00 0. -1.
</event>
<event>
 7    1  0.6164995E-012  0.5930195E+02  0.7816164E-02  0.1266605E+00
        -11   -1    0    0    0    0  0.00000000000E+00  0.00000000000E+00  0.45593999997E+02  0.45594000000E+02  0.51100000000E-03 0.  1.
         11   -1    0    0    0    0 -0.00000000000E+00 -0.00000000000E+00 -0.45593999997E+02  0.45594000000E+02  0.51100000000E-03 0. -1.
    9900012    2    1    2    0    0  0.26571494222E+02 -0.17413467148E+02  0.27288900705E+01  0.59301953141E+02  0.50000016620E+02 0.  0.
         12    1    1    2    0    0 -0.26571494222E+02  0.17413467148E+02 -0.27288900705E+01  0.31886046859E+02  0.00000000000E+00 0. -1.
         11    1    3    3    0    0 -0.54443130687E+01 -0.44764728239E+01 -0.46516166047E+01  0.84449328612E+01  0.51100000000E-03 0. -1.
        -11    1    3    3    0    0  0.17064109116E+02 -0.25328290572E+02  0.74587651678E+01  0.31437864134E+02  0.51100000000E-03 0.  1.
         12    1    3    3    0    0  0.14951698174E+02  0.12391296248E+02 -0.78258492597E-01  0.19419156145E+02  0.00000000000E+00 0. -1.
</event>
<event>
 7    1  0.6164995E-012  0.5930193E+02  0.7816164E-02  0.1266605E+00
        -11   -1    0    0    0    0  0.00000000000E+00  0.00000000000E+00  0.45593999997E+02  0.45594000000E+02  0.51100000000E-03 0.  1.
         11   -1    0    0    0    0 -0.00000000000E+00 -0.00000000000E+00 -0.45593999997E+02  0.45594000000E+02  0.51100000000E-03 0. -1.
    9900012    2    1    2    0    0  0.11586915848E+02  0.29660308028E+02  0.16525710823E+01  0.59301929650E+02  0.49999973779E+02 0.  0.
         12    1    1    2    0    0 -0.11586915848E+02 -0.29660308028E+02 -0.16525710823E+01  0.31886070350E+02  0.00000000000E+00 0. -1.
         11    1    3    3    0    0  0.18239915355E+01  0.88022323563E+00 -0.45953815198E+01  0.50218790945E+01  0.51100000000E-03 0. -1.
        -11    1    3    3    0    0  0.17978041733E+02  0.24890077786E+02  0.20825931014E+02  0.37100476541E+02  0.51100000000E-03 0.  1.
         12    1    3    3    0    0 -0.82151174211E+01  0.38900070066E+01 -0.14577978412E+02  0.17179574015E+02  0.00000000000E+00 0. -1.
</event>
<event>
 7    1  0.6164995E-012  0.5930195E+02  0.7816164E-02  0.1266605E+00
        -11   -1    0    0    0    0  0.00000000000E+00  0.00000000000E+00  0.45593999997E+02  0.45594000000E+02  0.51100000000E-03 0.  1.
         11   -1    0    0    0    0 -0.00000000000E+00 -0.00000000000E+00 -0.45593999997E+02  0.45594000000E+02  0.51100000000E-03 0. -1.
    9900012    2    1    2    0    0  0.23736762024E+02  0.14276539691E+02 -0.15794519874E+02  0.59301947956E+02  0.50000007164E+02 0.  0.
         12    1    1    2    0    0 -0.23736762024E+02 -0.14276539691E+02  0.15794519874E+02  0.31886052044E+02  0.00000000000E+00 0. -1.
         11    1    3    3    0    0  0.17532180261E+01  0.22954223475E+01 -0.11352666422E+02  0.11714340457E+02  0.51100000000E-03 0. -1.
        -11    1    3    3    0    0  0.24769257501E+02 -0.88701126761E+01 -0.33604117679E+01  0.26523336584E+02  0.51100000000E-03 0.  1.
         12    1    3    3    0    0 -0.27857135031E+01  0.20851230020E+02 -0.10814416844E+01  0.21064270915E+02  0.00000000000E+00 0. -1.
</event>
<event>
 7    1  0.6164995E-012  0.5930196E+02  0.7816164E-02  0.1266605E+00
        -11   -1    0    0    0    0  0.00000000000E+00  0.00000000000E+00  0.45593999997E+02  0.45594000000E+02  0.51100000000E-03 0. -1.
         11   -1    0    0    0    0 -0.00000000000E+00 -0.00000000000E+00 -0.45593999997E+02  0.45594000000E+02  0.51100000000E-03 0.  1.
    9900012    2    1    2    0    0 -0.30611591151E+02  0.21251683463E+01 -0.86679719937E+01  0.59301959296E+02  0.50000027846E+02 0.  0.
         12    1    1    2    0    0  0.30611591151E+02 -0.21251683463E+01  0.86679719937E+01  0.31886040704E+02  0.00000000000E+00 0. -1.
         11    1    3    3    0    0 -0.13365455348E+02  0.13012768059E+02  0.27869475480E+01  0.18860928029E+02  0.51100000000E-03 0. -1.
        -11    1    3    3    0    0  0.10393297326E+01  0.95787059973E+01  0.20541181384E+01  0.98514575807E+01  0.51100000000E-03 0.  1.
         12    1    3    3    0    0 -0.18285465535E+02 -0.20466305710E+02 -0.13509037680E+02  0.30589573686E+02  0.00000000000E+00 0. -1.
</event>
<event>
 7    1  0.6164995E-012  0.5930197E+02  0.7816164E-02  0.1266605E+00
        -11   -1    0    0    0    0  0.00000000000E+00  0.00000000000E+00  0.45593999997E+02  0.45594000000E+02  0.51100000000E-03 0.  1.
         11   -1    0    0    0    0 -0.00000000000E+00 -0.00000000000E+00 -0.45593999997E+02  0.45594000000E+02  0.51100000000E-03 0. -1.
    9900012    2    1    2    0    0 -0.14465033004E+02  0.26393841959E+02  0.10528386388E+02  0.59301968683E+02  0.50000044966E+02 0.  0.
         12    1    1    2    0    0  0.14465033004E+02 -0.26393841959E+02 -0.10528386388E+02  0.31886031317E+02  0.00000000000E+00 0. -1.
         11    1    3    3    0    0  0.89810003536E+00 -0.12695631256E+01 -0.95858431909E+01  0.97111669816E+01  0.51100000000E-03 0. -1.
        -11    1    3    3    0    0 -0.33297968776E+01 -0.21289929372E+01  0.16835462214E+02  0.17293147383E+02  0.51100000000E-03 0.  1.
         12    1    3    3    0    0 -0.12033336162E+02  0.29792398022E+02  0.32787673647E+01  0.32297654319E+02  0.00000000000E+00 0. -1.
</event>
<event>
 7    1  0.6164995E-012  0.5930196E+02  0.7816164E-02  0.1266605E+00
        -11   -1    0    0    0    0  0.00000000000E+00  0.00000000000E+00  0.45593999997E+02  0.45594000000E+02  0.51100000000E-03 0.  1.
         11   -1    0    0    0    0 -0.00000000000E+00 -0.00000000000E+00 -0.45593999997E+02  0.45594000000E+02  0.51100000000E-03 0. -1.
    9900012    2    1    2    0    0  0.10531565365E+02 -0.62270685936E+01  0.29445365687E+02  0.59301955831E+02  0.50000021526E+02 0.  0.
         12    1    1    2    0    0 -0.10531565365E+02  0.62270685936E+01 -0.29445365687E+02  0.31886044169E+02  0.00000000000E+00 0. -1.
         11    1    3    3    0    0 -0.37783271725E+01  0.74190723506E+01 -0.46599494715E+01  0.95411487833E+01  0.51100000000E-03 0. -1.
        -11    1    3    3    0    0  0.16555816587E+02 -0.17926123263E+02  0.12111332854E+02  0.27241977569E+02  0.51100000000E-03 0.  1.
         12    1    3    3    0    0 -0.22459240497E+01  0.42799823187E+01  0.21993982305E+02  0.22518829479E+02  0.00000000000E+00 0. -1.
</event>
<event>
 7    1  0.6164995E-012  0.5930194E+02  0.7816164E-02  0.1266605E+00
        -11   -1    0    0    0    0  0.00000000000E+00  0.00000000000E+00  0.45593999997E+02  0.45594000000E+02  0.51100000000E-03 0. -1.
         11   -1    0    0    0    0 -0.00000000000E+00 -0.00000000000E+00 -0.45593999997E+02  0.45594000000E+02  0.51100000000E-03 0.  1.
    9900012    2    1    2    0    0  0.25907619545E+02  0.29834051450E+01  0.18347079557E+02  0.59301940585E+02  0.49999993721E+02 0.  0.
         12    1    1    2    0    0 -0.25907619545E+02 -0.29834051450E+01 -0.18347079557E+02  0.31886059415E+02  0.00000000000E+00 0. -1.
         11    1    3    3    0    0  0.15379675175E+01  0.20799865178E+02  0.13177646280E+02  0.24670834952E+02  0.51100000000E-03 0. -1.
        -11    1    3    3    0    0 -0.30670332690E+00 -0.25982606101E+01 -0.35010987138E+01  0.43706655778E+01  0.51100000000E-03 0.  1.
         12    1    3    3    0    0  0.24676355355E+02 -0.15218199423E+02  0.86705319908E+01  0.30260440054E+02  0.00000000000E+00 0. -1.
</event>
<event>
 7    1  0.6164995E-012  0.5930194E+02  0.7816164E-02  0.1266605E+00
        -11   -1    0    0    0    0  0.00000000000E+00  0.00000000000E+00  0.45593999997E+02  0.45594000000E+02  0.51100000000E-03 0. -1.
         11   -1    0    0    0    0 -0.00000000000E+00 -0.00000000000E+00 -0.45593999997E+02  0.45594000000E+02  0.51100000000E-03 0.  1.
    9900012    2    1    2    0    0  0.10760027270E+01  0.11898093549E+02 -0.29563468019E+02  0.59301936378E+02  0.49999986049E+02 0.  0.
         12    1    1    2    0    0 -0.10760027270E+01 -0.11898093549E+02  0.29563468019E+02  0.31886063622E+02  0.00000000000E+00 0. -1.
         11    1    3    3    0    0 -0.78066596423E+01  0.10851367045E+01  0.46072848775E+01  0.91295416447E+01  0.51100000000E-03 0. -1.
        -11    1    3    3    0    0 -0.61757963716E+01  0.17215168112E+02 -0.96110031029E+01  0.20660925799E+02  0.51100000000E-03 0.  1.
        -12    1    3    3    0    0  0.15058458741E+02 -0.64022112680E+01 -0.24559749794E+02  0.29511468935E+02  0.00000000000E+00 0.  1.
</event>
<event>
 7    1  0.6164995E-012  0.5930192E+02  0.7816164E-02  0.1266605E+00
        -11   -1    0    0    0    0  0.00000000000E+00  0.00000000000E+00  0.45593999997E+02  0.45594000000E+02  0.51100000000E-03 0. -1.
         11   -1    0    0    0    0 -0.00000000000E+00 -0.00000000000E+00 -0.45593999997E+02  0.45594000000E+02  0.51100000000E-03 0.  1.
    9900012    2    1    2    0    0  0.23517259550E+02 -0.17451006775E+02 -0.12614391647E+02  0.59301921363E+02  0.49999958665E+02 0.  0.
         12    1    1    2    0    0 -0.23517259550E+02  0.17451006775E+02  0.12614391647E+02  0.31886078637E+02  0.00000000000E+00 0. -1.
         11    1    3    3    0    0  0.25050011595E+02 -0.11283852285E+02 -0.65349821565E+01  0.28240651468E+02  0.51100000000E-03 0. -1.
        -11    1    3    3    0    0  0.97472063308E+01 -0.87031347374E+01 -0.12288748336E+02  0.17937834915E+02  0.51100000000E-03 0.  1.
         12    1    3    3    0    0 -0.11279958376E+02  0.25359802474E+01  0.62093388450E+01  0.13123434980E+02  0.00000000000E+00 0. -1.
</event>
<event>
 7    1  0.6164995E-012  0.5930195E+02  0.7816164E-02  0.1266605E+00
        -11   -1    0    0    0    0  0.00000000000E+00  0.00000000000E+00  0.45593999997E+02  0.45594000000E+02  0.51100000000E-03 0.  1.
         11   -1    0    0    0    0 -0.00000000000E+00 -0.00000000000E+00 -0.45593999997E+02  0.45594000000E+02  0.51100000000E-03 0. -1.
    9900012    2    1    2    0    0 -0.31399345036E+02  0.15043667739E+01  0.53421345450E+01  0.59301946785E+02  0.50000005029E+02 0.  0.
         12    1    1    2    0    0  0.31399345036E+02 -0.15043667739E+01 -0.53421345450E+01  0.31886053215E+02  0.00000000000E+00 0. -1.
         11    1    3    3    0    0 -0.68070399013E+01  0.77922652997E+01  0.80294376862E+01  0.13096833989E+02  0.51100000000E-03 0. -1.
        -11    1    3    3    0    0 -0.27659414115E+02  0.31408731351E+01  0.10460561328E+02  0.29737713711E+02  0.51100000000E-03 0.  1.
         12    1    3    3    0    0  0.30671089795E+01 -0.94287716609E+01 -0.13147864469E+02  0.16467399085E+02  0.00000000000E+00 0. -1.
</event>
<event>
 7    1  0.6164995E-012  0.5930191E+02  0.7816164E-02  0.1266605E+00
        -11   -1    0    0    0    0  0.00000000000E+00  0.00000000000E+00  0.45593999997E+02  0.45594000000E+02  0.51100000000E-03 0. -1.
         11   -1    0    0    0    0 -0.00000000000E+00 -0.00000000000E+00 -0.45593999997E+02  0.45594000000E+02  0.51100000000E-03 0.  1.
    9900012    2    1    2    0    0  0.17266813301E+02  0.11986153009E+02 -0.23977323889E+02  0.59301909515E+02  0.49999937057E+02 0.  0.
         12    1    1    2    0    0 -0.17266813301E+02 -0.11986153009E+02  0.23977323889E+02  0.31886090485E+02  0.00000000000E+00 0. -1.
         11    1    3    3    0    0 -0.60280681813E+01 -0.13054189876E+01 -0.13555925287E+02  0.14893113690E+02  0.51100000000E-03 0. -1.
        -11    1    3    3    0    0  0.12265900698E+02  0.10593715501E+02 -0.22566075503E+02  0.27783212412E+02  0.51100000000E-03 0.  1.
         12    1    3    3    0    0  0.11028980784E+02  0.26978564962E+01  0.12144676901E+02  0.16625583413E+02  0.00000000000E+00 0. -1.
</event>
<event>
 7    1  0.6164995E-012  0.5930212E+02  0.7816164E-02  0.1266604E+00
        -11   -1    0    0    0    0  0.00000000000E+00  0.00000000000E+00  0.45593999997E+02  0.45594000000E+02  0.51100000000E-03 0. -1.
         11   -1    0    0    0    0 -0.00000000000E+00 -0.00000000000E+00 -0.45593999997E+02  0.45594000000E+02  0.51100000000E-03 0.  1.
    9900012    2    1    2    0    0 -0.26875782282E+02  0.92111748385E+01  0.14476050931E+02  0.59302118081E+02  0.50000317431E+02 0.  0.
         12    1    1    2    0    0  0.26875782282E+02 -0.92111748385E+01 -0.14476050931E+02  0.31885881919E+02  0.00000000000E+00 0. -1.
         11    1    3    3    0    0  0.10348984531E+02 -0.30126025840E+01  0.69716549144E+01  0.12836714052E+02  0.51100000000E-03 0. -1.
        -11    1    3    3    0    0  0.60780911936E+00 -0.25499175902E+01 -0.35125610975E+01  0.43828754679E+01  0.51100000000E-03 0.  1.
        -12    1    3    3    0    0 -0.37832575933E+02  0.14773695013E+02  0.11016957114E+02  0.42082528561E+02  0.00000000000E+00 0.  1.
</event>
<event>
 7    1  0.6164995E-012  0.5930196E+02  0.7816164E-02  0.1266605E+00
        -11   -1    0    0    0    0  0.00000000000E+00  0.00000000000E+00  0.45593999997E+02  0.45594000000E+02  0.51100000000E-03 0.  1.
         11   -1    0    0    0    0 -0.00000000000E+00 -0.00000000000E+00 -0.45593999997E+02  0.45594000000E+02  0.51100000000E-03 0. -1.
    9900012    2    1    2    0    0  0.30350136516E+01 -0.16322411059E+02  0.27222918686E+02  0.59301957405E+02  0.50000024396E+02 0.  0.
         12    1    1    2    0    0 -0.30350136516E+01  0.16322411059E+02 -0.27222918686E+02  0.31886042595E+02  0.00000000000E+00 0. -1.
         11    1    3    3    0    0  0.14834468107E+02  0.82182623479E+01  0.10823382645E+02  0.20118322300E+02  0.51100000000E-03 0. -1.
        -11    1    3    3    0    0 -0.94209850364E+01  0.28315689995E+00  0.93329782763E+01  0.13264223334E+02  0.51100000000E-03 0.  1.
        -12    1    3    3    0    0 -0.23784694192E+01 -0.24823830307E+02  0.70665577643E+01  0.25919411770E+02  0.00000000000E+00 0.  1.
</event>
<event>
 7    1  0.6164995E-012  0.5930194E+02  0.7816164E-02  0.1266605E+00
        -11   -1    0    0    0    0  0.00000000000E+00  0.00000000000E+00  0.45593999997E+02  0.45594000000E+02  0.51100000000E-03 0. -1.
         11   -1    0    0    0    0 -0.00000000000E+00 -0.00000000000E+00 -0.45593999997E+02  0.45594000000E+02  0.51100000000E-03 0.  1.
    9900012    2    1    2    0    0  0.22829867877E+02  0.14376777048E+02 -0.16994896743E+02  0.59301935632E+02  0.49999984689E+02 0.  0.
         12    1    1    2    0    0 -0.22829867877E+02 -0.14376777048E+02  0.16994896743E+02  0.31886064368E+02  0.00000000000E+00 0. -1.
         11    1    3    3    0    0  0.54440564148E+01  0.17851342049E+02 -0.15573851241E+02  0.24307468111E+02  0.51100000000E-03 0.  1.
        -11    1    3    3    0    0  0.18139254184E+02  0.24689440412E+00 -0.13319016633E+02  0.22505326115E+02  0.51100000000E-03 0. -1.
         12    1    3    3    0    0 -0.75344272245E+00 -0.37214594058E+01  0.11897971131E+02  0.12489141407E+02  0.00000000000E+00 0. -1.
</event>
<event>
 7    1  0.6164995E-012  0.5930194E+02  0.7816164E-02  0.1266605E+00
        -11   -1    0    0    0    0  0.00000000000E+00  0.00000000000E+00  0.45593999997E+02  0.45594000000E+02  0.51100000000E-03 0.  1.
         11   -1    0    0    0    0 -0.00000000000E+00 -0.00000000000E+00 -0.45593999997E+02  0.45594000000E+02  0.51100000000E-03 0. -1.
    9900012    2    1    2    0    0  0.23997556093E+00 -0.18700514744E+02  0.25825455802E+02  0.59301937099E+02  0.49999987363E+02 0.  0.
         12    1    1    2    0    0 -0.23997556093E+00  0.18700514744E+02 -0.25825455802E+02  0.31886062901E+02  0.00000000000E+00 0. -1.
         11    1    3    3    0    0  0.55070105788E+00  0.98239677873E+01  0.73551836401E+01  0.12284638431E+02  0.51100000000E-03 0. -1.
        -11    1    3    3    0    0  0.32587920714E+01  0.37022014876E+01 -0.49746607849E+01  0.70052317452E+01  0.51100000000E-03 0.  1.
        -12    1    3    3    0    0 -0.35695175683E+01 -0.32226684019E+02  0.23444932947E+02  0.40012066922E+02  0.00000000000E+00 0.  1.
</event>
<event>
 7    1  0.6164995E-012  0.5930193E+02  0.7816164E-02  0.1266605E+00
        -11   -1    0    0    0    0  0.00000000000E+00  0.00000000000E+00  0.45593999997E+02  0.45594000000E+02  0.51100000000E-03 0.  1.
         11   -1    0    0    0    0 -0.00000000000E+00 -0.00000000000E+00 -0.45593999997E+02  0.45594000000E+02  0.51100000000E-03 0. -1.
    9900012    2    1    2    0    0 -0.52046303634E+01 -0.13535244838E+02  0.28397713548E+02  0.59301934630E+02  0.49999982860E+02 0.  0.
         12    1    1    2    0    0  0.52046303634E+01  0.13535244838E+02 -0.28397713548E+02  0.31886065370E+02  0.00000000000E+00 0. -1.
         11    1    3    3    0    0 -0.21785486765E+01  0.20622525136E+01  0.40314650334E+01  0.50251040131E+01  0.51100000000E-03 0. -1.
        -11    1    3    3    0    0 -0.14251552086E+01 -0.17267548102E+02  0.37305333307E+02  0.41132556184E+02  0.51100000000E-03 0.  1.
         12    1    3    3    0    0 -0.16009264783E+01  0.16700507508E+01 -0.12939084792E+02  0.13144274432E+02  0.00000000000E+00 0. -1.
</event>
<event>
 7    1  0.6164995E-012  0.5930194E+02  0.7816164E-02  0.1266605E+00
        -11   -1    0    0    0    0  0.00000000000E+00  0.00000000000E+00  0.45593999997E+02  0.45594000000E+02  0.51100000000E-03 0. -1.
         11   -1    0    0    0    0 -0.00000000000E+00 -0.00000000000E+00 -0.45593999997E+02  0.45594000000E+02  0.51100000000E-03 0.  1.
    9900012    2    1    2    0    0  0.65149941740E+01 -0.27816185927E+02 -0.14161064501E+02  0.59301935702E+02  0.49999984816E+02 0.  0.
         12    1    1    2    0    0 -0.65149941740E+01  0.27816185927E+02  0.14161064501E+02  0.31886064298E+02  0.00000000000E+00 0. -1.
         11    1    3    3    0    0  0.42599186169E+01 -0.60749695902E+01  0.58168063901E+01  0.94280114015E+01  0.51100000000E-03 0. -1.
        -11    1    3    3    0    0 -0.16411917588E+02 -0.19405580250E+02 -0.51771064747E+01  0.25937039451E+02  0.51100000000E-03 0.  1.
        -12    1    3    3    0    0  0.18666993145E+02 -0.23356360861E+01 -0.14800764417E+02  0.23936884850E+02  0.00000000000E+00 0.  1.
</event>
<event>
 7    1  0.6164995E-012  0.5930194E+02  0.7816164E-02  0.1266605E+00
        -11   -1    0    0    0    0  0.00000000000E+00  0.00000000000E+00  0.45593999997E+02  0.45594000000E+02  0.51100000000E-03 0.  1.
         11   -1    0    0    0    0 -0.00000000000E+00 -0.00000000000E+00 -0.45593999997E+02  0.45594000000E+02  0.51100000000E-03 0. -1.
    9900012    2    1    2    0    0 -0.27809134447E+02  0.40655003337E+01  0.15061367139E+02  0.59301936717E+02  0.49999986666E+02 0.  0.
         12    1    1    2    0    0  0.27809134447E+02 -0.40655003337E+01 -0.15061367139E+02  0.31886063283E+02  0.00000000000E+00 0. -1.
         11    1    3    3    0    0 -0.32280913390E+01 -0.13961768639E+02  0.68600560103E+01  0.15887477017E+02  0.51100000000E-03 0.  1.
        -11    1    3    3    0    0 -0.12503839180E+02 -0.72706586022E+01  0.44410504032E+01  0.15130479163E+02  0.51100000000E-03 0. -1.
         12    1    3    3    0    0 -0.12077203927E+02  0.25297927575E+02  0.37602607252E+01  0.28283980537E+02  0.00000000000E+00 0. -1.
</event>
<event>
 7    1  0.6164995E-012  0.5930197E+02  0.7816164E-02  0.1266605E+00
        -11   -1    0    0    0    0  0.00000000000E+00  0.00000000000E+00  0.45593999997E+02  0.45594000000E+02  0.51100000000E-03 0.  1.
         11   -1    0    0    0    0 -0.00000000000E+00 -0.00000000000E+00 -0.45593999997E+02  0.45594000000E+02  0.51100000000E-03 0. -1.
    9900012    2    1    2    0    0 -0.21363704163E+02  0.23465808909E+02 -0.31091810594E+01  0.59301967789E+02  0.50000043335E+02 0.  0.
         12    1    1    2    0    0  0.21363704163E+02 -0.23465808909E+02  0.31091810594E+01  0.31886032211E+02  0.00000000000E+00 0. -1.
         11    1    3    3    0    0 -0.69286643520E+01  0.37227432011E+01 -0.11481169770E+02  0.13916984810E+02  0.51100000000E-03 0. -1.
        -11    1    3    3    0    0  0.28918286580E+00 -0.10610853468E+02  0.40992030286E+01  0.11378809419E+02  0.51100000000E-03 0.  1.
        -12    1    3    3    0    0 -0.14724222676E+02  0.30353919176E+02  0.42727856819E+01  0.34006173561E+02  0.00000000000E+00 0.  1.
</event>
<event>
 7    1  0.6164995E-012  0.5930196E+02  0.7816164E-02  0.1266605E+00
        -11   -1    0    0    0    0  0.00000000000E+00  0.00000000000E+00  0.45593999997E+02  0.45594000000E+02  0.51100000000E-03 0. -1.
         11   -1    0    0    0    0 -0.00000000000E+00 -0.00000000000E+00 -0.45593999997E+02  0.45594000000E+02  0.51100000000E-03 0.  1.
    9900012    2    1    2    0    0 -0.13443104224E+02 -0.28845821545E+02 -0.19801958767E+01  0.59301958422E+02  0.50000026252E+02 0.  0.
         12    1    1    2    0    0  0.13443104224E+02  0.28845821545E+02  0.19801958767E+01  0.31886041578E+02  0.00000000000E+00 0. -1.
         11    1    3    3    0    0 -0.12456103900E+02  0.26065084661E+01 -0.48192924323E+01  0.13607865026E+02  0.51100000000E-03 0. -1.
        -11    1    3    3    0    0 -0.33576403039E+01 -0.33124707233E+02 -0.81923551430E+01  0.34287529231E+02  0.51100000000E-03 0.  1.
         12    1    3    3    0    0  0.23706399795E+01  0.16723772220E+01  0.11031451699E+02  0.11406564166E+02  0.00000000000E+00 0. -1.
</event>
<event>
 7    1  0.6164995E-012  0.5930191E+02  0.7816164E-02  0.1266605E+00
        -11   -1    0    0    0    0  0.00000000000E+00  0.00000000000E+00  0.45593999997E+02  0.45594000000E+02  0.51100000000E-03 0. -1.
         11   -1    0    0    0    0 -0.00000000000E+00 -0.00000000000E+00 -0.45593999997E+02  0.45594000000E+02  0.51100000000E-03 0.  1.
    9900012    2    1    2    0    0 -0.23000299955E+02  0.21207850930E+01 -0.21982064600E+02  0.59301910690E+02  0.49999939200E+02 0.  0.
         12    1    1    2    0    0  0.23000299955E+02 -0.21207850930E+01  0.21982064600E+02  0.31886089310E+02  0.00000000000E+00 0. -1.
         11    1    3    3    0    0 -0.13053846399E+02  0.16130498049E+02 -0.12131413821E+02  0.24036785864E+02  0.51100000000E-03 0. -1.
        -11    1    3    3    0    0 -0.98828221781E+01  0.57317265022E+00 -0.16496737505E+02  0.19239050124E+02  0.51100000000E-03 0.  1.
         12    1    3    3    0    0 -0.63631377819E-01 -0.14582885607E+02  0.66460867265E+01  0.16026074702E+02  0.00000000000E+00 0. -1.
</event>
<event>
 7    1  0.6164995E-012  0.5930199E+02  0.7816164E-02  0.1266605E+00
        -11   -1    0    0    0    0  0.00000000000E+00  0.00000000000E+00  0.45593999997E+02  0.45594000000E+02  0.51100000000E-03 0.  1.
         11   -1    0    0    0    0 -0.00000000000E+00 -0.00000000000E+00 -0.45593999997E+02  0.45594000000E+02  0.51100000000E-03 0. -1.
    9900012    2    1    2    0    0  0.29229587177E+02 -0.12685089979E+02 -0.11988549247E+01  0.59301991667E+02  0.50000086882E+02 0.  0.
         12    1    1    2    0    0 -0.29229587177E+02  0.12685089979E+02  0.11988549247E+01  0.31886008333E+02  0.00000000000E+00 0. -1.
         11    1    3    3    0    0 -0.22332683405E-02 -0.10307857713E+02 -0.16259489216E+02  0.19251569428E+02  0.51100000000E-03 0. -1.
        -11    1    3    3    0    0  0.15589336383E+02  0.10069250178E+02  0.61919637112E+01  0.19564192364E+02  0.51100000000E-03 0.  1.
        -12    1    3    3    0    0  0.13642484062E+02 -0.12446482444E+02  0.88686705797E+01  0.20486229874E+02  0.00000000000E+00 0.  1.
</event>
<event>
 7    1  0.6164995E-012  0.5930194E+02  0.7816164E-02  0.1266605E+00
        -11   -1    0    0    0    0  0.00000000000E+00  0.00000000000E+00  0.45593999997E+02  0.45594000000E+02  0.51100000000E-03 0. -1.
         11   -1    0    0    0    0 -0.00000000000E+00 -0.00000000000E+00 -0.45593999997E+02  0.45594000000E+02  0.51100000000E-03 0.  1.
    9900012    2    1    2    0    0 -0.50000096437E+01 -0.10403069241E+02 -0.29723671527E+02  0.59301943563E+02  0.49999999153E+02 0.  0.
         12    1    1    2    0    0  0.50000096437E+01  0.10403069241E+02  0.29723671527E+02  0.31886056437E+02  0.00000000000E+00 0. -1.
         11    1    3    3    0    0 -0.10486802430E+02 -0.12655814210E+02 -0.10824213595E+02  0.19680098037E+02  0.51100000000E-03 0. -1.
        -11    1    3    3    0    0  0.16654083339E+01  0.14145800890E+01 -0.28848557093E+02  0.28931191962E+02  0.51100000000E-03 0.  1.
         12    1    3    3    0    0  0.38213844522E+01  0.83816488058E+00  0.99490991618E+01  0.10690653564E+02  0.00000000000E+00 0. -1.
</event>
<event>
 7    1  0.6164995E-012  0.5930193E+02  0.7816164E-02  0.1266605E+00
        -11   -1    0    0    0    0  0.00000000000E+00  0.00000000000E+00  0.45593999997E+02  0.45594000000E+02  0.51100000000E-03 0. -1.
         11   -1    0    0    0    0 -0.00000000000E+00 -0.00000000000E+00 -0.45593999997E+02  0.45594000000E+02  0.51100000000E-03 0.  1.
    9900012    2    1    2    0    0  0.19744080792E+02 -0.14462365832E+02 -0.20438514108E+02  0.59301927637E+02  0.49999970107E+02 0.  0.
         12    1    1    2    0    0 -0.19744080792E+02  0.14462365832E+02  0.20438514108E+02  0.31886072363E+02  0.00000000000E+00 0. -1.
         11    1    3    3    0    0  0.37012783718E+01  0.35731314591E+01  0.40015455360E+01  0.65175990171E+01  0.51100000000E-03 0. -1.
        -11    1    3    3    0    0  0.21499121269E+02 -0.14912296364E+02  0.13886538976E+01  0.26201472442E+02  0.51100000000E-03 0.  1.
        -12    1    3    3    0    0 -0.54563188486E+01 -0.31232009272E+01 -0.25828713541E+02  0.26582856178E+02  0.00000000000E+00 0.  1.
</event>
<event>
 7    1  0.6164995E-012  0.5930194E+02  0.7816164E-02  0.1266605E+00
        -11   -1    0    0    0    0  0.00000000000E+00  0.00000000000E+00  0.45593999997E+02  0.45594000000E+02  0.51100000000E-03 0.  1.
         11   -1    0    0    0    0 -0.00000000000E+00 -0.00000000000E+00 -0.45593999997E+02  0.45594000000E+02  0.51100000000E-03 0. -1.
    9900012    2    1    2    0    0  0.12834766442E+02 -0.29145130826E+02 -0.15972188773E+01  0.59301937392E+02  0.49999987897E+02 0.  0.
         12    1    1    2    0    0 -0.12834766442E+02  0.29145130826E+02  0.15972188773E+01  0.31886062608E+02  0.00000000000E+00 0. -1.
         11    1    3    3    0    0  0.75971037699E+01 -0.10871601212E+01 -0.12571902826E+02  0.14729244507E+02  0.51100000000E-03 0. -1.
        -11    1    3    3    0    0 -0.65978117712E+01 -0.16474267526E+02 -0.79322081155E+01  0.19438429375E+02  0.51100000000E-03 0.  1.
         12    1    3    3    0    0  0.11835474444E+02 -0.11583703179E+02  0.18906892064E+02  0.25134263510E+02  0.00000000000E+00 0. -1.
</event>
<event>
 7    1  0.6164995E-012  0.5930201E+02  0.7816164E-02  0.1266605E+00
        -11   -1    0    0    0    0  0.00000000000E+00  0.00000000000E+00  0.45593999997E+02  0.45594000000E+02  0.51100000000E-03 0.  1.
         11   -1    0    0    0    0 -0.00000000000E+00 -0.00000000000E+00 -0.45593999997E+02  0.45594000000E+02  0.51100000000E-03 0. -1.
    9900012    2    1    2    0    0 -0.88111196219E+01  0.23123193744E+01  0.30557052203E+02  0.59302014219E+02  0.50000128012E+02 0.  0.
         12    1    1    2    0    0  0.88111196219E+01 -0.23123193744E+01 -0.30557052203E+02  0.31885985781E+02  0.00000000000E+00 0. -1.
         11    1    3    3    0    0 -0.19322326478E+01  0.16404313667E+02  0.71589435499E+00  0.16533225181E+02  0.51100000000E-03 0. -1.
        -11    1    3    3    0    0 -0.48111935221E+01 -0.42553546026E+01 -0.39323775567E+01  0.75312163301E+01  0.51100000000E-03 0.  1.
        -12    1    3    3    0    0 -0.20676934519E+01 -0.98366396898E+01  0.33773535405E+02  0.35237572708E+02  0.00000000000E+00 0.  1.
</event>
<event>
 7    1  0.6164995E-012  0.5930194E+02  0.7816164E-02  0.1266605E+00
        -11   -1    0    0    0    0  0.00000000000E+00  0.00000000000E+00  0.45593999997E+02  0.45594000000E+02  0.51100000000E-03 0. -1.
         11   -1    0    0    0    0 -0.00000000000E+00 -0.00000000000E+00 -0.45593999997E+02  0.45594000000E+02  0.51100000000E-03 0.  1.
    9900012    2    1    2    0    0 -0.20080952688E+02  0.19792105697E+02 -0.14891223858E+02  0.59301942596E+02  0.49999997389E+02 0.  0.
         12    1    1    2    0    0  0.20080952688E+02 -0.19792105697E+02  0.14891223858E+02  0.31886057404E+02  0.00000000000E+00 0. -1.
         11    1    3    3    0    0 -0.14244703047E+02 -0.61627114203E+01  0.65440024407E+01  0.16843828103E+02  0.51100000000E-03 0. -1.
        -11    1    3    3    0    0 -0.13257361026E+02  0.47996103582E+01 -0.10043102755E+02  0.17310626626E+02  0.51100000000E-03 0.  1.
        -12    1    3    3    0    0  0.74211113853E+01  0.21155206759E+02 -0.11392123544E+02  0.25147487868E+02  0.00000000000E+00 0.  1.
</event>
<event>
 7    1  0.6164995E-012  0.5930198E+02  0.7816164E-02  0.1266605E+00
        -11   -1    0    0    0    0  0.00000000000E+00  0.00000000000E+00  0.45593999997E+02  0.45594000000E+02  0.51100000000E-03 0.  1.
         11   -1    0    0    0    0 -0.00000000000E+00 -0.00000000000E+00 -0.45593999997E+02  0.45594000000E+02  0.51100000000E-03 0. -1.
    9900012    2    1    2    0    0 -0.23573811845E+02 -0.86927759799E+01  0.19632346448E+02  0.59301984473E+02  0.50000073763E+02 0.  0.
         12    1    1    2    0    0  0.23573811845E+02  0.86927759799E+01 -0.19632346448E+02  0.31886015527E+02  0.00000000000E+00 0. -1.
         11    1    3    3    0    0  0.10212773854E+01 -0.10502974774E+02  0.15191993801E+02  0.18497355555E+02  0.51100000000E-03 0. -1.
        -11    1    3    3    0    0 -0.24191209715E+02 -0.45192306181E+01  0.14756497568E+02  0.28694813008E+02  0.51100000000E-03 0.  1.
        -12    1    3    3    0    0 -0.40387951543E+00  0.63294294126E+01 -0.10316144921E+02  0.12109815910E+02  0.00000000000E+00 0.  1.
</event>
<event>
 7    1  0.6164995E-012  0.5930187E+02  0.7816164E-02  0.1266605E+00
        -11   -1    0    0    0    0  0.00000000000E+00  0.00000000000E+00  0.45593999997E+02  0.45594000000E+02  0.51100000000E-03 0.  1.
         11   -1    0    0    0    0 -0.00000000000E+00 -0.00000000000E+00 -0.45593999997E+02  0.45594000000E+02  0.51100000000E-03 0. -1.
    9900012    2    1    2    0    0 -0.43389744500E+00  0.25293967759E+02  0.19410107759E+02  0.59301868921E+02  0.49999863022E+02 0.  0.
         12    1    1    2    0    0  0.43389744500E+00 -0.25293967759E+02 -0.19410107759E+02  0.31886131079E+02  0.00000000000E+00 0. -1.
         11    1    3    3    0    0 -0.61725445725E+01  0.25269430319E+02  0.33398577682E+02  0.42333313201E+02  0.51100000000E-03 0.  1.
        -11    1    3    3    0    0 -0.13853960673E+01 -0.88609712875E+00 -0.55489775906E+00  0.17356273128E+01  0.51100000000E-03 0. -1.
        -12    1    3    3    0    0  0.71240431949E+01  0.91063456869E+00 -0.13433572164E+02  0.15232928406E+02  0.00000000000E+00 0.  1.
</event>
<event>
 7    1  0.6164995E-012  0.5930190E+02  0.7816164E-02  0.1266605E+00
        -11   -1    0    0    0    0  0.00000000000E+00  0.00000000000E+00  0.45593999997E+02  0.45594000000E+02  0.51100000000E-03 0.  1.
         11   -1    0    0    0    0 -0.00000000000E+00 -0.00000000000E+00 -0.45593999997E+02  0.45594000000E+02  0.51100000000E-03 0. -1.
    9900012    2    1    2    0    0 -0.24998410344E+02  0.19275179535E+02 -0.45022884036E+01  0.59301895398E+02  0.49999911311E+02 0.  0.
         12    1    1    2    0    0  0.24998410344E+02 -0.19275179535E+02  0.45022884036E+01  0.31886104602E+02  0.00000000000E+00 0. -1.
         11    1    3    3    0    0 -0.17834124502E+02  0.13257646960E+02 -0.49760864249E+01  0.22772409535E+02  0.51100000000E-03 0. -1.
        -11    1    3    3    0    0 -0.21002491602E+02  0.70756436783E+01  0.31805447598E+01  0.22389400443E+02  0.51100000000E-03 0.  1.
         12    1    3    3    0    0  0.13838205760E+02 -0.10581111033E+01 -0.27067467385E+01  0.14140085420E+02  0.00000000000E+00 0. -1.
</event>
<event>
 7    1  0.6164995E-012  0.5930195E+02  0.7816164E-02  0.1266605E+00
        -11   -1    0    0    0    0  0.00000000000E+00  0.00000000000E+00  0.45593999997E+02  0.45594000000E+02  0.51100000000E-03 0. -1.
         11   -1    0    0    0    0 -0.00000000000E+00 -0.00000000000E+00 -0.45593999997E+02  0.45594000000E+02  0.51100000000E-03 0.  1.
    9900012    2    1    2    0    0 -0.23013260193E+02  0.82788103214E+00 -0.22055041652E+02  0.59301946717E+02  0.50000004904E+02 0.  0.
         12    1    1    2    0    0  0.23013260193E+02 -0.82788103214E+00  0.22055041652E+02  0.31886053283E+02  0.00000000000E+00 0. -1.
         11    1    3    3    0    0  0.39845871649E+01  0.23936141819E+01 -0.83298657626E+01  0.95390244580E+01  0.51100000000E-03 0. -1.
        -11    1    3    3    0    0 -0.47859605562E+01 -0.16275922522E+02 -0.15611520147E+02  0.23054948144E+02  0.51100000000E-03 0.  1.
         12    1    3    3    0    0 -0.22211886801E+02  0.14710189372E+02  0.18863442569E+01  0.26707974114E+02  0.00000000000E+00 0. -1.
</event>
<event>
 7    1  0.6164995E-012  0.5930192E+02  0.7816164E-02  0.1266605E+00
        -11   -1    0    0    0    0  0.00000000000E+00  0.00000000000E+00  0.45593999997E+02  0.45594000000E+02  0.51100000000E-03 0. -1.
         11   -1    0    0    0    0 -0.00000000000E+00 -0.00000000000E+00 -0.45593999997E+02  0.45594000000E+02  0.51100000000E-03 0.  1.
    9900012    2    1    2    0    0  0.24000807563E+02 -0.18932598573E+02  0.90686179860E+01  0.59301923343E+02  0.49999962276E+02 0.  0.
         12    1    1    2    0    0 -0.24000807563E+02  0.18932598573E+02 -0.90686179860E+01  0.31886076657E+02  0.00000000000E+00 0. -1.
         11    1    3    3    0    0 -0.12929329997E+01 -0.60399818297E+01  0.21406193402E+02  0.22279546056E+02  0.51100000000E-03 0. -1.
        -11    1    3    3    0    0  0.10326564401E+02  0.20661691401E+01  0.29270173874E+01  0.10930435411E+02  0.51100000000E-03 0.  1.
        -12    1    3    3    0    0  0.14967176162E+02 -0.14958785883E+02 -0.15264592803E+02  0.26091941875E+02  0.00000000000E+00 0.  1.
</event>
<event>
 7    1  0.6164995E-012  0.5930196E+02  0.7816164E-02  0.1266605E+00
        -11   -1    0    0    0    0  0.00000000000E+00  0.00000000000E+00  0.45593999997E+02  0.45594000000E+02  0.51100000000E-03 0.  1.
         11   -1    0    0    0    0 -0.00000000000E+00 -0.00000000000E+00 -0.45593999997E+02  0.45594000000E+02  0.51100000000E-03 0. -1.
    9900012    2    1    2    0    0  0.13718892330E+02  0.15395063054E+02  0.24320848516E+02  0.59301958450E+02  0.50000026303E+02 0.  0.
         12    1    1    2    0    0 -0.13718892330E+02 -0.15395063054E+02 -0.24320848516E+02  0.31886041550E+02  0.00000000000E+00 0. -1.
         11    1    3    3    0    0  0.46755649757E+01 -0.10731962756E+02 -0.36324863481E+01  0.12256871125E+02  0.51100000000E-03 0. -1.
        -11    1    3    3    0    0  0.14342922417E+02  0.55218386973E+01  0.17656481459E+02  0.23408576715E+02  0.51100000000E-03 0.  1.
         12    1    3    3    0    0 -0.52995950620E+01  0.20605187113E+02  0.10296853405E+02  0.23636510610E+02  0.00000000000E+00 0. -1.
</event>
<event>
 7    1  0.6164995E-012  0.5930194E+02  0.7816164E-02  0.1266605E+00
        -11   -1    0    0    0    0  0.00000000000E+00  0.00000000000E+00  0.45593999997E+02  0.45594000000E+02  0.51100000000E-03 0. -1.
         11   -1    0    0    0    0 -0.00000000000E+00 -0.00000000000E+00 -0.45593999997E+02  0.45594000000E+02  0.51100000000E-03 0.  1.
    9900012    2    1    2    0    0 -0.21435713896E+02  0.87358168353E+01 -0.21929815393E+02  0.59301935188E+02  0.49999983879E+02 0.  0.
         12    1    1    2    0    0  0.21435713896E+02 -0.87358168353E+01  0.21929815393E+02  0.31886064812E+02  0.00000000000E+00 0. -1.
         11    1    3    3    0    0  0.14987295724E+01  0.29697275541E+01  0.11107395712E+02  0.11594814006E+02  0.51100000000E-03 0. -1.
        -11    1    3    3    0    0 -0.10398048363E+02  0.13935905360E+02 -0.94930701700E+01  0.19810281408E+02  0.51100000000E-03 0.  1.
        -12    1    3    3    0    0 -0.12536395106E+02 -0.81698160792E+01 -0.23544140935E+02  0.27896839774E+02  0.00000000000E+00 0.  1.
</event>
<event>
 7    1  0.6164995E-012  0.5930194E+02  0.7816164E-02  0.1266605E+00
        -11   -1    0    0    0    0  0.00000000000E+00  0.00000000000E+00  0.45593999997E+02  0.45594000000E+02  0.51100000000E-03 0.  1.
         11   -1    0    0    0    0 -0.00000000000E+00 -0.00000000000E+00 -0.45593999997E+02  0.45594000000E+02  0.51100000000E-03 0. -1.
    9900012    2    1    2    0    0 -0.39295641876E+01  0.27864527339E+02  0.14994919777E+02  0.59301937565E+02  0.49999988213E+02 0.  0.
         12    1    1    2    0    0  0.39295641876E+01 -0.27864527339E+02 -0.14994919777E+02  0.31886062435E+02  0.00000000000E+00 0. -1.
         11    1    3    3    0    0  0.70842406118E+01  0.20259316131E+02 -0.83275552251E+01  0.23021175717E+02  0.51100000000E-03 0. -1.
        -11    1    3    3    0    0 -0.51547846178E+01 -0.52249478113E+01 -0.17207277940E+01  0.75387524491E+01  0.51100000000E-03 0.  1.
        -12    1    3    3    0    0 -0.58590201816E+01  0.12830159020E+02  0.25043202796E+02  0.28742009398E+02  0.00000000000E+00 0.  1.
</event>
<event>
 7    1  0.6164995E-012  0.5930196E+02  0.7816164E-02  0.1266605E+00
        -11   -1    0    0    0    0  0.00000000000E+00  0.00000000000E+00  0.45593999997E+02  0.45594000000E+02  0.51100000000E-03 0. -1.
         11   -1    0    0    0    0 -0.00000000000E+00 -0.00000000000E+00 -0.45593999997E+02  0.45594000000E+02  0.51100000000E-03 0.  1.
    9900012    2    1    2    0    0  0.28470198969E+02 -0.18962032477E+01  0.14232780399E+02  0.59301955185E+02  0.50000020348E+02 0.  0.
         12    1    1    2    0    0 -0.28470198969E+02  0.18962032477E+01 -0.14232780399E+02  0.31886044815E+02  0.00000000000E+00 0. -1.
         11    1    3    3    0    0 -0.32531653435E+01  0.88906142119E+01  0.76390729482E+01  0.12164766401E+02  0.51100000000E-03 0. -1.
        -11    1    3    3    0    0 -0.64033693973E+01 -0.34569570351E+01  0.38064271961E+01  0.82123431395E+01  0.51100000000E-03 0.  1.
        -12    1    3    3    0    0  0.38126733710E+02 -0.73298604245E+01  0.27872802544E+01  0.38924845644E+02  0.00000000000E+00 0.  1.
</event>
<event>
 7    1  0.6164995E-012  0.5930196E+02  0.7816164E-02  0.1266605E+00
        -11   -1    0    0    0    0  0.00000000000E+00  0.00000000000E+00  0.45593999997E+02  0.45594000000E+02  0.51100000000E-03 0.  1.
         11   -1    0    0    0    0 -0.00000000000E+00 -0.00000000000E+00 -0.45593999997E+02  0.45594000000E+02  0.51100000000E-03 0. -1.
    9900012    2    1    2    0    0 -0.27235612897E+02 -0.48115672772E+01  0.15867887483E+02  0.59301958498E+02  0.50000026390E+02 0.  0.
         12    1    1    2    0    0  0.27235612897E+02  0.48115672772E+01 -0.15867887483E+02  0.31886041502E+02  0.00000000000E+00 0. -1.
         11    1    3    3    0    0  0.49414296969E+01 -0.19279069168E+02  0.10885618239E+02  0.22684728787E+02  0.51100000000E-03 0. -1.
        -11    1    3    3    0    0 -0.11381641554E+02  0.13330148990E+01  0.34765187405E+01  0.11975177493E+02  0.51100000000E-03 0.  1.
        -12    1    3    3    0    0 -0.20795401040E+02  0.13134486991E+02  0.15057505034E+01  0.24642052218E+02  0.00000000000E+00 0.  1.
</event>
<event>
 7    1  0.6164995E-012  0.5930194E+02  0.7816164E-02  0.1266605E+00
        -11   -1    0    0    0    0  0.00000000000E+00  0.00000000000E+00  0.45593999997E+02  0.45594000000E+02  0.51100000000E-03 0.  1.
         11   -1    0    0    0    0 -0.00000000000E+00 -0.00000000000E+00 -0.45593999997E+02  0.45594000000E+02  0.51100000000E-03 0. -1.
    9900012    2    1    2    0    0 -0.28660583993E+01 -0.18878869819E+02  0.25536145251E+02  0.59301941437E+02  0.49999995275E+02 0.  0.
         12    1    1    2    0    0  0.28660583993E+01  0.18878869819E+02 -0.25536145251E+02  0.31886058563E+02  0.00000000000E+00 0. -1.
         11    1    3    3    0    0  0.98458731899E+01  0.70464217180E+01  0.43434051576E+01  0.12863065207E+02  0.51100000000E-03 0. -1.
        -11    1    3    3    0    0 -0.69619378373E+01 -0.17032805096E+02  0.28249255944E+02  0.33713580195E+02  0.51100000000E-03 0.  1.
        -12    1    3    3    0    0 -0.57499937520E+01 -0.88924864403E+01 -0.70565158501E+01  0.12725296035E+02  0.00000000000E+00 0.  1.
</event>
<event>
 7    1  0.6164995E-012  0.5930185E+02  0.7816164E-02  0.1266605E+00
        -11   -1    0    0    0    0  0.00000000000E+00  0.00000000000E+00  0.45593999997E+02  0.45594000000E+02  0.51100000000E-03 0.  1.
         11   -1    0    0    0    0 -0.00000000000E+00 -0.00000000000E+00 -0.45593999997E+02  0.45594000000E+02  0.51100000000E-03 0. -1.
    9900012    2    1    2    0    0 -0.28950895546E+02 -0.13286185634E+02  0.14315756958E+01  0.59301851117E+02  0.49999830553E+02 0.  0.
         12    1    1    2    0    0  0.28950895546E+02  0.13286185634E+02 -0.14315756958E+01  0.31886148883E+02  0.00000000000E+00 0. -1.
         11    1    3    3    0    0  0.97040092833E+00  0.26907483062E+01 -0.17068886325E+02  0.17306897037E+02  0.51100000000E-03 0. -1.
        -11    1    3    3    0    0  0.20300541334E+01 -0.16327525731E+01  0.65089401959E+00  0.26852679634E+01  0.51100000000E-03 0.  1.
        -12    1    3    3    0    0 -0.31951350607E+02 -0.14344181367E+02  0.17849568002E+02  0.39309686117E+02  0.00000000000E+00 0.  1.
</event>
<event>
 7    1  0.6164995E-012  0.5930193E+02  0.7816164E-02  0.1266605E+00
        -11   -1    0    0    0    0  0.00000000000E+00  0.00000000000E+00  0.45593999997E+02  0.45594000000E+02  0.51100000000E-03 0.  1.
         11   -1    0    0    0    0 -0.00000000000E+00 -0.00000000000E+00 -0.45593999997E+02  0.45594000000E+02  0.51100000000E-03 0. -1.
    9900012    2    1    2    0    0 -0.11315457785E+02 -0.28718039637E+02  0.79972638789E+01  0.59301927570E+02  0.49999969984E+02 0.  0.
         12    1    1    2    0    0  0.11315457785E+02  0.28718039637E+02 -0.79972638789E+01  0.31886072430E+02  0.00000000000E+00 0. -1.
         11    1    3    3    0    0 -0.22971003091E+02 -0.23966723624E+01  0.84251785826E+00  0.23111054888E+02  0.51100000000E-03 0. -1.
        -11    1    3    3    0    0 -0.23542008305E+01 -0.18247182603E+02 -0.26404350895E+00  0.18400316675E+02  0.51100000000E-03 0.  1.
         12    1    3    3    0    0  0.14009746137E+02 -0.80741846722E+01  0.74187895296E+01  0.17790556007E+02  0.00000000000E+00 0. -1.
</event>
<event>
 7    1  0.6164995E-012  0.5930194E+02  0.7816164E-02  0.1266605E+00
        -11   -1    0    0    0    0  0.00000000000E+00  0.00000000000E+00  0.45593999997E+02  0.45594000000E+02  0.51100000000E-03 0.  1.
         11   -1    0    0    0    0 -0.00000000000E+00 -0.00000000000E+00 -0.45593999997E+02  0.45594000000E+02  0.51100000000E-03 0. -1.
    9900012    2    1    2    0    0 -0.31229356366E+02 -0.63358964055E+01  0.11421115253E+01  0.59301941902E+02  0.49999996123E+02 0.  0.
         12    1    1    2    0    0  0.31229356366E+02  0.63358964055E+01 -0.11421115253E+01  0.31886058098E+02  0.00000000000E+00 0. -1.
         11    1    3    3    0    0  0.48091434257E+01 -0.50632990728E+01  0.20570011644E+01  0.72798428583E+01  0.51100000000E-03 0. -1.
        -11    1    3    3    0    0 -0.18249644444E+02 -0.18743792190E+02  0.44005605865E+01  0.26528177505E+02  0.51100000000E-03 0.  1.
         12    1    3    3    0    0 -0.17788855348E+02  0.17471194858E+02 -0.53154502256E+01  0.25493921539E+02  0.00000000000E+00 0. -1.
</event>
<event>
 7    1  0.6164995E-012  0.5930204E+02  0.7816164E-02  0.1266604E+00
        -11   -1    0    0    0    0  0.00000000000E+00  0.00000000000E+00  0.45593999997E+02  0.45594000000E+02  0.51100000000E-03 0.  1.
         11   -1    0    0    0    0 -0.00000000000E+00 -0.00000000000E+00 -0.45593999997E+02  0.45594000000E+02  0.51100000000E-03 0. -1.
    9900012    2    1    2    0    0 -0.37401468853E+01  0.25370071834E+02  0.18949550412E+02  0.59302035934E+02  0.50000167615E+02 0.  0.
         12    1    1    2    0    0  0.37401468853E+01 -0.25370071834E+02 -0.18949550412E+02  0.31885964066E+02  0.00000000000E+00 0. -1.
         11    1    3    3    0    0 -0.30527005445E+01  0.18578793736E+02  0.11957469637E+02  0.22304072221E+02  0.51100000000E-03 0. -1.
        -11    1    3    3    0    0  0.94501339533E+01  0.11778886276E+02  0.16401505236E+02  0.22294765482E+02  0.51100000000E-03 0.  1.
         12    1    3    3    0    0 -0.10137580294E+02 -0.49876081775E+01 -0.94094244601E+01  0.14703198231E+02  0.00000000000E+00 0. -1.
</event>
<event>
 7    1  0.6164995E-012  0.5930194E+02  0.7816164E-02  0.1266605E+00
        -11   -1    0    0    0    0  0.00000000000E+00  0.00000000000E+00  0.45593999997E+02  0.45594000000E+02  0.51100000000E-03 0. -1.
         11   -1    0    0    0    0 -0.00000000000E+00 -0.00000000000E+00 -0.45593999997E+02  0.45594000000E+02  0.51100000000E-03 0.  1.
    9900012    2    1    2    0    0 -0.37764738696E+01  0.26207573609E+02 -0.17765754256E+02  0.59301942018E+02  0.49999996335E+02 0.  0.
         12    1    1    2    0    0  0.37764738696E+01 -0.26207573609E+02  0.17765754256E+02  0.31886057982E+02  0.00000000000E+00 0. -1.
         11    1    3    3    0    0 -0.18888321377E+02 -0.42281712500E+00 -0.12347326067E+02  0.22569978290E+02  0.51100000000E-03 0. -1.
        -11    1    3    3    0    0 -0.36678400343E+01  0.10727919491E+02 -0.42101722326E+01  0.12094083579E+02  0.51100000000E-03 0.  1.
        -12    1    3    3    0    0  0.18779687541E+02  0.15902471243E+02 -0.12082559568E+01  0.24637880149E+02  0.00000000000E+00 0.  1.
</event>
<event>
 7    1  0.6164995E-012  0.5930194E+02  0.7816164E-02  0.1266605E+00
        -11   -1    0    0    0    0  0.00000000000E+00  0.00000000000E+00  0.45593999997E+02  0.45594000000E+02  0.51100000000E-03 0.  1.
         11   -1    0    0    0    0 -0.00000000000E+00 -0.00000000000E+00 -0.45593999997E+02  0.45594000000E+02  0.51100000000E-03 0. -1.
    9900012    2    1    2    0    0 -0.15535098117E+02 -0.11811973334E+02  0.25216236451E+02  0.59301943983E+02  0.49999999918E+02 0.  0.
         12    1    1    2    0    0  0.15535098117E+02  0.11811973334E+02 -0.25216236451E+02  0.31886056017E+02  0.00000000000E+00 0. -1.
         11    1    3    3    0    0 -0.32432811278E+01 -0.43543028905E+01  0.85103176160E+01  0.10094767571E+02  0.51100000000E-03 0. -1.
        -11    1    3    3    0    0 -0.15270685449E+01 -0.25350040227E+02  0.87259167095E+01  0.26853269830E+02  0.51100000000E-03 0.  1.
         12    1    3    3    0    0 -0.10764748444E+02  0.17892369783E+02  0.79800021259E+01  0.22353906582E+02  0.00000000000E+00 0. -1.
</event>
<event>
 7    1  0.6164995E-012  0.5930195E+02  0.7816164E-02  0.1266605E+00
        -11   -1    0    0    0    0  0.00000000000E+00  0.00000000000E+00  0.45593999997E+02  0.45594000000E+02  0.51100000000E-03 0.  1.
         11   -1    0    0    0    0 -0.00000000000E+00 -0.00000000000E+00 -0.45593999997E+02  0.45594000000E+02  0.51100000000E-03 0. -1.
    9900012    2    1    2    0    0 -0.23941220341E+02  0.18524974531E+02  0.10018153967E+02  0.59301950986E+02  0.50000012691E+02 0.  0.
         12    1    1    2    0    0  0.23941220341E+02 -0.18524974531E+02 -0.10018153967E+02  0.31886049014E+02  0.00000000000E+00 0. -1.
         11    1    3    3    0    0  0.68152665592E+01  0.14749745211E+01  0.47908006498E+01  0.84602115362E+01  0.51100000000E-03 0. -1.
        -11    1    3    3    0    0  0.62911232220E+01  0.18455910346E+01  0.84165021234E+01  0.10668736847E+02  0.51100000000E-03 0.  1.
        -12    1    3    3    0    0 -0.37047610122E+02  0.15204408975E+02 -0.31891488059E+01  0.40173002603E+02  0.00000000000E+00 0.  1.
</event>
<event>
 7    1  0.6164995E-012  0.5930200E+02  0.7816164E-02  0.1266605E+00
        -11   -1    0    0    0    0  0.00000000000E+00  0.00000000000E+00  0.45593999997E+02  0.45594000000E+02  0.51100000000E-03 0. -1.
         11   -1    0    0    0    0 -0.00000000000E+00 -0.00000000000E+00 -0.45593999997E+02  0.45594000000E+02  0.51100000000E-03 0.  1.
    9900012    2    1    2    0    0  0.54774443224E+01 -0.14219818770E+02 -0.28009135467E+02  0.59301995048E+02  0.50000093049E+02 0.  0.
         12    1    1    2    0    0 -0.54774443224E+01  0.14219818770E+02  0.28009135467E+02  0.31886004952E+02  0.00000000000E+00 0. -1.
         11    1    3    3    0    0 -0.12812181792E+02  0.65899017002E+01 -0.59031500727E+01  0.15570034930E+02  0.51100000000E-03 0. -1.
        -11    1    3    3    0    0  0.12398489106E+01 -0.28875281149E+01  0.57040368324E+01  0.65123790110E+01  0.51100000000E-03 0.  1.
        -12    1    3    3    0    0  0.17049777204E+02 -0.17922192356E+02 -0.27810022227E+02  0.37219581107E+02  0.00000000000E+00 0.  1.
</event>
<event>
 7    1  0.6164995E-012  0.5930196E+02  0.7816164E-02  0.1266605E+00
        -11   -1    0    0    0    0  0.00000000000E+00  0.00000000000E+00  0.45593999997E+02  0.45594000000E+02  0.51100000000E-03 0.  1.
         11   -1    0    0    0    0 -0.00000000000E+00 -0.00000000000E+00 -0.45593999997E+02  0.45594000000E+02  0.51100000000E-03 0. -1.
    9900012    2    1    2    0    0 -0.77373600332E+01 -0.10238140265E+02  0.29189604037E+02  0.59301964809E+02  0.50000037900E+02 0.  0.
         12    1    1    2    0    0  0.77373600332E+01  0.10238140265E+02 -0.29189604037E+02  0.31886035191E+02  0.00000000000E+00 0. -1.
         11    1    3    3    0    0 -0.76964079743E+01 -0.21394288144E+02  0.18615138098E+02  0.29384921772E+02  0.51100000000E-03 0.  1.
        -11    1    3    3    0    0 -0.12427386994E+02  0.26648819913E+01  0.28338153720E+01  0.13021983464E+02  0.51100000000E-03 0. -1.
        -12    1    3    3    0    0  0.12386434935E+02  0.84912658872E+01  0.77406505674E+01  0.16895059573E+02  0.00000000000E+00 0.  1.
</event>
<event>
 7    1  0.6164995E-012  0.5930192E+02  0.7816164E-02  0.1266605E+00
        -11   -1    0    0    0    0  0.00000000000E+00  0.00000000000E+00  0.45593999997E+02  0.45594000000E+02  0.51100000000E-03 0. -1.
         11   -1    0    0    0    0 -0.00000000000E+00 -0.00000000000E+00 -0.45593999997E+02  0.45594000000E+02  0.51100000000E-03 0.  1.
    9900012    2    1    2    0    0  0.20918548482E+02  0.65241470592E+01 -0.23164018357E+02  0.59301922914E+02  0.49999961494E+02 0.  0.
         12    1    1    2    0    0 -0.20918548482E+02 -0.65241470592E+01  0.23164018357E+02  0.31886077086E+02  0.00000000000E+00 0. -1.
         11    1    3    3    0    0  0.19747449706E+01 -0.91720988822E+01 -0.18902396037E+01  0.95707900209E+01  0.51100000000E-03 0. -1.
        -11    1    3    3    0    0 -0.25777446877E+01 -0.73940240826E+01 -0.15884281915E+02  0.17709510779E+02  0.51100000000E-03 0.  1.
         12    1    3    3    0    0  0.21521548199E+02  0.23090270024E+02 -0.53894968385E+01  0.32021622114E+02  0.00000000000E+00 0. -1.
</event>
<event>
 7    1  0.6164995E-012  0.5930197E+02  0.7816164E-02  0.1266605E+00
        -11   -1    0    0    0    0  0.00000000000E+00  0.00000000000E+00  0.45593999997E+02  0.45594000000E+02  0.51100000000E-03 0.  1.
         11   -1    0    0    0    0 -0.00000000000E+00 -0.00000000000E+00 -0.45593999997E+02  0.45594000000E+02  0.51100000000E-03 0. -1.
    9900012    2    1    2    0    0 -0.77366899012E+01  0.21652776432E+02  0.22091175042E+02  0.59301966810E+02  0.50000041550E+02 0.  0.
         12    1    1    2    0    0  0.77366899012E+01 -0.21652776432E+02 -0.22091175042E+02  0.31886033190E+02  0.00000000000E+00 0. -1.
         11    1    3    3    0    0  0.39290910944E+01  0.35186302997E+01  0.15022609299E+02  0.15921598739E+02  0.51100000000E-03 0. -1.
        -11    1    3    3    0    0 -0.14836379030E+02  0.27267633342E+02 -0.58719416829E+00  0.31048136305E+02  0.51100000000E-03 0.  1.
         12    1    3    3    0    0  0.31705980348E+01 -0.91334872091E+01  0.76557599113E+01  0.12332231765E+02  0.00000000000E+00 0. -1.
</event>
<event>
 7    1  0.6164995E-012  0.5930191E+02  0.7816164E-02  0.1266605E+00
        -11   -1    0    0    0    0  0.00000000000E+00  0.00000000000E+00  0.45593999997E+02  0.45594000000E+02  0.51100000000E-03 0.  1.
         11   -1    0    0    0    0 -0.00000000000E+00 -0.00000000000E+00 -0.45593999997E+02  0.45594000000E+02  0.51100000000E-03 0. -1.
    9900012    2    1    2    0    0 -0.38819661835E+01 -0.18025436520E+02  0.26014164203E+02  0.59301909578E+02  0.49999937173E+02 0.  0.
         12    1    1    2    0    0  0.38819661835E+01  0.18025436520E+02 -0.26014164203E+02  0.31886090422E+02  0.00000000000E+00 0. -1.
         11    1    3    3    0    0 -0.84093927791E+00 -0.92761670413E+01  0.57288958377E+00  0.93318088592E+01  0.51100000000E-03 0. -1.
        -11    1    3    3    0    0  0.31143344032E+01 -0.20526100379E+02  0.29502290110E+02  0.36074991303E+02  0.51100000000E-03 0.  1.
        -12    1    3    3    0    0 -0.61553613087E+01  0.11776830900E+02 -0.40610154906E+01  0.13895109416E+02  0.00000000000E+00 0.  1.
</event>
<event>
 7    1  0.6164995E-012  0.5930199E+02  0.7816164E-02  0.1266605E+00
        -11   -1    0    0    0    0  0.00000000000E+00  0.00000000000E+00  0.45593999997E+02  0.45594000000E+02  0.51100000000E-03 0.  1.
         11   -1    0    0    0    0 -0.00000000000E+00 -0.00000000000E+00 -0.45593999997E+02  0.45594000000E+02  0.51100000000E-03 0. -1.
    9900012    2    1    2    0    0  0.21593031140E+02 -0.20038436278E+02  0.12203260271E+02  0.59301992355E+02  0.50000088137E+02 0.  0.
         12    1    1    2    0    0 -0.21593031140E+02  0.20038436278E+02 -0.12203260271E+02  0.31886007645E+02  0.00000000000E+00 0. -1.
         11    1    3    3    0    0  0.47965627804E+01  0.13457852148E+02  0.42330035230E+00  0.14293354484E+02  0.51100000000E-03 0. -1.
        -11    1    3    3    0    0  0.16240818370E+02 -0.13181429409E+02  0.13037474161E+02  0.24647312132E+02  0.51100000000E-03 0.  1.
         12    1    3    3    0    0  0.55564999013E+00 -0.20314859017E+02 -0.12575142422E+01  0.20361325739E+02  0.00000000000E+00 0. -1.
</event>
<event>
 7    1  0.6164995E-012  0.5930198E+02  0.7816164E-02  0.1266605E+00
        -11   -1    0    0    0    0  0.00000000000E+00  0.00000000000E+00  0.45593999997E+02  0.45594000000E+02  0.51100000000E-03 0.  1.
         11   -1    0    0    0    0 -0.00000000000E+00 -0.00000000000E+00 -0.45593999997E+02  0.45594000000E+02  0.51100000000E-03 0. -1.
    9900012    2    1    2    0    0  0.23953310460E+02 -0.18165110361E+00  0.21045762921E+02  0.59301980869E+02  0.50000067189E+02 0.  0.
         12    1    1    2    0    0 -0.23953310460E+02  0.18165110361E+00 -0.21045762921E+02  0.31886019131E+02  0.00000000000E+00 0. -1.
         11    1    3    3    0    0  0.11524552634E+02  0.79238831676E+01 -0.38509861232E+01  0.14506320424E+02  0.51100000000E-03 0. -1.
        -11    1    3    3    0    0  0.18983795895E+02  0.23250891169E+01  0.25725498792E+01  0.19297890018E+02  0.51100000000E-03 0.  1.
        -12    1    3    3    0    0 -0.65550380693E+01 -0.10430623388E+02  0.22324199165E+02  0.25497770427E+02  0.00000000000E+00 0.  1.
</event>
<event>
 7    1  0.6164995E-012  0.5930194E+02  0.7816164E-02  0.1266605E+00
        -11   -1    0    0    0    0  0.00000000000E+00  0.00000000000E+00  0.45593999997E+02  0.45594000000E+02  0.51100000000E-03 0.  1.
         11   -1    0    0    0    0 -0.00000000000E+00 -0.00000000000E+00 -0.45593999997E+02  0.45594000000E+02  0.51100000000E-03 0. -1.
    9900012    2    1    2    0    0  0.19531854575E+02  0.25186535913E+02 -0.93040494714E+00  0.59301943677E+02  0.49999999361E+02 0.  0.
         12    1    1    2    0    0 -0.19531854575E+02 -0.25186535913E+02  0.93040494714E+00  0.31886056323E+02  0.00000000000E+00 0. -1.
         11    1    3    3    0    0 -0.52469210654E+01  0.43174019537E+01  0.89242620387E+01  0.11216621305E+02  0.51100000000E-03 0. -1.
        -11    1    3    3    0    0  0.44020953688E+01 -0.20919924332E+01  0.10277025459E+02  0.11374186939E+02  0.51100000000E-03 0.  1.
         12    1    3    3    0    0  0.20376680272E+02  0.22961126393E+02 -0.20131692445E+02  0.36711135433E+02  0.00000000000E+00 0. -1.
</event>
<event>
 7    1  0.6164995E-012  0.5930194E+02  0.7816164E-02  0.1266605E+00
        -11   -1    0    0    0    0  0.00000000000E+00  0.00000000000E+00  0.45593999997E+02  0.45594000000E+02  0.51100000000E-03 0.  1.
         11   -1    0    0    0    0 -0.00000000000E+00 -0.00000000000E+00 -0.45593999997E+02  0.45594000000E+02  0.51100000000E-03 0. -1.
    9900012    2    1    2    0    0 -0.21216542685E+02 -0.23536094302E+02  0.35540341647E+01  0.59301943841E+02  0.49999999660E+02 0.  0.
         12    1    1    2    0    0  0.21216542685E+02  0.23536094302E+02 -0.35540341647E+01  0.31886056159E+02  0.00000000000E+00 0. -1.
         11    1    3    3    0    0 -0.42651672046E+01  0.50004849146E+01 -0.15605375799E+01  0.67551297888E+01  0.51100000000E-03 0. -1.
        -11    1    3    3    0    0 -0.23764976937E+02 -0.23077056557E+01  0.82607093464E+01  0.25265370636E+02  0.51100000000E-03 0.  1.
         12    1    3    3    0    0  0.68136014567E+01 -0.26228873561E+02 -0.31461376018E+01  0.27281443417E+02  0.00000000000E+00 0. -1.
</event>
<event>
 7    1  0.6164995E-012  0.5930192E+02  0.7816164E-02  0.1266605E+00
        -11   -1    0    0    0    0  0.00000000000E+00  0.00000000000E+00  0.45593999997E+02  0.45594000000E+02  0.51100000000E-03 0.  1.
         11   -1    0    0    0    0 -0.00000000000E+00 -0.00000000000E+00 -0.45593999997E+02  0.45594000000E+02  0.51100000000E-03 0. -1.
    9900012    2    1    2    0    0 -0.22364845041E+02 -0.20536268819E+02  0.97363840966E+01  0.59301924576E+02  0.49999964524E+02 0.  0.
         12    1    1    2    0    0  0.22364845041E+02  0.20536268819E+02 -0.97363840966E+01  0.31886075424E+02  0.00000000000E+00 0. -1.
         11    1    3    3    0    0 -0.32070914186E+00 -0.11797019150E+02 -0.74414674820E+01  0.13951629071E+02  0.51100000000E-03 0. -1.
        -11    1    3    3    0    0  0.15712049905E+00 -0.62741120924E+01 -0.89779335320E+01  0.10954107000E+02  0.51100000000E-03 0.  1.
        -12    1    3    3    0    0 -0.22201256398E+02 -0.24651375763E+01  0.26155785111E+02  0.34396188505E+02  0.00000000000E+00 0.  1.
</event>
<event>
 7    1  0.6164995E-012  0.5930195E+02  0.7816164E-02  0.1266605E+00
        -11   -1    0    0    0    0  0.00000000000E+00  0.00000000000E+00  0.45593999997E+02  0.45594000000E+02  0.51100000000E-03 0.  1.
         11   -1    0    0    0    0 -0.00000000000E+00 -0.00000000000E+00 -0.45593999997E+02  0.45594000000E+02  0.51100000000E-03 0. -1.
    9900012    2    1    2    0    0 -0.25772606434E+02 -0.10453239686E+02  0.15595605101E+02  0.59301947237E+02  0.50000005854E+02 0.  0.
         12    1    1    2    0    0  0.25772606434E+02  0.10453239686E+02 -0.15595605101E+02  0.31886052763E+02  0.00000000000E+00 0. -1.
         11    1    3    3    0    0 -0.10365576573E+02  0.86592163424E+01 -0.61581733858E+01  0.14844201058E+02  0.51100000000E-03 0. -1.
        -11    1    3    3    0    0 -0.23790573016E+02 -0.99983703133E+01  0.10985150365E+02  0.28046966007E+02  0.51100000000E-03 0.  1.
         12    1    3    3    0    0  0.83835431553E+01 -0.91140857149E+01  0.10768628121E+02  0.16410780172E+02  0.00000000000E+00 0. -1.
</event>
<event>
 7    1  0.6164995E-012  0.5930193E+02  0.7816164E-02  0.1266605E+00
        -11   -1    0    0    0    0  0.00000000000E+00  0.00000000000E+00  0.45593999997E+02  0.45594000000E+02  0.51100000000E-03 0.  1.
         11   -1    0    0    0    0 -0.00000000000E+00 -0.00000000000E+00 -0.45593999997E+02  0.45594000000E+02  0.51100000000E-03 0. -1.
    9900012    2    1    2    0    0 -0.11866167082E+02  0.14242539633E+02  0.25943513455E+02  0.59301925504E+02  0.49999966217E+02 0.  0.
         12    1    1    2    0    0  0.11866167082E+02 -0.14242539633E+02 -0.25943513455E+02  0.31886074496E+02  0.00000000000E+00 0. -1.
         11    1    3    3    0    0 -0.74941752986E+01  0.19234563280E+02 -0.29136223232E+01  0.20847548616E+02  0.51100000000E-03 0. -1.
        -11    1    3    3    0    0  0.84684527632E+01 -0.60143982147E+01  0.54326448741E+01  0.11721830432E+02  0.51100000000E-03 0.  1.
        -12    1    3    3    0    0 -0.12840444547E+02  0.10223745675E+01  0.23424490904E+02  0.26732546456E+02  0.00000000000E+00 0.  1.
</event>
<event>
 7    1  0.6164995E-012  0.5930197E+02  0.7816164E-02  0.1266605E+00
        -11   -1    0    0    0    0  0.00000000000E+00  0.00000000000E+00  0.45593999997E+02  0.45594000000E+02  0.51100000000E-03 0.  1.
         11   -1    0    0    0    0 -0.00000000000E+00 -0.00000000000E+00 -0.45593999997E+02  0.45594000000E+02  0.51100000000E-03 0. -1.
    9900012    2    1    2    0    0 -0.11861513686E+01 -0.23034818282E+02  0.22016116700E+02  0.59301965394E+02  0.50000038967E+02 0.  0.
         12    1    1    2    0    0  0.11861513686E+01  0.23034818282E+02 -0.22016116700E+02  0.31886034606E+02  0.00000000000E+00 0. -1.
         11    1    3    3    0    0 -0.12423563049E+01 -0.15663292329E+02 -0.11399218597E+02  0.19411964369E+02  0.51100000000E-03 0. -1.
        -11    1    3    3    0    0  0.25194838326E+01 -0.75289067241E+01  0.17516082625E+01  0.81302132204E+01  0.51100000000E-03 0.  1.
        -12    1    3    3    0    0 -0.24632788963E+01  0.15738077147E+00  0.31663727035E+02  0.31759787804E+02  0.00000000000E+00 0.  1.
</event>
<event>
 7    1  0.6164995E-012  0.5930194E+02  0.7816164E-02  0.1266605E+00
        -11   -1    0    0    0    0  0.00000000000E+00  0.00000000000E+00  0.45593999997E+02  0.45594000000E+02  0.51100000000E-03 0.  1.
         11   -1    0    0    0    0 -0.00000000000E+00 -0.00000000000E+00 -0.45593999997E+02  0.45594000000E+02  0.51100000000E-03 0. -1.
    9900012    2    1    2    0    0  0.29776953958E+02  0.10820821686E+02  0.36004890193E+01  0.59301942072E+02  0.49999996433E+02 0.  0.
         12    1    1    2    0    0 -0.29776953958E+02 -0.10820821686E+02 -0.36004890193E+01  0.31886057928E+02  0.00000000000E+00 0. -1.
         11    1    3    3    0    0  0.15488492524E+02  0.10404896392E+02  0.44015694672E-01  0.18658971227E+02  0.51100000000E-03 0. -1.
        -11    1    3    3    0    0  0.13565247605E+02  0.13151560955E+02 -0.10537319819E+02  0.21633645263E+02  0.51100000000E-03 0.  1.
         12    1    3    3    0    0  0.72321382945E+00 -0.12735635661E+02  0.14093793144E+02  0.19009325582E+02  0.00000000000E+00 0. -1.
</event>
<event>
 7    1  0.6164995E-012  0.5930195E+02  0.7816164E-02  0.1266605E+00
        -11   -1    0    0    0    0  0.00000000000E+00  0.00000000000E+00  0.45593999997E+02  0.45594000000E+02  0.51100000000E-03 0. -1.
         11   -1    0    0    0    0 -0.00000000000E+00 -0.00000000000E+00 -0.45593999997E+02  0.45594000000E+02  0.51100000000E-03 0.  1.
    9900012    2    1    2    0    0 -0.25865562243E+02 -0.16829889491E+02 -0.80279133621E+01  0.59301954723E+02  0.50000019506E+02 0.  0.
         12    1    1    2    0    0  0.25865562243E+02  0.16829889491E+02  0.80279133621E+01  0.31886045277E+02  0.00000000000E+00 0. -1.
         11    1    3    3    0    0 -0.22187648698E+02  0.73274803748E+01  0.53322423860E+01  0.23966988390E+02  0.51100000000E-03 0. -1.
        -11    1    3    3    0    0 -0.95733679333E+01 -0.21315218417E+01 -0.53199728901E+01  0.11157726953E+02  0.51100000000E-03 0.  1.
        -12    1    3    3    0    0  0.58954543876E+01 -0.22025848024E+02 -0.80401828580E+01  0.24177239380E+02  0.00000000000E+00 0.  1.
</event>
<event>
 7    1  0.6164995E-012  0.5930195E+02  0.7816164E-02  0.1266605E+00
        -11   -1    0    0    0    0  0.00000000000E+00  0.00000000000E+00  0.45593999997E+02  0.45594000000E+02  0.51100000000E-03 0.  1.
         11   -1    0    0    0    0 -0.00000000000E+00 -0.00000000000E+00 -0.45593999997E+02  0.45594000000E+02  0.51100000000E-03 0. -1.
    9900012    2    1    2    0    0 -0.30057064787E+02  0.71822706200E+01 -0.78554513076E+01  0.59301948659E+02  0.50000008446E+02 0.  0.
         12    1    1    2    0    0  0.30057064787E+02 -0.71822706200E+01  0.78554513076E+01  0.31886051341E+02  0.00000000000E+00 0. -1.
         11    1    3    3    0    0 -0.21025318066E+02 -0.43486236996E+01 -0.11658823467E+02  0.24431592105E+02  0.51100000000E-03 0. -1.
        -11    1    3    3    0    0 -0.16409572889E+02  0.69088785421E+01 -0.85549807518E+01  0.19753338478E+02  0.51100000000E-03 0.  1.
        -12    1    3    3    0    0  0.73778261680E+01  0.46220157775E+01  0.12358352912E+02  0.15117018076E+02  0.00000000000E+00 0.  1.
</event>
<event>
 7    1  0.6164995E-012  0.5930196E+02  0.7816164E-02  0.1266605E+00
        -11   -1    0    0    0    0  0.00000000000E+00  0.00000000000E+00  0.45593999997E+02  0.45594000000E+02  0.51100000000E-03 0.  1.
         11   -1    0    0    0    0 -0.00000000000E+00 -0.00000000000E+00 -0.45593999997E+02  0.45594000000E+02  0.51100000000E-03 0. -1.
    9900012    2    1    2    0    0 -0.28142315127E+02  0.60080360619E+01 -0.13734370962E+02  0.59301963185E+02  0.50000034939E+02 0.  0.
         12    1    1    2    0    0  0.28142315127E+02 -0.60080360619E+01  0.13734370962E+02  0.31886036815E+02  0.00000000000E+00 0. -1.
         11    1    3    3    0    0 -0.46892938034E+01  0.94772770718E+01 -0.14509231264E+02  0.17953441153E+02  0.51100000000E-03 0. -1.
        -11    1    3    3    0    0 -0.10618858585E+02 -0.17059761837E+02  0.75494865229E+01  0.21466028477E+02  0.51100000000E-03 0.  1.
         12    1    3    3    0    0 -0.12834162739E+02  0.13590520827E+02 -0.67746262205E+01  0.19882493555E+02  0.00000000000E+00 0. -1.
</event>
<event>
 7    1  0.6164995E-012  0.5930196E+02  0.7816164E-02  0.1266605E+00
        -11   -1    0    0    0    0  0.00000000000E+00  0.00000000000E+00  0.45593999997E+02  0.45594000000E+02  0.51100000000E-03 0.  1.
         11   -1    0    0    0    0 -0.00000000000E+00 -0.00000000000E+00 -0.45593999997E+02  0.45594000000E+02  0.51100000000E-03 0. -1.
    9900012    2    1    2    0    0  0.53175753593E+01  0.28852651264E+02  0.12488705292E+02  0.59301955207E+02  0.50000020389E+02 0.  0.
         12    1    1    2    0    0 -0.53175753593E+01 -0.28852651264E+02 -0.12488705292E+02  0.31886044793E+02  0.00000000000E+00 0. -1.
         11    1    3    3    0    0 -0.19153094228E+02  0.52874897383E+01  0.58315305235E+01  0.20707614898E+02  0.51100000000E-03 0. -1.
        -11    1    3    3    0    0 -0.15400197770E+01  0.69639015819E+01  0.68828155465E+00  0.71652856130E+01  0.51100000000E-03 0.  1.
        -12    1    3    3    0    0  0.26010689364E+02  0.16601259944E+02  0.59688932138E+01  0.31429054697E+02  0.00000000000E+00 0.  1.
</event>
<event>
 7    1  0.6164995E-012  0.5930194E+02  0.7816164E-02  0.1266605E+00
        -11   -1    0    0    0    0  0.00000000000E+00  0.00000000000E+00  0.45593999997E+02  0.45594000000E+02  0.51100000000E-03 0. -1.
         11   -1    0    0    0    0 -0.00000000000E+00 -0.00000000000E+00 -0.45593999997E+02  0.45594000000E+02  0.51100000000E-03 0.  1.
    9900012    2    1    2    0    0 -0.42791523206E+00 -0.31844050111E+02 -0.15793085309E+01  0.59301939498E+02  0.49999991739E+02 0.  0.
         12    1    1    2    0    0  0.42791523206E+00  0.31844050111E+02  0.15793085309E+01  0.31886060502E+02  0.00000000000E+00 0. -1.
         11    1    3    3    0    0  0.26906254128E+00 -0.67006016527E+01 -0.10055900518E+02  0.12086835510E+02  0.51100000000E-03 0.  1.
        -11    1    3    3    0    0  0.11980642208E+02  0.38757822426E+01 -0.39494594543E+01  0.13196806658E+02  0.51100000000E-03 0. -1.
         12    1    3    3    0    0 -0.12677619982E+02 -0.29019230700E+02  0.12426051441E+02  0.34018297330E+02  0.00000000000E+00 0. -1.
</event>
<event>
 7    1  0.6164995E-012  0.5930196E+02  0.7816164E-02  0.1266605E+00
        -11   -1    0    0    0    0  0.00000000000E+00  0.00000000000E+00  0.45593999997E+02  0.45594000000E+02  0.51100000000E-03 0.  1.
         11   -1    0    0    0    0 -0.00000000000E+00 -0.00000000000E+00 -0.45593999997E+02  0.45594000000E+02  0.51100000000E-03 0. -1.
    9900012    2    1    2    0    0 -0.41062326374E+01  0.13013355299E+02  0.28818591619E+02  0.59301956258E+02  0.50000022305E+02 0.  0.
         12    1    1    2    0    0  0.41062326374E+01 -0.13013355299E+02 -0.28818591619E+02  0.31886043742E+02  0.00000000000E+00 0. -1.
         11    1    3    3    0    0 -0.96254144687E+01 -0.55896306428E+01 -0.41298916700E+01  0.11872176712E+02  0.51100000000E-03 0. -1.
        -11    1    3    3    0    0 -0.29099029605E+01  0.91722244082E+01 -0.23736908989E+01  0.99111878491E+01  0.51100000000E-03 0.  1.
        -12    1    3    3    0    0  0.84290847918E+01  0.94307615337E+01  0.35322174188E+02  0.37518591697E+02  0.00000000000E+00 0.  1.
</event>
<event>
 7    1  0.6164995E-012  0.5930193E+02  0.7816164E-02  0.1266605E+00
        -11   -1    0    0    0    0  0.00000000000E+00  0.00000000000E+00  0.45593999997E+02  0.45594000000E+02  0.51100000000E-03 0.  1.
         11   -1    0    0    0    0 -0.00000000000E+00 -0.00000000000E+00 -0.45593999997E+02  0.45594000000E+02  0.51100000000E-03 0. -1.
    9900012    2    1    2    0    0 -0.31662200946E+02  0.15365036008E+01 -0.34446673299E+01  0.59301928667E+02  0.49999971985E+02 0.  0.
         12    1    1    2    0    0  0.31662200946E+02 -0.15365036008E+01  0.34446673299E+01  0.31886071333E+02  0.00000000000E+00 0. -1.
         11    1    3    3    0    0  0.45978335531E+01  0.20268204999E+01 -0.87372378001E+01  0.10079057464E+02  0.51100000000E-03 0. -1.
        -11    1    3    3    0    0 -0.12599214538E+02  0.12186218297E+01  0.18236356938E+02  0.22198872962E+02  0.51100000000E-03 0.  1.
         12    1    3    3    0    0 -0.23660819961E+02 -0.17089387287E+01 -0.12943786468E+02  0.27023998241E+02  0.00000000000E+00 0. -1.
</event>
<event>
 7    1  0.6164995E-012  0.5930194E+02  0.7816164E-02  0.1266605E+00
        -11   -1    0    0    0    0  0.00000000000E+00  0.00000000000E+00  0.45593999997E+02  0.45594000000E+02  0.51100000000E-03 0.  1.
         11   -1    0    0    0    0 -0.00000000000E+00 -0.00000000000E+00 -0.45593999997E+02  0.45594000000E+02  0.51100000000E-03 0. -1.
    9900012    2    1    2    0    0 -0.10087298422E+02 -0.17535477438E+02  0.24646990879E+02  0.59301941639E+02  0.49999995643E+02 0.  0.
         12    1    1    2    0    0  0.10087298422E+02  0.17535477438E+02 -0.24646990879E+02  0.31886058361E+02  0.00000000000E+00 0. -1.
         11    1    3    3    0    0 -0.24803009467E+02 -0.15668886651E+02  0.16427065778E+01  0.29383699098E+02  0.51100000000E-03 0. -1.
        -11    1    3    3    0    0  0.50354560941E+01 -0.65437005265E+01  0.11676213499E+02  0.14300692171E+02  0.51100000000E-03 0.  1.
        -12    1    3    3    0    0  0.96802549515E+01  0.46771097391E+01  0.11328070803E+02  0.15617550370E+02  0.00000000000E+00 0.  1.
</event>
<event>
 7    1  0.6164995E-012  0.5930195E+02  0.7816164E-02  0.1266605E+00
        -11   -1    0    0    0    0  0.00000000000E+00  0.00000000000E+00  0.45593999997E+02  0.45594000000E+02  0.51100000000E-03 0. -1.
         11   -1    0    0    0    0 -0.00000000000E+00 -0.00000000000E+00 -0.45593999997E+02  0.45594000000E+02  0.51100000000E-03 0.  1.
    9900012    2    1    2    0    0 -0.19609463173E+02  0.34271142249E+01 -0.24908719766E+02  0.59301945396E+02  0.50000002495E+02 0.  0.
         12    1    1    2    0    0  0.19609463173E+02 -0.34271142249E+01  0.24908719766E+02  0.31886054604E+02  0.00000000000E+00 0. -1.
         11    1    3    3    0    0 -0.32478234633E+01  0.56062637372E+01  0.40987598316E+01  0.76667061218E+01  0.51100000000E-03 0. -1.
        -11    1    3    3    0    0  0.94210870906E+01 -0.11848113082E+02 -0.11418625983E+02  0.18961004329E+02  0.51100000000E-03 0.  1.
         12    1    3    3    0    0 -0.25782726800E+02  0.96689635695E+01 -0.17588853615E+02  0.32674234945E+02  0.00000000000E+00 0. -1.
</event>
<event>
 7    1  0.6164995E-012  0.5930195E+02  0.7816164E-02  0.1266605E+00
        -11   -1    0    0    0    0  0.00000000000E+00  0.00000000000E+00  0.45593999997E+02  0.45594000000E+02  0.51100000000E-03 0.  1.
         11   -1    0    0    0    0 -0.00000000000E+00 -0.00000000000E+00 -0.45593999997E+02  0.45594000000E+02  0.51100000000E-03 0. -1.
    9900012    2    1    2    0    0 -0.12528167273E+01  0.14363121616E+02  0.28440317647E+02  0.59301945366E+02  0.50000002440E+02 0.  0.
         12    1    1    2    0    0  0.12528167273E+01 -0.14363121616E+02 -0.28440317647E+02  0.31886054634E+02  0.00000000000E+00 0. -1.
         11    1    3    3    0    0 -0.12575995063E+02  0.76956325349E+00  0.12710351106E+01  0.12663467532E+02  0.51100000000E-03 0. -1.
        -11    1    3    3    0    0  0.13973756714E+00  0.16298450972E+02 -0.87819692315E+00  0.16322691591E+02  0.51100000000E-03 0.  1.
        -12    1    3    3    0    0  0.11183440769E+02 -0.27048926096E+01  0.28047479459E+02  0.30315786242E+02  0.00000000000E+00 0.  1.
</event>
<event>
 7    1  0.6164995E-012  0.5930194E+02  0.7816164E-02  0.1266605E+00
        -11   -1    0    0    0    0  0.00000000000E+00  0.00000000000E+00  0.45593999997E+02  0.45594000000E+02  0.51100000000E-03 0. -1.
         11   -1    0    0    0    0 -0.00000000000E+00 -0.00000000000E+00 -0.45593999997E+02  0.45594000000E+02  0.51100000000E-03 0.  1.
    9900012    2    1    2    0    0 -0.94052459316E+01  0.38808637302E+01 -0.30219221651E+02  0.59301935465E+02  0.49999984384E+02 0.  0.
         12    1    1    2    0    0  0.94052459316E+01 -0.38808637302E+01  0.30219221651E+02  0.31886064535E+02  0.00000000000E+00 0. -1.
         11    1    3    3    0    0 -0.12561185270E+02  0.78812009630E+01 -0.13378946008E+02  0.19972303336E+02  0.51100000000E-03 0. -1.
        -11    1    3    3    0    0 -0.35753063197E+01  0.76099402460E+01 -0.23054823676E+02  0.24540148753E+02  0.51100000000E-03 0.  1.
        -12    1    3    3    0    0  0.67312456584E+01 -0.11610277479E+02  0.62145480335E+01  0.14789483375E+02  0.00000000000E+00 0.  1.
</event>
<event>
 7    1  0.6164995E-012  0.5930197E+02  0.7816164E-02  0.1266605E+00
        -11   -1    0    0    0    0  0.00000000000E+00  0.00000000000E+00  0.45593999997E+02  0.45594000000E+02  0.51100000000E-03 0.  1.
         11   -1    0    0    0    0 -0.00000000000E+00 -0.00000000000E+00 -0.45593999997E+02  0.45594000000E+02  0.51100000000E-03 0. -1.
    9900012    2    1    2    0    0  0.21104387123E+01  0.25736513595E+02  0.18705522567E+02  0.59301973937E+02  0.50000054547E+02 0.  0.
         12    1    1    2    0    0 -0.21104387123E+01 -0.25736513595E+02 -0.18705522567E+02  0.31886026063E+02  0.00000000000E+00 0. -1.
         11    1    3    3    0    0  0.13549435611E+02  0.15269791875E+02 -0.37868729948E+01  0.20762807050E+02  0.51100000000E-03 0. -1.
        -11    1    3    3    0    0  0.41315805853E+01  0.13903902816E+02  0.63008149583E+01  0.15814194291E+02  0.51100000000E-03 0.  1.
        -12    1    3    3    0    0 -0.15570577484E+02 -0.34371810959E+01  0.16191580603E+02  0.22724972596E+02  0.00000000000E+00 0.  1.
</event>
<event>
 7    1  0.6164995E-012  0.5930195E+02  0.7816164E-02  0.1266605E+00
        -11   -1    0    0    0    0  0.00000000000E+00  0.00000000000E+00  0.45593999997E+02  0.45594000000E+02  0.51100000000E-03 0. -1.
         11   -1    0    0    0    0 -0.00000000000E+00 -0.00000000000E+00 -0.45593999997E+02  0.45594000000E+02  0.51100000000E-03 0.  1.
    9900012    2    1    2    0    0  0.74205968781E+01 -0.28036590462E+02 -0.13251591744E+02  0.59301947461E+02  0.50000006262E+02 0.  0.
         12    1    1    2    0    0 -0.74205968781E+01  0.28036590462E+02  0.13251591744E+02  0.31886052539E+02  0.00000000000E+00 0. -1.
         11    1    3    3    0    0  0.64472422027E+01  0.43594161864E+01 -0.48340991415E+01  0.91618751507E+01  0.51100000000E-03 0. -1.
        -11    1    3    3    0    0  0.18513537570E+02 -0.12305948201E+02 -0.19322668371E+00  0.22231166665E+02  0.51100000000E-03 0.  1.
         12    1    3    3    0    0 -0.17540182895E+02 -0.20090058448E+02 -0.82242659185E+01  0.27908905645E+02  0.00000000000E+00 0. -1.
</event>
<event>
 7    1  0.6164995E-012  0.5930199E+02  0.7816164E-02  0.1266605E+00
        -11   -1    0    0    0    0  0.00000000000E+00  0.00000000000E+00  0.45593999997E+02  0.45594000000E+02  0.51100000000E-03 0. -1.
         11   -1    0    0    0    0 -0.00000000000E+00 -0.00000000000E+00 -0.45593999997E+02  0.45594000000E+02  0.51100000000E-03 0.  1.
    9900012    2    1    2    0    0  0.24742867208E+02  0.13555403737E+02 -0.14857976591E+02  0.59301985565E+02  0.50000075754E+02 0.  0.
         12    1    1    2    0    0 -0.24742867208E+02 -0.13555403737E+02  0.14857976591E+02  0.31886014435E+02  0.00000000000E+00 0. -1.
         11    1    3    3    0    0 -0.50817687676E+00 -0.51680481080E+01  0.36181856849E+00  0.52055622100E+01  0.51100000000E-03 0. -1.
        -11    1    3    3    0    0  0.26455620176E+02 -0.57883138106E+01 -0.51359592216E+01  0.27564152319E+02  0.51100000000E-03 0.  1.
        -12    1    3    3    0    0 -0.12045760912E+01  0.24511765656E+02 -0.10083835938E+02  0.26532271036E+02  0.00000000000E+00 0.  1.
</event>
<event>
 7    1  0.6164995E-012  0.5930183E+02  0.7816164E-02  0.1266605E+00
        -11   -1    0    0    0    0  0.00000000000E+00  0.00000000000E+00  0.45593999997E+02  0.45594000000E+02  0.51100000000E-03 0.  1.
         11   -1    0    0    0    0 -0.00000000000E+00 -0.00000000000E+00 -0.45593999997E+02  0.45594000000E+02  0.51100000000E-03 0. -1.
    9900012    2    1    2    0    0  0.21050618070E+02 -0.22165670477E+02  0.90709600834E+01  0.59301830810E+02  0.49999793517E+02 0.  0.
         12    1    1    2    0    0 -0.21050618070E+02  0.22165670477E+02 -0.90709600834E+01  0.31886169190E+02  0.00000000000E+00 0. -1.
         11    1    3    3    0    0  0.12356340117E+02  0.10543846916E+02  0.11289408601E+02  0.19781369915E+02  0.51100000000E-03 0. -1.
        -11    1    3    3    0    0  0.14201802070E+02 -0.14546492897E+02  0.56695777957E+00  0.20337479662E+02  0.51100000000E-03 0.  1.
        -12    1    3    3    0    0 -0.55075241169E+01 -0.18163024496E+02 -0.27854062975E+01  0.19182981233E+02  0.00000000000E+00 0.  1.
</event>
<event>
 7    1  0.6164995E-012  0.5930193E+02  0.7816164E-02  0.1266605E+00
        -11   -1    0    0    0    0  0.00000000000E+00  0.00000000000E+00  0.45593999997E+02  0.45594000000E+02  0.51100000000E-03 0. -1.
         11   -1    0    0    0    0 -0.00000000000E+00 -0.00000000000E+00 -0.45593999997E+02  0.45594000000E+02  0.51100000000E-03 0.  1.
    9900012    2    1    2    0    0  0.14748136269E+02 -0.33580354294E+01 -0.28070219858E+02  0.59301934576E+02  0.49999982762E+02 0.  0.
         12    1    1    2    0    0 -0.14748136269E+02  0.33580354294E+01  0.28070219858E+02  0.31886065424E+02  0.00000000000E+00 0. -1.
         11    1    3    3    0    0 -0.41838917539E+01 -0.17339235206E+01 -0.22563436565E+02  0.23013476722E+02  0.51100000000E-03 0. -1.
        -11    1    3    3    0    0  0.65877671738E+01  0.29428617533E+01 -0.17219195776E+02  0.18669756696E+02  0.51100000000E-03 0.  1.
         12    1    3    3    0    0  0.12344260849E+02 -0.45669736621E+01  0.11712412483E+02  0.17618701158E+02  0.00000000000E+00 0. -1.
</event>
<event>
 7    1  0.6164995E-012  0.5930196E+02  0.7816164E-02  0.1266605E+00
        -11   -1    0    0    0    0  0.00000000000E+00  0.00000000000E+00  0.45593999997E+02  0.45594000000E+02  0.51100000000E-03 0.  1.
         11   -1    0    0    0    0 -0.00000000000E+00 -0.00000000000E+00 -0.45593999997E+02  0.45594000000E+02  0.51100000000E-03 0. -1.
    9900012    2    1    2    0    0 -0.10216361801E+02  0.26475489775E+02  0.14539385677E+02  0.59301963195E+02  0.50000034957E+02 0.  0.
         12    1    1    2    0    0  0.10216361801E+02 -0.26475489775E+02 -0.14539385677E+02  0.31886036805E+02  0.00000000000E+00 0. -1.
         11    1    3    3    0    0 -0.82892094900E+01  0.26629452237E+01  0.13849071865E+02  0.16358455398E+02  0.51100000000E-03 0. -1.
        -11    1    3    3    0    0 -0.16169483635E+02  0.21835215619E+02  0.56152243085E+01  0.27744541561E+02  0.51100000000E-03 0.  1.
         12    1    3    3    0    0  0.14242331324E+02  0.19773289319E+01 -0.49249104961E+01  0.15198966236E+02  0.00000000000E+00 0. -1.
</event>
<event>
 7    1  0.6164995E-012  0.5930192E+02  0.7816164E-02  0.1266605E+00
        -11   -1    0    0    0    0  0.00000000000E+00  0.00000000000E+00  0.45593999997E+02  0.45594000000E+02  0.51100000000E-03 0. -1.
         11   -1    0    0    0    0 -0.00000000000E+00 -0.00000000000E+00 -0.45593999997E+02  0.45594000000E+02  0.51100000000E-03 0.  1.
    9900012    2    1    2    0    0  0.42609802379E+01  0.51776766468E+01 -0.31173030369E+02  0.59301919801E+02  0.49999955817E+02 0.  0.
         12    1    1    2    0    0 -0.42609802379E+01 -0.51776766468E+01  0.31173030369E+02  0.31886080199E+02  0.00000000000E+00 0. -1.
         11    1    3    3    0    0  0.13701653106E+02  0.49248846833E+01 -0.18901116852E+02  0.23858793044E+02  0.51100000000E-03 0. -1.
        -11    1    3    3    0    0  0.29241714166E+01 -0.12993772391E+02 -0.11006835861E+02  0.17278290869E+02  0.51100000000E-03 0.  1.
         12    1    3    3    0    0 -0.12364844285E+02  0.13246564354E+02 -0.12650776560E+01  0.18164835889E+02  0.00000000000E+00 0. -1.
</event>
<event>
 7    1  0.6164995E-012  0.5930193E+02  0.7816164E-02  0.1266605E+00
        -11   -1    0    0    0    0  0.00000000000E+00  0.00000000000E+00  0.45593999997E+02  0.45594000000E+02  0.51100000000E-03 0.  1.
         11   -1    0    0    0    0 -0.00000000000E+00 -0.00000000000E+00 -0.45593999997E+02  0.45594000000E+02  0.51100000000E-03 0. -1.
    9900012    2    1    2    0    0 -0.34566554615E+01  0.20661580504E+02  0.24038965204E+02  0.59301933702E+02  0.49999981169E+02 0.  0.
         12    1    1    2    0    0  0.34566554615E+01 -0.20661580504E+02 -0.24038965204E+02  0.31886066298E+02  0.00000000000E+00 0. -1.
         11    1    3    3    0    0 -0.19650926038E+02  0.19035250444E+02  0.17783644811E+02  0.32630624828E+02  0.51100000000E-03 0. -1.
        -11    1    3    3    0    0  0.54182037325E+01  0.94561970772E+01  0.75949405505E+01  0.13283814101E+02  0.51100000000E-03 0.  1.
        -12    1    3    3    0    0  0.10776066844E+02 -0.78298670176E+01 -0.13396201579E+01  0.13387494773E+02  0.00000000000E+00 0.  1.
</event>
<event>
 7    1  0.6164995E-012  0.5930195E+02  0.7816164E-02  0.1266605E+00
        -11   -1    0    0    0    0  0.00000000000E+00  0.00000000000E+00  0.45593999997E+02  0.45594000000E+02  0.51100000000E-03 0.  1.
         11   -1    0    0    0    0 -0.00000000000E+00 -0.00000000000E+00 -0.45593999997E+02  0.45594000000E+02  0.51100000000E-03 0. -1.
    9900012    2    1    2    0    0 -0.84676346916E+01  0.15811117936E+02  0.26363387173E+02  0.59301945511E+02  0.50000002705E+02 0.  0.
         12    1    1    2    0    0  0.84676346916E+01 -0.15811117936E+02 -0.26363387173E+02  0.31886054489E+02  0.00000000000E+00 0. -1.
         11    1    3    3    0    0 -0.15870636802E+02  0.15395063844E+02 -0.41379002619E+01  0.22494606511E+02  0.51100000000E-03 0. -1.
        -11    1    3    3    0    0 -0.52550853394E+00 -0.26405672130E+01 -0.19097722869E+01  0.33009066746E+01  0.51100000000E-03 0.  1.
        -12    1    3    3    0    0  0.79285106443E+01  0.30566213051E+01  0.32411059722E+02  0.33506432325E+02  0.00000000000E+00 0.  1.
</event>
<event>
 7    1  0.6164995E-012  0.5930194E+02  0.7816164E-02  0.1266605E+00
        -11   -1    0    0    0    0  0.00000000000E+00  0.00000000000E+00  0.45593999997E+02  0.45594000000E+02  0.51100000000E-03 0.  1.
         11   -1    0    0    0    0 -0.00000000000E+00 -0.00000000000E+00 -0.45593999997E+02  0.45594000000E+02  0.51100000000E-03 0. -1.
    9900012    2    1    2    0    0  0.16417867637E+02 -0.17613516150E+02  0.20903081213E+02  0.59301935127E+02  0.49999983766E+02 0.  0.
         12    1    1    2    0    0 -0.16417867637E+02  0.17613516150E+02 -0.20903081213E+02  0.31886064873E+02  0.00000000000E+00 0. -1.
         11    1    3    3    0    0  0.36090390483E+01 -0.22849096347E+01  0.99201014191E+01  0.10800666059E+02  0.51100000000E-03 0. -1.
        -11    1    3    3    0    0  0.16522308683E+02 -0.27912732882E+02  0.13513950589E+02  0.35138784867E+02  0.51100000000E-03 0.  1.
         12    1    3    3    0    0 -0.37134800947E+01  0.12584126367E+02 -0.25309707944E+01  0.13362484200E+02  0.00000000000E+00 0. -1.
</event>
<event>
 7    1  0.6164995E-012  0.5930194E+02  0.7816164E-02  0.1266605E+00
        -11   -1    0    0    0    0  0.00000000000E+00  0.00000000000E+00  0.45593999997E+02  0.45594000000E+02  0.51100000000E-03 0. -1.
         11   -1    0    0    0    0 -0.00000000000E+00 -0.00000000000E+00 -0.45593999997E+02  0.45594000000E+02  0.51100000000E-03 0.  1.
    9900012    2    1    2    0    0  0.40476201033E+01  0.31484753823E+02  0.30079448940E+01  0.59301942164E+02  0.49999996601E+02 0.  0.
         12    1    1    2    0    0 -0.40476201033E+01 -0.31484753823E+02 -0.30079448940E+01  0.31886057836E+02  0.00000000000E+00 0. -1.
         11    1    3    3    0    0  0.77468542904E+01 -0.62802238002E+01 -0.58257176763E+01  0.11549629824E+02  0.51100000000E-03 0. -1.
        -11    1    3    3    0    0 -0.26838313549E+01  0.43708707276E+01 -0.86410876347E+01  0.10048674412E+02  0.51100000000E-03 0.  1.
        -12    1    3    3    0    0 -0.10154028321E+01  0.33394106896E+02  0.17474750205E+02  0.37703637928E+02  0.00000000000E+00 0.  1.
</event>
<event>
 7    1  0.6164995E-012  0.5930195E+02  0.7816164E-02  0.1266605E+00
        -11   -1    0    0    0    0  0.00000000000E+00  0.00000000000E+00  0.45593999997E+02  0.45594000000E+02  0.51100000000E-03 0.  1.
         11   -1    0    0    0    0 -0.00000000000E+00 -0.00000000000E+00 -0.45593999997E+02  0.45594000000E+02  0.51100000000E-03 0. -1.
    9900012    2    1    2    0    0 -0.11025268365E+02 -0.17800390614E+02  0.24048064894E+02  0.59301954876E+02  0.50000019785E+02 0.  0.
         12    1    1    2    0    0  0.11025268365E+02  0.17800390614E+02 -0.24048064894E+02  0.31886045124E+02  0.00000000000E+00 0. -1.
         11    1    3    3    0    0 -0.10225399326E+02 -0.78952494753E+00  0.11491292823E+02  0.15402335927E+02  0.51100000000E-03 0.  1.
        -11    1    3    3    0    0  0.45961798811E+01 -0.67029313574E+01 -0.13276801173E+02  0.15566875343E+02  0.51100000000E-03 0. -1.
         12    1    3    3    0    0 -0.53960489200E+01 -0.10307934309E+02  0.25833573244E+02  0.28332743606E+02  0.00000000000E+00 0. -1.
</event>
<event>
 7    1  0.6164995E-012  0.5930195E+02  0.7816164E-02  0.1266605E+00
        -11   -1    0    0    0    0  0.00000000000E+00  0.00000000000E+00  0.45593999997E+02  0.45594000000E+02  0.51100000000E-03 0.  1.
         11   -1    0    0    0    0 -0.00000000000E+00 -0.00000000000E+00 -0.45593999997E+02  0.45594000000E+02  0.51100000000E-03 0. -1.
    9900012    2    1    2    0    0 -0.23222461265E+02  0.17857628273E+02  0.12591362671E+02  0.59301952760E+02  0.50000015925E+02 0.  0.
         12    1    1    2    0    0  0.23222461265E+02 -0.17857628273E+02 -0.12591362671E+02  0.31886047240E+02  0.00000000000E+00 0. -1.
         11    1    3    3    0    0  0.61464179790E+01 -0.47623584902E+00 -0.54419803948E+01  0.82231627391E+01  0.51100000000E-03 0. -1.
        -11    1    3    3    0    0 -0.11322708795E+02  0.18646704971E+02 -0.44323406464E+01  0.22260929554E+02  0.51100000000E-03 0.  1.
         12    1    3    3    0    0 -0.18046170448E+02 -0.31284084885E+00  0.22465683712E+02  0.28817860467E+02  0.00000000000E+00 0. -1.
</event>
<event>
 7    1  0.6164995E-012  0.5930201E+02  0.7816164E-02  0.1266605E+00
        -11   -1    0    0    0    0  0.00000000000E+00  0.00000000000E+00  0.45593999997E+02  0.45594000000E+02  0.51100000000E-03 0.  1.
         11   -1    0    0    0    0 -0.00000000000E+00 -0.00000000000E+00 -0.45593999997E+02  0.45594000000E+02  0.51100000000E-03 0. -1.
    9900012    2    1    2    0    0 -0.83402792348E+01 -0.14419063068E+02  0.27189095362E+02  0.59302007087E+02  0.50000115004E+02 0.  0.
         12    1    1    2    0    0  0.83402792348E+01  0.14419063068E+02 -0.27189095362E+02  0.31885992913E+02  0.00000000000E+00 0. -1.
         11    1    3    3    0    0  0.13009530680E+01  0.69850361925E+01  0.18818098337E+02  0.20114771557E+02  0.51100000000E-03 0. -1.
        -11    1    3    3    0    0 -0.51691578767E+00 -0.13213760122E+02  0.18872004419E+02  0.23043940842E+02  0.51100000000E-03 0.  1.
         12    1    3    3    0    0 -0.91243165152E+01 -0.81903391385E+01 -0.10501007394E+02  0.16143294688E+02  0.00000000000E+00 0. -1.
</event>
<event>
 7    1  0.6164995E-012  0.5930195E+02  0.7816164E-02  0.1266605E+00
        -11   -1    0    0    0    0  0.00000000000E+00  0.00000000000E+00  0.45593999997E+02  0.45594000000E+02  0.51100000000E-03 0.  1.
         11   -1    0    0    0    0 -0.00000000000E+00 -0.00000000000E+00 -0.45593999997E+02  0.45594000000E+02  0.51100000000E-03 0. -1.
    9900012    2    1    2    0    0 -0.15013122385E+02 -0.10533993211E+02  0.26083733518E+02  0.59301952723E+02  0.50000015858E+02 0.  0.
         12    1    1    2    0    0  0.15013122385E+02  0.10533993211E+02 -0.26083733518E+02  0.31886047277E+02  0.00000000000E+00 0. -1.
         11    1    3    3    0    0 -0.76243087435E+00 -0.14355297807E+01 -0.96228887348E+01  0.97592025521E+01  0.51100000000E-03 0. -1.
        -11    1    3    3    0    0 -0.11917028251E+02  0.92713094397E+01  0.11065809914E+02  0.18719639162E+02  0.51100000000E-03 0.  1.
        -12    1    3    3    0    0 -0.23336632596E+01 -0.18369772870E+02  0.24640812339E+02  0.30823111008E+02  0.00000000000E+00 0.  1.
</event>
<event>
 7    1  0.6164995E-012  0.5930191E+02  0.7816164E-02  0.1266605E+00
        -11   -1    0    0    0    0  0.00000000000E+00  0.00000000000E+00  0.45593999997E+02  0.45594000000E+02  0.51100000000E-03 0.  1.
         11   -1    0    0    0    0 -0.00000000000E+00 -0.00000000000E+00 -0.45593999997E+02  0.45594000000E+02  0.51100000000E-03 0. -1.
    9900012    2    1    2    0    0 -0.96378391894E+01 -0.25939534688E+02  0.15842197648E+02  0.59301911648E+02  0.49999940947E+02 0.  0.
         12    1    1    2    0    0  0.96378391894E+01  0.25939534688E+02 -0.15842197648E+02  0.31886088352E+02  0.00000000000E+00 0. -1.
         11    1    3    3    0    0 -0.62281117309E+01 -0.15754172084E+02  0.31614548136E+01  0.17233052851E+02  0.51100000000E-03 0. -1.
        -11    1    3    3    0    0 -0.65054174803E+01 -0.18193936814E+02  0.22078524064E+02  0.29339410670E+02  0.51100000000E-03 0.  1.
        -12    1    3    3    0    0  0.30956900218E+01  0.80085742090E+01 -0.93977812295E+01  0.12729448127E+02  0.00000000000E+00 0.  1.
</event>
<event>
 7    1  0.6164995E-012  0.5930193E+02  0.7816164E-02  0.1266605E+00
        -11   -1    0    0    0    0  0.00000000000E+00  0.00000000000E+00  0.45593999997E+02  0.45594000000E+02  0.51100000000E-03 0.  1.
         11   -1    0    0    0    0 -0.00000000000E+00 -0.00000000000E+00 -0.45593999997E+02  0.45594000000E+02  0.51100000000E-03 0. -1.
    9900012    2    1    2    0    0  0.26174306500E+02  0.33706078781E+01  0.17895982707E+02  0.59301929134E+02  0.49999972837E+02 0.  0.
         12    1    1    2    0    0 -0.26174306500E+02 -0.33706078781E+01 -0.17895982707E+02  0.31886070866E+02  0.00000000000E+00 0. -1.
         11    1    3    3    0    0 -0.70351013513E+00  0.23649731035E+01 -0.30278859071E+01  0.39059080401E+01  0.51100000000E-03 0. -1.
        -11    1    3    3    0    0  0.11344896526E+02 -0.21097941626E+02  0.67478060377E+01  0.24886998707E+02  0.51100000000E-03 0.  1.
         12    1    3    3    0    0  0.15532920109E+02  0.22103576401E+02  0.14176062577E+02  0.30509022387E+02  0.00000000000E+00 0. -1.
</event>
<event>
 7    1  0.6164995E-012  0.5930193E+02  0.7816164E-02  0.1266605E+00
        -11   -1    0    0    0    0  0.00000000000E+00  0.00000000000E+00  0.45593999997E+02  0.45594000000E+02  0.51100000000E-03 0. -1.
         11   -1    0    0    0    0 -0.00000000000E+00 -0.00000000000E+00 -0.45593999997E+02  0.45594000000E+02  0.51100000000E-03 0.  1.
    9900012    2    1    2    0    0 -0.15365601917E+02  0.27290019879E+02  0.59895130868E+01  0.59301934481E+02  0.49999982589E+02 0.  0.
         12    1    1    2    0    0  0.15365601917E+02 -0.27290019879E+02 -0.59895130868E+01  0.31886065519E+02  0.00000000000E+00 0. -1.
         11    1    3    3    0    0  0.79769085922E+00 -0.44934329270E+01  0.68973310672E+01  0.82704550230E+01  0.51100000000E-03 0. -1.
        -11    1    3    3    0    0  0.56924563715E+01  0.20794489214E+02  0.10568327757E+02  0.24010505889E+02  0.51100000000E-03 0.  1.
         12    1    3    3    0    0 -0.21855749148E+02  0.10988963592E+02 -0.11476145737E+02  0.27020973569E+02  0.00000000000E+00 0. -1.
</event>
<event>
 7    1  0.6164995E-012  0.5930200E+02  0.7816164E-02  0.1266605E+00
        -11   -1    0    0    0    0  0.00000000000E+00  0.00000000000E+00  0.45593999997E+02  0.45594000000E+02  0.51100000000E-03 0.  1.
         11   -1    0    0    0    0 -0.00000000000E+00 -0.00000000000E+00 -0.45593999997E+02  0.45594000000E+02  0.51100000000E-03 0. -1.
    9900012    2    1    2    0    0 -0.38716983976E+01 -0.30729457711E+02  0.75780870479E+01  0.59301999576E+02  0.50000101307E+02 0.  0.
         12    1    1    2    0    0  0.38716983976E+01  0.30729457711E+02 -0.75780870479E+01  0.31886000424E+02  0.00000000000E+00 0. -1.
         11    1    3    3    0    0 -0.35928025154E+01 -0.15781693607E+02  0.28321343068E+01  0.16431404932E+02  0.51100000000E-03 0. -1.
        -11    1    3    3    0    0  0.63662839830E+01 -0.20061333870E+02  0.17658951751E+02  0.27474083526E+02  0.51100000000E-03 0.  1.
         12    1    3    3    0    0 -0.66451798652E+01  0.51135697667E+01 -0.12912999010E+02  0.15396511119E+02  0.00000000000E+00 0. -1.
</event>
<event>
 7    1  0.6164995E-012  0.5930198E+02  0.7816164E-02  0.1266605E+00
        -11   -1    0    0    0    0  0.00000000000E+00  0.00000000000E+00  0.45593999997E+02  0.45594000000E+02  0.51100000000E-03 0.  1.
         11   -1    0    0    0    0 -0.00000000000E+00 -0.00000000000E+00 -0.45593999997E+02  0.45594000000E+02  0.51100000000E-03 0. -1.
    9900012    2    1    2    0    0 -0.15375046582E+00  0.30681466732E+02  0.86799776898E+01  0.59301983429E+02  0.50000071859E+02 0.  0.
         12    1    1    2    0    0  0.15375046582E+00 -0.30681466732E+02 -0.86799776898E+01  0.31886016571E+02  0.00000000000E+00 0. -1.
         11    1    3    3    0    0 -0.42122600899E+01  0.43269930054E+01 -0.14562828055E+02  0.15765213756E+02  0.51100000000E-03 0. -1.
        -11    1    3    3    0    0  0.37904580788E+01 -0.40778617633E+01  0.59122968622E+00  0.55987571666E+01  0.51100000000E-03 0.  1.
        -12    1    3    3    0    0  0.26805154531E+00  0.30432335490E+02  0.22651576059E+02  0.37938012507E+02  0.00000000000E+00 0.  1.
</event>
<event>
 7    1  0.6164995E-012  0.5930195E+02  0.7816164E-02  0.1266605E+00
        -11   -1    0    0    0    0  0.00000000000E+00  0.00000000000E+00  0.45593999997E+02  0.45594000000E+02  0.51100000000E-03 0.  1.
         11   -1    0    0    0    0 -0.00000000000E+00 -0.00000000000E+00 -0.45593999997E+02  0.45594000000E+02  0.51100000000E-03 0. -1.
    9900012    2    1    2    0    0  0.18616584902E+02  0.24936795999E+02  0.69497586717E+01  0.59301950171E+02  0.50000011205E+02 0.  0.
         12    1    1    2    0    0 -0.18616584902E+02 -0.24936795999E+02 -0.69497586717E+01  0.31886049829E+02  0.00000000000E+00 0. -1.
         11    1    3    3    0    0  0.10710784316E+02  0.82390802249E+00  0.40108157812E+01  0.11466750567E+02  0.51100000000E-03 0. -1.
        -11    1    3    3    0    0  0.64052373663E+01 -0.24637046813E+01 -0.14479657764E+02  0.16023651135E+02  0.51100000000E-03 0.  1.
         12    1    3    3    0    0  0.15005632198E+01  0.26576592657E+02  0.17418600654E+02  0.31811548469E+02  0.00000000000E+00 0. -1.
</event>
<event>
 7    1  0.6164995E-012  0.5930209E+02  0.7816164E-02  0.1266604E+00
        -11   -1    0    0    0    0  0.00000000000E+00  0.00000000000E+00  0.45593999997E+02  0.45594000000E+02  0.51100000000E-03 0. -1.
         11   -1    0    0    0    0 -0.00000000000E+00 -0.00000000000E+00 -0.45593999997E+02  0.45594000000E+02  0.51100000000E-03 0.  1.
    9900012    2    1    2    0    0 -0.28199664451E+02  0.14751130792E+02 -0.19734464689E+01  0.59302087346E+02  0.50000261378E+02 0.  0.
         12    1    1    2    0    0  0.28199664451E+02 -0.14751130792E+02  0.19734464689E+01  0.31885912654E+02  0.00000000000E+00 0. -1.
         11    1    3    3    0    0 -0.24680926436E+02  0.25357849907E+01 -0.11227521633E+02  0.27232986937E+02  0.51100000000E-03 0. -1.
        -11    1    3    3    0    0  0.37741277743E+00  0.11094223888E+01 -0.96932801956E+01  0.97638588505E+01  0.51100000000E-03 0.  1.
        -12    1    3    3    0    0 -0.38961507931E+01  0.11105923412E+02  0.18947355360E+02  0.22305241558E+02  0.00000000000E+00 0.  1.
</event>
<event>
 7    1  0.6164995E-012  0.5930193E+02  0.7816164E-02  0.1266605E+00
        -11   -1    0    0    0    0  0.00000000000E+00  0.00000000000E+00  0.45593999997E+02  0.45594000000E+02  0.51100000000E-03 0. -1.
         11   -1    0    0    0    0 -0.00000000000E+00 -0.00000000000E+00 -0.45593999997E+02  0.45594000000E+02  0.51100000000E-03 0.  1.
    9900012    2    1    2    0    0  0.34393532942E+01 -0.27196093665E+02 -0.16286949947E+02  0.59301930937E+02  0.49999976126E+02 0.  0.
         12    1    1    2    0    0 -0.34393532942E+01  0.27196093665E+02  0.16286949947E+02  0.31886069063E+02  0.00000000000E+00 0. -1.
         11    1    3    3    0    0 -0.65521561651E+01 -0.17681012344E+00 -0.24881993856E+01  0.70109306569E+01  0.51100000000E-03 0. -1.
        -11    1    3    3    0    0 -0.12722397450E+02  0.26841158420E+01 -0.26279988348E+01  0.13265377977E+02  0.51100000000E-03 0.  1.
         12    1    3    3    0    0  0.22713906910E+02 -0.29703399383E+02 -0.11170751727E+02  0.39025622303E+02  0.00000000000E+00 0. -1.
</event>
<event>
 7    1  0.6164995E-012  0.5930195E+02  0.7816164E-02  0.1266605E+00
        -11   -1    0    0    0    0  0.00000000000E+00  0.00000000000E+00  0.45593999997E+02  0.45594000000E+02  0.51100000000E-03 0.  1.
         11   -1    0    0    0    0 -0.00000000000E+00 -0.00000000000E+00 -0.45593999997E+02  0.45594000000E+02  0.51100000000E-03 0. -1.
    9900012    2    1    2    0    0  0.57767752192E+00  0.31441467008E+02  0.52745509101E+01  0.59301945898E+02  0.50000003410E+02 0.  0.
         12    1    1    2    0    0 -0.57767752192E+00 -0.31441467008E+02 -0.52745509101E+01  0.31886054102E+02  0.00000000000E+00 0. -1.
         11    1    3    3    0    0  0.52232955566E+01  0.72204136183E+01 -0.66213568183E+01  0.11102232013E+02  0.51100000000E-03 0. -1.
        -11    1    3    3    0    0  0.10787749209E+02 -0.36847401979E+01  0.11664133083E+02  0.16309654937E+02  0.51100000000E-03 0.  1.
        -12    1    3    3    0    0 -0.15433367243E+02  0.27905793587E+02  0.23177464534E+00  0.31890058948E+02  0.00000000000E+00 0.  1.
</event>
<event>
 7    1  0.6164995E-012  0.5930193E+02  0.7816164E-02  0.1266605E+00
        -11   -1    0    0    0    0  0.00000000000E+00  0.00000000000E+00  0.45593999997E+02  0.45594000000E+02  0.51100000000E-03 0.  1.
         11   -1    0    0    0    0 -0.00000000000E+00 -0.00000000000E+00 -0.45593999997E+02  0.45594000000E+02  0.51100000000E-03 0. -1.
    9900012    2    1    2    0    0  0.64024973503E+01  0.26915723981E+02  0.15851594780E+02  0.59301933657E+02  0.49999981086E+02 0.  0.
         12    1    1    2    0    0 -0.64024973503E+01 -0.26915723981E+02 -0.15851594780E+02  0.31886066343E+02  0.00000000000E+00 0. -1.
         11    1    3    3    0    0 -0.56899918867E+00 -0.90078009622E+01 -0.82104139572E+01  0.12201439909E+02  0.51100000000E-03 0. -1.
        -11    1    3    3    0    0  0.85593953911E+01  0.13674209761E+02  0.29734905990E+01  0.16403929671E+02  0.51100000000E-03 0.  1.
        -12    1    3    3    0    0 -0.15878988521E+01  0.22249315182E+02  0.21088518138E+02  0.30696564077E+02  0.00000000000E+00 0.  1.
</event>
<event>
 7    1  0.6164995E-012  0.5930194E+02  0.7816164E-02  0.1266605E+00
        -11   -1    0    0    0    0  0.00000000000E+00  0.00000000000E+00  0.45593999997E+02  0.45594000000E+02  0.51100000000E-03 0.  1.
         11   -1    0    0    0    0 -0.00000000000E+00 -0.00000000000E+00 -0.45593999997E+02  0.45594000000E+02  0.51100000000E-03 0. -1.
    9900012    2    1    2    0    0  0.16917666669E+02 -0.25750701248E+02  0.82106636000E+01  0.59301936320E+02  0.49999985943E+02 0.  0.
         12    1    1    2    0    0 -0.16917666669E+02  0.25750701248E+02 -0.82106636000E+01  0.31886063680E+02  0.00000000000E+00 0. -1.
         11    1    3    3    0    0 -0.82804637327E+01  0.37990187235E+00 -0.77528721907E+01  0.11349776761E+02  0.51100000000E-03 0. -1.
        -11    1    3    3    0    0  0.13732193271E+02 -0.65670344183E+01 -0.60204201235E+01  0.16369011326E+02  0.51100000000E-03 0.  1.
         12    1    3    3    0    0  0.11465937131E+02 -0.19563568702E+02  0.21983955914E+02  0.31583148232E+02  0.00000000000E+00 0. -1.
</event>
<event>
 7    1  0.6164995E-012  0.5930198E+02  0.7816164E-02  0.1266605E+00
        -11   -1    0    0    0    0  0.00000000000E+00  0.00000000000E+00  0.45593999997E+02  0.45594000000E+02  0.51100000000E-03 0.  1.
         11   -1    0    0    0    0 -0.00000000000E+00 -0.00000000000E+00 -0.45593999997E+02  0.45594000000E+02  0.51100000000E-03 0. -1.
    9900012    2    1    2    0    0 -0.28552681316E+02  0.12190988178E+01  0.14141302214E+02  0.59301980484E+02  0.50000066488E+02 0.  0.
         12    1    1    2    0    0  0.28552681316E+02 -0.12190988178E+01 -0.14141302214E+02  0.31886019516E+02  0.00000000000E+00 0. -1.
         11    1    3    3    0    0 -0.14655745254E+02 -0.47113538761E+01  0.82923387764E+01  0.17485725805E+02  0.51100000000E-03 0. -1.
        -11    1    3    3    0    0 -0.22153366717E+02  0.92734996610E+01  0.15577587598E+02  0.28625699791E+02  0.51100000000E-03 0.  1.
         12    1    3    3    0    0  0.82564306556E+01 -0.33430469671E+01 -0.97286241609E+01  0.13190554888E+02  0.00000000000E+00 0. -1.
</event>
<event>
 7    1  0.6164995E-012  0.5930193E+02  0.7816164E-02  0.1266605E+00
        -11   -1    0    0    0    0  0.00000000000E+00  0.00000000000E+00  0.45593999997E+02  0.45594000000E+02  0.51100000000E-03 0. -1.
         11   -1    0    0    0    0 -0.00000000000E+00 -0.00000000000E+00 -0.45593999997E+02  0.45594000000E+02  0.51100000000E-03 0.  1.
    9900012    2    1    2    0    0 -0.12182417929E+02  0.29132278215E+02  0.44295283807E+01  0.59301926829E+02  0.49999968634E+02 0.  0.
         12    1    1    2    0    0  0.12182417929E+02 -0.29132278215E+02 -0.44295283807E+01  0.31886073171E+02  0.00000000000E+00 0. -1.
         11    1    3    3    0    0  0.55805526682E+01  0.26540093544E+02  0.80061923715E+01  0.28277521991E+02  0.51100000000E-03 0. -1.
        -11    1    3    3    0    0  0.49207933905E+01  0.50513237650E+01  0.23804532835E+01  0.74428917409E+01  0.51100000000E-03 0.  1.
        -12    1    3    3    0    0 -0.22683763988E+02 -0.24591390937E+01 -0.59571172743E+01  0.23581513097E+02  0.00000000000E+00 0.  1.
</event>
<event>
 7    1  0.6164995E-012  0.5930196E+02  0.7816164E-02  0.1266605E+00
        -11   -1    0    0    0    0  0.00000000000E+00  0.00000000000E+00  0.45593999997E+02  0.45594000000E+02  0.51100000000E-03 0.  1.
         11   -1    0    0    0    0 -0.00000000000E+00 -0.00000000000E+00 -0.45593999997E+02  0.45594000000E+02  0.51100000000E-03 0. -1.
    9900012    2    1    2    0    0 -0.13587667577E+02  0.20636728467E+02  0.20154901637E+02  0.59301963370E+02  0.50000035276E+02 0.  0.
         12    1    1    2    0    0  0.13587667577E+02 -0.20636728467E+02 -0.20154901637E+02  0.31886036630E+02  0.00000000000E+00 0. -1.
         11    1    3    3    0    0 -0.60775586648E+01  0.84729793994E+01 -0.23178246299E+01  0.10681779370E+02  0.51100000000E-03 0. -1.
        -11    1    3    3    0    0 -0.62994953090E+01  0.26695104753E+02  0.92785987154E+01  0.28955218067E+02  0.51100000000E-03 0.  1.
        -12    1    3    3    0    0 -0.12106136029E+01 -0.14531355685E+02  0.13194127551E+02  0.19664965934E+02  0.00000000000E+00 0.  1.
</event>
<event>
 7    1  0.6164995E-012  0.5930196E+02  0.7816164E-02  0.1266605E+00
        -11   -1    0    0    0    0  0.00000000000E+00  0.00000000000E+00  0.45593999997E+02  0.45594000000E+02  0.51100000000E-03 0. -1.
         11   -1    0    0    0    0 -0.00000000000E+00 -0.00000000000E+00 -0.45593999997E+02  0.45594000000E+02  0.51100000000E-03 0.  1.
    9900012    2    1    2    0    0 -0.30317399557E+02 -0.92976499603E+01  0.33359186232E+01  0.59301962872E+02  0.50000034367E+02 0.  0.
         12    1    1    2    0    0  0.30317399557E+02  0.92976499603E+01 -0.33359186232E+01  0.31886037128E+02  0.00000000000E+00 0. -1.
         11    1    3    3    0    0  0.29759067156E+01 -0.45499133468E+01  0.61885375299E+01  0.82374589082E+01  0.51100000000E-03 0. -1.
        -11    1    3    3    0    0 -0.71547748547E+01 -0.10790689887E+02 -0.16493149964E+02  0.20967922821E+02  0.51100000000E-03 0.  1.
         12    1    3    3    0    0 -0.26138531418E+02  0.60429532737E+01  0.13640531057E+02  0.30096581142E+02  0.00000000000E+00 0. -1.
</event>
<event>
 7    1  0.6164995E-012  0.5930195E+02  0.7816164E-02  0.1266605E+00
        -11   -1    0    0    0    0  0.00000000000E+00  0.00000000000E+00  0.45593999997E+02  0.45594000000E+02  0.51100000000E-03 0. -1.
         11   -1    0    0    0    0 -0.00000000000E+00 -0.00000000000E+00 -0.45593999997E+02  0.45594000000E+02  0.51100000000E-03 0.  1.
    9900012    2    1    2    0    0 -0.31302253148E+02 -0.38096371861E+01 -0.47303085015E+01  0.59301949662E+02  0.50000010276E+02 0.  0.
         12    1    1    2    0    0  0.31302253148E+02  0.38096371861E+01  0.47303085015E+01  0.31886050338E+02  0.00000000000E+00 0. -1.
         11    1    3    3    0    0  0.92708311116E+01  0.49529525838E+01  0.97885882920E+00  0.10556429968E+02  0.51100000000E-03 0.  1.
        -11    1    3    3    0    0 -0.11357984567E+02  0.59071084618E+01  0.58436917241E+01  0.14072898672E+02  0.51100000000E-03 0. -1.
         12    1    3    3    0    0 -0.29215099693E+02 -0.14669698232E+02 -0.11552859055E+02  0.34672621023E+02  0.00000000000E+00 0. -1.
</event>
<event>
 7    1  0.6164995E-012  0.5930195E+02  0.7816164E-02  0.1266605E+00
        -11   -1    0    0    0    0  0.00000000000E+00  0.00000000000E+00  0.45593999997E+02  0.45594000000E+02  0.51100000000E-03 0.  1.
         11   -1    0    0    0    0 -0.00000000000E+00 -0.00000000000E+00 -0.45593999997E+02  0.45594000000E+02  0.51100000000E-03 0. -1.
    9900012    2    1    2    0    0 -0.22789311828E+02  0.77388724484E+01  0.20915960785E+02  0.59301948254E+02  0.50000007708E+02 0.  0.
         12    1    1    2    0    0  0.22789311828E+02 -0.77388724484E+01 -0.20915960785E+02  0.31886051746E+02  0.00000000000E+00 0. -1.
         11    1    3    3    0    0 -0.22257728997E+02  0.21041446626E+02  0.12873683537E+02  0.33224700214E+02  0.51100000000E-03 0. -1.
        -11    1    3    3    0    0  0.76549418086E+01  0.19090168602E+00 -0.12553267823E+01  0.77595375596E+01  0.51100000000E-03 0.  1.
        -12    1    3    3    0    0 -0.81865246392E+01 -0.13493475863E+02  0.92976040303E+01  0.18317710481E+02  0.00000000000E+00 0.  1.
</event>
<event>
 7    1  0.6164995E-012  0.5930197E+02  0.7816164E-02  0.1266605E+00
        -11   -1    0    0    0    0  0.00000000000E+00  0.00000000000E+00  0.45593999997E+02  0.45594000000E+02  0.51100000000E-03 0.  1.
         11   -1    0    0    0    0 -0.00000000000E+00 -0.00000000000E+00 -0.45593999997E+02  0.45594000000E+02  0.51100000000E-03 0. -1.
    9900012    2    1    2    0    0  0.89395995080E+01  0.15139758308E+02  0.26600569566E+02  0.59301968227E+02  0.50000044133E+02 0.  0.
         12    1    1    2    0    0 -0.89395995080E+01 -0.15139758308E+02 -0.26600569566E+02  0.31886031773E+02  0.00000000000E+00 0. -1.
         11    1    3    3    0    0  0.53967896482E+01 -0.50761321375E+01  0.90094222154E+01  0.11664567926E+02  0.51100000000E-03 0.  1.
        -11    1    3    3    0    0 -0.14710235717E+02 -0.12480811173E+01  0.11736267863E+02  0.18859711688E+02  0.51100000000E-03 0. -1.
        -12    1    3    3    0    0  0.18253045577E+02  0.21463971563E+02  0.58548794874E+01  0.28777688613E+02  0.00000000000E+00 0.  1.
</event>
<event>
 7    1  0.6164995E-012  0.5930189E+02  0.7816164E-02  0.1266605E+00
        -11   -1    0    0    0    0  0.00000000000E+00  0.00000000000E+00  0.45593999997E+02  0.45594000000E+02  0.51100000000E-03 0.  1.
         11   -1    0    0    0    0 -0.00000000000E+00 -0.00000000000E+00 -0.45593999997E+02  0.45594000000E+02  0.51100000000E-03 0. -1.
    9900012    2    1    2    0    0  0.23484446794E+02 -0.25255087505E+00  0.21567120495E+02  0.59301894725E+02  0.49999910084E+02 0.  0.
         12    1    1    2    0    0 -0.23484446794E+02  0.25255087505E+00 -0.21567120495E+02  0.31886105275E+02  0.00000000000E+00 0. -1.
         11    1    3    3    0    0  0.10069809666E+02 -0.72042903038E+01 -0.14120498937E+00  0.12382358604E+02  0.51100000000E-03 0. -1.
        -11    1    3    3    0    0  0.26312304931E+02  0.27760562039E+00  0.95950789993E+01  0.28008570062E+02  0.51100000000E-03 0.  1.
         12    1    3    3    0    0 -0.12897667804E+02  0.66741338084E+01  0.12113246485E+02  0.18910966059E+02  0.00000000000E+00 0. -1.
</event>
<event>
 7    1  0.6164995E-012  0.5930196E+02  0.7816164E-02  0.1266605E+00
        -11   -1    0    0    0    0  0.00000000000E+00  0.00000000000E+00  0.45593999997E+02  0.45594000000E+02  0.51100000000E-03 0.  1.
         11   -1    0    0    0    0 -0.00000000000E+00 -0.00000000000E+00 -0.45593999997E+02  0.45594000000E+02  0.51100000000E-03 0. -1.
    9900012    2    1    2    0    0  0.19102734311E+02  0.25056314970E+02 -0.48975656451E+01  0.59301960307E+02  0.50000029689E+02 0.  0.
         12    1    1    2    0    0 -0.19102734311E+02 -0.25056314970E+02  0.48975656451E+01  0.31886039693E+02  0.00000000000E+00 0. -1.
         11    1    3    3    0    0  0.69101769392E+01  0.21218053129E+02 -0.10286928532E+02  0.24571878699E+02  0.51100000000E-03 0. -1.
        -11    1    3    3    0    0 -0.61462885168E+01  0.52654137040E+01 -0.84578620601E+01  0.11706275022E+02  0.51100000000E-03 0.  1.
        -12    1    3    3    0    0  0.18338845889E+02 -0.14271518623E+01  0.13847224947E+02  0.23023806586E+02  0.00000000000E+00 0.  1.
</event>
<event>
 7    1  0.6164995E-012  0.5930195E+02  0.7816164E-02  0.1266605E+00
        -11   -1    0    0    0    0  0.00000000000E+00  0.00000000000E+00  0.45593999997E+02  0.45594000000E+02  0.51100000000E-03 0.  1.
         11   -1    0    0    0    0 -0.00000000000E+00 -0.00000000000E+00 -0.45593999997E+02  0.45594000000E+02  0.51100000000E-03 0. -1.
    9900012    2    1    2    0    0 -0.21272643666E+02  0.19888803990E+02  0.12985762540E+02  0.59301954126E+02  0.50000018417E+02 0.  0.
         12    1    1    2    0    0  0.21272643666E+02 -0.19888803990E+02 -0.12985762540E+02  0.31886045874E+02  0.00000000000E+00 0. -1.
         11    1    3    3    0    0 -0.38302779933E+01 -0.49571097275E+01  0.68161618071E+01  0.92576470228E+01  0.51100000000E-03 0. -1.
        -11    1    3    3    0    0 -0.20508936996E+02  0.93293107483E+01  0.19160373125E+02  0.29576552103E+02  0.51100000000E-03 0.  1.
        -12    1    3    3    0    0  0.30665713234E+01  0.15516602970E+02 -0.12990772392E+02  0.20467755000E+02  0.00000000000E+00 0.  1.
</event>
<event>
 7    1  0.6164995E-012  0.5930193E+02  0.7816164E-02  0.1266605E+00
        -11   -1    0    0    0    0  0.00000000000E+00  0.00000000000E+00  0.45593999997E+02  0.45594000000E+02  0.51100000000E-03 0.  1.
         11   -1    0    0    0    0 -0.00000000000E+00 -0.00000000000E+00 -0.45593999997E+02  0.45594000000E+02  0.51100000000E-03 0. -1.
    9900012    2    1    2    0    0 -0.22146356522E+02 -0.60909457666E+01  0.22116980313E+02  0.59301928657E+02  0.49999971967E+02 0.  0.
         12    1    1    2    0    0  0.22146356522E+02  0.60909457666E+01 -0.22116980313E+02  0.31886071343E+02  0.00000000000E+00 0. -1.
         11    1    3    3    0    0 -0.20008152742E+02  0.84101099854E+01  0.80649926360E+01  0.23153838399E+02  0.51100000000E-03 0. -1.
        -11    1    3    3    0    0 -0.11457640230E+02 -0.80116293978E+01  0.19141420806E+02  0.23703538047E+02  0.51100000000E-03 0.  1.
         12    1    3    3    0    0  0.93194364499E+01 -0.64894263542E+01 -0.50894331281E+01  0.12444552210E+02  0.00000000000E+00 0. -1.
</event>
<event>
 7    1  0.6164995E-012  0.5930199E+02  0.7816164E-02  0.1266605E+00
        -11   -1    0    0    0    0  0.00000000000E+00  0.00000000000E+00  0.45593999997E+02  0.45594000000E+02  0.51100000000E-03 0.  1.
         11   -1    0    0    0    0 -0.00000000000E+00 -0.00000000000E+00 -0.45593999997E+02  0.45594000000E+02  0.51100000000E-03 0. -1.
    9900012    2    1    2    0    0  0.16279265587E+02 -0.92166647010E+00  0.27401712015E+02  0.59301987730E+02  0.50000079702E+02 0.  0.
         12    1    1    2    0    0 -0.16279265587E+02  0.92166647010E+00 -0.27401712015E+02  0.31886012270E+02  0.00000000000E+00 0. -1.
         11    1    3    3    0    0 -0.24272722924E+01 -0.96350668278E+01  0.90500376406E+01  0.13439841707E+02  0.51100000000E-03 0. -1.
        -11    1    3    3    0    0  0.16742825132E+02 -0.68130351356E+01  0.23262284527E+02  0.29459693189E+02  0.51100000000E-03 0.  1.
        -12    1    3    3    0    0  0.19637127475E+01  0.15526435493E+02 -0.49106101521E+01  0.16402452833E+02  0.00000000000E+00 0.  1.
</event>
<event>
 7    1  0.6164995E-012  0.5930196E+02  0.7816164E-02  0.1266605E+00
        -11   -1    0    0    0    0  0.00000000000E+00  0.00000000000E+00  0.45593999997E+02  0.45594000000E+02  0.51100000000E-03 0.  1.
         11   -1    0    0    0    0 -0.00000000000E+00 -0.00000000000E+00 -0.45593999997E+02  0.45594000000E+02  0.51100000000E-03 0. -1.
    9900012    2    1    2    0    0  0.23302081453E+02 -0.18623331562E+02 -0.11265180798E+02  0.59301956393E+02  0.50000022551E+02 0.  0.
         12    1    1    2    0    0 -0.23302081453E+02  0.18623331562E+02  0.11265180798E+02  0.31886043607E+02  0.00000000000E+00 0. -1.
         11    1    3    3    0    0  0.16295744094E+02  0.10863517992E+02 -0.37755770353E+01  0.19945482720E+02  0.51100000000E-03 0. -1.
        -11    1    3    3    0    0  0.93364567300E+01 -0.12334399361E+02  0.68117482593E+01  0.16902862079E+02  0.51100000000E-03 0.  1.
         12    1    3    3    0    0 -0.23301193712E+01 -0.17152450194E+02 -0.14301352022E+02  0.22453611593E+02  0.00000000000E+00 0. -1.
</event>
<event>
 7    1  0.6164995E-012  0.5930194E+02  0.7816164E-02  0.1266605E+00
        -11   -1    0    0    0    0  0.00000000000E+00  0.00000000000E+00  0.45593999997E+02  0.45594000000E+02  0.51100000000E-03 0.  1.
         11   -1    0    0    0    0 -0.00000000000E+00 -0.00000000000E+00 -0.45593999997E+02  0.45594000000E+02  0.51100000000E-03 0. -1.
    9900012    2    1    2    0    0  0.48361098596E+01 -0.10612399999E+02  0.29676760713E+02  0.59301935352E+02  0.49999984178E+02 0.  0.
         12    1    1    2    0    0 -0.48361098596E+01  0.10612399999E+02 -0.29676760713E+02  0.31886064648E+02  0.00000000000E+00 0. -1.
         11    1    3    3    0    0 -0.46200706072E+00  0.41358247907E+01  0.13540706247E+01  0.43763003486E+01  0.51100000000E-03 0. -1.
        -11    1    3    3    0    0 -0.19161074396E+02 -0.78477077426E+01  0.73380224764E+01  0.21967700448E+02  0.51100000000E-03 0.  1.
        -12    1    3    3    0    0  0.24459191317E+02 -0.69005170469E+01  0.20984667612E+02  0.32957934556E+02  0.00000000000E+00 0.  1.
</event>
<event>
 7    1  0.6164995E-012  0.5930194E+02  0.7816164E-02  0.1266605E+00
        -11   -1    0    0    0    0  0.00000000000E+00  0.00000000000E+00  0.45593999997E+02  0.45594000000E+02  0.51100000000E-03 0. -1.
         11   -1    0    0    0    0 -0.00000000000E+00 -0.00000000000E+00 -0.45593999997E+02  0.45594000000E+02  0.51100000000E-03 0.  1.
    9900012    2    1    2    0    0  0.10336240524E+02 -0.25048285257E+02 -0.16806742087E+02  0.59301936554E+02  0.49999986369E+02 0.  0.
         12    1    1    2    0    0 -0.10336240524E+02  0.25048285257E+02  0.16806742087E+02  0.31886063446E+02  0.00000000000E+00 0. -1.
         11    1    3    3    0    0  0.68893484613E+01 -0.10604654030E+02  0.31000119736E+01  0.13020440999E+02  0.51100000000E-03 0. -1.
        -11    1    3    3    0    0 -0.53868678208E+01 -0.17565139215E+02  0.55196922087E+01  0.19183833373E+02  0.51100000000E-03 0.  1.
         12    1    3    3    0    0  0.88337598837E+01  0.31215079875E+01 -0.25426446269E+02  0.27097662181E+02  0.00000000000E+00 0. -1.
</event>
<event>
 7    1  0.6164995E-012  0.5930196E+02  0.7816164E-02  0.1266605E+00
        -11   -1    0    0    0    0  0.00000000000E+00  0.00000000000E+00  0.45593999997E+02  0.45594000000E+02  0.51100000000E-03 0.  1.
         11   -1    0    0    0    0 -0.00000000000E+00 -0.00000000000E+00 -0.45593999997E+02  0.45594000000E+02  0.51100000000E-03 0. -1.
    9900012    2    1    2    0    0 -0.26350329745E+02 -0.27153568396E+01  0.17748420917E+02  0.59301960963E+02  0.50000030886E+02 0.  0.
         12    1    1    2    0    0  0.26350329745E+02  0.27153568396E+01 -0.17748420917E+02  0.31886039037E+02  0.00000000000E+00 0. -1.
         11    1    3    3    0    0 -0.42433985904E+01 -0.37103111090E+01 -0.41968009710E+01  0.70275158324E+01  0.51100000000E-03 0. -1.
        -11    1    3    3    0    0 -0.16681916533E+02  0.20893138601E+02  0.10836510515E+02  0.28848562186E+02  0.51100000000E-03 0.  1.
         12    1    3    3    0    0 -0.54250146222E+01 -0.19898184332E+02  0.11108711372E+02  0.23425882944E+02  0.00000000000E+00 0. -1.
</event>
<event>
 7    1  0.6164995E-012  0.5930192E+02  0.7816164E-02  0.1266605E+00
        -11   -1    0    0    0    0  0.00000000000E+00  0.00000000000E+00  0.45593999997E+02  0.45594000000E+02  0.51100000000E-03 0.  1.
         11   -1    0    0    0    0 -0.00000000000E+00 -0.00000000000E+00 -0.45593999997E+02  0.45594000000E+02  0.51100000000E-03 0. -1.
    9900012    2    1    2    0    0  0.23435925707E+02  0.14782551348E+02  0.15778325721E+02  0.59301921523E+02  0.49999958957E+02 0.  0.
         12    1    1    2    0    0 -0.23435925707E+02 -0.14782551348E+02 -0.15778325721E+02  0.31886078477E+02  0.00000000000E+00 0. -1.
         11    1    3    3    0    0  0.73482733457E+00  0.10593829056E+02 -0.10634616620E+02  0.15028780928E+02  0.51100000000E-03 0.  1.
        -11    1    3    3    0    0  0.36923531044E+01 -0.80308025923E+01 -0.82999570665E+00  0.88778462962E+01  0.51100000000E-03 0. -1.
        -12    1    3    3    0    0  0.19008745268E+02  0.12219524884E+02  0.27242938047E+02  0.35395294298E+02  0.00000000000E+00 0.  1.
</event>
<event>
 7    1  0.6164995E-012  0.5930189E+02  0.7816164E-02  0.1266605E+00
        -11   -1    0    0    0    0  0.00000000000E+00  0.00000000000E+00  0.45593999997E+02  0.45594000000E+02  0.51100000000E-03 0. -1.
         11   -1    0    0    0    0 -0.00000000000E+00 -0.00000000000E+00 -0.45593999997E+02  0.45594000000E+02  0.51100000000E-03 0.  1.
    9900012    2    1    2    0    0 -0.18942885848E+02 -0.23182997406E+01 -0.25544408986E+02  0.59301885963E+02  0.49999894104E+02 0.  0.
         12    1    1    2    0    0  0.18942885848E+02  0.23182997406E+01  0.25544408986E+02  0.31886114037E+02  0.00000000000E+00 0. -1.
         11    1    3    3    0    0 -0.16328302774E+02  0.62667241364E+01 -0.16207201138E+01  0.17564510720E+02  0.51100000000E-03 0. -1.
        -11    1    3    3    0    0 -0.14513412547E+02  0.44543854560E+01 -0.16956667103E+02  0.22759816630E+02  0.51100000000E-03 0.  1.
        -12    1    3    3    0    0  0.11898829473E+02 -0.13039409333E+02 -0.69670217693E+01  0.18977558613E+02  0.00000000000E+00 0.  1.
</event>
<event>
 7    1  0.6164995E-012  0.5930193E+02  0.7816164E-02  0.1266605E+00
        -11   -1    0    0    0    0  0.00000000000E+00  0.00000000000E+00  0.45593999997E+02  0.45594000000E+02  0.51100000000E-03 0.  1.
         11   -1    0    0    0    0 -0.00000000000E+00 -0.00000000000E+00 -0.45593999997E+02  0.45594000000E+02  0.51100000000E-03 0. -1.
    9900012    2    1    2    0    0 -0.29174151944E+02  0.10624867912E+02  0.72596547183E+01  0.59301928646E+02  0.49999971947E+02 0.  0.
         12    1    1    2    0    0  0.29174151944E+02 -0.10624867912E+02 -0.72596547183E+01  0.31886071354E+02  0.00000000000E+00 0. -1.
         11    1    3    3    0    0 -0.11178479190E+01 -0.68792627446E+01  0.11446435328E+02  0.13401295529E+02  0.51100000000E-03 0. -1.
        -11    1    3    3    0    0 -0.33911649110E+02  0.84935118475E+01 -0.29388742181E+01  0.35082426808E+02  0.51100000000E-03 0.  1.
         12    1    3    3    0    0  0.58553450850E+01  0.90106188087E+01 -0.12479063911E+01  0.10818206309E+02  0.00000000000E+00 0. -1.
</event>
<event>
 7    1  0.6164995E-012  0.5930195E+02  0.7816164E-02  0.1266605E+00
        -11   -1    0    0    0    0  0.00000000000E+00  0.00000000000E+00  0.45593999997E+02  0.45594000000E+02  0.51100000000E-03 0. -1.
         11   -1    0    0    0    0 -0.00000000000E+00 -0.00000000000E+00 -0.45593999997E+02  0.45594000000E+02  0.51100000000E-03 0.  1.
    9900012    2    1    2    0    0  0.41340402896E+01  0.27110059266E+02 -0.16268831084E+02  0.59301945566E+02  0.50000002805E+02 0.  0.
         12    1    1    2    0    0 -0.41340402896E+01 -0.27110059266E+02  0.16268831084E+02  0.31886054434E+02  0.00000000000E+00 0. -1.
         11    1    3    3    0    0  0.94645073087E+01 -0.51418115047E+01 -0.59425305031E+01  0.12301576858E+02  0.51100000000E-03 0. -1.
        -11    1    3    3    0    0 -0.12964329030E+01 -0.17582816038E+01 -0.12493743302E+02  0.12683292729E+02  0.51100000000E-03 0.  1.
        -12    1    3    3    0    0 -0.40340341161E+01  0.34010152375E+02  0.21674427214E+01  0.34317075979E+02  0.00000000000E+00 0.  1.
</event>
<event>
 7    1  0.6164995E-012  0.5930190E+02  0.7816164E-02  0.1266605E+00
        -11   -1    0    0    0    0  0.00000000000E+00  0.00000000000E+00  0.45593999997E+02  0.45594000000E+02  0.51100000000E-03 0.  1.
         11   -1    0    0    0    0 -0.00000000000E+00 -0.00000000000E+00 -0.45593999997E+02  0.45594000000E+02  0.51100000000E-03 0. -1.
    9900012    2    1    2    0    0  0.87452795286E+01  0.20195992087E+02  0.23073040009E+02  0.59301902941E+02  0.49999925067E+02 0.  0.
         12    1    1    2    0    0 -0.87452795286E+01 -0.20195992087E+02 -0.23073040009E+02  0.31886097059E+02  0.00000000000E+00 0. -1.
         11    1    3    3    0    0 -0.10777000101E+02  0.75984274394E+00 -0.50739787164E+01  0.11935926962E+02  0.51100000000E-03 0. -1.
        -11    1    3    3    0    0  0.25811023542E+01  0.90794078745E+01 -0.34483480255E+01  0.10049320429E+02  0.51100000000E-03 0.  1.
        -12    1    3    3    0    0  0.16941177275E+02  0.10356741468E+02  0.31595366751E+02  0.37316655550E+02  0.00000000000E+00 0.  1.
</event>
<event>
 7    1  0.6164995E-012  0.5930199E+02  0.7816164E-02  0.1266605E+00
        -11   -1    0    0    0    0  0.00000000000E+00  0.00000000000E+00  0.45593999997E+02  0.45594000000E+02  0.51100000000E-03 0.  1.
         11   -1    0    0    0    0 -0.00000000000E+00 -0.00000000000E+00 -0.45593999997E+02  0.45594000000E+02  0.51100000000E-03 0. -1.
    9900012    2    1    2    0    0 -0.17725927725E+02 -0.26437664009E+02 -0.18865390012E+01  0.59301990194E+02  0.50000084195E+02 0.  0.
         12    1    1    2    0    0  0.17725927725E+02  0.26437664009E+02  0.18865390012E+01  0.31886009806E+02  0.00000000000E+00 0. -1.
         11    1    3    3    0    0  0.20307917384E+01  0.87178204767E+01  0.18872995881E-01  0.89512493765E+01  0.51100000000E-03 0. -1.
        -11    1    3    3    0    0  0.10568489795E+01 -0.27460829488E+02 -0.50417903364E+01  0.27939823478E+02  0.51100000000E-03 0.  1.
         12    1    3    3    0    0 -0.20813568443E+02 -0.76946549975E+01  0.31363783392E+01  0.22410917339E+02  0.00000000000E+00 0. -1.
</event>
<event>
 7    1  0.6164995E-012  0.5930194E+02  0.7816164E-02  0.1266605E+00
        -11   -1    0    0    0    0  0.00000000000E+00  0.00000000000E+00  0.45593999997E+02  0.45594000000E+02  0.51100000000E-03 0.  1.
         11   -1    0    0    0    0 -0.00000000000E+00 -0.00000000000E+00 -0.45593999997E+02  0.45594000000E+02  0.51100000000E-03 0. -1.
    9900012    2    1    2    0    0 -0.36005494335E+01 -0.20354292577E+02 -0.24278792005E+02  0.59301938409E+02  0.49999989753E+02 0.  0.
         12    1    1    2    0    0  0.36005494335E+01  0.20354292577E+02  0.24278792005E+02  0.31886061591E+02  0.00000000000E+00 0. -1.
         11    1    3    3    0    0 -0.10351115287E+02 -0.17398233871E+01 -0.82429496744E+01  0.13346115266E+02  0.51100000000E-03 0. -1.
        -11    1    3    3    0    0 -0.12727529387E+01 -0.64056485423E+00 -0.24491635247E+02  0.24533047522E+02  0.51100000000E-03 0.  1.
        -12    1    3    3    0    0  0.80233187919E+01 -0.17973904336E+02  0.84557929158E+01  0.21422775622E+02  0.00000000000E+00 0.  1.
</event>
<event>
 7    1  0.6164995E-012  0.5930203E+02  0.7816164E-02  0.1266604E+00
        -11   -1    0    0    0    0  0.00000000000E+00  0.00000000000E+00  0.45593999997E+02  0.45594000000E+02  0.51100000000E-03 0.  1.
         11   -1    0    0    0    0 -0.00000000000E+00 -0.00000000000E+00 -0.45593999997E+02  0.45594000000E+02  0.51100000000E-03 0. -1.
    9900012    2    1    2    0    0 -0.23517917134E+01 -0.31276964290E+02  0.57389739074E+01  0.59302027521E+02  0.50000152271E+02 0.  0.
         12    1    1    2    0    0  0.23517917134E+01  0.31276964290E+02 -0.57389739074E+01  0.31885972479E+02  0.00000000000E+00 0. -1.
         11    1    3    3    0    0 -0.83750407881E+01 -0.61955518653E+01  0.96719875008E+01  0.14215256368E+02  0.51100000000E-03 0. -1.
        -11    1    3    3    0    0  0.55030736070E+01 -0.15592223476E+02  0.15997165438E+02  0.23006750191E+02  0.51100000000E-03 0.  1.
         12    1    3    3    0    0  0.52017546770E+00 -0.94891889487E+01 -0.19930179032E+02  0.22080020962E+02  0.00000000000E+00 0. -1.
</event>
<event>
 7    1  0.6164995E-012  0.5930194E+02  0.7816164E-02  0.1266605E+00
        -11   -1    0    0    0    0  0.00000000000E+00  0.00000000000E+00  0.45593999997E+02  0.45594000000E+02  0.51100000000E-03 0.  1.
         11   -1    0    0    0    0 -0.00000000000E+00 -0.00000000000E+00 -0.45593999997E+02  0.45594000000E+02  0.51100000000E-03 0. -1.
    9900012    2    1    2    0    0 -0.25250591911E+02  0.17599091080E+02  0.83307050980E+01  0.59301936490E+02  0.49999986254E+02 0.  0.
         12    1    1    2    0    0  0.25250591911E+02 -0.17599091080E+02 -0.83307050980E+01  0.31886063510E+02  0.00000000000E+00 0. -1.
         11    1    3    3    0    0 -0.47448101357E+01  0.21744436072E+01  0.11043979171E+02  0.12215191542E+02  0.51100000000E-03 0. -1.
        -11    1    3    3    0    0 -0.30243345453E+01 -0.11114967252E+02  0.74536978141E+01  0.13720302760E+02  0.51100000000E-03 0.  1.
         12    1    3    3    0    0 -0.17481447230E+02  0.26539614725E+02 -0.10166971887E+02  0.33366442189E+02  0.00000000000E+00 0. -1.
</event>
<event>
 7    1  0.6164995E-012  0.5930194E+02  0.7816164E-02  0.1266605E+00
        -11   -1    0    0    0    0  0.00000000000E+00  0.00000000000E+00  0.45593999997E+02  0.45594000000E+02  0.51100000000E-03 0.  1.
         11   -1    0    0    0    0 -0.00000000000E+00 -0.00000000000E+00 -0.45593999997E+02  0.45594000000E+02  0.51100000000E-03 0. -1.
    9900012    2    1    2    0    0 -0.30211136334E+01  0.29516739947E+02  0.11677141925E+02  0.59301941790E+02  0.49999995918E+02 0.  0.
         12    1    1    2    0    0  0.30211136334E+01 -0.29516739947E+02 -0.11677141925E+02  0.31886058210E+02  0.00000000000E+00 0. -1.
         11    1    3    3    0    0 -0.14176208593E+02 -0.42098024516E+01  0.21038570042E+00  0.14789577044E+02  0.51100000000E-03 0. -1.
        -11    1    3    3    0    0 -0.24250960691E+01 -0.18040090640E+00  0.73665790528E+01  0.77575848454E+01  0.51100000000E-03 0.  1.
         12    1    3    3    0    0  0.13580191029E+02  0.33906943305E+02  0.41001771716E+01  0.36754779900E+02  0.00000000000E+00 0. -1.
</event>
<event>
 7    1  0.6164995E-012  0.5930191E+02  0.7816164E-02  0.1266605E+00
        -11   -1    0    0    0    0  0.00000000000E+00  0.00000000000E+00  0.45593999997E+02  0.45594000000E+02  0.51100000000E-03 0.  1.
         11   -1    0    0    0    0 -0.00000000000E+00 -0.00000000000E+00 -0.45593999997E+02  0.45594000000E+02  0.51100000000E-03 0. -1.
    9900012    2    1    2    0    0  0.23117393919E+02  0.19499091408E+02  0.10104176830E+02  0.59301908099E+02  0.49999934474E+02 0.  0.
         12    1    1    2    0    0 -0.23117393919E+02 -0.19499091408E+02 -0.10104176830E+02  0.31886091901E+02  0.00000000000E+00 0. -1.
         11    1    3    3    0    0  0.20221883768E+02  0.12362189095E+01  0.27106739667E+01  0.20440170594E+02  0.51100000000E-03 0. -1.
        -11    1    3    3    0    0  0.16603679739E+02  0.99660541235E+01 -0.32354899725E+01  0.19633461521E+02  0.51100000000E-03 0.  1.
         12    1    3    3    0    0 -0.13708169588E+02  0.82968183749E+01  0.10628992836E+02  0.19228275984E+02  0.00000000000E+00 0. -1.
</event>
<event>
 7    1  0.6164995E-012  0.5930205E+02  0.7816164E-02  0.1266604E+00
        -11   -1    0    0    0    0  0.00000000000E+00  0.00000000000E+00  0.45593999997E+02  0.45594000000E+02  0.51100000000E-03 0. -1.
         11   -1    0    0    0    0 -0.00000000000E+00 -0.00000000000E+00 -0.45593999997E+02  0.45594000000E+02  0.51100000000E-03 0.  1.
    9900012    2    1    2    0    0  0.15211526526E+02 -0.27832220541E+02  0.32696643067E+01  0.59302050991E+02  0.50000195075E+02 0.  0.
         12    1    1    2    0    0 -0.15211526526E+02  0.27832220541E+02 -0.32696643067E+01  0.31885949009E+02  0.00000000000E+00 0. -1.
         11    1    3    3    0    0  0.30208547932E+02 -0.22244682317E+02  0.31265077637E+01  0.37645149895E+02  0.51100000000E-03 0. -1.
        -11    1    3    3    0    0 -0.41446711962E+00  0.41168237026E+01  0.15299584933E+00  0.41404623392E+01  0.51100000000E-03 0.  1.
        -12    1    3    3    0    0 -0.14582554286E+02 -0.97043619270E+01 -0.98393063607E-02  0.17516438757E+02  0.00000000000E+00 0.  1.
</event>
<event>
 7    1  0.6164995E-012  0.5930197E+02  0.7816164E-02  0.1266605E+00
        -11   -1    0    0    0    0  0.00000000000E+00  0.00000000000E+00  0.45593999997E+02  0.45594000000E+02  0.51100000000E-03 0.  1.
         11   -1    0    0    0    0 -0.00000000000E+00 -0.00000000000E+00 -0.45593999997E+02  0.45594000000E+02  0.51100000000E-03 0. -1.
    9900012    2    1    2    0    0 -0.28146017134E+02  0.25979773482E+01  0.14757065739E+02  0.59301972401E+02  0.50000051746E+02 0.  0.
         12    1    1    2    0    0  0.28146017134E+02 -0.25979773482E+01 -0.14757065739E+02  0.31886027599E+02  0.00000000000E+00 0. -1.
         11    1    3    3    0    0 -0.13649640634E+02 -0.52793355815E+01 -0.14266925086E+02  0.20438425215E+02  0.51100000000E-03 0. -1.
        -11    1    3    3    0    0  0.86931604149E+00  0.89079577040E+01  0.47931524961E+01  0.10152917411E+02  0.51100000000E-03 0.  1.
        -12    1    3    3    0    0 -0.15365692542E+02 -0.10306447743E+01  0.24230838329E+02  0.28710629775E+02  0.00000000000E+00 0.  1.
</event>
<event>
 7    1  0.6164995E-012  0.5930198E+02  0.7816164E-02  0.1266605E+00
        -11   -1    0    0    0    0  0.00000000000E+00  0.00000000000E+00  0.45593999997E+02  0.45594000000E+02  0.51100000000E-03 0. -1.
         11   -1    0    0    0    0 -0.00000000000E+00 -0.00000000000E+00 -0.45593999997E+02  0.45594000000E+02  0.51100000000E-03 0.  1.
    9900012    2    1    2    0    0 -0.28928487160E+02 -0.87703013279E+01 -0.10146063139E+02  0.59301981873E+02  0.50000069021E+02 0.  0.
         12    1    1    2    0    0  0.28928487160E+02  0.87703013279E+01  0.10146063139E+02  0.31886018127E+02  0.00000000000E+00 0. -1.
         11    1    3    3    0    0 -0.18688180298E+02  0.13856203573E+02 -0.67313574297E+01  0.24218869367E+02  0.51100000000E-03 0. -1.
        -11    1    3    3    0    0 -0.10892513171E+02 -0.83151259018E+01  0.87753491965E+01  0.16272520263E+02  0.51100000000E-03 0.  1.
        -12    1    3    3    0    0  0.65220630916E+00 -0.14311378999E+02 -0.12190054906E+02  0.18810592243E+02  0.00000000000E+00 0.  1.
</event>
<event>
 7    1  0.6164995E-012  0.5930193E+02  0.7816164E-02  0.1266605E+00
        -11   -1    0    0    0    0  0.00000000000E+00  0.00000000000E+00  0.45593999997E+02  0.45594000000E+02  0.51100000000E-03 0. -1.
         11   -1    0    0    0    0 -0.00000000000E+00 -0.00000000000E+00 -0.45593999997E+02  0.45594000000E+02  0.51100000000E-03 0.  1.
    9900012    2    1    2    0    0 -0.29703923776E+02  0.11003499509E+02  0.36498102465E+01  0.59301934015E+02  0.49999981739E+02 0.  0.
         12    1    1    2    0    0  0.29703923776E+02 -0.11003499509E+02 -0.36498102465E+01  0.31886065985E+02  0.00000000000E+00 0. -1.
         11    1    3    3    0    0 -0.48248183862E+01  0.15059716845E+02  0.80204765652E+01  0.17731384281E+02  0.51100000000E-03 0. -1.
        -11    1    3    3    0    0  0.73700805157E+01  0.35862725501E+01 -0.10058649656E+01  0.82577964495E+01  0.51100000000E-03 0.  1.
         12    1    3    3    0    0 -0.32249185906E+02 -0.76424898860E+01 -0.33648013531E+01  0.33312753285E+02  0.00000000000E+00 0. -1.
</event>
<event>
 7    1  0.6164995E-012  0.5930192E+02  0.7816164E-02  0.1266605E+00
        -11   -1    0    0    0    0  0.00000000000E+00  0.00000000000E+00  0.45593999997E+02  0.45594000000E+02  0.51100000000E-03 0.  1.
         11   -1    0    0    0    0 -0.00000000000E+00 -0.00000000000E+00 -0.45593999997E+02  0.45594000000E+02  0.51100000000E-03 0. -1.
    9900012    2    1    2    0    0 -0.76351180104E+01 -0.23975550579E+02  0.19585709807E+02  0.59301920259E+02  0.49999956651E+02 0.  0.
         12    1    1    2    0    0  0.76351180104E+01  0.23975550579E+02 -0.19585709807E+02  0.31886079741E+02  0.00000000000E+00 0. -1.
         11    1    3    3    0    0 -0.11290483342E+02 -0.63726076932E+01  0.15858704128E+02  0.20483740864E+02  0.51100000000E-03 0. -1.
        -11    1    3    3    0    0  0.48403704861E+01 -0.22046677085E+02  0.14689016333E+02  0.26930509799E+02  0.51100000000E-03 0.  1.
         12    1    3    3    0    0 -0.11850051550E+01  0.44437341990E+01 -0.10962010654E+02  0.11887669596E+02  0.00000000000E+00 0. -1.
</event>
<event>
 7    1  0.6164995E-012  0.5930194E+02  0.7816164E-02  0.1266605E+00
        -11   -1    0    0    0    0  0.00000000000E+00  0.00000000000E+00  0.45593999997E+02  0.45594000000E+02  0.51100000000E-03 0. -1.
         11   -1    0    0    0    0 -0.00000000000E+00 -0.00000000000E+00 -0.45593999997E+02  0.45594000000E+02  0.51100000000E-03 0.  1.
    9900012    2    1    2    0    0  0.12974770727E+02  0.28753443081E+02 -0.46492882825E+01  0.59301936493E+02  0.49999986259E+02 0.  0.
         12    1    1    2    0    0 -0.12974770727E+02 -0.28753443081E+02  0.46492882825E+01  0.31886063507E+02  0.00000000000E+00 0. -1.
         11    1    3    3    0    0  0.94804880957E+01  0.27861367039E+01 -0.14547519898E+02  0.17586146472E+02  0.51100000000E-03 0. -1.
        -11    1    3    3    0    0  0.33370765027E+01  0.29318257339E+02 -0.17840005906E+01  0.29561443662E+02  0.51100000000E-03 0.  1.
         12    1    3    3    0    0  0.15720612894E+00 -0.33509509624E+01  0.11682232206E+02  0.12154346360E+02  0.00000000000E+00 0. -1.
</event>
<event>
 7    1  0.6164995E-012  0.5930196E+02  0.7816164E-02  0.1266605E+00
        -11   -1    0    0    0    0  0.00000000000E+00  0.00000000000E+00  0.45593999997E+02  0.45594000000E+02  0.51100000000E-03 0.  1.
         11   -1    0    0    0    0 -0.00000000000E+00 -0.00000000000E+00 -0.45593999997E+02  0.45594000000E+02  0.51100000000E-03 0. -1.
    9900012    2    1    2    0    0 -0.10449595932E+02 -0.14005633199E+02  0.26671474820E+02  0.59301962530E+02  0.50000033744E+02 0.  0.
         12    1    1    2    0    0  0.10449595932E+02  0.14005633199E+02 -0.26671474820E+02  0.31886037470E+02  0.00000000000E+00 0. -1.
         11    1    3    3    0    0 -0.69829677036E+01 -0.12468131626E+02  0.15414593824E+01  0.14373316996E+02  0.51100000000E-03 0. -1.
        -11    1    3    3    0    0 -0.71487993718E+01 -0.17771457109E+02  0.19554289881E+02  0.27373349690E+02  0.51100000000E-03 0.  1.
         12    1    3    3    0    0  0.36821711431E+01  0.16233955536E+02  0.55757255575E+01  0.17555295844E+02  0.00000000000E+00 0. -1.
</event>
<event>
 7    1  0.6164995E-012  0.5930196E+02  0.7816164E-02  0.1266605E+00
        -11   -1    0    0    0    0  0.00000000000E+00  0.00000000000E+00  0.45593999997E+02  0.45594000000E+02  0.51100000000E-03 0. -1.
         11   -1    0    0    0    0 -0.00000000000E+00 -0.00000000000E+00 -0.45593999997E+02  0.45594000000E+02  0.51100000000E-03 0.  1.
    9900012    2    1    2    0    0  0.27775840684E+02 -0.12788641207E+02  0.90373156139E+01  0.59301956923E+02  0.50000023518E+02 0.  0.
         12    1    1    2    0    0 -0.27775840684E+02  0.12788641207E+02 -0.90373156139E+01  0.31886043077E+02  0.00000000000E+00 0. -1.
         11    1    3    3    0    0 -0.13903033911E+01 -0.31598717967E+01 -0.45813919827E+01  0.57364523925E+01  0.51100000000E-03 0. -1.
        -11    1    3    3    0    0 -0.80378879681E+01  0.60001822364E+01  0.79849300377E+01  0.12820644985E+02  0.51100000000E-03 0.  1.
         12    1    3    3    0    0  0.37204032043E+02 -0.15628951646E+02  0.56337775590E+01  0.40744859546E+02  0.00000000000E+00 0. -1.
</event>
<event>
 7    1  0.6164995E-012  0.5930193E+02  0.7816164E-02  0.1266605E+00
        -11   -1    0    0    0    0  0.00000000000E+00  0.00000000000E+00  0.45593999997E+02  0.45594000000E+02  0.51100000000E-03 0. -1.
         11   -1    0    0    0    0 -0.00000000000E+00 -0.00000000000E+00 -0.45593999997E+02  0.45594000000E+02  0.51100000000E-03 0.  1.
    9900012    2    1    2    0    0 -0.31786427826E+01 -0.29233613190E+02 -0.12329367401E+02  0.59301933911E+02  0.49999981550E+02 0.  0.
         12    1    1    2    0    0  0.31786427826E+01  0.29233613190E+02  0.12329367401E+02  0.31886066089E+02  0.00000000000E+00 0. -1.
         11    1    3    3    0    0 -0.75371901755E+01 -0.39953052906E+01 -0.10280159685E+02  0.13358644524E+02  0.51100000000E-03 0. -1.
        -11    1    3    3    0    0 -0.23695258560E+01 -0.26279775110E+02 -0.15689326158E+02  0.30698472082E+02  0.51100000000E-03 0.  1.
        -12    1    3    3    0    0  0.67280732488E+01  0.10414672105E+01  0.13640118441E+02  0.15244817306E+02  0.00000000000E+00 0.  1.
</event>
<event>
 7    1  0.6164995E-012  0.5930189E+02  0.7816164E-02  0.1266605E+00
        -11   -1    0    0    0    0  0.00000000000E+00  0.00000000000E+00  0.45593999997E+02  0.45594000000E+02  0.51100000000E-03 0.  1.
         11   -1    0    0    0    0 -0.00000000000E+00 -0.00000000000E+00 -0.45593999997E+02  0.45594000000E+02  0.51100000000E-03 0. -1.
    9900012    2    1    2    0    0 -0.11452333493E+02 -0.74703608321E+01  0.28805586326E+02  0.59301889591E+02  0.49999900721E+02 0.  0.
         12    1    1    2    0    0  0.11452333493E+02  0.74703608321E+01 -0.28805586326E+02  0.31886110409E+02  0.00000000000E+00 0. -1.
         11    1    3    3    0    0 -0.15702279085E+01  0.34702948202E+01  0.51966195662E+00  0.38442958568E+01  0.51100000000E-03 0. -1.
        -11    1    3    3    0    0 -0.85503312105E+01 -0.35527721461E+01  0.40267636419E+02  0.41318432893E+02  0.51100000000E-03 0.  1.
         12    1    3    3    0    0 -0.13317743736E+01 -0.73878835062E+01 -0.11981712049E+02  0.14139160841E+02  0.00000000000E+00 0. -1.
</event>
<event>
 7    1  0.6164995E-012  0.5930202E+02  0.7816164E-02  0.1266605E+00
        -11   -1    0    0    0    0  0.00000000000E+00  0.00000000000E+00  0.45593999997E+02  0.45594000000E+02  0.51100000000E-03 0.  1.
         11   -1    0    0    0    0 -0.00000000000E+00 -0.00000000000E+00 -0.45593999997E+02  0.45594000000E+02  0.51100000000E-03 0. -1.
    9900012    2    1    2    0    0 -0.15152967652E+02  0.25985383918E+02  0.10576550037E+02  0.59302015356E+02  0.50000130086E+02 0.  0.
         12    1    1    2    0    0  0.15152967652E+02 -0.25985383918E+02 -0.10576550037E+02  0.31885984644E+02  0.00000000000E+00 0. -1.
         11    1    3    3    0    0 -0.22160676180E+02  0.22375474859E+02 -0.30914035746E+01  0.31643549426E+02  0.51100000000E-03 0. -1.
        -11    1    3    3    0    0 -0.31462088903E-01  0.10417677562E+02  0.14473376161E+02  0.17832767968E+02  0.51100000000E-03 0.  1.
        -12    1    3    3    0    0  0.70391706170E+01 -0.68077685035E+01 -0.80542254902E+00  0.98256979627E+01  0.00000000000E+00 0.  1.
</event>
<event>
 7    1  0.6164995E-012  0.5930188E+02  0.7816164E-02  0.1266605E+00
        -11   -1    0    0    0    0  0.00000000000E+00  0.00000000000E+00  0.45593999997E+02  0.45594000000E+02  0.51100000000E-03 0. -1.
         11   -1    0    0    0    0 -0.00000000000E+00 -0.00000000000E+00 -0.45593999997E+02  0.45594000000E+02  0.51100000000E-03 0.  1.
    9900012    2    1    2    0    0  0.99310459902E+00  0.23243250941E+02 -0.21805730869E+02  0.59301876533E+02  0.49999876905E+02 0.  0.
         12    1    1    2    0    0 -0.99310459902E+00 -0.23243250941E+02  0.21805730869E+02  0.31886123467E+02  0.00000000000E+00 0. -1.
         11    1    3    3    0    0  0.21913110690E+02  0.86141276135E+01 -0.16727896421E+02  0.28882696093E+02  0.51100000000E-03 0. -1.
        -11    1    3    3    0    0  0.12866958394E+01  0.10872237048E+01  0.27778859026E+01  0.32487369725E+01  0.51100000000E-03 0.  1.
        -12    1    3    3    0    0 -0.22206701930E+02  0.13541899623E+02 -0.78557203503E+01  0.27170443468E+02  0.00000000000E+00 0.  1.
</event>
<event>
 7    1  0.6164995E-012  0.5930194E+02  0.7816164E-02  0.1266605E+00
        -11   -1    0    0    0    0  0.00000000000E+00  0.00000000000E+00  0.45593999997E+02  0.45594000000E+02  0.51100000000E-03 0.  1.
         11   -1    0    0    0    0 -0.00000000000E+00 -0.00000000000E+00 -0.45593999997E+02  0.45594000000E+02  0.51100000000E-03 0. -1.
    9900012    2    1    2    0    0  0.20868002818E+02  0.16223906673E+02  0.17833456535E+02  0.59301939388E+02  0.49999991539E+02 0.  0.
         12    1    1    2    0    0 -0.20868002818E+02 -0.16223906673E+02 -0.17833456535E+02  0.31886060612E+02  0.00000000000E+00 0. -1.
         11    1    3    3    0    0  0.86535427757E+01  0.20292473967E+01  0.23659610406E+02  0.25274073918E+02  0.51100000000E-03 0.  1.
        -11    1    3    3    0    0  0.25785152899E+01 -0.84514933439E+01 -0.25712299204E+01  0.92025922656E+01  0.51100000000E-03 0. -1.
        -12    1    3    3    0    0  0.96359447522E+01  0.22646152621E+02 -0.32549239503E+01  0.24825273205E+02  0.00000000000E+00 0.  1.
</event>
<event>
 7    1  0.6164995E-012  0.5930195E+02  0.7816164E-02  0.1266605E+00
        -11   -1    0    0    0    0  0.00000000000E+00  0.00000000000E+00  0.45593999997E+02  0.45594000000E+02  0.51100000000E-03 0. -1.
         11   -1    0    0    0    0 -0.00000000000E+00 -0.00000000000E+00 -0.45593999997E+02  0.45594000000E+02  0.51100000000E-03 0.  1.
    9900012    2    1    2    0    0  0.28100414086E+01 -0.29990814525E+02 -0.10458247637E+02  0.59301949253E+02  0.50000009530E+02 0.  0.
         12    1    1    2    0    0 -0.28100414086E+01  0.29990814525E+02  0.10458247637E+02  0.31886050747E+02  0.00000000000E+00 0. -1.
         11    1    3    3    0    0  0.58000207471E+01 -0.11198867465E+02  0.32534781000E+01  0.13024591862E+02  0.51100000000E-03 0. -1.
        -11    1    3    3    0    0  0.15694388030E+02 -0.14342270452E+02 -0.16442963826E+02  0.26877231944E+02  0.51100000000E-03 0.  1.
        -12    1    3    3    0    0 -0.18684367368E+02 -0.44496766073E+01  0.27312380881E+01  0.19400125447E+02  0.00000000000E+00 0.  1.
</event>
<event>
 7    1  0.6164995E-012  0.5930194E+02  0.7816164E-02  0.1266605E+00
        -11   -1    0    0    0    0  0.00000000000E+00  0.00000000000E+00  0.45593999997E+02  0.45594000000E+02  0.51100000000E-03 0.  1.
         11   -1    0    0    0    0 -0.00000000000E+00 -0.00000000000E+00 -0.45593999997E+02  0.45594000000E+02  0.51100000000E-03 0. -1.
    9900012    2    1    2    0    0 -0.17457946290E+02  0.41559408435E+01  0.26356581551E+02  0.59301935269E+02  0.49999984027E+02 0.  0.
         12    1    1    2    0    0  0.17457946290E+02 -0.41559408435E+01 -0.26356581551E+02  0.31886064731E+02  0.00000000000E+00 0. -1.
         11    1    3    3    0    0 -0.49434589580E+00  0.17403757493E+02  0.26528954647E+01  0.17611729254E+02  0.51100000000E-03 0. -1.
        -11    1    3    3    0    0  0.36860072482E+01 -0.37438830632E+01 -0.34440853389E+01  0.62821201762E+01  0.51100000000E-03 0.  1.
        -12    1    3    3    0    0 -0.20649607643E+02 -0.95039335859E+01  0.27147771425E+02  0.35408085839E+02  0.00000000000E+00 0.  1.
</event>
<event>
 7    1  0.6164995E-012  0.5930196E+02  0.7816164E-02  0.1266605E+00
        -11   -1    0    0    0    0  0.00000000000E+00  0.00000000000E+00  0.45593999997E+02  0.45594000000E+02  0.51100000000E-03 0. -1.
         11   -1    0    0    0    0 -0.00000000000E+00 -0.00000000000E+00 -0.45593999997E+02  0.45594000000E+02  0.51100000000E-03 0.  1.
    9900012    2    1    2    0    0  0.14034218558E+02  0.67553488736E+01 -0.27823109669E+02  0.59301961353E+02  0.50000031598E+02 0.  0.
         12    1    1    2    0    0 -0.14034218558E+02 -0.67553488736E+01  0.27823109669E+02  0.31886038647E+02  0.00000000000E+00 0. -1.
         11    1    3    3    0    0  0.10419542579E+02  0.33278414564E+01  0.24309881652E+01  0.11204958725E+02  0.51100000000E-03 0.  1.
        -11    1    3    3    0    0 -0.26740787853E+01  0.10859647341E+02  0.44622451189E+01  0.12041356630E+02  0.51100000000E-03 0. -1.
        -12    1    3    3    0    0  0.62887547644E+01 -0.74321399240E+01 -0.34716342953E+02  0.36055645999E+02  0.00000000000E+00 0.  1.
</event>
<event>
 7    1  0.6164995E-012  0.5930195E+02  0.7816164E-02  0.1266605E+00
        -11   -1    0    0    0    0  0.00000000000E+00  0.00000000000E+00  0.45593999997E+02  0.45594000000E+02  0.51100000000E-03 0. -1.
         11   -1    0    0    0    0 -0.00000000000E+00 -0.00000000000E+00 -0.45593999997E+02  0.45594000000E+02  0.51100000000E-03 0.  1.
    9900012    2    1    2    0    0 -0.24856896503E+02  0.63688224900E+01 -0.18928628635E+02  0.59301949983E+02  0.50000010861E+02 0.  0.
         12    1    1    2    0    0  0.24856896503E+02 -0.63688224900E+01  0.18928628635E+02  0.31886050017E+02  0.00000000000E+00 0. -1.
         11    1    3    3    0    0  0.17609065302E+01 -0.73152409774E+01  0.62927490607E+01  0.98087834805E+01  0.51100000000E-03 0. -1.
        -11    1    3    3    0    0 -0.21863889042E+02  0.14553323791E+02 -0.26360119611E+01  0.26396542136E+02  0.51100000000E-03 0.  1.
         12    1    3    3    0    0 -0.47539139914E+01 -0.86926032355E+00 -0.22585365735E+02  0.23096624366E+02  0.00000000000E+00 0. -1.
</event>
<event>
 7    1  0.6164995E-012  0.5930193E+02  0.7816164E-02  0.1266605E+00
        -11   -1    0    0    0    0  0.00000000000E+00  0.00000000000E+00  0.45593999997E+02  0.45594000000E+02  0.51100000000E-03 0.  1.
         11   -1    0    0    0    0 -0.00000000000E+00 -0.00000000000E+00 -0.45593999997E+02  0.45594000000E+02  0.51100000000E-03 0. -1.
    9900012    2    1    2    0    0 -0.86152421308E+01  0.17293942152E+02  0.25365697918E+02  0.59301929954E+02  0.49999974333E+02 0.  0.
         12    1    1    2    0    0  0.86152421308E+01 -0.17293942152E+02 -0.25365697918E+02  0.31886070046E+02  0.00000000000E+00 0. -1.
         11    1    3    3    0    0  0.82051633593E+01 -0.30164580047E+01  0.17101182613E+02  0.19206097252E+02  0.51100000000E-03 0. -1.
        -11    1    3    3    0    0  0.34838420099E+01  0.16912371518E+02  0.90478052059E+01  0.19494313140E+02  0.51100000000E-03 0.  1.
         12    1    3    3    0    0 -0.20304247500E+02  0.33980286386E+01 -0.78328990074E+00  0.20601519561E+02  0.00000000000E+00 0. -1.
</event>
<event>
 7    1  0.6164995E-012  0.5930194E+02  0.7816164E-02  0.1266605E+00
        -11   -1    0    0    0    0  0.00000000000E+00  0.00000000000E+00  0.45593999997E+02  0.45594000000E+02  0.51100000000E-03 0.  1.
         11   -1    0    0    0    0 -0.00000000000E+00 -0.00000000000E+00 -0.45593999997E+02  0.45594000000E+02  0.51100000000E-03 0. -1.
    9900012    2    1    2    0    0  0.71325881823E+01  0.17213340982E+02  0.25875626084E+02  0.59301938042E+02  0.49999989084E+02 0.  0.
         12    1    1    2    0    0 -0.71325881823E+01 -0.17213340982E+02 -0.25875626084E+02  0.31886061958E+02  0.00000000000E+00 0. -1.
         11    1    3    3    0    0 -0.35253207110E+01  0.10562821567E+02 -0.86479317515E+01  0.14099213078E+02  0.51100000000E-03 0. -1.
        -11    1    3    3    0    0 -0.16538757500E+00  0.11472548367E+02  0.35035180171E+01  0.11996722796E+02  0.51100000000E-03 0.  1.
         12    1    3    3    0    0  0.10823296468E+02 -0.48220289527E+01  0.31020039819E+02  0.33206002168E+02  0.00000000000E+00 0. -1.
</event>
<event>
 7    1  0.6164995E-012  0.5930195E+02  0.7816164E-02  0.1266605E+00
        -11   -1    0    0    0    0  0.00000000000E+00  0.00000000000E+00  0.45593999997E+02  0.45594000000E+02  0.51100000000E-03 0.  1.
         11   -1    0    0    0    0 -0.00000000000E+00 -0.00000000000E+00 -0.45593999997E+02  0.45594000000E+02  0.51100000000E-03 0. -1.
    9900012    2    1    2    0    0 -0.31207877802E+02 -0.65402824090E+01 -0.11514944088E+00  0.59301949911E+02  0.50000010729E+02 0.  0.
         12    1    1    2    0    0  0.31207877802E+02  0.65402824090E+01  0.11514944088E+00  0.31886050089E+02  0.00000000000E+00 0. -1.
         11    1    3    3    0    0 -0.50729126703E+01 -0.34577331871E+01 -0.66109299544E+01  0.90219042822E+01  0.51100000000E-03 0. -1.
        -11    1    3    3    0    0 -0.29416651187E+02  0.12915711713E+02  0.98591752369E+01  0.33605926750E+02  0.51100000000E-03 0.  1.
         12    1    3    3    0    0  0.32816860556E+01 -0.15998260935E+02 -0.33633947234E+01  0.16674118878E+02  0.00000000000E+00 0. -1.
</event>
<event>
 7    1  0.6164995E-012  0.5930194E+02  0.7816164E-02  0.1266605E+00
        -11   -1    0    0    0    0  0.00000000000E+00  0.00000000000E+00  0.45593999997E+02  0.45594000000E+02  0.51100000000E-03 0.  1.
         11   -1    0    0    0    0 -0.00000000000E+00 -0.00000000000E+00 -0.45593999997E+02  0.45594000000E+02  0.51100000000E-03 0. -1.
    9900012    2    1    2    0    0 -0.19468957245E+02 -0.24898412225E+02  0.42130438688E+01  0.59301937744E+02  0.49999988540E+02 0.  0.
         12    1    1    2    0    0  0.19468957245E+02  0.24898412225E+02 -0.42130438688E+01  0.31886062256E+02  0.00000000000E+00 0. -1.
         11    1    3    3    0    0  0.44852147749E+01 -0.10498278769E+02  0.50028135506E+01  0.12464315158E+02  0.51100000000E-03 0.  1.
        -11    1    3    3    0    0 -0.23422238075E+02 -0.57837289463E+01 -0.16279592667E+02  0.29104602637E+02  0.51100000000E-03 0. -1.
         12    1    3    3    0    0 -0.53193394445E+00 -0.86164045106E+01  0.15489822985E+02  0.17733019949E+02  0.00000000000E+00 0. -1.
</event>
<event>
 7    1  0.6164995E-012  0.5930196E+02  0.7816164E-02  0.1266605E+00
        -11   -1    0    0    0    0  0.00000000000E+00  0.00000000000E+00  0.45593999997E+02  0.45594000000E+02  0.51100000000E-03 0.  1.
         11   -1    0    0    0    0 -0.00000000000E+00 -0.00000000000E+00 -0.45593999997E+02  0.45594000000E+02  0.51100000000E-03 0. -1.
    9900012    2    1    2    0    0  0.15772956204E+02  0.16246881361E+02  0.22449330501E+02  0.59301956951E+02  0.50000023569E+02 0.  0.
         12    1    1    2    0    0 -0.15772956204E+02 -0.16246881361E+02 -0.22449330501E+02  0.31886043049E+02  0.00000000000E+00 0. -1.
         11    1    3    3    0    0  0.14975695825E+02  0.15538274602E+02  0.32939635143E+01  0.21830245966E+02  0.51100000000E-03 0. -1.
        -11    1    3    3    0    0  0.14043776697E+02 -0.68070447963E+01  0.42806808250E+01  0.16182946313E+02  0.51100000000E-03 0.  1.
         12    1    3    3    0    0 -0.13246516318E+02  0.75156515555E+01  0.14874686162E+02  0.21288764673E+02  0.00000000000E+00 0. -1.
</event>
<event>
 7    1  0.6164995E-012  0.5930199E+02  0.7816164E-02  0.1266605E+00
        -11   -1    0    0    0    0  0.00000000000E+00  0.00000000000E+00  0.45593999997E+02  0.45594000000E+02  0.51100000000E-03 0.  1.
         11   -1    0    0    0    0 -0.00000000000E+00 -0.00000000000E+00 -0.45593999997E+02  0.45594000000E+02  0.51100000000E-03 0. -1.
    9900012    2    1    2    0    0  0.12795267525E+02 -0.11243187418E+02  0.26955318806E+02  0.59301994507E+02  0.50000092062E+02 0.  0.
         12    1    1    2    0    0 -0.12795267525E+02  0.11243187418E+02 -0.26955318806E+02  0.31886005493E+02  0.00000000000E+00 0. -1.
         11    1    3    3    0    0 -0.11420176365E+01 -0.89816455287E-01 -0.11422456008E+02  0.11479754910E+02  0.51100000000E-03 0. -1.
        -11    1    3    3    0    0  0.79623808937E+01  0.62337058642E+01  0.14770445413E+02  0.17900409388E+02  0.51100000000E-03 0.  1.
        -12    1    3    3    0    0  0.59749042675E+01 -0.17387076827E+02  0.23607329402E+02  0.29921830209E+02  0.00000000000E+00 0.  1.
</event>
<event>
 7    1  0.6164995E-012  0.5930184E+02  0.7816164E-02  0.1266605E+00
        -11   -1    0    0    0    0  0.00000000000E+00  0.00000000000E+00  0.45593999997E+02  0.45594000000E+02  0.51100000000E-03 0. -1.
         11   -1    0    0    0    0 -0.00000000000E+00 -0.00000000000E+00 -0.45593999997E+02  0.45594000000E+02  0.51100000000E-03 0.  1.
    9900012    2    1    2    0    0  0.26805681747E+02 -0.63744698574E+01 -0.16048320263E+02  0.59301842766E+02  0.49999815323E+02 0.  0.
         12    1    1    2    0    0 -0.26805681747E+02  0.63744698574E+01  0.16048320263E+02  0.31886157234E+02  0.00000000000E+00 0. -1.
         11    1    3    3    0    0  0.56823890068E+01 -0.78050709891E+00  0.48404961659E+01  0.75052741155E+01  0.51100000000E-03 0. -1.
        -11    1    3    3    0    0  0.26843754096E+02  0.10197553983E+02 -0.59649996779E+01  0.29328458238E+02  0.51100000000E-03 0.  1.
         12    1    3    3    0    0 -0.57204613558E+01 -0.15791516741E+02 -0.14923816751E+02  0.22468110413E+02  0.00000000000E+00 0. -1.
</event>
<event>
 7    1  0.6164995E-012  0.5930195E+02  0.7816164E-02  0.1266605E+00
        -11   -1    0    0    0    0  0.00000000000E+00  0.00000000000E+00  0.45593999997E+02  0.45594000000E+02  0.51100000000E-03 0.  1.
         11   -1    0    0    0    0 -0.00000000000E+00 -0.00000000000E+00 -0.45593999997E+02  0.45594000000E+02  0.51100000000E-03 0. -1.
    9900012    2    1    2    0    0  0.29083395327E+02  0.50477373221E+00  0.13062224820E+02  0.59301946662E+02  0.50000004803E+02 0.  0.
         12    1    1    2    0    0 -0.29083395327E+02 -0.50477373221E+00 -0.13062224820E+02  0.31886053338E+02  0.00000000000E+00 0. -1.
         11    1    3    3    0    0  0.33879590079E+01 -0.98950322548E+01  0.85857372365E+01  0.13531622730E+02  0.51100000000E-03 0. -1.
        -11    1    3    3    0    0 -0.16562293079E+01  0.71224011225E+00  0.14847105774E+02  0.14956167009E+02  0.51100000000E-03 0.  1.
         12    1    3    3    0    0  0.27351665627E+02  0.96875658748E+01 -0.10370618190E+02  0.30814156922E+02  0.00000000000E+00 0. -1.
</event>
<event>
 7    1  0.6164995E-012  0.5930195E+02  0.7816164E-02  0.1266605E+00
        -11   -1    0    0    0    0  0.00000000000E+00  0.00000000000E+00  0.45593999997E+02  0.45594000000E+02  0.51100000000E-03 0. -1.
         11   -1    0    0    0    0 -0.00000000000E+00 -0.00000000000E+00 -0.45593999997E+02  0.45594000000E+02  0.51100000000E-03 0.  1.
    9900012    2    1    2    0    0  0.11171546397E+02 -0.15429653873E+02 -0.25570341580E+02  0.59301952329E+02  0.50000015140E+02 0.  0.
         12    1    1    2    0    0 -0.11171546397E+02  0.15429653873E+02  0.25570341580E+02  0.31886047671E+02  0.00000000000E+00 0. -1.
         11    1    3    3    0    0 -0.43133052732E+00 -0.34164275232E+01  0.67344690872E+01  0.75638017685E+01  0.51100000000E-03 0. -1.
        -11    1    3    3    0    0  0.17912107024E+02 -0.24193448285E-01 -0.13672182816E+01  0.17964226937E+02  0.51100000000E-03 0.  1.
        -12    1    3    3    0    0 -0.63092300988E+01 -0.11989032901E+02 -0.30937592386E+02  0.33773923624E+02  0.00000000000E+00 0.  1.
</event>
<event>
 7    1  0.6164995E-012  0.5930195E+02  0.7816164E-02  0.1266605E+00
        -11   -1    0    0    0    0  0.00000000000E+00  0.00000000000E+00  0.45593999997E+02  0.45594000000E+02  0.51100000000E-03 0. -1.
         11   -1    0    0    0    0 -0.00000000000E+00 -0.00000000000E+00 -0.45593999997E+02  0.45594000000E+02  0.51100000000E-03 0.  1.
    9900012    2    1    2    0    0 -0.21598468842E+01  0.15523436968E+02 -0.27768297803E+02  0.59301946673E+02  0.50000004825E+02 0.  0.
         12    1    1    2    0    0  0.21598468842E+01 -0.15523436968E+02  0.27768297803E+02  0.31886053327E+02  0.00000000000E+00 0. -1.
         11    1    3    3    0    0  0.47347025570E+01  0.10627721979E+02 -0.13900093318E+02  0.18126733773E+02  0.51100000000E-03 0. -1.
        -11    1    3    3    0    0 -0.19032432098E+01  0.17576443858E+02  0.45578261541E+01  0.18257258636E+02  0.51100000000E-03 0.  1.
         12    1    3    3    0    0 -0.49913062314E+01 -0.12680728869E+02 -0.18426030640E+02  0.22917954265E+02  0.00000000000E+00 0. -1.
</event>
<event>
 7    1  0.6164995E-012  0.5930193E+02  0.7816164E-02  0.1266605E+00
        -11   -1    0    0    0    0  0.00000000000E+00  0.00000000000E+00  0.45593999997E+02  0.45594000000E+02  0.51100000000E-03 0. -1.
         11   -1    0    0    0    0 -0.00000000000E+00 -0.00000000000E+00 -0.45593999997E+02  0.45594000000E+02  0.51100000000E-03 0.  1.
    9900012    2    1    2    0    0 -0.17984904698E+02  0.24070728148E+02 -0.10670731145E+02  0.59301933235E+02  0.49999980317E+02 0.  0.
         12    1    1    2    0    0  0.17984904698E+02 -0.24070728148E+02  0.10670731145E+02  0.31886066765E+02  0.00000000000E+00 0. -1.
         11    1    3    3    0    0 -0.99015572071E+01  0.37931524847E+01 -0.17286419210E+01  0.10743232477E+02  0.51100000000E-03 0. -1.
        -11    1    3    3    0    0 -0.10473378801E+02  0.31809307909E+02 -0.13255105622E+02  0.36016962094E+02  0.51100000000E-03 0.  1.
         12    1    3    3    0    0  0.23900313107E+01 -0.11531732246E+02  0.43130163988E+01  0.12541738664E+02  0.00000000000E+00 0. -1.
</event>
<event>
 7    1  0.6164995E-012  0.5930194E+02  0.7816164E-02  0.1266605E+00
        -11   -1    0    0    0    0  0.00000000000E+00  0.00000000000E+00  0.45593999997E+02  0.45594000000E+02  0.51100000000E-03 0.  1.
         11   -1    0    0    0    0 -0.00000000000E+00 -0.00000000000E+00 -0.45593999997E+02  0.45594000000E+02  0.51100000000E-03 0. -1.
    9900012    2    1    2    0    0 -0.78369584679E+01  0.15299472812E+02  0.26855703999E+02  0.59301943116E+02  0.49999998337E+02 0.  0.
         12    1    1    2    0    0  0.78369584679E+01 -0.15299472812E+02 -0.26855703999E+02  0.31886056884E+02  0.00000000000E+00 0. -1.
         11    1    3    3    0    0  0.26759280889E+01 -0.86908859503E+01  0.22731568030E+01  0.93733308834E+01  0.51100000000E-03 0. -1.
        -11    1    3    3    0    0  0.86966478076E+01 -0.38119328737E+01  0.72700627996E+01  0.11958943461E+02  0.51100000000E-03 0.  1.
        -12    1    3    3    0    0 -0.19209534364E+02  0.27802291636E+02  0.17312484396E+02  0.37969668772E+02  0.00000000000E+00 0.  1.
</event>
<event>
 7    1  0.6164995E-012  0.5930198E+02  0.7816164E-02  0.1266605E+00
        -11   -1    0    0    0    0  0.00000000000E+00  0.00000000000E+00  0.45593999997E+02  0.45594000000E+02  0.51100000000E-03 0.  1.
         11   -1    0    0    0    0 -0.00000000000E+00 -0.00000000000E+00 -0.45593999997E+02  0.45594000000E+02  0.51100000000E-03 0. -1.
    9900012    2    1    2    0    0 -0.30265353182E+01 -0.14592886742E+02  0.28188757570E+02  0.59301979351E+02  0.50000064421E+02 0.  0.
         12    1    1    2    0    0  0.30265353182E+01  0.14592886742E+02 -0.28188757570E+02  0.31886020649E+02  0.00000000000E+00 0. -1.
         11    1    3    3    0    0  0.43262555608E+00  0.52651545754E+01  0.50252489456E+01  0.72912375356E+01  0.51100000000E-03 0. -1.
        -11    1    3    3    0    0  0.46490802815E+00 -0.12121376200E+02  0.35167217056E+02  0.37200498063E+02  0.51100000000E-03 0.  1.
         12    1    3    3    0    0 -0.39240689025E+01 -0.77366651173E+01 -0.12003708431E+02  0.14810243752E+02  0.00000000000E+00 0. -1.
</event>
<event>
 7    1  0.6164995E-012  0.5930194E+02  0.7816164E-02  0.1266605E+00
        -11   -1    0    0    0    0  0.00000000000E+00  0.00000000000E+00  0.45593999997E+02  0.45594000000E+02  0.51100000000E-03 0. -1.
         11   -1    0    0    0    0 -0.00000000000E+00 -0.00000000000E+00 -0.45593999997E+02  0.45594000000E+02  0.51100000000E-03 0.  1.
    9900012    2    1    2    0    0  0.28416084711E+02 -0.64327339439E+01 -0.12956349948E+02  0.59301938150E+02  0.49999989281E+02 0.  0.
         12    1    1    2    0    0 -0.28416084711E+02  0.64327339439E+01  0.12956349948E+02  0.31886061850E+02  0.00000000000E+00 0. -1.
         11    1    3    3    0    0  0.82883458181E+01 -0.10758249878E+01  0.77479816851E+01  0.11396723049E+02  0.51100000000E-03 0. -1.
        -11    1    3    3    0    0  0.91661039533E+01 -0.21632375036E+02 -0.12757696033E+02  0.26734545437E+02  0.51100000000E-03 0.  1.
         12    1    3    3    0    0  0.10961634940E+02  0.16275466080E+02 -0.79466355998E+01  0.21170669664E+02  0.00000000000E+00 0. -1.
</event>
<event>
 7    1  0.6164995E-012  0.5930196E+02  0.7816164E-02  0.1266605E+00
        -11   -1    0    0    0    0  0.00000000000E+00  0.00000000000E+00  0.45593999997E+02  0.45594000000E+02  0.51100000000E-03 0.  1.
         11   -1    0    0    0    0 -0.00000000000E+00 -0.00000000000E+00 -0.45593999997E+02  0.45594000000E+02  0.51100000000E-03 0. -1.
    9900012    2    1    2    0    0  0.31157202042E+02 -0.65953691821E+01 -0.15651258336E+01  0.59301956774E+02  0.50000023246E+02 0.  0.
         12    1    1    2    0    0 -0.31157202042E+02  0.65953691821E+01  0.15651258336E+01  0.31886043226E+02  0.00000000000E+00 0. -1.
         11    1    3    3    0    0  0.14976160345E+02  0.41850840254E+01 -0.12037841565E+02  0.19664941820E+02  0.51100000000E-03 0. -1.
        -11    1    3    3    0    0 -0.21563526470E+01  0.32582566267E+01 -0.87543094686E+01  0.95866588297E+01  0.51100000000E-03 0.  1.
        -12    1    3    3    0    0  0.18337394344E+02 -0.14038709834E+02  0.19227025200E+02  0.30050356124E+02  0.00000000000E+00 0.  1.
</event>
<event>
 7    1  0.6164995E-012  0.5930196E+02  0.7816164E-02  0.1266605E+00
        -11   -1    0    0    0    0  0.00000000000E+00  0.00000000000E+00  0.45593999997E+02  0.45594000000E+02  0.51100000000E-03 0.  1.
         11   -1    0    0    0    0 -0.00000000000E+00 -0.00000000000E+00 -0.45593999997E+02  0.45594000000E+02  0.51100000000E-03 0. -1.
    9900012    2    1    2    0    0 -0.66574751100E+01  0.10506444722E+02  0.29360049365E+02  0.59301955180E+02  0.50000020339E+02 0.  0.
         12    1    1    2    0    0  0.66574751100E+01 -0.10506444722E+02 -0.29360049365E+02  0.31886044820E+02  0.00000000000E+00 0. -1.
         11    1    3    3    0    0 -0.17172775001E+02  0.84134020212E+01  0.16311808686E+02  0.25134928639E+02  0.51100000000E-03 0. -1.
        -11    1    3    3    0    0  0.11411711864E+02 -0.37339023780E+01  0.21046578194E+02  0.24230717046E+02  0.51100000000E-03 0.  1.
         12    1    3    3    0    0 -0.89641197275E+00  0.58269450788E+01 -0.79983375147E+01  0.99363094948E+01  0.00000000000E+00 0. -1.
</event>
<event>
 7    1  0.6164995E-012  0.5930196E+02  0.7816164E-02  0.1266605E+00
        -11   -1    0    0    0    0  0.00000000000E+00  0.00000000000E+00  0.45593999997E+02  0.45594000000E+02  0.51100000000E-03 0.  1.
         11   -1    0    0    0    0 -0.00000000000E+00 -0.00000000000E+00 -0.45593999997E+02  0.45594000000E+02  0.51100000000E-03 0. -1.
    9900012    2    1    2    0    0 -0.18402319247E+02  0.22672758881E+02  0.12807036901E+02  0.59301960059E+02  0.50000029237E+02 0.  0.
         12    1    1    2    0    0  0.18402319247E+02 -0.22672758881E+02 -0.12807036901E+02  0.31886039941E+02  0.00000000000E+00 0. -1.
         11    1    3    3    0    0 -0.12160748755E+01 -0.13000929408E+02  0.26661538720E+00  0.13060401509E+02  0.51100000000E-03 0. -1.
        -11    1    3    3    0    0 -0.10366593077E+02  0.35292880984E+01 -0.31785396736E+00  0.10955508108E+02  0.51100000000E-03 0.  1.
        -12    1    3    3    0    0 -0.68196512945E+01  0.32144400190E+02  0.12858275481E+02  0.35286050441E+02  0.00000000000E+00 0.  1.
</event>
<event>
 7    1  0.6164995E-012  0.5930196E+02  0.7816164E-02  0.1266605E+00
        -11   -1    0    0    0    0  0.00000000000E+00  0.00000000000E+00  0.45593999997E+02  0.45594000000E+02  0.51100000000E-03 0. -1.
         11   -1    0    0    0    0 -0.00000000000E+00 -0.00000000000E+00 -0.45593999997E+02  0.45594000000E+02  0.51100000000E-03 0.  1.
    9900012    2    1    2    0    0 -0.24737771825E+02 -0.13615371174E+02 -0.14811609792E+02  0.59301961178E+02  0.50000031279E+02 0.  0.
         12    1    1    2    0    0  0.24737771825E+02  0.13615371174E+02  0.14811609792E+02  0.31886038822E+02  0.00000000000E+00 0. -1.
         11    1    3    3    0    0 -0.58075174277E+01 -0.13249693343E+02 -0.42586903198E+01  0.15080387125E+02  0.51100000000E-03 0. -1.
        -11    1    3    3    0    0  0.55795660662E+01  0.91358463988E+01 -0.14092482906E+02  0.17697268762E+02  0.51100000000E-03 0.  1.
         12    1    3    3    0    0 -0.24509820464E+02 -0.95015242301E+01  0.35395634339E+01  0.26524305291E+02  0.00000000000E+00 0. -1.
</event>
<event>
 7    1  0.6164995E-012  0.5930195E+02  0.7816164E-02  0.1266605E+00
        -11   -1    0    0    0    0  0.00000000000E+00  0.00000000000E+00  0.45593999997E+02  0.45594000000E+02  0.51100000000E-03 0. -1.
         11   -1    0    0    0    0 -0.00000000000E+00 -0.00000000000E+00 -0.45593999997E+02  0.45594000000E+02  0.51100000000E-03 0.  1.
    9900012    2    1    2    0    0  0.85895751830E+01  0.63008963361E+01 -0.30053924796E+02  0.59301945178E+02  0.50000002098E+02 0.  0.
         12    1    1    2    0    0 -0.85895751830E+01 -0.63008963361E+01  0.30053924796E+02  0.31886054822E+02  0.00000000000E+00 0. -1.
         11    1    3    3    0    0  0.80900862912E+01 -0.72221308968E+01 -0.22150068171E+01  0.11068646094E+02  0.51100000000E-03 0. -1.
        -11    1    3    3    0    0  0.61363015390E+00 -0.12617344932E+02 -0.13209608053E+02  0.18277518439E+02  0.51100000000E-03 0.  1.
        -12    1    3    3    0    0 -0.11414126210E+00  0.26140372165E+02 -0.14629309926E+02  0.29955780646E+02  0.00000000000E+00 0.  1.
</event>
<event>
 7    1  0.6164995E-012  0.5930189E+02  0.7816164E-02  0.1266605E+00
        -11   -1    0    0    0    0  0.00000000000E+00  0.00000000000E+00  0.45593999997E+02  0.45594000000E+02  0.51100000000E-03 0.  1.
         11   -1    0    0    0    0 -0.00000000000E+00 -0.00000000000E+00 -0.45593999997E+02  0.45594000000E+02  0.51100000000E-03 0. -1.
    9900012    2    1    2    0    0  0.28672513372E+02  0.55989324269E+01  0.12777427527E+02  0.59301894536E+02  0.49999909740E+02 0.  0.
         12    1    1    2    0    0 -0.28672513372E+02 -0.55989324269E+01 -0.12777427527E+02  0.31886105464E+02  0.00000000000E+00 0. -1.
         11    1    3    3    0    0  0.11619188274E+02 -0.56347163650E+01 -0.95971604624E+01  0.16089159514E+02  0.51100000000E-03 0. -1.
        -11    1    3    3    0    0  0.13045173865E+02 -0.69896363129E+01  0.99084033298E+00  0.14832846718E+02  0.51100000000E-03 0.  1.
        -12    1    3    3    0    0  0.40081512343E+01  0.18223285105E+02  0.21383747657E+02  0.28379888305E+02  0.00000000000E+00 0.  1.
</event>
<event>
 7    1  0.6164995E-012  0.5930197E+02  0.7816164E-02  0.1266605E+00
        -11   -1    0    0    0    0  0.00000000000E+00  0.00000000000E+00  0.45593999997E+02  0.45594000000E+02  0.51100000000E-03 0. -1.
         11   -1    0    0    0    0 -0.00000000000E+00 -0.00000000000E+00 -0.45593999997E+02  0.45594000000E+02  0.51100000000E-03 0.  1.
    9900012    2    1    2    0    0 -0.31537238394E+02 -0.36614952033E+01  0.29520768345E+01  0.59301973118E+02  0.50000053054E+02 0.  0.
         12    1    1    2    0    0  0.31537238394E+02  0.36614952033E+01 -0.29520768345E+01  0.31886026882E+02  0.00000000000E+00 0. -1.
         11    1    3    3    0    0 -0.41566240673E+01  0.41461317028E+01 -0.10603531847E+02  0.12120347339E+02  0.51100000000E-03 0. -1.
        -11    1    3    3    0    0 -0.26059831214E+02 -0.12123841787E+01 -0.57704038603E+01  0.26718574799E+02  0.51100000000E-03 0.  1.
         12    1    3    3    0    0 -0.13207831126E+01 -0.65952427275E+01  0.19326012541E+02  0.20463050980E+02  0.00000000000E+00 0. -1.
</event>
<event>
 7    1  0.6164995E-012  0.5930195E+02  0.7816164E-02  0.1266605E+00
        -11   -1    0    0    0    0  0.00000000000E+00  0.00000000000E+00  0.45593999997E+02  0.45594000000E+02  0.51100000000E-03 0.  1.
         11   -1    0    0    0    0 -0.00000000000E+00 -0.00000000000E+00 -0.45593999997E+02  0.45594000000E+02  0.51100000000E-03 0. -1.
    9900012    2    1    2    0    0 -0.10669827620E+02 -0.43878231454E+01  0.29725782269E+02  0.59301947487E+02  0.50000006308E+02 0.  0.
         12    1    1    2    0    0  0.10669827620E+02  0.43878231454E+01 -0.29725782269E+02  0.31886052513E+02  0.00000000000E+00 0. -1.
         11    1    3    3    0    0  0.75560065966E+01 -0.96845669974E+01  0.63763205055E+01  0.13839853217E+02  0.51100000000E-03 0. -1.
        -11    1    3    3    0    0 -0.41787811492E+01 -0.62814044181E+01  0.25994583502E+02  0.27067261130E+02  0.51100000000E-03 0.  1.
        -12    1    3    3    0    0 -0.14047053067E+02  0.11578148270E+02 -0.26451217389E+01  0.18394833140E+02  0.00000000000E+00 0.  1.
</event>
<event>
 7    1  0.6164995E-012  0.5930196E+02  0.7816164E-02  0.1266605E+00
        -11   -1    0    0    0    0  0.00000000000E+00  0.00000000000E+00  0.45593999997E+02  0.45594000000E+02  0.51100000000E-03 0.  1.
         11   -1    0    0    0    0 -0.00000000000E+00 -0.00000000000E+00 -0.45593999997E+02  0.45594000000E+02  0.51100000000E-03 0. -1.
    9900012    2    1    2    0    0  0.19180634265E+02  0.89034231047E+00  0.25456440975E+02  0.59301955602E+02  0.50000021109E+02 0.  0.
         12    1    1    2    0    0 -0.19180634265E+02 -0.89034231047E+00 -0.25456440975E+02  0.31886044398E+02  0.00000000000E+00 0. -1.
         11    1    3    3    0    0  0.23844097355E+02  0.53577097196E+01  0.14550176370E+02  0.28442110765E+02  0.51100000000E-03 0. -1.
        -11    1    3    3    0    0 -0.57232999321E+01  0.11447300956E+02  0.34624099682E+01  0.13258399011E+02  0.51100000000E-03 0.  1.
        -12    1    3    3    0    0  0.10598368421E+01 -0.15914668365E+02  0.74438546362E+01  0.17601445826E+02  0.00000000000E+00 0.  1.
</event>
<event>
 7    1  0.6164995E-012  0.5930197E+02  0.7816164E-02  0.1266605E+00
        -11   -1    0    0    0    0  0.00000000000E+00  0.00000000000E+00  0.45593999997E+02  0.45594000000E+02  0.51100000000E-03 0. -1.
         11   -1    0    0    0    0 -0.00000000000E+00 -0.00000000000E+00 -0.45593999997E+02  0.45594000000E+02  0.51100000000E-03 0.  1.
    9900012    2    1    2    0    0  0.28037142343E+01 -0.14525254453E+02 -0.28246684851E+02  0.59301968018E+02  0.50000043753E+02 0.  0.
         12    1    1    2    0    0 -0.28037142343E+01  0.14525254453E+02  0.28246684851E+02  0.31886031982E+02  0.00000000000E+00 0. -1.
         11    1    3    3    0    0 -0.10767200240E+02  0.36341910978E+00 -0.48932887474E+01  0.11832537745E+02  0.51100000000E-03 0. -1.
        -11    1    3    3    0    0 -0.14573295353E+01  0.10533105256E+02 -0.11458602175E+02  0.15632328035E+02  0.51100000000E-03 0.  1.
         12    1    3    3    0    0  0.15028244010E+02 -0.25421778819E+02 -0.11894793929E+02  0.31837102239E+02  0.00000000000E+00 0. -1.
</event>
<event>
 7    1  0.6164995E-012  0.5930195E+02  0.7816164E-02  0.1266605E+00
        -11   -1    0    0    0    0  0.00000000000E+00  0.00000000000E+00  0.45593999997E+02  0.45594000000E+02  0.51100000000E-03 0. -1.
         11   -1    0    0    0    0 -0.00000000000E+00 -0.00000000000E+00 -0.45593999997E+02  0.45594000000E+02  0.51100000000E-03 0.  1.
    9900012    2    1    2    0    0 -0.16354062932E+02 -0.16654181520E+02 -0.21723335962E+02  0.59301945654E+02  0.50000002965E+02 0.  0.
         12    1    1    2    0    0  0.16354062932E+02  0.16654181520E+02  0.21723335962E+02  0.31886054346E+02  0.00000000000E+00 0. -1.
         11    1    3    3    0    0  0.57850033896E+01  0.14839728161E+01  0.68964077350E+01  0.91229863227E+01  0.51100000000E-03 0. -1.
        -11    1    3    3    0    0 -0.10376433918E+02 -0.93927898746E+01  0.38823224675E+01  0.14524713783E+02  0.51100000000E-03 0.  1.
        -12    1    3    3    0    0 -0.11762632404E+02 -0.87453644611E+01 -0.32502066164E+02  0.35654245547E+02  0.00000000000E+00 0.  1.
</event>
<event>
 7    1  0.6164995E-012  0.5930194E+02  0.7816164E-02  0.1266605E+00
        -11   -1    0    0    0    0  0.00000000000E+00  0.00000000000E+00  0.45593999997E+02  0.45594000000E+02  0.51100000000E-03 0. -1.
         11   -1    0    0    0    0 -0.00000000000E+00 -0.00000000000E+00 -0.45593999997E+02  0.45594000000E+02  0.51100000000E-03 0.  1.
    9900012    2    1    2    0    0  0.85641771254E+01  0.28549519412E+02 -0.11327000530E+02  0.59301935183E+02  0.49999983870E+02 0.  0.
         12    1    1    2    0    0 -0.85641771254E+01 -0.28549519412E+02  0.11327000530E+02  0.31886064817E+02  0.00000000000E+00 0. -1.
         11    1    3    3    0    0  0.83769359866E+01  0.57084449802E+01 -0.63617652168E+01  0.11967934557E+02  0.51100000000E-03 0. -1.
        -11    1    3    3    0    0  0.13350636073E+02  0.29442289257E+02 -0.40370738023E+01  0.32578917192E+02  0.51100000000E-03 0.  1.
         12    1    3    3    0    0 -0.13163394934E+02 -0.66012148257E+01 -0.92816151107E+00  0.14755083435E+02  0.00000000000E+00 0. -1.
</event>
<event>
 7    1  0.6164995E-012  0.5930194E+02  0.7816164E-02  0.1266605E+00
        -11   -1    0    0    0    0  0.00000000000E+00  0.00000000000E+00  0.45593999997E+02  0.45594000000E+02  0.51100000000E-03 0.  1.
         11   -1    0    0    0    0 -0.00000000000E+00 -0.00000000000E+00 -0.45593999997E+02  0.45594000000E+02  0.51100000000E-03 0. -1.
    9900012    2    1    2    0    0 -0.22224482195E+02  0.22462115158E+02 -0.42715689494E+01  0.59301944623E+02  0.50000001086E+02 0.  0.
         12    1    1    2    0    0  0.22224482195E+02 -0.22462115158E+02  0.42715689494E+01  0.31886055377E+02  0.00000000000E+00 0. -1.
         11    1    3    3    0    0 -0.12353586506E+02 -0.15711503556E+01  0.26852041715E+01  0.12739306681E+02  0.51100000000E-03 0. -1.
        -11    1    3    3    0    0 -0.18307381871E+02  0.13389052382E+02  0.10041610251E+02  0.24804453055E+02  0.51100000000E-03 0.  1.
        -12    1    3    3    0    0  0.84364861828E+01  0.10644213132E+02 -0.16998383372E+02  0.21758184887E+02  0.00000000000E+00 0.  1.
</event>
<event>
 7    1  0.6164995E-012  0.5930200E+02  0.7816164E-02  0.1266605E+00
        -11   -1    0    0    0    0  0.00000000000E+00  0.00000000000E+00  0.45593999997E+02  0.45594000000E+02  0.51100000000E-03 0. -1.
         11   -1    0    0    0    0 -0.00000000000E+00 -0.00000000000E+00 -0.45593999997E+02  0.45594000000E+02  0.51100000000E-03 0.  1.
    9900012    2    1    2    0    0 -0.19636206489E+02 -0.20380450390E+02 -0.14689235908E+02  0.59301999703E+02  0.50000101538E+02 0.  0.
         12    1    1    2    0    0  0.19636206489E+02  0.20380450390E+02  0.14689235908E+02  0.31886000297E+02  0.00000000000E+00 0. -1.
         11    1    3    3    0    0  0.35097016846E+01 -0.48182676700E+00  0.40927733651E+01  0.54130358421E+01  0.51100000000E-03 0. -1.
        -11    1    3    3    0    0 -0.33479881381E+02 -0.10725379701E+02 -0.72606348169E+01  0.35897813934E+02  0.51100000000E-03 0.  1.
         12    1    3    3    0    0  0.10333973208E+02 -0.91732439224E+01 -0.11521374457E+02  0.17991149927E+02  0.00000000000E+00 0. -1.
</event>
<event>
 7    1  0.6164995E-012  0.5930192E+02  0.7816164E-02  0.1266605E+00
        -11   -1    0    0    0    0  0.00000000000E+00  0.00000000000E+00  0.45593999997E+02  0.45594000000E+02  0.51100000000E-03 0. -1.
         11   -1    0    0    0    0 -0.00000000000E+00 -0.00000000000E+00 -0.45593999997E+02  0.45594000000E+02  0.51100000000E-03 0.  1.
    9900012    2    1    2    0    0  0.79998032576E+01 -0.97128648124E+01 -0.29298219512E+02  0.59301917431E+02  0.49999951494E+02 0.  0.
         12    1    1    2    0    0 -0.79998032576E+01  0.97128648124E+01  0.29298219512E+02  0.31886082569E+02  0.00000000000E+00 0. -1.
         11    1    3    3    0    0 -0.26079048787E+01  0.88379731021E+01  0.66308437200E+01  0.11352489820E+02  0.51100000000E-03 0. -1.
        -11    1    3    3    0    0 -0.74664786074E+01 -0.73069483911E+01 -0.11040752709E+02  0.15199934810E+02  0.51100000000E-03 0.  1.
        -12    1    3    3    0    0  0.18074186744E+02 -0.11243889523E+02 -0.24888310523E+02  0.32749492801E+02  0.00000000000E+00 0.  1.
</event>
<event>
 7    1  0.6164995E-012  0.5930195E+02  0.7816164E-02  0.1266605E+00
        -11   -1    0    0    0    0  0.00000000000E+00  0.00000000000E+00  0.45593999997E+02  0.45594000000E+02  0.51100000000E-03 0.  1.
         11   -1    0    0    0    0 -0.00000000000E+00 -0.00000000000E+00 -0.45593999997E+02  0.45594000000E+02  0.51100000000E-03 0. -1.
    9900012    2    1    2    0    0  0.65277163715E+01 -0.42337938223E+01  0.30922221944E+02  0.59301954445E+02  0.50000018999E+02 0.  0.
         12    1    1    2    0    0 -0.65277163715E+01  0.42337938223E+01 -0.30922221944E+02  0.31886045555E+02  0.00000000000E+00 0. -1.
         11    1    3    3    0    0  0.12516541958E+02 -0.14870331257E+02  0.10862352978E+02  0.22266146652E+02  0.51100000000E-03 0. -1.
        -11    1    3    3    0    0  0.39644993013E+01  0.18885486562E+01  0.23039015544E+02  0.23453786651E+02  0.51100000000E-03 0.  1.
        -12    1    3    3    0    0 -0.99533248876E+01  0.87479887780E+01 -0.29791465783E+01  0.13582021142E+02  0.00000000000E+00 0.  1.
</event>
<event>
 7    1  0.6164995E-012  0.5930197E+02  0.7816164E-02  0.1266605E+00
        -11   -1    0    0    0    0  0.00000000000E+00  0.00000000000E+00  0.45593999997E+02  0.45594000000E+02  0.51100000000E-03 0.  1.
         11   -1    0    0    0    0 -0.00000000000E+00 -0.00000000000E+00 -0.45593999997E+02  0.45594000000E+02  0.51100000000E-03 0. -1.
    9900012    2    1    2    0    0 -0.23387616956E+02  0.12689910203E+02  0.17569978980E+02  0.59301974703E+02  0.50000055945E+02 0.  0.
         12    1    1    2    0    0  0.23387616956E+02 -0.12689910203E+02 -0.17569978980E+02  0.31886025297E+02  0.00000000000E+00 0. -1.
         11    1    3    3    0    0 -0.17609622205E+02 -0.50956616379E+01 -0.84472063453E+01  0.20184644090E+02  0.51100000000E-03 0. -1.
        -11    1    3    3    0    0 -0.98685476388E+01  0.59455538516E+01  0.15435830256E+01  0.11624134029E+02  0.51100000000E-03 0.  1.
        -12    1    3    3    0    0  0.40905528878E+01  0.11840017989E+02  0.24473602299E+02  0.27493196584E+02  0.00000000000E+00 0.  1.
</event>
<event>
 7    1  0.6207053E-012  0.5930195E+02  0.7816164E-02  0.1266605E+00
        -11   -1    0    0    0    0  0.00000000000E+00  0.00000000000E+00  0.45593999997E+02  0.45594000000E+02  0.51100000000E-03 0. -1.
         11   -1    0    0    0    0 -0.00000000000E+00 -0.00000000000E+00 -0.45593999997E+02  0.45594000000E+02  0.51100000000E-03 0.  1.
    9900012    2    1    2    0    0  0.14948365107E+02  0.14811895526E+02 -0.23955671214E+02  0.59301952083E+02  0.50000014692E+02 0.  0.
         12    1    1    2    0    0 -0.14948365107E+02 -0.14811895526E+02  0.23955671214E+02  0.31886047917E+02  0.00000000000E+00 0. -1.
         11    1    3    3    0    0 -0.15231327179E+01  0.11740793370E+02  0.99508078712E+01  0.15465598591E+02  0.51100000000E-03 0. -1.
        -11    1    3    3    0    0 -0.37970606550E+01 -0.46578846231E+01 -0.88084424753E+01  0.10663124208E+02  0.51100000000E-03 0.  1.
        -12    1    3    3    0    0  0.20268558480E+02  0.77289867796E+01 -0.25098036610E+02  0.33173229284E+02  0.00000000000E+00 0.  1.
</event>
<event>
 7    1  0.6164995E-012  0.5930198E+02  0.7816164E-02  0.1266605E+00
        -11   -1    0    0    0    0  0.00000000000E+00  0.00000000000E+00  0.45593999997E+02  0.45594000000E+02  0.51100000000E-03 0. -1.
         11   -1    0    0    0    0 -0.00000000000E+00 -0.00000000000E+00 -0.45593999997E+02  0.45594000000E+02  0.51100000000E-03 0.  1.
    9900012    2    1    2    0    0  0.88788706569E+01  0.67159949162E+01 -0.29879408368E+02  0.59301984628E+02  0.50000074046E+02 0.  0.
         12    1    1    2    0    0 -0.88788706569E+01 -0.67159949162E+01  0.29879408368E+02  0.31886015372E+02  0.00000000000E+00 0. -1.
         11    1    3    3    0    0  0.12428933155E+02  0.60889536774E+01 -0.39230700549E+01  0.14385555783E+02  0.51100000000E-03 0. -1.
        -11    1    3    3    0    0  0.32857681603E+01 -0.12025518778E+02  0.27889041663E+01  0.12774480850E+02  0.51100000000E-03 0.  1.
        -12    1    3    3    0    0 -0.68358306586E+01  0.12652560017E+02 -0.28745242479E+02  0.32141947996E+02  0.00000000000E+00 0.  1.
</event>
<event>
 7    1  0.6164995E-012  0.5930195E+02  0.7816164E-02  0.1266605E+00
        -11   -1    0    0    0    0  0.00000000000E+00  0.00000000000E+00  0.45593999997E+02  0.45594000000E+02  0.51100000000E-03 0.  1.
         11   -1    0    0    0    0 -0.00000000000E+00 -0.00000000000E+00 -0.45593999997E+02  0.45594000000E+02  0.51100000000E-03 0. -1.
    9900012    2    1    2    0    0 -0.65008860736E+01  0.30866028246E+02  0.46633400775E+01  0.59301953520E+02  0.50000017312E+02 0.  0.
         12    1    1    2    0    0  0.65008860736E+01 -0.30866028246E+02 -0.46633400775E+01  0.31886046480E+02  0.00000000000E+00 0. -1.
         11    1    3    3    0    0 -0.81545288320E+01  0.27783575872E+01 -0.34518856974E+01  0.92806856688E+01  0.51100000000E-03 0. -1.
        -11    1    3    3    0    0 -0.75778788083E+01  0.32725965225E+02  0.15822637406E+02  0.37131777521E+02  0.51100000000E-03 0.  1.
        -12    1    3    3    0    0  0.92315215667E+01 -0.46382945658E+01 -0.77074116310E+01  0.12889490330E+02  0.00000000000E+00 0.  1.
</event>
<event>
 7    1  0.6164995E-012  0.5930195E+02  0.7816164E-02  0.1266605E+00
        -11   -1    0    0    0    0  0.00000000000E+00  0.00000000000E+00  0.45593999997E+02  0.45594000000E+02  0.51100000000E-03 0.  1.
         11   -1    0    0    0    0 -0.00000000000E+00 -0.00000000000E+00 -0.45593999997E+02  0.45594000000E+02  0.51100000000E-03 0. -1.
    9900012    2    1    2    0    0 -0.14429997238E+02 -0.22810904683E+02  0.16975218582E+02  0.59301949152E+02  0.50000009346E+02 0.  0.
         12    1    1    2    0    0  0.14429997238E+02  0.22810904683E+02 -0.16975218582E+02  0.31886050848E+02  0.00000000000E+00 0. -1.
         11    1    3    3    0    0  0.74251334902E+01  0.23563806677E+01  0.13522390573E+02  0.15605774069E+02  0.51100000000E-03 0. -1.
        -11    1    3    3    0    0  0.57867517969E+01 -0.11156683840E+02  0.82893574541E+00  0.12595444628E+02  0.51100000000E-03 0.  1.
         12    1    3    3    0    0 -0.27641882525E+02 -0.14010601511E+02  0.26238922634E+01  0.31100730455E+02  0.00000000000E+00 0. -1.
</event>
<event>
 7    1  0.6164995E-012  0.5930194E+02  0.7816164E-02  0.1266605E+00
        -11   -1    0    0    0    0  0.00000000000E+00  0.00000000000E+00  0.45593999997E+02  0.45594000000E+02  0.51100000000E-03 0. -1.
         11   -1    0    0    0    0 -0.00000000000E+00 -0.00000000000E+00 -0.45593999997E+02  0.45594000000E+02  0.51100000000E-03 0.  1.
    9900012    2    1    2    0    0 -0.30858595352E+02  0.33624799471E+01  0.72912174290E+01  0.59301936742E+02  0.49999986712E+02 0.  0.
         12    1    1    2    0    0  0.30858595352E+02 -0.33624799471E+01 -0.72912174290E+01  0.31886063258E+02  0.00000000000E+00 0. -1.
         11    1    3    3    0    0  0.28537195503E+00 -0.11090757391E+02  0.98675963281E+00  0.11138223893E+02  0.51100000000E-03 0. -1.
        -11    1    3    3    0    0 -0.11043334442E+02 -0.56739315645E+01  0.13983651978E+02  0.18700033634E+02  0.51100000000E-03 0.  1.
        -12    1    3    3    0    0 -0.20100632865E+02  0.20127168903E+02 -0.76791941817E+01  0.29463679215E+02  0.00000000000E+00 0.  1.
</event>
<event>
 7    1  0.6164995E-012  0.5930195E+02  0.7816164E-02  0.1266605E+00
        -11   -1    0    0    0    0  0.00000000000E+00  0.00000000000E+00  0.45593999997E+02  0.45594000000E+02  0.51100000000E-03 0. -1.
         11   -1    0    0    0    0 -0.00000000000E+00 -0.00000000000E+00 -0.45593999997E+02  0.45594000000E+02  0.51100000000E-03 0.  1.
    9900012    2    1    2    0    0  0.29669942042E+02  0.42361929698E+01 -0.10884354551E+02  0.59301953433E+02  0.50000017153E+02 0.  0.
         12    1    1    2    0    0 -0.29669942042E+02 -0.42361929698E+01  0.10884354551E+02  0.31886046567E+02  0.00000000000E+00 0. -1.
         11    1    3    3    0    0 -0.10801900038E+02 -0.53696889703E+01 -0.56654538639E+01  0.13327114159E+02  0.51100000000E-03 0. -1.
        -11    1    3    3    0    0  0.56832324652E+01  0.15319673015E+01 -0.82485290673E+01  0.10133325570E+02  0.51100000000E-03 0.  1.
        -12    1    3    3    0    0  0.34788609615E+02  0.80739146386E+01  0.30296283804E+01  0.35841513705E+02  0.00000000000E+00 0.  1.
</event>
<event>
 7    1  0.6164995E-012  0.5930194E+02  0.7816164E-02  0.1266605E+00
        -11   -1    0    0    0    0  0.00000000000E+00  0.00000000000E+00  0.45593999997E+02  0.45594000000E+02  0.51100000000E-03 0. -1.
         11   -1    0    0    0    0 -0.00000000000E+00 -0.00000000000E+00 -0.45593999997E+02  0.45594000000E+02  0.51100000000E-03 0.  1.
    9900012    2    1    2    0    0  0.11745497238E+02  0.21964266360E+02 -0.19908170186E+02  0.59301938120E+02  0.49999989225E+02 0.  0.
         12    1    1    2    0    0 -0.11745497238E+02 -0.21964266360E+02  0.19908170186E+02  0.31886061880E+02  0.00000000000E+00 0. -1.
         11    1    3    3    0    0  0.13340231542E+02  0.10729214689E+02  0.53071139065E+01  0.17923260967E+02  0.51100000000E-03 0. -1.
        -11    1    3    3    0    0 -0.24532704173E+01 -0.99569745127E+01 -0.14095387083E+02  0.17431001534E+02  0.51100000000E-03 0.  1.
        -12    1    3    3    0    0  0.85853611387E+00  0.21192026184E+02 -0.11119897009E+02  0.23947675618E+02  0.00000000000E+00 0.  1.
</event>
<event>
 7    1  0.6164995E-012  0.5930195E+02  0.7816164E-02  0.1266605E+00
        -11   -1    0    0    0    0  0.00000000000E+00  0.00000000000E+00  0.45593999997E+02  0.45594000000E+02  0.51100000000E-03 0. -1.
         11   -1    0    0    0    0 -0.00000000000E+00 -0.00000000000E+00 -0.45593999997E+02  0.45594000000E+02  0.51100000000E-03 0.  1.
    9900012    2    1    2    0    0 -0.27231808542E+02  0.10156097326E+02 -0.13114978615E+02  0.59301947039E+02  0.50000005492E+02 0.  0.
         12    1    1    2    0    0  0.27231808542E+02 -0.10156097326E+02  0.13114978615E+02  0.31886052961E+02  0.00000000000E+00 0. -1.
         11    1    3    3    0    0 -0.33046652663E+02 -0.62082135003E+01 -0.62994391007E+01  0.34209736923E+02  0.51100000000E-03 0.  1.
        -11    1    3    3    0    0  0.11706063404E+01  0.32566749056E+01 -0.10207700856E+02  0.10778376857E+02  0.51100000000E-03 0. -1.
        -12    1    3    3    0    0  0.46442377809E+01  0.13107635921E+02  0.33921613415E+01  0.14313833259E+02  0.00000000000E+00 0.  1.
</event>
<event>
 7    1  0.6164995E-012  0.5930195E+02  0.7816164E-02  0.1266605E+00
        -11   -1    0    0    0    0  0.00000000000E+00  0.00000000000E+00  0.45593999997E+02  0.45594000000E+02  0.51100000000E-03 0.  1.
         11   -1    0    0    0    0 -0.00000000000E+00 -0.00000000000E+00 -0.45593999997E+02  0.45594000000E+02  0.51100000000E-03 0. -1.
    9900012    2    1    2    0    0  0.11737392330E+02 -0.26785763644E+02  0.12707336613E+02  0.59301954204E+02  0.50000018560E+02 0.  0.
         12    1    1    2    0    0 -0.11737392330E+02  0.26785763644E+02 -0.12707336613E+02  0.31886045796E+02  0.00000000000E+00 0. -1.
         11    1    3    3    0    0  0.17106261339E+01 -0.22838969673E+02  0.18835925367E+02  0.29653614657E+02  0.51100000000E-03 0. -1.
        -11    1    3    3    0    0 -0.90439698651E+01 -0.12809795642E+01 -0.48692848290E+01  0.10351049926E+02  0.51100000000E-03 0.  1.
         12    1    3    3    0    0  0.19070736061E+02 -0.26658144068E+01 -0.12593039258E+01  0.19297289621E+02  0.00000000000E+00 0. -1.
</event>
<event>
 7    1  0.6164995E-012  0.5930194E+02  0.7816164E-02  0.1266605E+00
        -11   -1    0    0    0    0  0.00000000000E+00  0.00000000000E+00  0.45593999997E+02  0.45594000000E+02  0.51100000000E-03 0.  1.
         11   -1    0    0    0    0 -0.00000000000E+00 -0.00000000000E+00 -0.45593999997E+02  0.45594000000E+02  0.51100000000E-03 0. -1.
    9900012    2    1    2    0    0  0.18909958999E+02  0.12919030597E+02  0.22186319980E+02  0.59301941994E+02  0.49999996292E+02 0.  0.
         12    1    1    2    0    0 -0.18909958999E+02 -0.12919030597E+02 -0.22186319980E+02  0.31886058006E+02  0.00000000000E+00 0. -1.
         11    1    3    3    0    0  0.19527880411E+02  0.22117553859E+01 -0.57784559477E+01  0.20484641287E+02  0.51100000000E-03 0. -1.
        -11    1    3    3    0    0  0.11044230339E+02  0.27630657237E+01  0.64409713517E+01  0.13080354283E+02  0.51100000000E-03 0.  1.
         12    1    3    3    0    0 -0.11662151751E+02  0.79442094871E+01  0.21523804576E+02  0.25736946424E+02  0.00000000000E+00 0. -1.
</event>
<event>
 7    1  0.6164995E-012  0.5930196E+02  0.7816164E-02  0.1266605E+00
        -11   -1    0    0    0    0  0.00000000000E+00  0.00000000000E+00  0.45593999997E+02  0.45594000000E+02  0.51100000000E-03 0.  1.
         11   -1    0    0    0    0 -0.00000000000E+00 -0.00000000000E+00 -0.45593999997E+02  0.45594000000E+02  0.51100000000E-03 0. -1.
    9900012    2    1    2    0    0 -0.19852193113E+01 -0.23203306500E+02  0.21780380381E+02  0.59301960770E+02  0.50000030534E+02 0.  0.
         12    1    1    2    0    0  0.19852193113E+01  0.23203306500E+02 -0.21780380381E+02  0.31886039230E+02  0.00000000000E+00 0. -1.
         11    1    3    3    0    0 -0.74222798771E+01 -0.12203027636E+02  0.24845253462E+02  0.28658170596E+02  0.51100000000E-03 0. -1.
        -11    1    3    3    0    0  0.76155828479E+01 -0.18086293444E+02  0.44126777788E+01  0.20114244656E+02  0.51100000000E-03 0.  1.
         12    1    3    3    0    0 -0.21785222821E+01  0.70860145801E+01 -0.74775508595E+01  0.10529545518E+02  0.00000000000E+00 0. -1.
</event>
<event>
 7    1  0.6164995E-012  0.5930194E+02  0.7816164E-02  0.1266605E+00
        -11   -1    0    0    0    0  0.00000000000E+00  0.00000000000E+00  0.45593999997E+02  0.45594000000E+02  0.51100000000E-03 0. -1.
         11   -1    0    0    0    0 -0.00000000000E+00 -0.00000000000E+00 -0.45593999997E+02  0.45594000000E+02  0.51100000000E-03 0.  1.
    9900012    2    1    2    0    0 -0.17399142657E+02  0.11101731037E+01 -0.26697532135E+02  0.59301939227E+02  0.49999991244E+02 0.  0.
         12    1    1    2    0    0  0.17399142657E+02 -0.11101731037E+01  0.26697532135E+02  0.31886060773E+02  0.00000000000E+00 0. -1.
         11    1    3    3    0    0 -0.41394333997E+01 -0.22477881265E+02 -0.95088868966E+01  0.24754979000E+02  0.51100000000E-03 0.  1.
        -11    1    3    3    0    0  0.46854177396E+00  0.11506530042E+02 -0.49054193120E+01  0.12517304178E+02  0.51100000000E-03 0. -1.
        -12    1    3    3    0    0 -0.13728251031E+02  0.12081524327E+02 -0.12283225927E+02  0.22029656048E+02  0.00000000000E+00 0.  1.
</event>
<event>
 7    1  0.6164995E-012  0.5930194E+02  0.7816164E-02  0.1266605E+00
        -11   -1    0    0    0    0  0.00000000000E+00  0.00000000000E+00  0.45593999997E+02  0.45594000000E+02  0.51100000000E-03 0. -1.
         11   -1    0    0    0    0 -0.00000000000E+00 -0.00000000000E+00 -0.45593999997E+02  0.45594000000E+02  0.51100000000E-03 0.  1.
    9900012    2    1    2    0    0 -0.10217077051E+02 -0.23583701511E+02 -0.18871694894E+02  0.59301944919E+02  0.50000001626E+02 0.  0.
         12    1    1    2    0    0  0.10217077051E+02  0.23583701511E+02  0.18871694894E+02  0.31886055081E+02  0.00000000000E+00 0. -1.
         11    1    3    3    0    0 -0.10866542337E+02 -0.17495135533E+02 -0.19372969255E+02  0.28274961498E+02  0.51100000000E-03 0. -1.
        -11    1    3    3    0    0 -0.90228767845E+01 -0.14259828221E+02 -0.44173756188E+01  0.17443285641E+02  0.51100000000E-03 0.  1.
         12    1    3    3    0    0  0.96723420703E+01  0.81712622424E+01  0.49186499800E+01  0.13583697780E+02  0.00000000000E+00 0. -1.
</event>
<event>
 7    1  0.6164995E-012  0.5930199E+02  0.7816164E-02  0.1266605E+00
        -11   -1    0    0    0    0  0.00000000000E+00  0.00000000000E+00  0.45593999997E+02  0.45594000000E+02  0.51100000000E-03 0. -1.
         11   -1    0    0    0    0 -0.00000000000E+00 -0.00000000000E+00 -0.45593999997E+02  0.45594000000E+02  0.51100000000E-03 0.  1.
    9900012    2    1    2    0    0 -0.75842193760E+01  0.30674218218E+02 -0.42766521516E+01  0.59301987385E+02  0.50000079074E+02 0.  0.
         12    1    1    2    0    0  0.75842193760E+01 -0.30674218218E+02  0.42766521516E+01  0.31886012615E+02  0.00000000000E+00 0. -1.
         11    1    3    3    0    0  0.93767246435E+01  0.20379513434E+02 -0.10265873288E+02  0.24670542910E+02  0.51100000000E-03 0. -1.
        -11    1    3    3    0    0  0.39380405048E+01  0.22959534486E+01  0.10817815284E+02  0.11739024365E+02  0.51100000000E-03 0.  1.
        -12    1    3    3    0    0 -0.20898984524E+02  0.79987513356E+01 -0.48285941472E+01  0.22892420111E+02  0.00000000000E+00 0.  1.
</event>
<event>
 7    1  0.6164995E-012  0.5930195E+02  0.7816164E-02  0.1266605E+00
        -11   -1    0    0    0    0  0.00000000000E+00  0.00000000000E+00  0.45593999997E+02  0.45594000000E+02  0.51100000000E-03 0. -1.
         11   -1    0    0    0    0 -0.00000000000E+00 -0.00000000000E+00 -0.45593999997E+02  0.45594000000E+02  0.51100000000E-03 0.  1.
    9900012    2    1    2    0    0 -0.28973275466E+02 -0.13213469851E+02 -0.16351655052E+01  0.59301949085E+02  0.50000009224E+02 0.  0.
         12    1    1    2    0    0  0.28973275466E+02  0.13213469851E+02  0.16351655052E+01  0.31886050915E+02  0.00000000000E+00 0. -1.
         11    1    3    3    0    0  0.20153219062E+01 -0.65743954996E+01 -0.12534228699E+02  0.14296541117E+02  0.51100000000E-03 0. -1.
        -11    1    3    3    0    0 -0.17754990773E+02 -0.17269256796E+02 -0.11916037517E+00  0.24768551171E+02  0.51100000000E-03 0.  1.
        -12    1    3    3    0    0 -0.13233606599E+02  0.10630182445E+02  0.11018223569E+02  0.20236856798E+02  0.00000000000E+00 0.  1.
</event>
<event>
 7    1  0.6164995E-012  0.5930193E+02  0.7816164E-02  0.1266605E+00
        -11   -1    0    0    0    0  0.00000000000E+00  0.00000000000E+00  0.45593999997E+02  0.45594000000E+02  0.51100000000E-03 0.  1.
         11   -1    0    0    0    0 -0.00000000000E+00 -0.00000000000E+00 -0.45593999997E+02  0.45594000000E+02  0.51100000000E-03 0. -1.
    9900012    2    1    2    0    0  0.13750443078E+02 -0.28667708592E+02  0.24102130093E+01  0.59301932078E+02  0.49999978207E+02 0.  0.
         12    1    1    2    0    0 -0.13750443078E+02  0.28667708592E+02 -0.24102130093E+01  0.31886067922E+02  0.00000000000E+00 0. -1.
         11    1    3    3    0    0  0.10820055132E+02 -0.71168204221E+01  0.34640074611E+01  0.13406046171E+02  0.51100000000E-03 0. -1.
        -11    1    3    3    0    0  0.17561276457E+02 -0.21718185069E+02 -0.88734837067E+01  0.29305574672E+02  0.51100000000E-03 0.  1.
         12    1    3    3    0    0 -0.14630888511E+02  0.16729689940E+00  0.78196892549E+01  0.16590311236E+02  0.00000000000E+00 0. -1.
</event>
<event>
 7    1  0.6164995E-012  0.5930201E+02  0.7816164E-02  0.1266605E+00
        -11   -1    0    0    0    0  0.00000000000E+00  0.00000000000E+00  0.45593999997E+02  0.45594000000E+02  0.51100000000E-03 0.  1.
         11   -1    0    0    0    0 -0.00000000000E+00 -0.00000000000E+00 -0.45593999997E+02  0.45594000000E+02  0.51100000000E-03 0. -1.
    9900012    2    1    2    0    0  0.30209061059E+01 -0.24041845848E+01  0.31651386334E+02  0.59302011948E+02  0.50000123870E+02 0.  0.
         12    1    1    2    0    0 -0.30209061059E+01  0.24041845848E+01 -0.31651386334E+02  0.31885988052E+02  0.00000000000E+00 0. -1.
         11    1    3    3    0    0  0.58354783924E+01  0.19750499610E+01  0.11100566301E+02  0.12695519008E+02  0.51100000000E-03 0. -1.
        -11    1    3    3    0    0 -0.13962000549E+02  0.10851224163E+02  0.21341966624E+02  0.27715808933E+02  0.51100000000E-03 0.  1.
         12    1    3    3    0    0  0.11147428262E+02 -0.15230458709E+02 -0.79114659084E+00  0.18890684008E+02  0.00000000000E+00 0. -1.
</event>
<event>
 7    1  0.6164995E-012  0.5930196E+02  0.7816164E-02  0.1266605E+00
        -11   -1    0    0    0    0  0.00000000000E+00  0.00000000000E+00  0.45593999997E+02  0.45594000000E+02  0.51100000000E-03 0. -1.
         11   -1    0    0    0    0 -0.00000000000E+00 -0.00000000000E+00 -0.45593999997E+02  0.45594000000E+02  0.51100000000E-03 0.  1.
    9900012    2    1    2    0    0 -0.84933732328E+01  0.25362986566E+02 -0.17358030146E+02  0.59301957803E+02  0.50000025123E+02 0.  0.
         12    1    1    2    0    0  0.84933732328E+01 -0.25362986566E+02  0.17358030146E+02  0.31886042197E+02  0.00000000000E+00 0. -1.
         11    1    3    3    0    0  0.26507643981E+01  0.17984432285E+02 -0.58812241335E+01  0.19106416568E+02  0.51100000000E-03 0. -1.
        -11    1    3    3    0    0  0.12033502063E+02  0.93412567279E+01 -0.52930242799E+01  0.16127007021E+02  0.51100000000E-03 0.  1.
         12    1    3    3    0    0 -0.23177639694E+02 -0.19627024470E+01 -0.61837817327E+01  0.24068534214E+02  0.00000000000E+00 0. -1.
</event>
<event>
 7    1  0.6164995E-012  0.5930195E+02  0.7816164E-02  0.1266605E+00
        -11   -1    0    0    0    0  0.00000000000E+00  0.00000000000E+00  0.45593999997E+02  0.45594000000E+02  0.51100000000E-03 0. -1.
         11   -1    0    0    0    0 -0.00000000000E+00 -0.00000000000E+00 -0.45593999997E+02  0.45594000000E+02  0.51100000000E-03 0.  1.
    9900012    2    1    2    0    0  0.12086990891E+02 -0.25178561173E+02 -0.15383923795E+02  0.59301946577E+02  0.50000004649E+02 0.  0.
         12    1    1    2    0    0 -0.12086990891E+02  0.25178561173E+02  0.15383923795E+02  0.31886053423E+02  0.00000000000E+00 0. -1.
         11    1    3    3    0    0 -0.12994881196E+02 -0.12157257001E+02 -0.34952365481E+00  0.17798539326E+02  0.51100000000E-03 0. -1.
        -11    1    3    3    0    0 -0.20074520213E+01 -0.88923794892E+01 -0.10196456293E+02  0.13677426578E+02  0.51100000000E-03 0.  1.
        -12    1    3    3    0    0  0.27089324109E+02 -0.41289246827E+01 -0.48379438470E+01  0.27825980672E+02  0.00000000000E+00 0.  1.
</event>
<event>
 7    1  0.6164995E-012  0.5930193E+02  0.7816164E-02  0.1266605E+00
        -11   -1    0    0    0    0  0.00000000000E+00  0.00000000000E+00  0.45593999997E+02  0.45594000000E+02  0.51100000000E-03 0.  1.
         11   -1    0    0    0    0 -0.00000000000E+00 -0.00000000000E+00 -0.45593999997E+02  0.45594000000E+02  0.51100000000E-03 0. -1.
    9900012    2    1    2    0    0 -0.17163048755E+02 -0.94559354929E+01  0.25154251604E+02  0.59301932002E+02  0.49999978068E+02 0.  0.
         12    1    1    2    0    0  0.17163048755E+02  0.94559354929E+01 -0.25154251604E+02  0.31886067998E+02  0.00000000000E+00 0. -1.
         11    1    3    3    0    0  0.96440502610E+00  0.10438002477E+02  0.19362222981E+02  0.22017666811E+02  0.51100000000E-03 0. -1.
        -11    1    3    3    0    0  0.50053874041E+01 -0.50914704746E+01 -0.39310183320E+01  0.81504527510E+01  0.51100000000E-03 0.  1.
        -12    1    3    3    0    0 -0.23132841185E+02 -0.14802467495E+02  0.97230469545E+01  0.29133812440E+02  0.00000000000E+00 0.  1.
</event>
<event>
 7    1  0.6164995E-012  0.5930195E+02  0.7816164E-02  0.1266605E+00
        -11   -1    0    0    0    0  0.00000000000E+00  0.00000000000E+00  0.45593999997E+02  0.45594000000E+02  0.51100000000E-03 0.  1.
         11   -1    0    0    0    0 -0.00000000000E+00 -0.00000000000E+00 -0.45593999997E+02  0.45594000000E+02  0.51100000000E-03 0. -1.
    9900012    2    1    2    0    0 -0.57525986260E+01  0.21776687819E+01  0.31287146402E+02  0.59301950351E+02  0.50000011532E+02 0.  0.
         12    1    1    2    0    0  0.57525986260E+01 -0.21776687819E+01 -0.31287146402E+02  0.31886049649E+02  0.00000000000E+00 0. -1.
         11    1    3    3    0    0  0.13500608037E+02  0.36551171509E+01  0.17445905914E+02  0.22360365206E+02  0.51100000000E-03 0.  1.
        -11    1    3    3    0    0 -0.26638694818E+02 -0.17918699871E+00  0.12016080955E+02  0.29223934906E+02  0.51100000000E-03 0. -1.
         12    1    3    3    0    0  0.73854881555E+01 -0.12982613703E+01  0.18251595329E+01  0.77176502384E+01  0.00000000000E+00 0. -1.
</event>
<event>
 7    1  0.6164995E-012  0.5930197E+02  0.7816164E-02  0.1266605E+00
        -11   -1    0    0    0    0  0.00000000000E+00  0.00000000000E+00  0.45593999997E+02  0.45594000000E+02  0.51100000000E-03 0.  1.
         11   -1    0    0    0    0 -0.00000000000E+00 -0.00000000000E+00 -0.45593999997E+02  0.45594000000E+02  0.51100000000E-03 0. -1.
    9900012    2    1    2    0    0 -0.30859866553E+02  0.16771578463E+00 -0.80224359553E+01  0.59301969031E+02  0.50000045600E+02 0.  0.
         12    1    1    2    0    0  0.30859866553E+02 -0.16771578463E+00  0.80224359553E+01  0.31886030969E+02  0.00000000000E+00 0. -1.
         11    1    3    3    0    0 -0.73421208036E+01 -0.18546088174E+02  0.26152233704E+00  0.19948246005E+02  0.51100000000E-03 0. -1.
        -11    1    3    3    0    0 -0.13952055399E+02  0.60114876809E-01  0.46675365077E+01  0.14712218084E+02  0.51100000000E-03 0.  1.
         12    1    3    3    0    0 -0.95656903511E+01  0.18653689082E+02 -0.12951494800E+02  0.24641504942E+02  0.00000000000E+00 0. -1.
</event>
<event>
 7    1  0.6164995E-012  0.5930196E+02  0.7816164E-02  0.1266605E+00
        -11   -1    0    0    0    0  0.00000000000E+00  0.00000000000E+00  0.45593999997E+02  0.45594000000E+02  0.51100000000E-03 0.  1.
         11   -1    0    0    0    0 -0.00000000000E+00 -0.00000000000E+00 -0.45593999997E+02  0.45594000000E+02  0.51100000000E-03 0. -1.
    9900012    2    1    2    0    0 -0.24769922657E+02  0.16206453399E+02  0.11854171934E+02  0.59301959286E+02  0.50000027827E+02 0.  0.
         12    1    1    2    0    0  0.24769922657E+02 -0.16206453399E+02 -0.11854171934E+02  0.31886040714E+02  0.00000000000E+00 0. -1.
         11    1    3    3    0    0 -0.13754909675E+01  0.12766563000E+02 -0.56881089083E+01  0.14043920017E+02  0.51100000000E-03 0. -1.
        -11    1    3    3    0    0  0.65722872303E+01  0.44067621874E+01  0.12588967219E+02  0.14869317682E+02  0.51100000000E-03 0.  1.
         12    1    3    3    0    0 -0.29966718919E+02 -0.96687178806E+00  0.49533136231E+01  0.30388721587E+02  0.00000000000E+00 0. -1.
</event>
<event>
 7    1  0.6164995E-012  0.5930195E+02  0.7816164E-02  0.1266605E+00
        -11   -1    0    0    0    0  0.00000000000E+00  0.00000000000E+00  0.45593999997E+02  0.45594000000E+02  0.51100000000E-03 0. -1.
         11   -1    0    0    0    0 -0.00000000000E+00 -0.00000000000E+00 -0.45593999997E+02  0.45594000000E+02  0.51100000000E-03 0.  1.
    9900012    2    1    2    0    0  0.18913159449E+02 -0.13927029949E+02 -0.21565032025E+02  0.59301947096E+02  0.50000005596E+02 0.  0.
         12    1    1    2    0    0 -0.18913159449E+02  0.13927029949E+02  0.21565032025E+02  0.31886052904E+02  0.00000000000E+00 0. -1.
         11    1    3    3    0    0  0.38450179484E+01 -0.18088430782E+02 -0.12556354495E+02  0.22352573222E+02  0.51100000000E-03 0. -1.
        -11    1    3    3    0    0  0.16541768847E+02  0.10617870891E+01 -0.19685356578E+02  0.25734622054E+02  0.51100000000E-03 0.  1.
         12    1    3    3    0    0 -0.14736273466E+01  0.30996137439E+01  0.10676679047E+02  0.11214751820E+02  0.00000000000E+00 0. -1.
</event>
<event>
 7    1  0.6164995E-012  0.5930194E+02  0.7816164E-02  0.1266605E+00
        -11   -1    0    0    0    0  0.00000000000E+00  0.00000000000E+00  0.45593999997E+02  0.45594000000E+02  0.51100000000E-03 0.  1.
         11   -1    0    0    0    0 -0.00000000000E+00 -0.00000000000E+00 -0.45593999997E+02  0.45594000000E+02  0.51100000000E-03 0. -1.
    9900012    2    1    2    0    0 -0.12920529743E+02 -0.26571224911E+02  0.11989614587E+02  0.59301938153E+02  0.49999989287E+02 0.  0.
         12    1    1    2    0    0  0.12920529743E+02  0.26571224911E+02 -0.11989614587E+02  0.31886061847E+02  0.00000000000E+00 0. -1.
         11    1    3    3    0    0  0.32349357136E+01  0.45351423482E+01  0.13022798693E+02  0.14164237052E+02  0.51100000000E-03 0.  1.
        -11    1    3    3    0    0 -0.68627805851E+01 -0.31194942789E+02  0.71770324753E+01  0.32737318283E+02  0.51100000000E-03 0. -1.
         12    1    3    3    0    0 -0.92926848715E+01  0.88575529051E-01 -0.82102165813E+01  0.12400382819E+02  0.00000000000E+00 0. -1.
</event>
<event>
 7    1  0.6164995E-012  0.5930194E+02  0.7816164E-02  0.1266605E+00
        -11   -1    0    0    0    0  0.00000000000E+00  0.00000000000E+00  0.45593999997E+02  0.45594000000E+02  0.51100000000E-03 0. -1.
         11   -1    0    0    0    0 -0.00000000000E+00 -0.00000000000E+00 -0.45593999997E+02  0.45594000000E+02  0.51100000000E-03 0.  1.
    9900012    2    1    2    0    0  0.21506582721E+02  0.13441990993E+02 -0.19326164183E+02  0.59301939657E+02  0.49999992028E+02 0.  0.
         12    1    1    2    0    0 -0.21506582721E+02 -0.13441990993E+02  0.19326164183E+02  0.31886060343E+02  0.00000000000E+00 0. -1.
         11    1    3    3    0    0  0.78085921581E+01 -0.11529229614E+02  0.12731672332E+01  0.13982782343E+02  0.51100000000E-03 0. -1.
        -11    1    3    3    0    0  0.10657154022E+02  0.16891866971E+01  0.38166171334E+01  0.11445298168E+02  0.51100000000E-03 0.  1.
         12    1    3    3    0    0  0.30408365410E+01  0.23282033910E+02 -0.24415948550E+02  0.33873859146E+02  0.00000000000E+00 0. -1.
</event>
<event>
 7    1  0.6164995E-012  0.5930196E+02  0.7816164E-02  0.1266605E+00
        -11   -1    0    0    0    0  0.00000000000E+00  0.00000000000E+00  0.45593999997E+02  0.45594000000E+02  0.51100000000E-03 0.  1.
         11   -1    0    0    0    0 -0.00000000000E+00 -0.00000000000E+00 -0.45593999997E+02  0.45594000000E+02  0.51100000000E-03 0. -1.
    9900012    2    1    2    0    0 -0.29401366820E+02 -0.69161591872E+01 -0.10219871657E+02  0.59301962217E+02  0.50000033174E+02 0.  0.
         12    1    1    2    0    0  0.29401366820E+02  0.69161591872E+01  0.10219871657E+02  0.31886037783E+02  0.00000000000E+00 0. -1.
         11    1    3    3    0    0  0.68933332693E+00  0.25274124612E+01 -0.19003229653E+02  0.19182954196E+02  0.51100000000E-03 0. -1.
        -11    1    3    3    0    0 -0.45425568045E+01  0.27662773876E+01 -0.61302263782E+01  0.81158356696E+01  0.51100000000E-03 0.  1.
        -12    1    3    3    0    0 -0.25548143342E+02 -0.12209849036E+02  0.14913584374E+02  0.32003172352E+02  0.00000000000E+00 0.  1.
</event>
<event>
 7    1  0.6164995E-012  0.5930199E+02  0.7816164E-02  0.1266605E+00
        -11   -1    0    0    0    0  0.00000000000E+00  0.00000000000E+00  0.45593999997E+02  0.45594000000E+02  0.51100000000E-03 0. -1.
         11   -1    0    0    0    0 -0.00000000000E+00 -0.00000000000E+00 -0.45593999997E+02  0.45594000000E+02  0.51100000000E-03 0.  1.
    9900012    2    1    2    0    0 -0.18555782603E+02  0.20850405930E+01 -0.25846722790E+02  0.59301991449E+02  0.50000086486E+02 0.  0.
         12    1    1    2    0    0  0.18555782603E+02 -0.20850405930E+01  0.25846722790E+02  0.31886008551E+02  0.00000000000E+00 0. -1.
         11    1    3    3    0    0 -0.11709711419E+01  0.62258766446E+01  0.78403462149E+01  0.10079868176E+02  0.51100000000E-03 0. -1.
        -11    1    3    3    0    0  0.52168492244E-01 -0.41911980197E+01  0.51559632735E+01  0.66447588317E+01  0.51100000000E-03 0.  1.
        -12    1    3    3    0    0 -0.17436979954E+02  0.50361968097E-01 -0.38843032279E+02  0.42577364442E+02  0.00000000000E+00 0.  1.
</event>
<event>
 7    1  0.6164995E-012  0.5930195E+02  0.7816164E-02  0.1266605E+00
        -11   -1    0    0    0    0  0.00000000000E+00  0.00000000000E+00  0.45593999997E+02  0.45594000000E+02  0.51100000000E-03 0.  1.
         11   -1    0    0    0    0 -0.00000000000E+00 -0.00000000000E+00 -0.45593999997E+02  0.45594000000E+02  0.51100000000E-03 0. -1.
    9900012    2    1    2    0    0 -0.15119445413E+02 -0.27233083973E+02  0.68177476108E+01  0.59301950154E+02  0.50000011174E+02 0.  0.
         12    1    1    2    0    0  0.15119445413E+02  0.27233083973E+02 -0.68177476108E+01  0.31886049846E+02  0.00000000000E+00 0. -1.
         11    1    3    3    0    0 -0.18957906323E+02 -0.18487038471E+02  0.59914206197E+01  0.27149031749E+02  0.51100000000E-03 0. -1.
        -11    1    3    3    0    0 -0.65967841639E+01 -0.12550683475E+02  0.10323626577E+02  0.17538941900E+02  0.51100000000E-03 0.  1.
        -12    1    3    3    0    0  0.10435245075E+02  0.38046379734E+01 -0.94972995862E+01  0.14613976506E+02  0.00000000000E+00 0.  1.
</event>
<event>
 7    1  0.6164995E-012  0.5930194E+02  0.7816164E-02  0.1266605E+00
        -11   -1    0    0    0    0  0.00000000000E+00  0.00000000000E+00  0.45593999997E+02  0.45594000000E+02  0.51100000000E-03 0.  1.
         11   -1    0    0    0    0 -0.00000000000E+00 -0.00000000000E+00 -0.45593999997E+02  0.45594000000E+02  0.51100000000E-03 0. -1.
    9900012    2    1    2    0    0 -0.76234463132E+01  0.22134175982E+02  0.21649071308E+02  0.59301937707E+02  0.49999988472E+02 0.  0.
         12    1    1    2    0    0  0.76234463132E+01 -0.22134175982E+02 -0.21649071308E+02  0.31886062293E+02  0.00000000000E+00 0. -1.
         11    1    3    3    0    0  0.88521515828E+01  0.26420225511E+02  0.35738955476E+01  0.28092020813E+02  0.51100000000E-03 0.  1.
        -11    1    3    3    0    0 -0.41520788516E+01  0.69333588973E+01  0.94838227422E+01  0.12460101061E+02  0.51100000000E-03 0. -1.
        -12    1    3    3    0    0 -0.12323519044E+02 -0.11219408426E+02  0.85913530178E+01  0.18749815832E+02  0.00000000000E+00 0.  1.
</event>
<event>
 7    1  0.6164995E-012  0.5930161E+02  0.7816164E-02  0.1266606E+00
        -11   -1    0    0    0    0  0.00000000000E+00  0.00000000000E+00  0.45593999997E+02  0.45594000000E+02  0.51100000000E-03 0.  1.
         11   -1    0    0    0    0 -0.00000000000E+00 -0.00000000000E+00 -0.45593999997E+02  0.45594000000E+02  0.51100000000E-03 0. -1.
    9900012    2    1    2    0    0 -0.13536639177E+02  0.21430120989E+02  0.19345578690E+02  0.59301606340E+02  0.49999384135E+02 0.  0.
         12    1    1    2    0    0  0.13536639177E+02 -0.21430120989E+02 -0.19345578690E+02  0.31886393660E+02  0.00000000000E+00 0. -1.
         11    1    3    3    0    0  0.93878024275E+01  0.20079343681E+02  0.40304271509E+01  0.22528986226E+02  0.51100000000E-03 0. -1.
        -11    1    3    3    0    0 -0.67434698282E+01  0.56277211636E+01  0.17803282104E+02  0.19852014627E+02  0.51100000000E-03 0.  1.
        -12    1    3    3    0    0 -0.16180971776E+02 -0.42769438553E+01 -0.24881305650E+01  0.16920605487E+02  0.00000000000E+00 0.  1.
</event>
<event>
 7    1  0.6164995E-012  0.5930197E+02  0.7816164E-02  0.1266605E+00
        -11   -1    0    0    0    0  0.00000000000E+00  0.00000000000E+00  0.45593999997E+02  0.45594000000E+02  0.51100000000E-03 0. -1.
         11   -1    0    0    0    0 -0.00000000000E+00 -0.00000000000E+00 -0.45593999997E+02  0.45594000000E+02  0.51100000000E-03 0.  1.
    9900012    2    1    2    0    0  0.29565311858E+02 -0.11662449998E+02 -0.25688097609E+01  0.59301965616E+02  0.50000039371E+02 0.  0.
         12    1    1    2    0    0 -0.29565311858E+02  0.11662449998E+02  0.25688097609E+01  0.31886034384E+02  0.00000000000E+00 0. -1.
         11    1    3    3    0    0  0.18369608214E+02  0.15795636463E+02  0.63718052107E+01  0.25050839090E+02  0.51100000000E-03 0. -1.
        -11    1    3    3    0    0 -0.13751921923E+01  0.11520787645E+01 -0.75754689184E+00  0.19473871212E+01  0.51100000000E-03 0.  1.
        -12    1    3    3    0    0  0.12570895836E+02 -0.28610165225E+02 -0.81830680798E+01  0.32303739404E+02  0.00000000000E+00 0.  1.
</event>
<event>
 7    1  0.6164995E-012  0.5930190E+02  0.7816164E-02  0.1266605E+00
        -11   -1    0    0    0    0  0.00000000000E+00  0.00000000000E+00  0.45593999997E+02  0.45594000000E+02  0.51100000000E-03 0.  1.
         11   -1    0    0    0    0 -0.00000000000E+00 -0.00000000000E+00 -0.45593999997E+02  0.45594000000E+02  0.51100000000E-03 0. -1.
    9900012    2    1    2    0    0  0.19007742648E+01  0.72481249284E+00  0.31821141494E+02  0.59301900491E+02  0.49999920599E+02 0.  0.
         12    1    1    2    0    0 -0.19007742648E+01 -0.72481249284E+00 -0.31821141494E+02  0.31886099509E+02  0.00000000000E+00 0. -1.
         11    1    3    3    0    0  0.48950469739E+01  0.17703128291E+01  0.14718185186E+02  0.15611549181E+02  0.51100000000E-03 0. -1.
        -11    1    3    3    0    0 -0.10240386861E+02  0.17504396996E+02  0.90901645098E+01  0.22223872937E+02  0.51100000000E-03 0.  1.
        -12    1    3    3    0    0  0.72461141521E+01 -0.18549897332E+02  0.80127917972E+01  0.21466478373E+02  0.00000000000E+00 0.  1.
</event>
<event>
 7    1  0.6164995E-012  0.5930194E+02  0.7816164E-02  0.1266605E+00
        -11   -1    0    0    0    0  0.00000000000E+00  0.00000000000E+00  0.45593999997E+02  0.45594000000E+02  0.51100000000E-03 0.  1.
         11   -1    0    0    0    0 -0.00000000000E+00 -0.00000000000E+00 -0.45593999997E+02  0.45594000000E+02  0.51100000000E-03 0. -1.
    9900012    2    1    2    0    0 -0.11317254923E+02 -0.21459254187E+02  0.20691573799E+02  0.59301936030E+02  0.49999985414E+02 0.  0.
         12    1    1    2    0    0  0.11317254923E+02  0.21459254187E+02 -0.20691573799E+02  0.31886063970E+02  0.00000000000E+00 0. -1.
         11    1    3    3    0    0 -0.73497927407E+01 -0.49281556388E+01 -0.21362802032E+01  0.91032886749E+01  0.51100000000E-03 0. -1.
        -11    1    3    3    0    0 -0.15638463029E+02  0.74741343141E+01  0.47870357854E+01  0.17981655139E+02  0.51100000000E-03 0.  1.
        -12    1    3    3    0    0  0.11671000847E+02 -0.24005232862E+02  0.18040818217E+02  0.32216992216E+02  0.00000000000E+00 0.  1.
</event>
<event>
 7    1  0.6164995E-012  0.5930196E+02  0.7816164E-02  0.1266605E+00
        -11   -1    0    0    0    0  0.00000000000E+00  0.00000000000E+00  0.45593999997E+02  0.45594000000E+02  0.51100000000E-03 0.  1.
         11   -1    0    0    0    0 -0.00000000000E+00 -0.00000000000E+00 -0.45593999997E+02  0.45594000000E+02  0.51100000000E-03 0. -1.
    9900012    2    1    2    0    0  0.11682324704E+02  0.24267017871E+01  0.29569476854E+02  0.59301959897E+02  0.50000028941E+02 0.  0.
         12    1    1    2    0    0 -0.11682324704E+02 -0.24267017871E+01 -0.29569476854E+02  0.31886040103E+02  0.00000000000E+00 0. -1.
         11    1    3    3    0    0  0.17262707503E+02 -0.35153581552E+01  0.86017149060E+01  0.19604803311E+02  0.51100000000E-03 0. -1.
        -11    1    3    3    0    0  0.37296667406E+01 -0.12464818176E+02  0.93613877005E+01  0.16028652036E+02  0.51100000000E-03 0.  1.
        -12    1    3    3    0    0 -0.93100495387E+01  0.18406878118E+02  0.11606374247E+02  0.23668504550E+02  0.00000000000E+00 0.  1.
</event>
<event>
 7    1  0.6164995E-012  0.5930195E+02  0.7816164E-02  0.1266605E+00
        -11   -1    0    0    0    0  0.00000000000E+00  0.00000000000E+00  0.45593999997E+02  0.45594000000E+02  0.51100000000E-03 0.  1.
         11   -1    0    0    0    0 -0.00000000000E+00 -0.00000000000E+00 -0.45593999997E+02  0.45594000000E+02  0.51100000000E-03 0. -1.
    9900012    2    1    2    0    0 -0.38786704450E+01  0.29573195676E+02  0.11273954101E+02  0.59301952456E+02  0.50000015371E+02 0.  0.
         12    1    1    2    0    0  0.38786704450E+01 -0.29573195676E+02 -0.11273954101E+02  0.31886047544E+02  0.00000000000E+00 0. -1.
         11    1    3    3    0    0 -0.79500396705E+01  0.29652313958E+02 -0.42858709856E+01  0.30997282852E+02  0.51100000000E-03 0. -1.
        -11    1    3    3    0    0 -0.73817372200E+00 -0.64907591704E+01 -0.36547315066E+01  0.74854470607E+01  0.51100000000E-03 0.  1.
         12    1    3    3    0    0  0.48095429476E+01  0.64116408884E+01  0.19214556593E+02  0.20819222544E+02  0.00000000000E+00 0. -1.
</event>
<event>
 7    1  0.6164995E-012  0.5930195E+02  0.7816164E-02  0.1266605E+00
        -11   -1    0    0    0    0  0.00000000000E+00  0.00000000000E+00  0.45593999997E+02  0.45594000000E+02  0.51100000000E-03 0.  1.
         11   -1    0    0    0    0 -0.00000000000E+00 -0.00000000000E+00 -0.45593999997E+02  0.45594000000E+02  0.51100000000E-03 0. -1.
    9900012    2    1    2    0    0 -0.30282844426E+02 -0.73220286826E+01  0.67865753786E+01  0.59301946999E+02  0.50000005420E+02 0.  0.
         12    1    1    2    0    0  0.30282844426E+02  0.73220286826E+01 -0.67865753786E+01  0.31886053001E+02  0.00000000000E+00 0. -1.
         11    1    3    3    0    0  0.33149443436E+01  0.35206338931E+00  0.12336335793E+02  0.12778810026E+02  0.51100000000E-03 0. -1.
        -11    1    3    3    0    0  0.85139258449E+00  0.11794822150E+01  0.82455455063E+01  0.83728769599E+01  0.51100000000E-03 0.  1.
        -12    1    3    3    0    0 -0.34449181355E+02 -0.88535742869E+01 -0.13795305920E+02  0.38150260013E+02  0.00000000000E+00 0.  1.
</event>
<event>
 7    1  0.6164995E-012  0.5930194E+02  0.7816164E-02  0.1266605E+00
        -11   -1    0    0    0    0  0.00000000000E+00  0.00000000000E+00  0.45593999997E+02  0.45594000000E+02  0.51100000000E-03 0.  1.
         11   -1    0    0    0    0 -0.00000000000E+00 -0.00000000000E+00 -0.45593999997E+02  0.45594000000E+02  0.51100000000E-03 0. -1.
    9900012    2    1    2    0    0 -0.12353958662E+02  0.29347136520E+02  0.16871318884E+01  0.59301935167E+02  0.49999983840E+02 0.  0.
         12    1    1    2    0    0  0.12353958662E+02 -0.29347136520E+02 -0.16871318884E+01  0.31886064833E+02  0.00000000000E+00 0. -1.
         11    1    3    3    0    0  0.11688492709E+02 -0.27943794679E+01  0.42117427054E+01  0.12734527683E+02  0.51100000000E-03 0. -1.
        -11    1    3    3    0    0 -0.76144044961E+01 -0.25918651154E+01  0.22563248804E+00  0.80466036865E+01  0.51100000000E-03 0.  1.
         12    1    3    3    0    0 -0.16428046875E+02  0.34733381103E+02 -0.27502433050E+01  0.38520803798E+02  0.00000000000E+00 0. -1.
</event>
<event>
 7    1  0.6164995E-012  0.5930228E+02  0.7816164E-02  0.1266604E+00
        -11   -1    0    0    0    0  0.00000000000E+00  0.00000000000E+00  0.45593999997E+02  0.45594000000E+02  0.51100000000E-03 0.  1.
         11   -1    0    0    0    0 -0.00000000000E+00 -0.00000000000E+00 -0.45593999997E+02  0.45594000000E+02  0.51100000000E-03 0. -1.
    9900012    2    1    2    0    0 -0.19591725944E+02 -0.15661712282E+02  0.19686896776E+02  0.59302284362E+02  0.50000620684E+02 0.  0.
         12    1    1    2    0    0  0.19591725944E+02  0.15661712282E+02 -0.19686896776E+02  0.31885715638E+02  0.00000000000E+00 0. -1.
         11    1    3    3    0    0 -0.18688496069E+02  0.11138326349E+02  0.91901229823E+01  0.23617378345E+02  0.51100000000E-03 0. -1.
        -11    1    3    3    0    0 -0.37832845595E+01 -0.71075477167E+01  0.13339259472E+02  0.15580960179E+02  0.51100000000E-03 0.  1.
        -12    1    3    3    0    0  0.28800546853E+01 -0.19692490915E+02 -0.28424856774E+01  0.20103945838E+02  0.00000000000E+00 0.  1.
</event>
<event>
 7    1  0.6164995E-012  0.5930197E+02  0.7816164E-02  0.1266605E+00
        -11   -1    0    0    0    0  0.00000000000E+00  0.00000000000E+00  0.45593999997E+02  0.45594000000E+02  0.51100000000E-03 0.  1.
         11   -1    0    0    0    0 -0.00000000000E+00 -0.00000000000E+00 -0.45593999997E+02  0.45594000000E+02  0.51100000000E-03 0. -1.
    9900012    2    1    2    0    0 -0.14398967381E+02  0.18146908349E+02  0.21910690954E+02  0.59301969793E+02  0.50000046990E+02 0.  0.
         12    1    1    2    0    0  0.14398967381E+02 -0.18146908349E+02 -0.21910690954E+02  0.31886030207E+02  0.00000000000E+00 0. -1.
         11    1    3    3    0    0 -0.35138692524E+01  0.19825936483E+02  0.13913667976E+02  0.24474582557E+02  0.51100000000E-03 0. -1.
        -11    1    3    3    0    0 -0.12409166117E+02  0.13489823386E+02  0.67446007630E+01  0.19530805882E+02  0.51100000000E-03 0.  1.
        -12    1    3    3    0    0  0.15240679876E+01 -0.15168851521E+02  0.12524222156E+01  0.15296581353E+02  0.00000000000E+00 0.  1.
</event>
<event>
 7    1  0.6164995E-012  0.5930195E+02  0.7816164E-02  0.1266605E+00
        -11   -1    0    0    0    0  0.00000000000E+00  0.00000000000E+00  0.45593999997E+02  0.45594000000E+02  0.51100000000E-03 0.  1.
         11   -1    0    0    0    0 -0.00000000000E+00 -0.00000000000E+00 -0.45593999997E+02  0.45594000000E+02  0.51100000000E-03 0. -1.
    9900012    2    1    2    0    0  0.54965742737E+01 -0.17202267096E+02  0.26279075878E+02  0.59301950527E+02  0.50000011853E+02 0.  0.
         12    1    1    2    0    0 -0.54965742737E+01  0.17202267096E+02 -0.26279075878E+02  0.31886049473E+02  0.00000000000E+00 0. -1.
         11    1    3    3    0    0  0.77958521065E+01  0.21544714209E+01  0.13091734882E+02  0.15388651002E+02  0.51100000000E-03 0. -1.
        -11    1    3    3    0    0  0.14331651941E+02 -0.14743475972E+02  0.16470717891E+02  0.26344845401E+02  0.51100000000E-03 0.  1.
         12    1    3    3    0    0 -0.16630929774E+02 -0.46132625448E+01 -0.32833768947E+01  0.17568454124E+02  0.00000000000E+00 0. -1.
</event>
<event>
 7    1  0.6164995E-012  0.5930192E+02  0.7816164E-02  0.1266605E+00
        -11   -1    0    0    0    0  0.00000000000E+00  0.00000000000E+00  0.45593999997E+02  0.45594000000E+02  0.51100000000E-03 0. -1.
         11   -1    0    0    0    0 -0.00000000000E+00 -0.00000000000E+00 -0.45593999997E+02  0.45594000000E+02  0.51100000000E-03 0.  1.
    9900012    2    1    2    0    0 -0.18607937996E+02  0.23827596250E+02 -0.10134724877E+02  0.59301916078E+02  0.49999949027E+02 0.  0.
         12    1    1    2    0    0  0.18607937996E+02 -0.23827596250E+02  0.10134724877E+02  0.31886083922E+02  0.00000000000E+00 0. -1.
         11    1    3    3    0    0 -0.16078274953E+02  0.52063215163E+01 -0.17261538721E+02  0.24157347298E+02  0.51100000000E-03 0. -1.
        -11    1    3    3    0    0 -0.47090301598E+01  0.14875130858E+02 -0.92942849710E+01  0.18161173323E+02  0.51100000000E-03 0.  1.
         12    1    3    3    0    0  0.21793671167E+01  0.37461438753E+01  0.16421098815E+02  0.16983395457E+02  0.00000000000E+00 0. -1.
</event>
<event>
 7    1  0.6164995E-012  0.5930192E+02  0.7816164E-02  0.1266605E+00
        -11   -1    0    0    0    0  0.00000000000E+00  0.00000000000E+00  0.45593999997E+02  0.45594000000E+02  0.51100000000E-03 0. -1.
         11   -1    0    0    0    0 -0.00000000000E+00 -0.00000000000E+00 -0.45593999997E+02  0.45594000000E+02  0.51100000000E-03 0.  1.
    9900012    2    1    2    0    0 -0.11495165060E+01 -0.31047020066E+02 -0.71751635350E+01  0.59301924435E+02  0.49999964268E+02 0.  0.
         12    1    1    2    0    0  0.11495165060E+01  0.31047020066E+02  0.71751635350E+01  0.31886075565E+02  0.00000000000E+00 0. -1.
         11    1    3    3    0    0 -0.12803058986E+02 -0.66665631937E+01  0.83033418450E+01  0.16652533449E+02  0.51100000000E-03 0. -1.
        -11    1    3    3    0    0 -0.13526328647E+01  0.37914702302E+01  0.42702364068E+01  0.58685416762E+01  0.51100000000E-03 0.  1.
        -12    1    3    3    0    0  0.13006175345E+02 -0.28171927103E+02 -0.19748741787E+02  0.36780849310E+02  0.00000000000E+00 0.  1.
</event>
<event>
 7    1  0.6164995E-012  0.5930194E+02  0.7816164E-02  0.1266605E+00
        -11   -1    0    0    0    0  0.00000000000E+00  0.00000000000E+00  0.45593999997E+02  0.45594000000E+02  0.51100000000E-03 0. -1.
         11   -1    0    0    0    0 -0.00000000000E+00 -0.00000000000E+00 -0.45593999997E+02  0.45594000000E+02  0.51100000000E-03 0.  1.
    9900012    2    1    2    0    0  0.16652495126E+01 -0.17769189640E+02 -0.26423538157E+02  0.59301944660E+02  0.50000001154E+02 0.  0.
         12    1    1    2    0    0 -0.16652495126E+01  0.17769189640E+02  0.26423538157E+02  0.31886055340E+02  0.00000000000E+00 0. -1.
         11    1    3    3    0    0 -0.45224352134E+01 -0.22967326100E+02 -0.47463185213E+01  0.23884681874E+02  0.51100000000E-03 0. -1.
        -11    1    3    3    0    0 -0.10534910494E+02  0.67711991717E+00 -0.98795060206E+01  0.14458473985E+02  0.51100000000E-03 0.  1.
        -12    1    3    3    0    0  0.16722595220E+02  0.45210165430E+01 -0.11797713615E+02  0.20958788801E+02  0.00000000000E+00 0.  1.
</event>
<event>
 7    1  0.6164995E-012  0.5930201E+02  0.7816164E-02  0.1266605E+00
        -11   -1    0    0    0    0  0.00000000000E+00  0.00000000000E+00  0.45593999997E+02  0.45594000000E+02  0.51100000000E-03 0.  1.
         11   -1    0    0    0    0 -0.00000000000E+00 -0.00000000000E+00 -0.45593999997E+02  0.45594000000E+02  0.51100000000E-03 0. -1.
    9900012    2    1    2    0    0  0.12051370933E+02  0.20327553104E+01  0.29450790001E+02  0.59302005156E+02  0.50000111483E+02 0.  0.
         12    1    1    2    0    0 -0.12051370933E+02 -0.20327553104E+01 -0.29450790001E+02  0.31885994844E+02  0.00000000000E+00 0. -1.
         11    1    3    3    0    0  0.88351695099E+01 -0.10362827549E+02  0.18045778235E+01  0.13736990808E+02  0.51100000000E-03 0. -1.
        -11    1    3    3    0    0  0.93533346857E+01  0.70505385150E+01 -0.43919302857E+01  0.12509357097E+02  0.51100000000E-03 0.  1.
        -12    1    3    3    0    0 -0.61371332629E+01  0.53450443445E+01  0.32038142463E+02  0.33055657250E+02  0.00000000000E+00 0.  1.
</event>
<event>
 7    1  0.6164995E-012  0.5930194E+02  0.7816164E-02  0.1266605E+00
        -11   -1    0    0    0    0  0.00000000000E+00  0.00000000000E+00  0.45593999997E+02  0.45594000000E+02  0.51100000000E-03 0.  1.
         11   -1    0    0    0    0 -0.00000000000E+00 -0.00000000000E+00 -0.45593999997E+02  0.45594000000E+02  0.51100000000E-03 0. -1.
    9900012    2    1    2    0    0  0.25882809646E+02 -0.31796269334E+01  0.18349136737E+02  0.59301942207E+02  0.49999996680E+02 0.  0.
         12    1    1    2    0    0 -0.25882809646E+02  0.31796269334E+01 -0.18349136737E+02  0.31886057793E+02  0.00000000000E+00 0. -1.
         11    1    3    3    0    0  0.77522282364E+00  0.35332889220E+00  0.32577489878E+01  0.33673046285E+01  0.51100000000E-03 0. -1.
        -11    1    3    3    0    0 -0.26263517932E+01  0.16420218233E+02 -0.35653151077E+01  0.17006844582E+02  0.51100000000E-03 0.  1.
         12    1    3    3    0    0  0.27733938615E+02 -0.19953174058E+02  0.18656702856E+02  0.38927792997E+02  0.00000000000E+00 0. -1.
</event>
<event>
 7    1  0.6164995E-012  0.5930191E+02  0.7816164E-02  0.1266605E+00
        -11   -1    0    0    0    0  0.00000000000E+00  0.00000000000E+00  0.45593999997E+02  0.45594000000E+02  0.51100000000E-03 0. -1.
         11   -1    0    0    0    0 -0.00000000000E+00 -0.00000000000E+00 -0.45593999997E+02  0.45594000000E+02  0.51100000000E-03 0.  1.
    9900012    2    1    2    0    0 -0.72884948787E+01  0.91489047558E+01 -0.29663081742E+02  0.59301905315E+02  0.49999929398E+02 0.  0.
         12    1    1    2    0    0  0.72884948787E+01 -0.91489047558E+01  0.29663081742E+02  0.31886094685E+02  0.00000000000E+00 0. -1.
         11    1    3    3    0    0  0.27958918660E+01 -0.65751093646E+01  0.21778266596E+01  0.74694045080E+01  0.51100000000E-03 0. -1.
        -11    1    3    3    0    0  0.75749208825E+00  0.25415812435E+02 -0.25358426998E+02  0.35910821991E+02  0.51100000000E-03 0.  1.
         12    1    3    3    0    0 -0.10841878833E+02 -0.96917983144E+01 -0.64824814032E+01  0.15921678817E+02  0.00000000000E+00 0. -1.
</event>
<event>
 7    1  0.6164995E-012  0.5930195E+02  0.7816164E-02  0.1266605E+00
        -11   -1    0    0    0    0  0.00000000000E+00  0.00000000000E+00  0.45593999997E+02  0.45594000000E+02  0.51100000000E-03 0. -1.
         11   -1    0    0    0    0 -0.00000000000E+00 -0.00000000000E+00 -0.45593999997E+02  0.45594000000E+02  0.51100000000E-03 0.  1.
    9900012    2    1    2    0    0  0.18678886855E+02 -0.25842102706E+02  0.70641449282E-01  0.59301951693E+02  0.50000013980E+02 0.  0.
         12    1    1    2    0    0 -0.18678886855E+02  0.25842102706E+02 -0.70641449282E-01  0.31886048307E+02  0.00000000000E+00 0. -1.
         11    1    3    3    0    0  0.72478114015E+01 -0.17290673457E+02  0.70895125003E+01  0.20043935404E+02  0.51100000000E-03 0. -1.
        -11    1    3    3    0    0  0.21009327897E+02 -0.12014768306E+02  0.36867737070E+01  0.24481397361E+02  0.51100000000E-03 0.  1.
         12    1    3    3    0    0 -0.95782524430E+01  0.34633390574E+01 -0.10705644758E+02  0.14776618929E+02  0.00000000000E+00 0. -1.
</event>
<event>
 7    1  0.6164995E-012  0.5930195E+02  0.7816164E-02  0.1266605E+00
        -11   -1    0    0    0    0  0.00000000000E+00  0.00000000000E+00  0.45593999997E+02  0.45594000000E+02  0.51100000000E-03 0.  1.
         11   -1    0    0    0    0 -0.00000000000E+00 -0.00000000000E+00 -0.45593999997E+02  0.45594000000E+02  0.51100000000E-03 0. -1.
    9900012    2    1    2    0    0  0.75683188053E+01  0.29194996688E+02  0.10348574784E+02  0.59301948485E+02  0.50000008129E+02 0.  0.
         12    1    1    2    0    0 -0.75683188053E+01 -0.29194996688E+02 -0.10348574784E+02  0.31886051515E+02  0.00000000000E+00 0. -1.
         11    1    3    3    0    0 -0.11638337536E+02  0.94062168995E+01 -0.12777675192E+02  0.19677316904E+02  0.51100000000E-03 0. -1.
        -11    1    3    3    0    0  0.97512303095E+01 -0.20569453757E+00  0.46494630937E+01  0.10804920643E+02  0.51100000000E-03 0.  1.
        -12    1    3    3    0    0  0.94554260315E+01  0.19994474326E+02  0.18476786883E+02  0.28819710938E+02  0.00000000000E+00 0.  1.
</event>
<event>
 7    1  0.6164995E-012  0.5930195E+02  0.7816164E-02  0.1266605E+00
        -11   -1    0    0    0    0  0.00000000000E+00  0.00000000000E+00  0.45593999997E+02  0.45594000000E+02  0.51100000000E-03 0.  1.
         11   -1    0    0    0    0 -0.00000000000E+00 -0.00000000000E+00 -0.45593999997E+02  0.45594000000E+02  0.51100000000E-03 0. -1.
    9900012    2    1    2    0    0 -0.13182107923E+02 -0.28209661771E+02  0.68678555407E+01  0.59301946211E+02  0.50000003982E+02 0.  0.
         12    1    1    2    0    0  0.13182107923E+02  0.28209661771E+02 -0.68678555407E+01  0.31886053789E+02  0.00000000000E+00 0. -1.
         11    1    3    3    0    0 -0.16283878596E+02 -0.25834023753E+02 -0.40179078884E+01  0.30801056304E+02  0.51100000000E-03 0. -1.
        -11    1    3    3    0    0 -0.73315448314E+01 -0.78302761808E+01  0.12661549045E+02  0.16594565350E+02  0.51100000000E-03 0.  1.
         12    1    3    3    0    0  0.10433315504E+02  0.54546381631E+01 -0.17757856159E+01  0.11906324557E+02  0.00000000000E+00 0. -1.
</event>
<event>
 7    1  0.6164995E-012  0.5930191E+02  0.7816164E-02  0.1266605E+00
        -11   -1    0    0    0    0  0.00000000000E+00  0.00000000000E+00  0.45593999997E+02  0.45594000000E+02  0.51100000000E-03 0.  1.
         11   -1    0    0    0    0 -0.00000000000E+00 -0.00000000000E+00 -0.45593999997E+02  0.45594000000E+02  0.51100000000E-03 0. -1.
    9900012    2    1    2    0    0  0.30521346315E+02  0.63020953145E+01  0.67419413616E+01  0.59301909622E+02  0.49999937253E+02 0.  0.
         12    1    1    2    0    0 -0.30521346315E+02 -0.63020953145E+01 -0.67419413616E+01  0.31886090378E+02  0.00000000000E+00 0. -1.
         11    1    3    3    0    0 -0.12255308196E+00  0.42576469103E+01  0.79582298803E+01  0.90264056833E+01  0.51100000000E-03 0. -1.
        -11    1    3    3    0    0  0.11262765050E+02 -0.15192929916E+02  0.10702481978E+02  0.21730580221E+02  0.51100000000E-03 0.  1.
        -12    1    3    3    0    0  0.19381134347E+02  0.17237378320E+02 -0.11918770496E+02  0.28544923718E+02  0.00000000000E+00 0.  1.
</event>
<event>
 7    1  0.6164995E-012  0.5930192E+02  0.7816164E-02  0.1266605E+00
        -11   -1    0    0    0    0  0.00000000000E+00  0.00000000000E+00  0.45593999997E+02  0.45594000000E+02  0.51100000000E-03 0. -1.
         11   -1    0    0    0    0 -0.00000000000E+00 -0.00000000000E+00 -0.45593999997E+02  0.45594000000E+02  0.51100000000E-03 0.  1.
    9900012    2    1    2    0    0  0.23822995612E+02  0.74318221089E+00  0.21180992275E+02  0.59301923517E+02  0.49999962593E+02 0.  0.
         12    1    1    2    0    0 -0.23822995612E+02 -0.74318221089E+00 -0.21180992275E+02  0.31886076483E+02  0.00000000000E+00 0. -1.
         11    1    3    3    0    0  0.18566725760E+02 -0.42254302355E+01  0.22636772814E+02  0.29580416661E+02  0.51100000000E-03 0.  1.
        -11    1    3    3    0    0  0.11260777079E+02 -0.74563535055E+01  0.51091746450E+01  0.14439735934E+02  0.51100000000E-03 0. -1.
        -12    1    3    3    0    0 -0.60045072272E+01  0.12424965952E+02 -0.65649551840E+01  0.15281770922E+02  0.00000000000E+00 0.  1.
</event>
<event>
 7    1  0.6164995E-012  0.5930195E+02  0.7816164E-02  0.1266605E+00
        -11   -1    0    0    0    0  0.00000000000E+00  0.00000000000E+00  0.45593999997E+02  0.45594000000E+02  0.51100000000E-03 0. -1.
         11   -1    0    0    0    0 -0.00000000000E+00 -0.00000000000E+00 -0.45593999997E+02  0.45594000000E+02  0.51100000000E-03 0.  1.
    9900012    2    1    2    0    0  0.23412465757E+02 -0.19434471521E+02 -0.95330004578E+01  0.59301947659E+02  0.50000006623E+02 0.  0.
         12    1    1    2    0    0 -0.23412465757E+02  0.19434471521E+02  0.95330004578E+01  0.31886052341E+02  0.00000000000E+00 0. -1.
         11    1    3    3    0    0 -0.44985519202E+01 -0.12390915748E+02  0.50666807147E+01  0.14122429543E+02  0.51100000000E-03 0. -1.
        -11    1    3    3    0    0 -0.18260927030E+01  0.66563349331E+01 -0.99502912824E+01  0.12109901163E+02  0.51100000000E-03 0.  1.
        -12    1    3    3    0    0  0.29737110380E+02 -0.13699890706E+02 -0.46493898901E+01  0.33069616954E+02  0.00000000000E+00 0.  1.
</event>
<event>
 7    1  0.6164995E-012  0.5930196E+02  0.7816164E-02  0.1266605E+00
        -11   -1    0    0    0    0  0.00000000000E+00  0.00000000000E+00  0.45593999997E+02  0.45594000000E+02  0.51100000000E-03 0.  1.
         11   -1    0    0    0    0 -0.00000000000E+00 -0.00000000000E+00 -0.45593999997E+02  0.45594000000E+02  0.51100000000E-03 0. -1.
    9900012    2    1    2    0    0 -0.90551689160E+01  0.23127649451E+01  0.30485643817E+02  0.59301961602E+02  0.50000032052E+02 0.  0.
         12    1    1    2    0    0  0.90551689160E+01 -0.23127649451E+01 -0.30485643817E+02  0.31886038398E+02  0.00000000000E+00 0. -1.
         11    1    3    3    0    0  0.12944710738E+02  0.78456411401E+01  0.93807326722E+00  0.15165737790E+02  0.51100000000E-03 0. -1.
        -11    1    3    3    0    0  0.18798475370E+01  0.64875080704E+00  0.15745334667E+02  0.15870421180E+02  0.51100000000E-03 0.  1.
        -12    1    3    3    0    0 -0.23879727191E+02 -0.61816270020E+01  0.13802235882E+02  0.28265802633E+02  0.00000000000E+00 0.  1.
</event>
<event>
 7    1  0.6164995E-012  0.5930194E+02  0.7816164E-02  0.1266605E+00
        -11   -1    0    0    0    0  0.00000000000E+00  0.00000000000E+00  0.45593999997E+02  0.45594000000E+02  0.51100000000E-03 0. -1.
         11   -1    0    0    0    0 -0.00000000000E+00 -0.00000000000E+00 -0.45593999997E+02  0.45594000000E+02  0.51100000000E-03 0.  1.
    9900012    2    1    2    0    0  0.76130848121E+01  0.26096040107E+02 -0.16666091658E+02  0.59301937516E+02  0.49999988123E+02 0.  0.
         12    1    1    2    0    0 -0.76130848121E+01 -0.26096040107E+02  0.16666091658E+02  0.31886062484E+02  0.00000000000E+00 0. -1.
         11    1    3    3    0    0 -0.12632185412E+02  0.20271623115E+02 -0.92074497883E+01  0.25598592615E+02  0.51100000000E-03 0. -1.
        -11    1    3    3    0    0  0.49854213258E-01  0.11315587714E+02  0.46428455733E+00  0.11325218372E+02  0.51100000000E-03 0.  1.
         12    1    3    3    0    0  0.20195416011E+02 -0.54911707224E+01 -0.79229264271E+01  0.22378126529E+02  0.00000000000E+00 0. -1.
</event>
<event>
 7    1  0.6164995E-012  0.5930191E+02  0.7816164E-02  0.1266605E+00
        -11   -1    0    0    0    0  0.00000000000E+00  0.00000000000E+00  0.45593999997E+02  0.45594000000E+02  0.51100000000E-03 0.  1.
         11   -1    0    0    0    0 -0.00000000000E+00 -0.00000000000E+00 -0.45593999997E+02  0.45594000000E+02  0.51100000000E-03 0. -1.
    9900012    2    1    2    0    0  0.10057907445E+02 -0.11208527769E+02  0.28105697149E+02  0.59301908845E+02  0.49999935835E+02 0.  0.
         12    1    1    2    0    0 -0.10057907445E+02  0.11208527769E+02 -0.28105697149E+02  0.31886091155E+02  0.00000000000E+00 0. -1.
         11    1    3    3    0    0  0.17540702181E+02  0.24289312591E+01  0.71644885687E+01  0.19102508652E+02  0.51100000000E-03 0. -1.
        -11    1    3    3    0    0 -0.11865175749E+01 -0.18872873699E+02  0.24767288614E+02  0.31161061779E+02  0.51100000000E-03 0.  1.
         12    1    3    3    0    0 -0.62962771615E+01  0.52354146711E+01 -0.38260800334E+01  0.90383384145E+01  0.00000000000E+00 0. -1.
</event>
<event>
 7    1  0.6164995E-012  0.5930193E+02  0.7816164E-02  0.1266605E+00
        -11   -1    0    0    0    0  0.00000000000E+00  0.00000000000E+00  0.45593999997E+02  0.45594000000E+02  0.51100000000E-03 0.  1.
         11   -1    0    0    0    0 -0.00000000000E+00 -0.00000000000E+00 -0.45593999997E+02  0.45594000000E+02  0.51100000000E-03 0. -1.
    9900012    2    1    2    0    0  0.31382902225E+02  0.79024402266E-01 -0.56416797633E+01  0.59301931765E+02  0.49999977636E+02 0.  0.
         12    1    1    2    0    0 -0.31382902225E+02 -0.79024402266E-01  0.56416797633E+01  0.31886068235E+02  0.00000000000E+00 0. -1.
         11    1    3    3    0    0  0.93554809077E+01 -0.58380840877E+01 -0.13012432417E+02  0.17056718515E+02  0.51100000000E-03 0. -1.
        -11    1    3    3    0    0  0.29454473292E+02 -0.33911088309E+01  0.60937779550E+01  0.30268791618E+02  0.51100000000E-03 0.  1.
        -12    1    3    3    0    0 -0.74270519740E+01  0.93082173209E+01  0.12769746989E+01  0.11976421632E+02  0.00000000000E+00 0.  1.
</event>
<event>
 7    1  0.6164995E-012  0.5930193E+02  0.7816164E-02  0.1266605E+00
        -11   -1    0    0    0    0  0.00000000000E+00  0.00000000000E+00  0.45593999997E+02  0.45594000000E+02  0.51100000000E-03 0. -1.
         11   -1    0    0    0    0 -0.00000000000E+00 -0.00000000000E+00 -0.45593999997E+02  0.45594000000E+02  0.51100000000E-03 0.  1.
    9900012    2    1    2    0    0 -0.72190044545E+01  0.19463688447E+01 -0.30997085133E+02  0.59301926806E+02  0.49999968591E+02 0.  0.
         12    1    1    2    0    0  0.72190044545E+01 -0.19463688447E+01  0.30997085133E+02  0.31886073194E+02  0.00000000000E+00 0. -1.
         11    1    3    3    0    0  0.39206382243E+01 -0.12074587561E+01 -0.13187743279E+02  0.13811080110E+02  0.51100000000E-03 0. -1.
        -11    1    3    3    0    0 -0.20097226198E+02 -0.46542356744E+01 -0.24360504506E+02  0.31921694670E+02  0.51100000000E-03 0.  1.
         12    1    3    3    0    0  0.89575835193E+01  0.78080632752E+01  0.65511626516E+01  0.13569152026E+02  0.00000000000E+00 0. -1.
</event>
<event>
 7    1  0.6164995E-012  0.5930195E+02  0.7816164E-02  0.1266605E+00
        -11   -1    0    0    0    0  0.00000000000E+00  0.00000000000E+00  0.45593999997E+02  0.45594000000E+02  0.51100000000E-03 0.  1.
         11   -1    0    0    0    0 -0.00000000000E+00 -0.00000000000E+00 -0.45593999997E+02  0.45594000000E+02  0.51100000000E-03 0. -1.
    9900012    2    1    2    0    0 -0.62618321121E+01  0.57698498930E+01  0.30728137911E+02  0.59301950250E+02  0.50000011347E+02 0.  0.
         12    1    1    2    0    0  0.62618321121E+01 -0.57698498930E+01 -0.30728137911E+02  0.31886049750E+02  0.00000000000E+00 0. -1.
         11    1    3    3    0    0  0.72019630240E+01 -0.91172663168E+00 -0.76713979579E+01  0.10561716894E+02  0.51100000000E-03 0. -1.
        -11    1    3    3    0    0  0.58306100149E+01 -0.37025113167E+00  0.80273520378E+00  0.58972436879E+01  0.51100000000E-03 0.  1.
        -12    1    3    3    0    0 -0.19294405151E+02  0.70518276564E+01  0.37596800666E+02  0.42842989668E+02  0.00000000000E+00 0.  1.
</event>
<event>
 7    1  0.6164995E-012  0.5930196E+02  0.7816164E-02  0.1266605E+00
        -11   -1    0    0    0    0  0.00000000000E+00  0.00000000000E+00  0.45593999997E+02  0.45594000000E+02  0.51100000000E-03 0. -1.
         11   -1    0    0    0    0 -0.00000000000E+00 -0.00000000000E+00 -0.45593999997E+02  0.45594000000E+02  0.51100000000E-03 0.  1.
    9900012    2    1    2    0    0  0.31196789206E+02  0.30520650622E+01 -0.58450648176E+01  0.59301960098E+02  0.50000029308E+02 0.  0.
         12    1    1    2    0    0 -0.31196789206E+02 -0.30520650622E+01  0.58450648176E+01  0.31886039902E+02  0.00000000000E+00 0. -1.
         11    1    3    3    0    0 -0.56495781234E+00 -0.94059263696E+00  0.66633441881E+01  0.67530769186E+01  0.51100000000E-03 0. -1.
        -11    1    3    3    0    0  0.16962267239E+02  0.59727500974E+00  0.13998702901E+02  0.22000884766E+02  0.51100000000E-03 0.  1.
        -12    1    3    3    0    0  0.14799479780E+02  0.33953826895E+01 -0.26507111907E+02  0.30547998413E+02  0.00000000000E+00 0.  1.
</event>
<event>
 7    1  0.6164995E-012  0.5930193E+02  0.7816164E-02  0.1266605E+00
        -11   -1    0    0    0    0  0.00000000000E+00  0.00000000000E+00  0.45593999997E+02  0.45594000000E+02  0.51100000000E-03 0.  1.
         11   -1    0    0    0    0 -0.00000000000E+00 -0.00000000000E+00 -0.45593999997E+02  0.45594000000E+02  0.51100000000E-03 0. -1.
    9900012    2    1    2    0    0 -0.18708453546E+02 -0.97767419531E+01  0.23898341499E+02  0.59301927120E+02  0.49999969164E+02 0.  0.
         12    1    1    2    0    0  0.18708453546E+02  0.97767419531E+01 -0.23898341499E+02  0.31886072880E+02  0.00000000000E+00 0. -1.
         11    1    3    3    0    0 -0.45236525166E+01 -0.46447937339E+01  0.55861126245E+00  0.65076560853E+01  0.51100000000E-03 0. -1.
        -11    1    3    3    0    0 -0.18093529167E+02 -0.18040956667E+02  0.28569172869E+02  0.38328182240E+02  0.51100000000E-03 0.  1.
         12    1    3    3    0    0  0.39087281371E+01  0.12909008448E+02 -0.52294426320E+01  0.14466088794E+02  0.00000000000E+00 0. -1.
</event>
<event>
 7    1  0.6164995E-012  0.5930193E+02  0.7816164E-02  0.1266605E+00
        -11   -1    0    0    0    0  0.00000000000E+00  0.00000000000E+00  0.45593999997E+02  0.45594000000E+02  0.51100000000E-03 0.  1.
         11   -1    0    0    0    0 -0.00000000000E+00 -0.00000000000E+00 -0.45593999997E+02  0.45594000000E+02  0.51100000000E-03 0. -1.
    9900012    2    1    2    0    0  0.26281415779E+02 -0.87535581797E+01  0.15791899289E+02  0.59301926561E+02  0.49999968146E+02 0.  0.
         12    1    1    2    0    0 -0.26281415779E+02  0.87535581797E+01 -0.15791899289E+02  0.31886073439E+02  0.00000000000E+00 0. -1.
         11    1    3    3    0    0  0.70306857191E+01  0.78039818029E+01  0.54767007496E+01  0.11845966614E+02  0.51100000000E-03 0. -1.
        -11    1    3    3    0    0  0.18873168083E+02  0.17784560435E+01  0.19283310143E+02  0.27040810449E+02  0.51100000000E-03 0.  1.
         12    1    3    3    0    0  0.37756197674E+00 -0.18335996026E+02 -0.89681116032E+01  0.20415149498E+02  0.00000000000E+00 0. -1.
</event>
<event>
 7    1  0.6164995E-012  0.5930191E+02  0.7816164E-02  0.1266605E+00
        -11   -1    0    0    0    0  0.00000000000E+00  0.00000000000E+00  0.45593999997E+02  0.45594000000E+02  0.51100000000E-03 0.  1.
         11   -1    0    0    0    0 -0.00000000000E+00 -0.00000000000E+00 -0.45593999997E+02  0.45594000000E+02  0.51100000000E-03 0. -1.
    9900012    2    1    2    0    0 -0.19725347303E+02 -0.37225171072E+01  0.24774514215E+02  0.59301905626E+02  0.49999929964E+02 0.  0.
         12    1    1    2    0    0  0.19725347303E+02  0.37225171072E+01 -0.24774514215E+02  0.31886094374E+02  0.00000000000E+00 0. -1.
         11    1    3    3    0    0 -0.55303911782E+01  0.47829924160E+00  0.25505928638E+02  0.26102995857E+02  0.51100000000E-03 0. -1.
        -11    1    3    3    0    0 -0.22099765826E+02  0.14125026181E+01  0.38479563102E+01  0.22476689731E+02  0.51100000000E-03 0.  1.
         12    1    3    3    0    0  0.79048097016E+01 -0.56133189669E+01 -0.45793707328E+01  0.10722220038E+02  0.00000000000E+00 0. -1.
</event>
<event>
 7    1  0.6164995E-012  0.5930195E+02  0.7816164E-02  0.1266605E+00
        -11   -1    0    0    0    0  0.00000000000E+00  0.00000000000E+00  0.45593999997E+02  0.45594000000E+02  0.51100000000E-03 0.  1.
         11   -1    0    0    0    0 -0.00000000000E+00 -0.00000000000E+00 -0.45593999997E+02  0.45594000000E+02  0.51100000000E-03 0. -1.
    9900012    2    1    2    0    0 -0.13505484916E+02 -0.93413485371E+00  0.28869529741E+02  0.59301945396E+02  0.50000002495E+02 0.  0.
         12    1    1    2    0    0  0.13505484916E+02  0.93413485371E+00 -0.28869529741E+02  0.31886054604E+02  0.00000000000E+00 0. -1.
         11    1    3    3    0    0 -0.67861929260E+01  0.15453888926E+02  0.67810115337E+01  0.18189480890E+02  0.51100000000E-03 0. -1.
        -11    1    3    3    0    0 -0.13562719828E+02 -0.13654332937E+01  0.20377117797E+02  0.24516090780E+02  0.51100000000E-03 0.  1.
        -12    1    3    3    0    0  0.68434278373E+01 -0.15022590486E+02  0.17114004107E+01  0.16596373726E+02  0.00000000000E+00 0.  1.
</event>
<event>
 7    1  0.6164995E-012  0.5930196E+02  0.7816164E-02  0.1266605E+00
        -11   -1    0    0    0    0  0.00000000000E+00  0.00000000000E+00  0.45593999997E+02  0.45594000000E+02  0.51100000000E-03 0. -1.
         11   -1    0    0    0    0 -0.00000000000E+00 -0.00000000000E+00 -0.45593999997E+02  0.45594000000E+02  0.51100000000E-03 0.  1.
    9900012    2    1    2    0    0 -0.21147660225E+02 -0.17410201074E+02 -0.16321188493E+02  0.59301955588E+02  0.50000021083E+02 0.  0.
         12    1    1    2    0    0  0.21147660225E+02  0.17410201074E+02  0.16321188493E+02  0.31886044412E+02  0.00000000000E+00 0. -1.
         11    1    3    3    0    0  0.57803920381E+01  0.36308389573E+01 -0.89971512919E+01  0.11293566987E+02  0.51100000000E-03 0. -1.
        -11    1    3    3    0    0  0.15386788569E+01 -0.18260020357E+02  0.58067799701E+00  0.18333932019E+02  0.51100000000E-03 0.  1.
         12    1    3    3    0    0 -0.28466731120E+02 -0.27810196743E+01 -0.79047151982E+01  0.29674456582E+02  0.00000000000E+00 0. -1.
</event>
<event>
 7    1  0.6164995E-012  0.5930194E+02  0.7816164E-02  0.1266605E+00
        -11   -1    0    0    0    0  0.00000000000E+00  0.00000000000E+00  0.45593999997E+02  0.45594000000E+02  0.51100000000E-03 0.  1.
         11   -1    0    0    0    0 -0.00000000000E+00 -0.00000000000E+00 -0.45593999997E+02  0.45594000000E+02  0.51100000000E-03 0. -1.
    9900012    2    1    2    0    0  0.17896976061E+02 -0.15035092436E+02  0.21687904795E+02  0.59301937667E+02  0.49999988400E+02 0.  0.
         12    1    1    2    0    0 -0.17896976061E+02  0.15035092436E+02 -0.21687904795E+02  0.31886062333E+02  0.00000000000E+00 0. -1.
         11    1    3    3    0    0  0.48065412271E+01 -0.60569172415E+01  0.70546415177E+01  0.10466950475E+02  0.51100000000E-03 0. -1.
        -11    1    3    3    0    0  0.29364773620E+02 -0.69361586109E+01  0.88626787981E+01  0.31447532523E+02  0.51100000000E-03 0.  1.
         12    1    3    3    0    0 -0.16274338786E+02 -0.20420165832E+01  0.57705844792E+01  0.17387454670E+02  0.00000000000E+00 0. -1.
</event>
<event>
 7    1  0.6164995E-012  0.5930195E+02  0.7816164E-02  0.1266605E+00
        -11   -1    0    0    0    0  0.00000000000E+00  0.00000000000E+00  0.45593999997E+02  0.45594000000E+02  0.51100000000E-03 0.  1.
         11   -1    0    0    0    0 -0.00000000000E+00 -0.00000000000E+00 -0.45593999997E+02  0.45594000000E+02  0.51100000000E-03 0. -1.
    9900012    2    1    2    0    0 -0.31297277178E+02  0.27201058023E+01  0.54590926269E+01  0.59301949341E+02  0.50000009689E+02 0.  0.
         12    1    1    2    0    0  0.31297277178E+02 -0.27201058023E+01 -0.54590926269E+01  0.31886050659E+02  0.00000000000E+00 0. -1.
         11    1    3    3    0    0  0.21534836694E+00  0.39134377905E+01  0.95126052312E+01  0.10288392917E+02  0.51100000000E-03 0.  1.
        -11    1    3    3    0    0  0.83553874093E+01 -0.35851934387E+00  0.22044880830E+01  0.86487457384E+01  0.51100000000E-03 0. -1.
         12    1    3    3    0    0 -0.39868012954E+02 -0.83481264431E+00 -0.62580006873E+01  0.40364810686E+02  0.00000000000E+00 0. -1.
</event>
<event>
 7    1  0.6164995E-012  0.5930185E+02  0.7816164E-02  0.1266605E+00
        -11   -1    0    0    0    0  0.00000000000E+00  0.00000000000E+00  0.45593999997E+02  0.45594000000E+02  0.51100000000E-03 0. -1.
         11   -1    0    0    0    0 -0.00000000000E+00 -0.00000000000E+00 -0.45593999997E+02  0.45594000000E+02  0.51100000000E-03 0.  1.
    9900012    2    1    2    0    0  0.23441088345E+02 -0.25325549785E+01 -0.21466914260E+02  0.59301845240E+02  0.49999819835E+02 0.  0.
         12    1    1    2    0    0 -0.23441088345E+02  0.25325549785E+01  0.21466914260E+02  0.31886154760E+02  0.00000000000E+00 0. -1.
         11    1    3    3    0    0  0.74362661194E+00  0.16642605901E+02 -0.91143721031E+01  0.18989499488E+02  0.51100000000E-03 0. -1.
        -11    1    3    3    0    0  0.80100022646E+01  0.30637308755E+01 -0.10556031833E+02  0.13600602615E+02  0.51100000000E-03 0.  1.
         12    1    3    3    0    0  0.14687459469E+02 -0.22238891755E+02 -0.17965103235E+01  0.26711743138E+02  0.00000000000E+00 0. -1.
</event>
<event>
 7    1  0.6164995E-012  0.5930191E+02  0.7816164E-02  0.1266605E+00
        -11   -1    0    0    0    0  0.00000000000E+00  0.00000000000E+00  0.45593999997E+02  0.45594000000E+02  0.51100000000E-03 0. -1.
         11   -1    0    0    0    0 -0.00000000000E+00 -0.00000000000E+00 -0.45593999997E+02  0.45594000000E+02  0.51100000000E-03 0.  1.
    9900012    2    1    2    0    0  0.73870275366E+01  0.45021856196E+01 -0.30690139460E+02  0.59301913516E+02  0.49999944354E+02 0.  0.
         12    1    1    2    0    0 -0.73870275366E+01 -0.45021856196E+01  0.30690139460E+02  0.31886086484E+02  0.00000000000E+00 0. -1.
         11    1    3    3    0    0 -0.14746070657E+02 -0.44647471691E+01 -0.46271901272E+01  0.16086996483E+02  0.51100000000E-03 0. -1.
        -11    1    3    3    0    0  0.16810533776E+02 -0.53400737249E+01 -0.20314725788E+02  0.26903503811E+02  0.51100000000E-03 0.  1.
        -12    1    3    3    0    0  0.53225644179E+01  0.14307006514E+02 -0.57482235446E+01  0.16311413221E+02  0.00000000000E+00 0.  1.
</event>
<event>
 7    1  0.6164995E-012  0.5930192E+02  0.7816164E-02  0.1266605E+00
        -11   -1    0    0    0    0  0.00000000000E+00  0.00000000000E+00  0.45593999997E+02  0.45594000000E+02  0.51100000000E-03 0.  1.
         11   -1    0    0    0    0 -0.00000000000E+00 -0.00000000000E+00 -0.45593999997E+02  0.45594000000E+02  0.51100000000E-03 0. -1.
    9900012    2    1    2    0    0  0.13261680633E+02 -0.31997663654E+01  0.28820332845E+02  0.59301917404E+02  0.49999951446E+02 0.  0.
         12    1    1    2    0    0 -0.13261680633E+02  0.31997663654E+01 -0.28820332845E+02  0.31886082596E+02  0.00000000000E+00 0. -1.
         11    1    3    3    0    0  0.17432628531E+00 -0.93834336479E+01  0.78163149261E+01  0.12213680689E+02  0.51100000000E-03 0.  1.
        -11    1    3    3    0    0  0.14202237098E+02 -0.82404985779E+01  0.26859636349E+02  0.31480937414E+02  0.51100000000E-03 0. -1.
         12    1    3    3    0    0 -0.11148827509E+01  0.14424165860E+02 -0.58556184296E+01  0.15607299302E+02  0.00000000000E+00 0. -1.
</event>
<event>
 7    1  0.6164995E-012  0.5930190E+02  0.7816164E-02  0.1266605E+00
        -11   -1    0    0    0    0  0.00000000000E+00  0.00000000000E+00  0.45593999997E+02  0.45594000000E+02  0.51100000000E-03 0.  1.
         11   -1    0    0    0    0 -0.00000000000E+00 -0.00000000000E+00 -0.45593999997E+02  0.45594000000E+02  0.51100000000E-03 0. -1.
    9900012    2    1    2    0    0  0.19981802358E+02 -0.12575431012E+01  0.24816723547E+02  0.59301896322E+02  0.49999912997E+02 0.  0.
         12    1    1    2    0    0 -0.19981802358E+02  0.12575431012E+01 -0.24816723547E+02  0.31886103678E+02  0.00000000000E+00 0. -1.
         11    1    3    3    0    0  0.15500548778E+02  0.14142881604E+02 -0.10508167716E+01  0.21009339081E+02  0.51100000000E-03 0.  1.
        -11    1    3    3    0    0  0.82076178656E+00 -0.69480186322E+01 -0.32779806660E+01  0.77261743658E+01  0.51100000000E-03 0. -1.
        -12    1    3    3    0    0  0.36604917937E+01 -0.84524060732E+01  0.29145520985E+02  0.30566382875E+02  0.00000000000E+00 0.  1.
</event>
<event>
 7    1  0.6164995E-012  0.5930192E+02  0.7816164E-02  0.1266605E+00
        -11   -1    0    0    0    0  0.00000000000E+00  0.00000000000E+00  0.45593999997E+02  0.45594000000E+02  0.51100000000E-03 0.  1.
         11   -1    0    0    0    0 -0.00000000000E+00 -0.00000000000E+00 -0.45593999997E+02  0.45594000000E+02  0.51100000000E-03 0. -1.
    9900012    2    1    2    0    0 -0.20716733485E+02 -0.23754623478E+02 -0.48225666096E+01  0.59301916333E+02  0.49999949492E+02 0.  0.
         12    1    1    2    0    0  0.20716733485E+02  0.23754623478E+02  0.48225666096E+01  0.31886083667E+02  0.00000000000E+00 0. -1.
         11    1    3    3    0    0  0.12097156776E+02 -0.82731486713E+01  0.85659956550E+01  0.16975348975E+02  0.51100000000E-03 0. -1.
        -11    1    3    3    0    0 -0.36548259666E+01 -0.84630015018E+00 -0.85592893937E+01  0.93453417260E+01  0.51100000000E-03 0.  1.
        -12    1    3    3    0    0 -0.29159064294E+02 -0.14635174657E+02 -0.48292728709E+01  0.32981225632E+02  0.00000000000E+00 0.  1.
</event>
<event>
 7    1  0.6164995E-012  0.5930195E+02  0.7816164E-02  0.1266605E+00
        -11   -1    0    0    0    0  0.00000000000E+00  0.00000000000E+00  0.45593999997E+02  0.45594000000E+02  0.51100000000E-03 0. -1.
         11   -1    0    0    0    0 -0.00000000000E+00 -0.00000000000E+00 -0.45593999997E+02  0.45594000000E+02  0.51100000000E-03 0.  1.
    9900012    2    1    2    0    0  0.59213986799E+01 -0.31053951266E+02 -0.41604758131E+01  0.59301946457E+02  0.50000004430E+02 0.  0.
         12    1    1    2    0    0 -0.59213986799E+01  0.31053951266E+02  0.41604758131E+01  0.31886053543E+02  0.00000000000E+00 0. -1.
         11    1    3    3    0    0  0.48556866179E+01 -0.78948324963E+01  0.67268494658E+01  0.11452361183E+02  0.51100000000E-03 0. -1.
        -11    1    3    3    0    0  0.31510031709E+01  0.10627013660E+02  0.26432405276E+01  0.11395128830E+02  0.51100000000E-03 0.  1.
        -12    1    3    3    0    0 -0.20852911089E+01 -0.33786132429E+02 -0.13530565806E+02  0.36454456444E+02  0.00000000000E+00 0.  1.
</event>
<event>
 7    1  0.6164995E-012  0.5930200E+02  0.7816164E-02  0.1266605E+00
        -11   -1    0    0    0    0  0.00000000000E+00  0.00000000000E+00  0.45593999997E+02  0.45594000000E+02  0.51100000000E-03 0.  1.
         11   -1    0    0    0    0 -0.00000000000E+00 -0.00000000000E+00 -0.45593999997E+02  0.45594000000E+02  0.51100000000E-03 0. -1.
    9900012    2    1    2    0    0 -0.14366141945E+02 -0.23406661053E+02  0.16200584864E+02  0.59302003607E+02  0.50000108657E+02 0.  0.
         12    1    1    2    0    0  0.14366141945E+02  0.23406661053E+02 -0.16200584864E+02  0.31885996393E+02  0.00000000000E+00 0. -1.
         11    1    3    3    0    0  0.54747667963E+01 -0.40453702463E+01 -0.84984783658E+01  0.10888628320E+02  0.51100000000E-03 0. -1.
        -11    1    3    3    0    0  0.50523884786E+01  0.20514641891E+01 -0.22851350742E+01  0.59124425770E+01  0.51100000000E-03 0.  1.
        -12    1    3    3    0    0 -0.24893297220E+02 -0.21412754996E+02  0.26984198304E+02  0.42500932709E+02  0.00000000000E+00 0.  1.
</event>
<event>
 7    1  0.6164995E-012  0.5930194E+02  0.7816164E-02  0.1266605E+00
        -11   -1    0    0    0    0  0.00000000000E+00  0.00000000000E+00  0.45593999997E+02  0.45594000000E+02  0.51100000000E-03 0.  1.
         11   -1    0    0    0    0 -0.00000000000E+00 -0.00000000000E+00 -0.45593999997E+02  0.45594000000E+02  0.51100000000E-03 0. -1.
    9900012    2    1    2    0    0 -0.85412433070E+00 -0.49530478405E+01  0.31487434697E+02  0.59301941055E+02  0.49999994578E+02 0.  0.
         12    1    1    2    0    0  0.85412433070E+00  0.49530478405E+01 -0.31487434697E+02  0.31886058945E+02  0.00000000000E+00 0. -1.
         11    1    3    3    0    0  0.85558108119E+01  0.23144996302E+01  0.77119569472E+01  0.11748748334E+02  0.51100000000E-03 0. -1.
        -11    1    3    3    0    0 -0.36592501048E+01  0.15972601614E+02  0.50131539937E+01  0.17136097189E+02  0.51100000000E-03 0.  1.
         12    1    3    3    0    0 -0.57506850378E+01 -0.23240149085E+02  0.18762323756E+02  0.30417095532E+02  0.00000000000E+00 0. -1.
</event>
<event>
 7    1  0.6164995E-012  0.5930192E+02  0.7816164E-02  0.1266605E+00
        -11   -1    0    0    0    0  0.00000000000E+00  0.00000000000E+00  0.45593999997E+02  0.45594000000E+02  0.51100000000E-03 0.  1.
         11   -1    0    0    0    0 -0.00000000000E+00 -0.00000000000E+00 -0.45593999997E+02  0.45594000000E+02  0.51100000000E-03 0. -1.
    9900012    2    1    2    0    0 -0.20951241268E+02  0.75949852916E+01 -0.22805338876E+02  0.59301924771E+02  0.49999964880E+02 0.  0.
         12    1    1    2    0    0  0.20951241268E+02 -0.75949852916E+01  0.22805338876E+02  0.31886075229E+02  0.00000000000E+00 0. -1.
         11    1    3    3    0    0 -0.17423151304E+02 -0.38709267413E+01 -0.12248359495E+02  0.21646537501E+02  0.51100000000E-03 0. -1.
        -11    1    3    3    0    0 -0.11729529294E+02  0.20098283015E+02 -0.11000922498E+02  0.25739913241E+02  0.51100000000E-03 0.  1.
        -12    1    3    3    0    0  0.82014393295E+01 -0.86323709819E+01  0.44394311624E+00  0.11915474029E+02  0.00000000000E+00 0.  1.
</event>
<event>
 7    1  0.6164995E-012  0.5930197E+02  0.7816164E-02  0.1266605E+00
        -11   -1    0    0    0    0  0.00000000000E+00  0.00000000000E+00  0.45593999997E+02  0.45594000000E+02  0.51100000000E-03 0. -1.
         11   -1    0    0    0    0 -0.00000000000E+00 -0.00000000000E+00 -0.45593999997E+02  0.45594000000E+02  0.51100000000E-03 0.  1.
    9900012    2    1    2    0    0 -0.72115372505E+01 -0.10059735508E+02 -0.29385615476E+02  0.59301969440E+02  0.50000046345E+02 0.  0.
         12    1    1    2    0    0  0.72115372505E+01  0.10059735508E+02  0.29385615476E+02  0.31886030560E+02  0.00000000000E+00 0. -1.
         11    1    3    3    0    0  0.26460566598E+01  0.36689998240E+01  0.19489359297E+01  0.49255991589E+01  0.51100000000E-03 0. -1.
        -11    1    3    3    0    0  0.78566615893E+01  0.38904495518E+01 -0.27791796936E+02  0.29141837729E+02  0.51100000000E-03 0.  1.
        -12    1    3    3    0    0 -0.17714255500E+02 -0.17619184884E+02 -0.35427544696E+01  0.25234532552E+02  0.00000000000E+00 0.  1.
</event>
<event>
 7    1  0.6164995E-012  0.5930195E+02  0.7816164E-02  0.1266605E+00
        -11   -1    0    0    0    0  0.00000000000E+00  0.00000000000E+00  0.45593999997E+02  0.45594000000E+02  0.51100000000E-03 0.  1.
         11   -1    0    0    0    0 -0.00000000000E+00 -0.00000000000E+00 -0.45593999997E+02  0.45594000000E+02  0.51100000000E-03 0. -1.
    9900012    2    1    2    0    0  0.25602859980E+02 -0.12725682447E+02  0.14116336560E+02  0.59301946767E+02  0.50000004996E+02 0.  0.
         12    1    1    2    0    0 -0.25602859980E+02  0.12725682447E+02 -0.14116336560E+02  0.31886053233E+02  0.00000000000E+00 0. -1.
         11    1    3    3    0    0 -0.28291190965E+01  0.26227538619E+01 -0.44741833210E+01  0.59077126989E+01  0.51100000000E-03 0. -1.
        -11    1    3    3    0    0 -0.42271833178E+01 -0.42005690610E+01  0.17912941844E+02  0.18878224095E+02  0.51100000000E-03 0.  1.
         12    1    3    3    0    0  0.32659162394E+02 -0.11147867248E+02  0.67757803703E+00  0.34516009973E+02  0.00000000000E+00 0. -1.
</event>
<event>
 7    1  0.6164995E-012  0.5930198E+02  0.7816164E-02  0.1266605E+00
        -11   -1    0    0    0    0  0.00000000000E+00  0.00000000000E+00  0.45593999997E+02  0.45594000000E+02  0.51100000000E-03 0. -1.
         11   -1    0    0    0    0 -0.00000000000E+00 -0.00000000000E+00 -0.45593999997E+02  0.45594000000E+02  0.51100000000E-03 0.  1.
    9900012    2    1    2    0    0  0.29299734585E+02  0.11158991405E+02 -0.58069606935E+01  0.59301979106E+02  0.50000063975E+02 0.  0.
         12    1    1    2    0    0 -0.29299734585E+02 -0.11158991405E+02  0.58069606935E+01  0.31886020894E+02  0.00000000000E+00 0. -1.
         11    1    3    3    0    0  0.46923218668E+01 -0.11059083742E+02  0.24938449592E+01  0.12269493903E+02  0.51100000000E-03 0. -1.
        -11    1    3    3    0    0  0.95236395971E+01  0.46189096883E+01  0.12155426359E+02  0.16117953596E+02  0.51100000000E-03 0.  1.
        -12    1    3    3    0    0  0.15083773121E+02  0.17599165459E+02 -0.20456232011E+02  0.30914531607E+02  0.00000000000E+00 0.  1.
</event>
<event>
 7    1  0.6164995E-012  0.5930195E+02  0.7816164E-02  0.1266605E+00
        -11   -1    0    0    0    0  0.00000000000E+00  0.00000000000E+00  0.45593999997E+02  0.45594000000E+02  0.51100000000E-03 0.  1.
         11   -1    0    0    0    0 -0.00000000000E+00 -0.00000000000E+00 -0.45593999997E+02  0.45594000000E+02  0.51100000000E-03 0. -1.
    9900012    2    1    2    0    0  0.67040397488E+01 -0.21144346293E+02  0.22906170079E+02  0.59301950436E+02  0.50000011687E+02 0.  0.
         12    1    1    2    0    0 -0.67040397488E+01  0.21144346293E+02 -0.22906170079E+02  0.31886049564E+02  0.00000000000E+00 0. -1.
         11    1    3    3    0    0 -0.20992753458E+01 -0.11085098065E+02 -0.81283761737E+01  0.13905281571E+02  0.51100000000E-03 0. -1.
        -11    1    3    3    0    0 -0.76274680204E+01 -0.84838385812E+01  0.14250051092E+01  0.11497148572E+02  0.51100000000E-03 0.  1.
        -12    1    3    3    0    0  0.16430783115E+02 -0.15754096473E+01  0.29609541143E+02  0.33899520292E+02  0.00000000000E+00 0.  1.
</event>
<event>
 7    1  0.6164995E-012  0.5930192E+02  0.7816164E-02  0.1266605E+00
        -11   -1    0    0    0    0  0.00000000000E+00  0.00000000000E+00  0.45593999997E+02  0.45594000000E+02  0.51100000000E-03 0.  1.
         11   -1    0    0    0    0 -0.00000000000E+00 -0.00000000000E+00 -0.45593999997E+02  0.45594000000E+02  0.51100000000E-03 0. -1.
    9900012    2    1    2    0    0  0.17194707945E+01 -0.10077759419E+02  0.30202720862E+02  0.59301918990E+02  0.49999954337E+02 0.  0.
         12    1    1    2    0    0 -0.17194707945E+01  0.10077759419E+02 -0.30202720862E+02  0.31886081010E+02  0.00000000000E+00 0. -1.
         11    1    3    3    0    0 -0.43089606257E+00 -0.41801775251E+01  0.30140032553E+02  0.30431580934E+02  0.51100000000E-03 0. -1.
        -11    1    3    3    0    0  0.35185807875E+01  0.42593447553E+01  0.11955835158E+02  0.13170589322E+02  0.51100000000E-03 0.  1.
         12    1    3    3    0    0 -0.13682139304E+01 -0.10156926649E+02 -0.11893146850E+02  0.15699748734E+02  0.00000000000E+00 0. -1.
</event>
<event>
 7    1  0.6164995E-012  0.5930194E+02  0.7816164E-02  0.1266605E+00
        -11   -1    0    0    0    0  0.00000000000E+00  0.00000000000E+00  0.45593999997E+02  0.45594000000E+02  0.51100000000E-03 0.  1.
         11   -1    0    0    0    0 -0.00000000000E+00 -0.00000000000E+00 -0.45593999997E+02  0.45594000000E+02  0.51100000000E-03 0. -1.
    9900012    2    1    2    0    0 -0.37872444687E-01  0.14029209621E+02  0.28633912089E+02  0.59301935984E+02  0.49999985330E+02 0.  0.
         12    1    1    2    0    0  0.37872444687E-01 -0.14029209621E+02 -0.28633912089E+02  0.31886064016E+02  0.00000000000E+00 0. -1.
         11    1    3    3    0    0  0.56666057035E+01  0.92274414916E+01 -0.82787053761E+01  0.13630592784E+02  0.51100000000E-03 0. -1.
        -11    1    3    3    0    0  0.11573886646E+01  0.12393989930E+02  0.75081191741E+01  0.14536931888E+02  0.51100000000E-03 0.  1.
        -12    1    3    3    0    0 -0.68618668128E+01 -0.75922218007E+01  0.29404498291E+02  0.31134411312E+02  0.00000000000E+00 0.  1.
</event>
<event>
 7    1  0.6164995E-012  0.5930200E+02  0.7816164E-02  0.1266605E+00
        -11   -1    0    0    0    0  0.00000000000E+00  0.00000000000E+00  0.45593999997E+02  0.45594000000E+02  0.51100000000E-03 0.  1.
         11   -1    0    0    0    0 -0.00000000000E+00 -0.00000000000E+00 -0.45593999997E+02  0.45594000000E+02  0.51100000000E-03 0. -1.
    9900012    2    1    2    0    0 -0.29504442309E+02 -0.12078991489E+02 -0.55032308742E+00  0.59301999830E+02  0.50000101770E+02 0.  0.
         12    1    1    2    0    0  0.29504442309E+02  0.12078991489E+02  0.55032308742E+00  0.31886000170E+02  0.00000000000E+00 0. -1.
         11    1    3    3    0    0 -0.11811236686E+02  0.30816469069E+01 -0.13007727865E+02  0.17838241062E+02  0.51100000000E-03 0. -1.
        -11    1    3    3    0    0 -0.19648058825E+01 -0.76645499190E+01 -0.10182687082E+02  0.12895460600E+02  0.51100000000E-03 0.  1.
        -12    1    3    3    0    0 -0.15728399740E+02 -0.74960884767E+01  0.22640091859E+02  0.28568298168E+02  0.00000000000E+00 0.  1.
</event>
<event>
 7    1  0.6164995E-012  0.5930194E+02  0.7816164E-02  0.1266605E+00
        -11   -1    0    0    0    0  0.00000000000E+00  0.00000000000E+00  0.45593999997E+02  0.45594000000E+02  0.51100000000E-03 0.  1.
         11   -1    0    0    0    0 -0.00000000000E+00 -0.00000000000E+00 -0.45593999997E+02  0.45594000000E+02  0.51100000000E-03 0. -1.
    9900012    2    1    2    0    0  0.21197670595E+02  0.22929738708E+02 -0.64503282781E+01  0.59301938927E+02  0.49999990697E+02 0.  0.
         12    1    1    2    0    0 -0.21197670595E+02 -0.22929738708E+02  0.64503282781E+01  0.31886061073E+02  0.00000000000E+00 0. -1.
         11    1    3    3    0    0 -0.54913027750E+01  0.24840727215E+01 -0.97387211589E+01  0.11452847398E+02  0.51100000000E-03 0. -1.
        -11    1    3    3    0    0  0.20001861109E+02  0.25682131417E+02 -0.81931926587E+01  0.33567465322E+02  0.51100000000E-03 0.  1.
         12    1    3    3    0    0  0.66871122607E+01 -0.52364654306E+01  0.11481585540E+02  0.14281626206E+02  0.00000000000E+00 0. -1.
</event>
<event>
 7    1  0.6164995E-012  0.5930195E+02  0.7816164E-02  0.1266605E+00
        -11   -1    0    0    0    0  0.00000000000E+00  0.00000000000E+00  0.45593999997E+02  0.45594000000E+02  0.51100000000E-03 0.  1.
         11   -1    0    0    0    0 -0.00000000000E+00 -0.00000000000E+00 -0.45593999997E+02  0.45594000000E+02  0.51100000000E-03 0. -1.
    9900012    2    1    2    0    0  0.18426397348E+02  0.23036455341E+02  0.12104126468E+02  0.59301948639E+02  0.50000008409E+02 0.  0.
         12    1    1    2    0    0 -0.18426397348E+02 -0.23036455341E+02 -0.12104126468E+02  0.31886051361E+02  0.00000000000E+00 0. -1.
         11    1    3    3    0    0 -0.52755762978E+00 -0.80989938838E+01  0.54179627214E+00  0.81342216864E+01  0.51100000000E-03 0. -1.
        -11    1    3    3    0    0  0.22420839072E+02  0.47820534199E+01  0.23908996749E+01  0.23049478544E+02  0.51100000000E-03 0.  1.
         12    1    3    3    0    0 -0.34668840950E+01  0.26353395805E+02  0.91714305207E+01  0.28118248408E+02  0.00000000000E+00 0. -1.
</event>
<event>
 7    1  0.6164995E-012  0.5930194E+02  0.7816164E-02  0.1266605E+00
        -11   -1    0    0    0    0  0.00000000000E+00  0.00000000000E+00  0.45593999997E+02  0.45594000000E+02  0.51100000000E-03 0. -1.
         11   -1    0    0    0    0 -0.00000000000E+00 -0.00000000000E+00 -0.45593999997E+02  0.45594000000E+02  0.51100000000E-03 0.  1.
    9900012    2    1    2    0    0  0.10279065621E+02  0.30182939406E+02  0.22694295115E+00  0.59301944673E+02  0.50000001177E+02 0.  0.
         12    1    1    2    0    0 -0.10279065621E+02 -0.30182939406E+02 -0.22694295115E+00  0.31886055327E+02  0.00000000000E+00 0. -1.
         11    1    3    3    0    0  0.18227753539E+01  0.29365238926E+01  0.11778454590E+02  0.12275083517E+02  0.51100000000E-03 0. -1.
        -11    1    3    3    0    0 -0.12143684662E+02  0.16394775734E+02  0.12787260346E+01  0.20442428649E+02  0.51100000000E-03 0.  1.
        -12    1    3    3    0    0  0.20599974929E+02  0.10851639779E+02 -0.12830237674E+02  0.26584432507E+02  0.00000000000E+00 0.  1.
</event>
<event>
 7    1  0.6164995E-012  0.5930197E+02  0.7816164E-02  0.1266605E+00
        -11   -1    0    0    0    0  0.00000000000E+00  0.00000000000E+00  0.45593999997E+02  0.45594000000E+02  0.51100000000E-03 0.  1.
         11   -1    0    0    0    0 -0.00000000000E+00 -0.00000000000E+00 -0.45593999997E+02  0.45594000000E+02  0.51100000000E-03 0. -1.
    9900012    2    1    2    0    0 -0.20078670469E+00  0.29019820208E+02  0.13210918236E+02  0.59301974207E+02  0.50000055040E+02 0.  0.
         12    1    1    2    0    0  0.20078670469E+00 -0.29019820208E+02 -0.13210918236E+02  0.31886025793E+02  0.00000000000E+00 0. -1.
         11    1    3    3    0    0 -0.40537445419E-01  0.89811367321E+00 -0.20635459008E+01  0.22508828047E+01  0.51100000000E-03 0. -1.
        -11    1    3    3    0    0  0.17346710403E+02 -0.38475327507E+01  0.94970422974E+01  0.20147101100E+02  0.51100000000E-03 0.  1.
         12    1    3    3    0    0 -0.17506959662E+02  0.31969239286E+02  0.57774218396E+01  0.36903990302E+02  0.00000000000E+00 0. -1.
</event>
<event>
 7    1  0.6164995E-012  0.5930201E+02  0.7816164E-02  0.1266605E+00
        -11   -1    0    0    0    0  0.00000000000E+00  0.00000000000E+00  0.45593999997E+02  0.45594000000E+02  0.51100000000E-03 0.  1.
         11   -1    0    0    0    0 -0.00000000000E+00 -0.00000000000E+00 -0.45593999997E+02  0.45594000000E+02  0.51100000000E-03 0. -1.
    9900012    2    1    2    0    0 -0.72438936383E+01 -0.17257536710E+02  0.25815103243E+02  0.59302013677E+02  0.50000127024E+02 0.  0.
         12    1    1    2    0    0  0.72438936383E+01  0.17257536710E+02 -0.25815103243E+02  0.31885986323E+02  0.00000000000E+00 0. -1.
         11    1    3    3    0    0 -0.47000671042E+01  0.17695015515E+01 -0.42252732351E+01  0.65631319275E+01  0.51100000000E-03 0. -1.
        -11    1    3    3    0    0 -0.51122392131E+01 -0.11082626890E+02 -0.74707126973E+01  0.14309827288E+02  0.51100000000E-03 0.  1.
        -12    1    3    3    0    0  0.25684126790E+01 -0.79444113717E+01  0.37511089175E+02  0.38429054462E+02  0.00000000000E+00 0.  1.
</event>
<event>
 7    1  0.6164995E-012  0.5930194E+02  0.7816164E-02  0.1266605E+00
        -11   -1    0    0    0    0  0.00000000000E+00  0.00000000000E+00  0.45593999997E+02  0.45594000000E+02  0.51100000000E-03 0.  1.
         11   -1    0    0    0    0 -0.00000000000E+00 -0.00000000000E+00 -0.45593999997E+02  0.45594000000E+02  0.51100000000E-03 0. -1.
    9900012    2    1    2    0    0 -0.26791688525E+02 -0.66390230174E+01  0.15964008051E+02  0.59301941076E+02  0.49999994617E+02 0.  0.
         12    1    1    2    0    0  0.26791688525E+02  0.66390230174E+01 -0.15964008051E+02  0.31886058924E+02  0.00000000000E+00 0. -1.
         11    1    3    3    0    0 -0.76939763500E+01 -0.11412588641E+02  0.39190580084E+01  0.14310956205E+02  0.51100000000E-03 0. -1.
        -11    1    3    3    0    0 -0.24092512339E+02  0.16085861914E+02  0.19620428623E+01  0.29035387319E+02  0.51100000000E-03 0.  1.
         12    1    3    3    0    0  0.49948001642E+01 -0.11312296290E+02  0.10082907180E+02  0.15955597552E+02  0.00000000000E+00 0. -1.
</event>
<event>
 7    1  0.6164995E-012  0.5930210E+02  0.7816164E-02  0.1266604E+00
        -11   -1    0    0    0    0  0.00000000000E+00  0.00000000000E+00  0.45593999997E+02  0.45594000000E+02  0.51100000000E-03 0. -1.
         11   -1    0    0    0    0 -0.00000000000E+00 -0.00000000000E+00 -0.45593999997E+02  0.45594000000E+02  0.51100000000E-03 0.  1.
    9900012    2    1    2    0    0 -0.30707131163E+02  0.83604438003E+01 -0.19712559770E+01  0.59302097552E+02  0.50000279991E+02 0.  0.
         12    1    1    2    0    0  0.30707131163E+02 -0.83604438003E+01  0.19712559770E+01  0.31885902448E+02  0.00000000000E+00 0. -1.
         11    1    3    3    0    0  0.30000194732E+01 -0.11788225828E+02 -0.19130588176E+01  0.12313495820E+02  0.51100000000E-03 0. -1.
        -11    1    3    3    0    0  0.10525324098E+01 -0.32811239437E+01 -0.35214945595E+01  0.49269182053E+01  0.51100000000E-03 0.  1.
        -12    1    3    3    0    0 -0.34759683046E+02  0.23429793572E+02  0.34632974001E+01  0.42061683527E+02  0.00000000000E+00 0.  1.
</event>
<event>
 7    1  0.6164995E-012  0.5930195E+02  0.7816164E-02  0.1266605E+00
        -11   -1    0    0    0    0  0.00000000000E+00  0.00000000000E+00  0.45593999997E+02  0.45594000000E+02  0.51100000000E-03 0. -1.
         11   -1    0    0    0    0 -0.00000000000E+00 -0.00000000000E+00 -0.45593999997E+02  0.45594000000E+02  0.51100000000E-03 0.  1.
    9900012    2    1    2    0    0  0.12946074749E+02  0.94897015997E+01 -0.27551126875E+02  0.59301954777E+02  0.50000019604E+02 0.  0.
         12    1    1    2    0    0 -0.12946074749E+02 -0.94897015997E+01  0.27551126875E+02  0.31886045223E+02  0.00000000000E+00 0. -1.
         11    1    3    3    0    0 -0.68165673433E+01 -0.50851935859E+01 -0.90614407007E+01  0.12427167496E+02  0.51100000000E-03 0. -1.
        -11    1    3    3    0    0  0.27898335125E+01 -0.11460692678E+02 -0.31112279644E+01  0.12198786308E+02  0.51100000000E-03 0.  1.
        -12    1    3    3    0    0  0.16972808580E+02  0.26035587864E+02 -0.15378458210E+02  0.34676000972E+02  0.00000000000E+00 0.  1.
</event>
<event>
 7    1  0.6164995E-012  0.5930194E+02  0.7816164E-02  0.1266605E+00
        -11   -1    0    0    0    0  0.00000000000E+00  0.00000000000E+00  0.45593999997E+02  0.45594000000E+02  0.51100000000E-03 0.  1.
         11   -1    0    0    0    0 -0.00000000000E+00 -0.00000000000E+00 -0.45593999997E+02  0.45594000000E+02  0.51100000000E-03 0. -1.
    9900012    2    1    2    0    0 -0.18624734446E+02 -0.12899514413E+00  0.25880948492E+02  0.59301939288E+02  0.49999991355E+02 0.  0.
         12    1    1    2    0    0  0.18624734446E+02  0.12899514413E+00 -0.25880948492E+02  0.31886060712E+02  0.00000000000E+00 0. -1.
         11    1    3    3    0    0 -0.17945761213E+01  0.48125990902E+01 -0.76578730207E+01  0.92208802682E+01  0.51100000000E-03 0. -1.
        -11    1    3    3    0    0 -0.24087337815E+02  0.51918114229E+01  0.20623310940E+02  0.32132159953E+02  0.51100000000E-03 0.  1.
        -12    1    3    3    0    0  0.72571794897E+01 -0.10133405657E+02  0.12915510573E+02  0.17948899067E+02  0.00000000000E+00 0.  1.
</event>
<event>
 7    1  0.6164995E-012  0.5930193E+02  0.7816164E-02  0.1266605E+00
        -11   -1    0    0    0    0  0.00000000000E+00  0.00000000000E+00  0.45593999997E+02  0.45594000000E+02  0.51100000000E-03 0.  1.
         11   -1    0    0    0    0 -0.00000000000E+00 -0.00000000000E+00 -0.45593999997E+02  0.45594000000E+02  0.51100000000E-03 0. -1.
    9900012    2    1    2    0    0 -0.46588153605E+01 -0.25461379289E+01  0.31440957899E+02  0.59301933882E+02  0.49999981496E+02 0.  0.
         12    1    1    2    0    0  0.46588153605E+01  0.25461379289E+01 -0.31440957899E+02  0.31886066118E+02  0.00000000000E+00 0. -1.
         11    1    3    3    0    0  0.11191663236E+02 -0.61848008386E+01  0.12893998322E+02  0.18159302861E+02  0.51100000000E-03 0. -1.
        -11    1    3    3    0    0 -0.33248783578E+01 -0.10093506723E+02 -0.44950733414E+01  0.11538603844E+02  0.51100000000E-03 0.  1.
        -12    1    3    3    0    0 -0.12525600238E+02  0.13732169632E+02  0.23042032918E+02  0.29604027178E+02  0.00000000000E+00 0.  1.
</event>
<event>
 7    1  0.6164995E-012  0.5930194E+02  0.7816164E-02  0.1266605E+00
        -11   -1    0    0    0    0  0.00000000000E+00  0.00000000000E+00  0.45593999997E+02  0.45594000000E+02  0.51100000000E-03 0.  1.
         11   -1    0    0    0    0 -0.00000000000E+00 -0.00000000000E+00 -0.45593999997E+02  0.45594000000E+02  0.51100000000E-03 0. -1.
    9900012    2    1    2    0    0 -0.12291755170E+02  0.28015879741E+02  0.89857729235E+01  0.59301939130E+02  0.49999991067E+02 0.  0.
         12    1    1    2    0    0  0.12291755170E+02 -0.28015879741E+02 -0.89857729235E+01  0.31886060870E+02  0.00000000000E+00 0. -1.
         11    1    3    3    0    0 -0.18335189720E+02  0.14396367679E+02 -0.44055448254E+01  0.23724321063E+02  0.51100000000E-03 0. -1.
        -11    1    3    3    0    0 -0.10956644816E+02  0.28280644333E+00  0.71529860912E+01  0.13087904928E+02  0.51100000000E-03 0.  1.
         12    1    3    3    0    0  0.17000079366E+02  0.13336705618E+02  0.62383316576E+01  0.22489713139E+02  0.00000000000E+00 0. -1.
</event>
<event>
 7    1  0.6164995E-012  0.5930194E+02  0.7816164E-02  0.1266605E+00
        -11   -1    0    0    0    0  0.00000000000E+00  0.00000000000E+00  0.45593999997E+02  0.45594000000E+02  0.51100000000E-03 0. -1.
         11   -1    0    0    0    0 -0.00000000000E+00 -0.00000000000E+00 -0.45593999997E+02  0.45594000000E+02  0.51100000000E-03 0.  1.
    9900012    2    1    2    0    0 -0.19432567311E+02  0.22376911261E+02 -0.11763072360E+02  0.59301941899E+02  0.49999996118E+02 0.  0.
         12    1    1    2    0    0  0.19432567311E+02 -0.22376911261E+02  0.11763072360E+02  0.31886058101E+02  0.00000000000E+00 0. -1.
         11    1    3    3    0    0 -0.15822577689E+01  0.19401149241E+01 -0.39543023401E+01  0.46801808538E+01  0.51100000000E-03 0. -1.
        -11    1    3    3    0    0 -0.59236674196E+01  0.34797007861E+02 -0.35554065897E+01  0.35476224546E+02  0.51100000000E-03 0.  1.
         12    1    3    3    0    0 -0.11926642123E+02 -0.14360211525E+02 -0.42533634304E+01  0.19145536499E+02  0.00000000000E+00 0. -1.
</event>
<event>
 7    1  0.6164995E-012  0.5930194E+02  0.7816164E-02  0.1266605E+00
        -11   -1    0    0    0    0  0.00000000000E+00  0.00000000000E+00  0.45593999997E+02  0.45594000000E+02  0.51100000000E-03 0. -1.
         11   -1    0    0    0    0 -0.00000000000E+00 -0.00000000000E+00 -0.45593999997E+02  0.45594000000E+02  0.51100000000E-03 0.  1.
    9900012    2    1    2    0    0  0.42666303392E+01  0.29603825141E+02 -0.11051260472E+02  0.59301937913E+02  0.49999988848E+02 0.  0.
         12    1    1    2    0    0 -0.42666303392E+01 -0.29603825141E+02  0.11051260472E+02  0.31886062087E+02  0.00000000000E+00 0. -1.
         11    1    3    3    0    0 -0.52541489856E+01  0.95407056876E+01  0.74453806697E+01  0.13193363489E+02  0.51100000000E-03 0. -1.
        -11    1    3    3    0    0  0.93526573053E+00 -0.69157554768E+01 -0.16276645110E+02  0.17709646301E+02  0.51100000000E-03 0.  1.
         12    1    3    3    0    0  0.85855135943E+01  0.26978874930E+02 -0.22199960319E+01  0.28398928123E+02  0.00000000000E+00 0. -1.
</event>
<event>
 7    1  0.6164995E-012  0.5930195E+02  0.7816164E-02  0.1266605E+00
        -11   -1    0    0    0    0  0.00000000000E+00  0.00000000000E+00  0.45593999997E+02  0.45594000000E+02  0.51100000000E-03 0.  1.
         11   -1    0    0    0    0 -0.00000000000E+00 -0.00000000000E+00 -0.45593999997E+02  0.45594000000E+02  0.51100000000E-03 0. -1.
    9900012    2    1    2    0    0 -0.53983629722E+01 -0.24391134477E+02  0.19815407413E+02  0.59301950781E+02  0.50000012316E+02 0.  0.
         12    1    1    2    0    0  0.53983629722E+01  0.24391134477E+02 -0.19815407413E+02  0.31886049219E+02  0.00000000000E+00 0. -1.
         11    1    3    3    0    0 -0.68290461199E+01 -0.19084633849E+01  0.19821346192E+02  0.21051457634E+02  0.51100000000E-03 0.  1.
        -11    1    3    3    0    0 -0.12707891496E+02 -0.17881150849E+02  0.51140968477E+01  0.22525098197E+02  0.51100000000E-03 0. -1.
        -12    1    3    3    0    0  0.14138574643E+02 -0.46015202429E+01 -0.51200356271E+01  0.15725394949E+02  0.00000000000E+00 0.  1.
</event>
<event>
 7    1  0.6164995E-012  0.5930195E+02  0.7816164E-02  0.1266605E+00
        -11   -1    0    0    0    0  0.00000000000E+00  0.00000000000E+00  0.45593999997E+02  0.45594000000E+02  0.51100000000E-03 0. -1.
         11   -1    0    0    0    0 -0.00000000000E+00 -0.00000000000E+00 -0.45593999997E+02  0.45594000000E+02  0.51100000000E-03 0.  1.
    9900012    2    1    2    0    0 -0.84621870562E+01 -0.27981991416E+02  0.12732625535E+02  0.59301949658E+02  0.50000010269E+02 0.  0.
         12    1    1    2    0    0  0.84621870562E+01  0.27981991416E+02 -0.12732625535E+02  0.31886050342E+02  0.00000000000E+00 0. -1.
         11    1    3    3    0    0  0.98469620004E+01 -0.66103451297E+01  0.10968450288E+02  0.16154449089E+02  0.51100000000E-03 0. -1.
        -11    1    3    3    0    0 -0.10237335734E+02 -0.22467031435E+02 -0.11769663945E+02  0.27351335142E+02  0.51100000000E-03 0.  1.
         12    1    3    3    0    0 -0.80718133226E+01  0.10953851480E+01  0.13533839192E+02  0.15796165427E+02  0.00000000000E+00 0. -1.
</event>
<event>
 7    1  0.6164995E-012  0.5930198E+02  0.7816164E-02  0.1266605E+00
        -11   -1    0    0    0    0  0.00000000000E+00  0.00000000000E+00  0.45593999997E+02  0.45594000000E+02  0.51100000000E-03 0.  1.
         11   -1    0    0    0    0 -0.00000000000E+00 -0.00000000000E+00 -0.45593999997E+02  0.45594000000E+02  0.51100000000E-03 0. -1.
    9900012    2    1    2    0    0 -0.10184671581E+02 -0.27738227410E+02  0.11982555954E+02  0.59301977322E+02  0.50000060720E+02 0.  0.
         12    1    1    2    0    0  0.10184671581E+02  0.27738227410E+02 -0.11982555954E+02  0.31886022678E+02  0.00000000000E+00 0. -1.
         11    1    3    3    0    0  0.88114309558E+01  0.50934310032E+01  0.30459916260E+01  0.10623672629E+02  0.51100000000E-03 0. -1.
        -11    1    3    3    0    0  0.32799875873E+01 -0.14178412436E+01  0.95146812082E+01  0.10163550124E+02  0.51100000000E-03 0.  1.
        -12    1    3    3    0    0 -0.22276090125E+02 -0.31413817169E+02 -0.57811687986E+00  0.38514754569E+02  0.00000000000E+00 0.  1.
</event>
<event>
 7    1  0.6164995E-012  0.5930194E+02  0.7816164E-02  0.1266605E+00
        -11   -1    0    0    0    0  0.00000000000E+00  0.00000000000E+00  0.45593999997E+02  0.45594000000E+02  0.51100000000E-03 0.  1.
         11   -1    0    0    0    0 -0.00000000000E+00 -0.00000000000E+00 -0.45593999997E+02  0.45594000000E+02  0.51100000000E-03 0. -1.
    9900012    2    1    2    0    0  0.27158095227E+02 -0.42339145179E+01  0.16162689724E+02  0.59301941799E+02  0.49999995935E+02 0.  0.
         12    1    1    2    0    0 -0.27158095227E+02  0.42339145179E+01 -0.16162689724E+02  0.31886058201E+02  0.00000000000E+00 0. -1.
         11    1    3    3    0    0  0.13451158202E+02 -0.70615217422E+01 -0.69339316394E+01  0.16699645342E+02  0.51100000000E-03 0. -1.
        -11    1    3    3    0    0  0.15147123624E+02  0.15893475826E+02  0.18391399133E+02  0.28640556738E+02  0.51100000000E-03 0.  1.
         12    1    3    3    0    0 -0.14401865989E+01 -0.13065868602E+02  0.47052222301E+01  0.13961739719E+02  0.00000000000E+00 0. -1.
</event>
<event>
 7    1  0.6164995E-012  0.5930193E+02  0.7816164E-02  0.1266605E+00
        -11   -1    0    0    0    0  0.00000000000E+00  0.00000000000E+00  0.45593999997E+02  0.45594000000E+02  0.51100000000E-03 0.  1.
         11   -1    0    0    0    0 -0.00000000000E+00 -0.00000000000E+00 -0.45593999997E+02  0.45594000000E+02  0.51100000000E-03 0. -1.
    9900012    2    1    2    0    0 -0.85639370056E+01 -0.26939449823E+01  0.30596130055E+02  0.59301928888E+02  0.49999972389E+02 0.  0.
         12    1    1    2    0    0  0.85639370056E+01  0.26939449823E+01 -0.30596130055E+02  0.31886071112E+02  0.00000000000E+00 0. -1.
         11    1    3    3    0    0  0.84456295899E+01  0.91202647473E+01 -0.15934018086E+01  0.12531832181E+02  0.51100000000E-03 0. -1.
        -11    1    3    3    0    0 -0.16427648962E+02 -0.75258106295E+00  0.46550324590E+01  0.17091031453E+02  0.51100000000E-03 0.  1.
        -12    1    3    3    0    0 -0.58191763393E+00 -0.11061628667E+02  0.27534499405E+02  0.29679065254E+02  0.00000000000E+00 0.  1.
</event>
<event>
 7    1  0.6164995E-012  0.5930191E+02  0.7816164E-02  0.1266605E+00
        -11   -1    0    0    0    0  0.00000000000E+00  0.00000000000E+00  0.45593999997E+02  0.45594000000E+02  0.51100000000E-03 0. -1.
         11   -1    0    0    0    0 -0.00000000000E+00 -0.00000000000E+00 -0.45593999997E+02  0.45594000000E+02  0.51100000000E-03 0.  1.
    9900012    2    1    2    0    0  0.13633945503E+02  0.23769724012E+02 -0.16304550022E+02  0.59301912108E+02  0.49999941787E+02 0.  0.
         12    1    1    2    0    0 -0.13633945503E+02 -0.23769724012E+02  0.16304550022E+02  0.31886087892E+02  0.00000000000E+00 0. -1.
         11    1    3    3    0    0 -0.15690438353E+02  0.76014340255E+01 -0.52361838656E+01  0.18204100546E+02  0.51100000000E-03 0. -1.
        -11    1    3    3    0    0  0.15219051765E+01 -0.45962359368E+01 -0.78082613205E+00  0.49042094024E+01  0.51100000000E-03 0.  1.
        -12    1    3    3    0    0  0.27802478680E+02  0.20764525924E+02 -0.10287540025E+02  0.36193602160E+02  0.00000000000E+00 0.  1.
</event>
<event>
 7    1  0.6164995E-012  0.5930197E+02  0.7816164E-02  0.1266605E+00
        -11   -1    0    0    0    0  0.00000000000E+00  0.00000000000E+00  0.45593999997E+02  0.45594000000E+02  0.51100000000E-03 0. -1.
         11   -1    0    0    0    0 -0.00000000000E+00 -0.00000000000E+00 -0.45593999997E+02  0.45594000000E+02  0.51100000000E-03 0.  1.
    9900012    2    1    2    0    0  0.26028416875E+02 -0.12835520228E+02 -0.13209459349E+02  0.59301970444E+02  0.50000048177E+02 0.  0.
         12    1    1    2    0    0 -0.26028416875E+02  0.12835520228E+02  0.13209459349E+02  0.31886029556E+02  0.00000000000E+00 0. -1.
         11    1    3    3    0    0  0.93899435440E+01 -0.92982813755E+01  0.54827527239E+01  0.14306979206E+02  0.51100000000E-03 0. -1.
        -11    1    3    3    0    0 -0.58069847559E+01 -0.10910874934E+02 -0.17388120235E+02  0.21333424229E+02  0.51100000000E-03 0.  1.
        -12    1    3    3    0    0  0.22445458087E+02  0.73736360812E+01 -0.13040918381E+01  0.23661567009E+02  0.00000000000E+00 0.  1.
</event>
<event>
 7    1  0.6164995E-012  0.5930197E+02  0.7816164E-02  0.1266605E+00
        -11   -1    0    0    0    0  0.00000000000E+00  0.00000000000E+00  0.45593999997E+02  0.45594000000E+02  0.51100000000E-03 0. -1.
         11   -1    0    0    0    0 -0.00000000000E+00 -0.00000000000E+00 -0.45593999997E+02  0.45594000000E+02  0.51100000000E-03 0.  1.
    9900012    2    1    2    0    0  0.26769559587E+02  0.15622565060E+02 -0.74863374947E+01  0.59301966872E+02  0.50000041663E+02 0.  0.
         12    1    1    2    0    0 -0.26769559587E+02 -0.15622565060E+02  0.74863374947E+01  0.31886033128E+02  0.00000000000E+00 0. -1.
         11    1    3    3    0    0  0.23639330545E+02  0.89252374236E+01  0.71228858231E+01  0.26252872498E+02  0.51100000000E-03 0. -1.
        -11    1    3    3    0    0  0.29968592159E+01  0.14448528507E+02  0.18344253244E+01  0.14869642151E+02  0.51100000000E-03 0.  1.
        -12    1    3    3    0    0  0.13336982610E+00 -0.77512008709E+01 -0.16443648642E+02  0.18179452223E+02  0.00000000000E+00 0.  1.
</event>
<event>
 7    1  0.6164995E-012  0.5930193E+02  0.7816164E-02  0.1266605E+00
        -11   -1    0    0    0    0  0.00000000000E+00  0.00000000000E+00  0.45593999997E+02  0.45594000000E+02  0.51100000000E-03 0. -1.
         11   -1    0    0    0    0 -0.00000000000E+00 -0.00000000000E+00 -0.45593999997E+02  0.45594000000E+02  0.51100000000E-03 0.  1.
    9900012    2    1    2    0    0 -0.22713452587E+02  0.19130799778E+02 -0.11611766899E+02  0.59301928447E+02  0.49999971585E+02 0.  0.
         12    1    1    2    0    0  0.22713452587E+02 -0.19130799778E+02  0.11611766899E+02  0.31886071553E+02  0.00000000000E+00 0. -1.
         11    1    3    3    0    0 -0.15103060313E+01  0.74986538354E+01  0.91957577949E+01  0.11961304082E+02  0.51100000000E-03 0. -1.
        -11    1    3    3    0    0 -0.28761535756E+01 -0.40499981592E+01  0.82169215816E+01  0.96016949035E+01  0.51100000000E-03 0.  1.
        -12    1    3    3    0    0 -0.18326992980E+02  0.15682144102E+02 -0.29024446276E+02  0.37738929462E+02  0.00000000000E+00 0.  1.
</event>
<event>
 7    1  0.6164995E-012  0.5930190E+02  0.7816164E-02  0.1266605E+00
        -11   -1    0    0    0    0  0.00000000000E+00  0.00000000000E+00  0.45593999997E+02  0.45594000000E+02  0.51100000000E-03 0. -1.
         11   -1    0    0    0    0 -0.00000000000E+00 -0.00000000000E+00 -0.45593999997E+02  0.45594000000E+02  0.51100000000E-03 0.  1.
    9900012    2    1    2    0    0  0.21415423965E+02  0.55070441708E+00 -0.23617785810E+02  0.59301898553E+02  0.49999917064E+02 0.  0.
         12    1    1    2    0    0 -0.21415423965E+02 -0.55070441708E+00  0.23617785810E+02  0.31886101447E+02  0.00000000000E+00 0. -1.
         11    1    3    3    0    0  0.12535883971E+02  0.10157421632E+02 -0.47471285238E+01  0.16818348035E+02  0.51100000000E-03 0. -1.
        -11    1    3    3    0    0 -0.28595164067E+01  0.11782842070E+02 -0.85687764468E+00  0.12155099378E+02  0.51100000000E-03 0.  1.
         12    1    3    3    0    0  0.11739056401E+02 -0.21389559285E+02 -0.18013779641E+02  0.30328451140E+02  0.00000000000E+00 0. -1.
</event>
<event>
 7    1  0.6164995E-012  0.5930195E+02  0.7816164E-02  0.1266605E+00
        -11   -1    0    0    0    0  0.00000000000E+00  0.00000000000E+00  0.45593999997E+02  0.45594000000E+02  0.51100000000E-03 0.  1.
         11   -1    0    0    0    0 -0.00000000000E+00 -0.00000000000E+00 -0.45593999997E+02  0.45594000000E+02  0.51100000000E-03 0. -1.
    9900012    2    1    2    0    0  0.15664758312E+02 -0.27090561039E+02 -0.61185991595E+01  0.59301946528E+02  0.50000004559E+02 0.  0.
         12    1    1    2    0    0 -0.15664758312E+02  0.27090561039E+02  0.61185991595E+01  0.31886053472E+02  0.00000000000E+00 0. -1.
         11    1    3    3    0    0  0.60011924342E+01  0.31692249042E+01 -0.21733819854E+01  0.71261410765E+01  0.51100000000E-03 0. -1.
        -11    1    3    3    0    0 -0.11261553284E+02  0.21166883644E+01 -0.71277559998E+01  0.13494734449E+02  0.51100000000E-03 0.  1.
        -12    1    3    3    0    0  0.20925119161E+02 -0.32376474307E+02  0.31825388256E+01  0.38681071002E+02  0.00000000000E+00 0.  1.
</event>
<event>
 7    1  0.6164995E-012  0.5930198E+02  0.7816164E-02  0.1266605E+00
        -11   -1    0    0    0    0  0.00000000000E+00  0.00000000000E+00  0.45593999997E+02  0.45594000000E+02  0.51100000000E-03 0. -1.
         11   -1    0    0    0    0 -0.00000000000E+00 -0.00000000000E+00 -0.45593999997E+02  0.45594000000E+02  0.51100000000E-03 0.  1.
    9900012    2    1    2    0    0  0.22283680375E+02 -0.14230681202E+02 -0.17822550540E+02  0.59301984158E+02  0.50000073188E+02 0.  0.
         12    1    1    2    0    0 -0.22283680375E+02  0.14230681202E+02  0.17822550540E+02  0.31886015842E+02  0.00000000000E+00 0. -1.
         11    1    3    3    0    0  0.62653207446E+01  0.19613894559E+01 -0.69339282174E+01  0.95488561313E+01  0.51100000000E-03 0. -1.
        -11    1    3    3    0    0 -0.66674327438E+01 -0.93680030822E+01 -0.21042228822E+02  0.23978939410E+02  0.51100000000E-03 0.  1.
        -12    1    3    3    0    0  0.22685792374E+02 -0.68240675760E+01  0.10153606500E+02  0.25774188617E+02  0.00000000000E+00 0.  1.
</event>
<event>
 7    1  0.6164995E-012  0.5930193E+02  0.7816164E-02  0.1266605E+00
        -11   -1    0    0    0    0  0.00000000000E+00  0.00000000000E+00  0.45593999997E+02  0.45594000000E+02  0.51100000000E-03 0.  1.
         11   -1    0    0    0    0 -0.00000000000E+00 -0.00000000000E+00 -0.45593999997E+02  0.45594000000E+02  0.51100000000E-03 0. -1.
    9900012    2    1    2    0    0 -0.24130855936E+02  0.16562147881E+02 -0.12653791334E+02  0.59301931166E+02  0.49999976542E+02 0.  0.
         12    1    1    2    0    0  0.24130855936E+02 -0.16562147881E+02  0.12653791334E+02  0.31886068834E+02  0.00000000000E+00 0. -1.
         11    1    3    3    0    0 -0.13611591149E+02 -0.60188603570E+00 -0.12449632166E+02  0.18456191962E+02  0.51100000000E-03 0. -1.
        -11    1    3    3    0    0 -0.14355653434E+02  0.24531644761E+02 -0.79224419924E+01  0.29506803751E+02  0.51100000000E-03 0.  1.
         12    1    3    3    0    0  0.38363886477E+01 -0.73676108452E+01  0.77182828249E+01  0.11338935452E+02  0.00000000000E+00 0. -1.
</event>
<event>
 7    1  0.6164995E-012  0.5930198E+02  0.7816164E-02  0.1266605E+00
        -11   -1    0    0    0    0  0.00000000000E+00  0.00000000000E+00  0.45593999997E+02  0.45594000000E+02  0.51100000000E-03 0.  1.
         11   -1    0    0    0    0 -0.00000000000E+00 -0.00000000000E+00 -0.45593999997E+02  0.45594000000E+02  0.51100000000E-03 0. -1.
    9900012    2    1    2    0    0 -0.24941502181E+02  0.15613627554E+02  0.12282285003E+02  0.59301977650E+02  0.50000061319E+02 0.  0.
         12    1    1    2    0    0  0.24941502181E+02 -0.15613627554E+02 -0.12282285003E+02  0.31886022350E+02  0.00000000000E+00 0. -1.
         11    1    3    3    0    0 -0.19376800744E+02 -0.36671022957E+01  0.11725879068E+02  0.22943502054E+02  0.51100000000E-03 0. -1.
        -11    1    3    3    0    0 -0.66044479510E+01  0.93086697198E+01  0.14955133393E+02  0.18812923212E+02  0.51100000000E-03 0.  1.
        -12    1    3    3    0    0  0.10397465148E+01  0.99720601296E+01 -0.14398727458E+02  0.17545552384E+02  0.00000000000E+00 0.  1.
</event>
<event>
 7    1  0.6164995E-012  0.5930196E+02  0.7816164E-02  0.1266605E+00
        -11   -1    0    0    0    0  0.00000000000E+00  0.00000000000E+00  0.45593999997E+02  0.45594000000E+02  0.51100000000E-03 0.  1.
         11   -1    0    0    0    0 -0.00000000000E+00 -0.00000000000E+00 -0.45593999997E+02  0.45594000000E+02  0.51100000000E-03 0. -1.
    9900012    2    1    2    0    0 -0.66183706826E+01 -0.14845577416E+02  0.27432201044E+02  0.59301958330E+02  0.50000026083E+02 0.  0.
         12    1    1    2    0    0  0.66183706826E+01  0.14845577416E+02 -0.27432201044E+02  0.31886041670E+02  0.00000000000E+00 0. -1.
         11    1    3    3    0    0 -0.62412430078E+01 -0.21743956848E+02  0.80559364426E+01  0.24013556295E+02  0.51100000000E-03 0.  1.
        -11    1    3    3    0    0  0.56554954564E+01  0.10242575342E+01 -0.61450302005E+01  0.84139841205E+01  0.51100000000E-03 0. -1.
         12    1    3    3    0    0 -0.60326231312E+01  0.58741218979E+01  0.25521294801E+02  0.26874417915E+02  0.00000000000E+00 0. -1.
</event>
<event>
 7    1  0.6164995E-012  0.5930193E+02  0.7816164E-02  0.1266605E+00
        -11   -1    0    0    0    0  0.00000000000E+00  0.00000000000E+00  0.45593999997E+02  0.45594000000E+02  0.51100000000E-03 0.  1.
         11   -1    0    0    0    0 -0.00000000000E+00 -0.00000000000E+00 -0.45593999997E+02  0.45594000000E+02  0.51100000000E-03 0. -1.
    9900012    2    1    2    0    0  0.11114675000E+02  0.85484576406E+01  0.28637548158E+02  0.59301932621E+02  0.49999979197E+02 0.  0.
         12    1    1    2    0    0 -0.11114675000E+02 -0.85484576406E+01 -0.28637548158E+02  0.31886067379E+02  0.00000000000E+00 0. -1.
         11    1    3    3    0    0 -0.10341488512E+00 -0.62775178468E+01 -0.95785019154E+01  0.11452756182E+02  0.51100000000E-03 0. -1.
        -11    1    3    3    0    0 -0.56121694953E+01 -0.11563486791E+00  0.12329815854E+02  0.13547478626E+02  0.51100000000E-03 0.  1.
        -12    1    3    3    0    0  0.16830259381E+02  0.14941610355E+02  0.25886234219E+02  0.34301697814E+02  0.00000000000E+00 0.  1.
</event>
<event>
 7    1  0.6164995E-012  0.5930195E+02  0.7816164E-02  0.1266605E+00
        -11   -1    0    0    0    0  0.00000000000E+00  0.00000000000E+00  0.45593999997E+02  0.45594000000E+02  0.51100000000E-03 0.  1.
         11   -1    0    0    0    0 -0.00000000000E+00 -0.00000000000E+00 -0.45593999997E+02  0.45594000000E+02  0.51100000000E-03 0. -1.
    9900012    2    1    2    0    0  0.27605082648E+01 -0.31676220387E+02 -0.23909464105E+01  0.59301953387E+02  0.50000017068E+02 0.  0.
         12    1    1    2    0    0 -0.27605082648E+01  0.31676220387E+02  0.23909464105E+01  0.31886046613E+02  0.00000000000E+00 0. -1.
         11    1    3    3    0    0  0.17207587486E+01  0.26423284049E+01  0.38728679292E+01  0.49941982668E+01  0.51100000000E-03 0. -1.
        -11    1    3    3    0    0  0.16757508979E+02 -0.25731960759E+02  0.76289076587E+01  0.31640925145E+02  0.51100000000E-03 0.  1.
         12    1    3    3    0    0 -0.15717759463E+02 -0.85865880327E+01 -0.13892721998E+02  0.22666829975E+02  0.00000000000E+00 0. -1.
</event>
<event>
 7    1  0.6164995E-012  0.5930184E+02  0.7816164E-02  0.1266605E+00
        -11   -1    0    0    0    0  0.00000000000E+00  0.00000000000E+00  0.45593999997E+02  0.45594000000E+02  0.51100000000E-03 0. -1.
         11   -1    0    0    0    0 -0.00000000000E+00 -0.00000000000E+00 -0.45593999997E+02  0.45594000000E+02  0.51100000000E-03 0.  1.
    9900012    2    1    2    0    0 -0.30070817781E+02 -0.76000927972E+01  0.73967252571E+01  0.59301842548E+02  0.49999814924E+02 0.  0.
         12    1    1    2    0    0  0.30070817781E+02  0.76000927972E+01 -0.73967252571E+01  0.31886157452E+02  0.00000000000E+00 0. -1.
         11    1    3    3    0    0  0.68774013441E+01  0.12547891762E+02  0.74058938885E+01  0.16111967648E+02  0.51100000000E-03 0. -1.
        -11    1    3    3    0    0 -0.21817716288E+01 -0.52519161342E+00 -0.22855879538E+01  0.32031025938E+01  0.51100000000E-03 0.  1.
        -12    1    3    3    0    0 -0.34766447497E+02 -0.19622792946E+02  0.22764193224E+01  0.39986772306E+02  0.00000000000E+00 0.  1.
</event>
<event>
 7    1  0.6164995E-012  0.5930194E+02  0.7816164E-02  0.1266605E+00
        -11   -1    0    0    0    0  0.00000000000E+00  0.00000000000E+00  0.45593999997E+02  0.45594000000E+02  0.51100000000E-03 0.  1.
         11   -1    0    0    0    0 -0.00000000000E+00 -0.00000000000E+00 -0.45593999997E+02  0.45594000000E+02  0.51100000000E-03 0. -1.
    9900012    2    1    2    0    0 -0.15221940653E+02 -0.15002784408E+02  0.23662842395E+02  0.59301935215E+02  0.49999983929E+02 0.  0.
         12    1    1    2    0    0  0.15221940653E+02  0.15002784408E+02 -0.23662842395E+02  0.31886064785E+02  0.00000000000E+00 0. -1.
         11    1    3    3    0    0 -0.74782048552E+01  0.31610351936E+01 -0.85750077482E+01  0.11808744620E+02  0.51100000000E-03 0. -1.
        -11    1    3    3    0    0 -0.12596953046E+02  0.31759524334E+01  0.11997608841E+02  0.17683679427E+02  0.51100000000E-03 0.  1.
         12    1    3    3    0    0  0.48532172483E+01 -0.21339772035E+02  0.20240241302E+02  0.29809511169E+02  0.00000000000E+00 0. -1.
</event>
<event>
 7    1  0.6164995E-012  0.5930181E+02  0.7816164E-02  0.1266605E+00
        -11   -1    0    0    0    0  0.00000000000E+00  0.00000000000E+00  0.45593999997E+02  0.45594000000E+02  0.51100000000E-03 0.  1.
         11   -1    0    0    0    0 -0.00000000000E+00 -0.00000000000E+00 -0.45593999997E+02  0.45594000000E+02  0.51100000000E-03 0. -1.
    9900012    2    1    2    0    0 -0.18395162280E+02  0.21975514080E+02  0.13979405464E+02  0.59301811901E+02  0.49999759031E+02 0.  0.
         12    1    1    2    0    0  0.18395162280E+02 -0.21975514080E+02 -0.13979405464E+02  0.31886188099E+02  0.00000000000E+00 0. -1.
         11    1    3    3    0    0 -0.15549130339E+02  0.59716666793E+01  0.11255377820E+02  0.20102730844E+02  0.51100000000E-03 0. -1.
        -11    1    3    3    0    0  0.42304322316E+01 -0.15971303211E+01  0.15619459591E+02  0.16260839472E+02  0.51100000000E-03 0.  1.
         12    1    3    3    0    0 -0.70764641724E+01  0.17600977721E+02 -0.12895431947E+02  0.22938241586E+02  0.00000000000E+00 0. -1.
</event>
<event>
 7    1  0.6164995E-012  0.5930194E+02  0.7816164E-02  0.1266605E+00
        -11   -1    0    0    0    0  0.00000000000E+00  0.00000000000E+00  0.45593999997E+02  0.45594000000E+02  0.51100000000E-03 0.  1.
         11   -1    0    0    0    0 -0.00000000000E+00 -0.00000000000E+00 -0.45593999997E+02  0.45594000000E+02  0.51100000000E-03 0. -1.
    9900012    2    1    2    0    0 -0.18566362623E+02  0.21860656446E+02  0.13932781073E+02  0.59301944902E+02  0.50000001594E+02 0.  0.
         12    1    1    2    0    0  0.18566362623E+02 -0.21860656446E+02 -0.13932781073E+02  0.31886055098E+02  0.00000000000E+00 0. -1.
         11    1    3    3    0    0 -0.17173330930E+02  0.25751148751E+02 -0.97526989428E+01  0.32452428171E+02  0.51100000000E-03 0. -1.
        -11    1    3    3    0    0 -0.22815940281E+01  0.40099236675E+01  0.72733298054E+01  0.86131577164E+01  0.51100000000E-03 0.  1.
        -12    1    3    3    0    0  0.88856233598E+00 -0.79004159723E+01  0.16412150211E+02  0.18236359014E+02  0.00000000000E+00 0.  1.
</event>
<event>
 7    1  0.6164995E-012  0.5930197E+02  0.7816164E-02  0.1266605E+00
        -11   -1    0    0    0    0  0.00000000000E+00  0.00000000000E+00  0.45593999997E+02  0.45594000000E+02  0.51100000000E-03 0.  1.
         11   -1    0    0    0    0 -0.00000000000E+00 -0.00000000000E+00 -0.45593999997E+02  0.45594000000E+02  0.51100000000E-03 0. -1.
    9900012    2    1    2    0    0  0.21590534726E+01 -0.80706556022E+01  0.30772100895E+02  0.59301965639E+02  0.50000039415E+02 0.  0.
         12    1    1    2    0    0 -0.21590534726E+01  0.80706556022E+01 -0.30772100895E+02  0.31886034361E+02  0.00000000000E+00 0. -1.
         11    1    3    3    0    0 -0.38249346093E+01  0.11038766717E+02  0.16755846447E+02  0.20426524076E+02  0.51100000000E-03 0. -1.
        -11    1    3    3    0    0  0.73228810247E+01 -0.82990062588E+01 -0.84386059274E+01  0.13917907948E+02  0.51100000000E-03 0.  1.
         12    1    3    3    0    0 -0.13388929428E+01 -0.10810416060E+02  0.22454860375E+02  0.24957533616E+02  0.00000000000E+00 0. -1.
</event>
<event>
 7    1  0.6164995E-012  0.5930195E+02  0.7816164E-02  0.1266605E+00
        -11   -1    0    0    0    0  0.00000000000E+00  0.00000000000E+00  0.45593999997E+02  0.45594000000E+02  0.51100000000E-03 0.  1.
         11   -1    0    0    0    0 -0.00000000000E+00 -0.00000000000E+00 -0.45593999997E+02  0.45594000000E+02  0.51100000000E-03 0. -1.
    9900012    2    1    2    0    0  0.11193536293E+01  0.20357958633E+02  0.24515721716E+02  0.59301952212E+02  0.50000014927E+02 0.  0.
         12    1    1    2    0    0 -0.11193536293E+01 -0.20357958633E+02 -0.24515721716E+02  0.31886047788E+02  0.00000000000E+00 0. -1.
         11    1    3    3    0    0  0.44539123075E+01  0.43196308152E+01  0.22464163527E+02  0.23305260961E+02  0.51100000000E-03 0. -1.
        -11    1    3    3    0    0 -0.13147695984E+02  0.16982988823E+02  0.96538362477E+01  0.23547406940E+02  0.51100000000E-03 0.  1.
         12    1    3    3    0    0  0.98131373059E+01 -0.94466100493E+00 -0.76022780584E+01  0.12449284312E+02  0.00000000000E+00 0. -1.
</event>
<event>
 7    1  0.6164995E-012  0.5930193E+02  0.7816164E-02  0.1266605E+00
        -11   -1    0    0    0    0  0.00000000000E+00  0.00000000000E+00  0.45593999997E+02  0.45594000000E+02  0.51100000000E-03 0.  1.
         11   -1    0    0    0    0 -0.00000000000E+00 -0.00000000000E+00 -0.45593999997E+02  0.45594000000E+02  0.51100000000E-03 0. -1.
    9900012    2    1    2    0    0  0.26655028858E+02  0.12215132723E+02 -0.12530810262E+02  0.59301933502E+02  0.49999980804E+02 0.  0.
         12    1    1    2    0    0 -0.26655028858E+02 -0.12215132723E+02  0.12530810262E+02  0.31886066498E+02  0.00000000000E+00 0. -1.
         11    1    3    3    0    0  0.10602806987E+01  0.56136365194E+01 -0.15019695026E+02  0.16069485028E+02  0.51100000000E-03 0. -1.
        -11    1    3    3    0    0  0.23756579426E+02 -0.73100194650E+01  0.10603093324E+02  0.27022898417E+02  0.51100000000E-03 0.  1.
         12    1    3    3    0    0  0.18381687341E+01  0.13911515669E+02 -0.81142085600E+01  0.16209550057E+02  0.00000000000E+00 0. -1.
</event>
<event>
 7    1  0.6164995E-012  0.5930202E+02  0.7816164E-02  0.1266604E+00
        -11   -1    0    0    0    0  0.00000000000E+00  0.00000000000E+00  0.45593999997E+02  0.45594000000E+02  0.51100000000E-03 0.  1.
         11   -1    0    0    0    0 -0.00000000000E+00 -0.00000000000E+00 -0.45593999997E+02  0.45594000000E+02  0.51100000000E-03 0. -1.
    9900012    2    1    2    0    0  0.15895690934E+01 -0.31198818187E+02  0.63892659055E+01  0.59302020244E+02  0.50000139000E+02 0.  0.
         12    1    1    2    0    0 -0.15895690934E+01  0.31198818187E+02 -0.63892659055E+01  0.31885979756E+02  0.00000000000E+00 0. -1.
         11    1    3    3    0    0  0.10122901778E+02 -0.31163472224E+02  0.19759547062E+01  0.32825897379E+02  0.51100000000E-03 0. -1.
        -11    1    3    3    0    0 -0.54529695783E+01 -0.12032094591E+02 -0.32694232715E+00  0.13214123846E+02  0.51100000000E-03 0.  1.
        -12    1    3    3    0    0 -0.30803631064E+01  0.11996748628E+02  0.47402535265E+01  0.13261999020E+02  0.00000000000E+00 0.  1.
</event>
<event>
 7    1  0.6164995E-012  0.5930197E+02  0.7816164E-02  0.1266605E+00
        -11   -1    0    0    0    0  0.00000000000E+00  0.00000000000E+00  0.45593999997E+02  0.45594000000E+02  0.51100000000E-03 0.  1.
         11   -1    0    0    0    0 -0.00000000000E+00 -0.00000000000E+00 -0.45593999997E+02  0.45594000000E+02  0.51100000000E-03 0. -1.
    9900012    2    1    2    0    0 -0.81712229857E+01  0.15326275607E+02  0.26740522494E+02  0.59301966187E+02  0.50000040413E+02 0.  0.
         12    1    1    2    0    0  0.81712229857E+01 -0.15326275607E+02 -0.26740522494E+02  0.31886033813E+02  0.00000000000E+00 0. -1.
         11    1    3    3    0    0 -0.93800084089E+01 -0.29661369759E+01 -0.19526190961E+01  0.10029718237E+02  0.51100000000E-03 0. -1.
        -11    1    3    3    0    0 -0.11963149374E+02 -0.50544799608E+01  0.12071356752E+02  0.17730830909E+02  0.51100000000E-03 0.  1.
         12    1    3    3    0    0  0.13171934797E+02  0.23346892544E+02  0.16621784839E+02  0.31541417041E+02  0.00000000000E+00 0. -1.
</event>
<event>
 7    1  0.6164995E-012  0.5930193E+02  0.7816164E-02  0.1266605E+00
        -11   -1    0    0    0    0  0.00000000000E+00  0.00000000000E+00  0.45593999997E+02  0.45594000000E+02  0.51100000000E-03 0.  1.
         11   -1    0    0    0    0 -0.00000000000E+00 -0.00000000000E+00 -0.45593999997E+02  0.45594000000E+02  0.51100000000E-03 0. -1.
    9900012    2    1    2    0    0  0.13838791741E+02  0.27560434944E+02  0.81013481480E+01  0.59301928229E+02  0.49999971187E+02 0.  0.
         12    1    1    2    0    0 -0.13838791741E+02 -0.27560434944E+02 -0.81013481480E+01  0.31886071771E+02  0.00000000000E+00 0. -1.
         11    1    3    3    0    0  0.21367190549E+01  0.54658929892E+01  0.12694444541E+02  0.13985366529E+02  0.51100000000E-03 0. -1.
        -11    1    3    3    0    0 -0.49389521575E+01 -0.43670644094E+01  0.90607666851E+01  0.11205444799E+02  0.51100000000E-03 0.  1.
         12    1    3    3    0    0  0.16641024844E+02  0.26461606364E+02 -0.13653863078E+02  0.34111116900E+02  0.00000000000E+00 0. -1.
</event>
<event>
 7    1  0.6164995E-012  0.5930194E+02  0.7816164E-02  0.1266605E+00
        -11   -1    0    0    0    0  0.00000000000E+00  0.00000000000E+00  0.45593999997E+02  0.45594000000E+02  0.51100000000E-03 0.  1.
         11   -1    0    0    0    0 -0.00000000000E+00 -0.00000000000E+00 -0.45593999997E+02  0.45594000000E+02  0.51100000000E-03 0. -1.
    9900012    2    1    2    0    0  0.15141197502E+02 -0.26532345475E+02  0.91378027637E+01  0.59301942584E+02  0.49999997366E+02 0.  0.
         12    1    1    2    0    0 -0.15141197502E+02  0.26532345475E+02 -0.91378027637E+01  0.31886057416E+02  0.00000000000E+00 0. -1.
         11    1    3    3    0    0  0.11632340998E+02  0.35305450820E+01 -0.88007955816E+01  0.15007668333E+02  0.51100000000E-03 0. -1.
        -11    1    3    3    0    0  0.14174406736E+02 -0.13996797880E+02  0.35511023182E+01  0.20234487519E+02  0.51100000000E-03 0.  1.
        -12    1    3    3    0    0 -0.10665550232E+02 -0.16066092677E+02  0.14387496027E+02  0.24059786732E+02  0.00000000000E+00 0.  1.
</event>
<event>
 7    1  0.6164995E-012  0.5930191E+02  0.7816164E-02  0.1266605E+00
        -11   -1    0    0    0    0  0.00000000000E+00  0.00000000000E+00  0.45593999997E+02  0.45594000000E+02  0.51100000000E-03 0.  1.
         11   -1    0    0    0    0 -0.00000000000E+00 -0.00000000000E+00 -0.45593999997E+02  0.45594000000E+02  0.51100000000E-03 0. -1.
    9900012    2    1    2    0    0 -0.21590894260E+02 -0.23120722511E+01  0.23349741176E+02  0.59301908894E+02  0.49999935925E+02 0.  0.
         12    1    1    2    0    0  0.21590894260E+02  0.23120722511E+01 -0.23349741176E+02  0.31886091106E+02  0.00000000000E+00 0. -1.
         11    1    3    3    0    0  0.85915519234E+01 -0.68763380192E+01  0.14176139111E+01  0.11095423312E+02  0.51100000000E-03 0. -1.
        -11    1    3    3    0    0 -0.28144213906E+02 -0.35280951690E+01  0.26392517699E+02  0.38744150819E+02  0.51100000000E-03 0.  1.
        -12    1    3    3    0    0 -0.20382322774E+01  0.80923609372E+01 -0.44603904344E+01  0.94623347638E+01  0.00000000000E+00 0.  1.
</event>
<event>
 7    1  0.6164995E-012  0.5930193E+02  0.7816164E-02  0.1266605E+00
        -11   -1    0    0    0    0  0.00000000000E+00  0.00000000000E+00  0.45593999997E+02  0.45594000000E+02  0.51100000000E-03 0.  1.
         11   -1    0    0    0    0 -0.00000000000E+00 -0.00000000000E+00 -0.45593999997E+02  0.45594000000E+02  0.51100000000E-03 0. -1.
    9900012    2    1    2    0    0 -0.21099344846E+02 -0.11774409840E+02  0.20806310567E+02  0.59301927187E+02  0.49999969287E+02 0.  0.
         12    1    1    2    0    0  0.21099344846E+02  0.11774409840E+02 -0.20806310567E+02  0.31886072813E+02  0.00000000000E+00 0. -1.
         11    1    3    3    0    0 -0.51498405678E+01  0.11337656617E+02 -0.25312948085E+01  0.12707114901E+02  0.51100000000E-03 0. -1.
        -11    1    3    3    0    0 -0.62699033180E+00 -0.10592530674E+01  0.19417847161E+02  0.19456822006E+02  0.51100000000E-03 0.  1.
        -12    1    3    3    0    0 -0.15322513947E+02 -0.22052813389E+02  0.39197582140E+01  0.27137990281E+02  0.00000000000E+00 0.  1.
</event>
<event>
 7    1  0.6164995E-012  0.5930192E+02  0.7816164E-02  0.1266605E+00
        -11   -1    0    0    0    0  0.00000000000E+00  0.00000000000E+00  0.45593999997E+02  0.45594000000E+02  0.51100000000E-03 0.  1.
         11   -1    0    0    0    0 -0.00000000000E+00 -0.00000000000E+00 -0.45593999997E+02  0.45594000000E+02  0.51100000000E-03 0. -1.
    9900012    2    1    2    0    0  0.24514602744E+02 -0.16771615212E+02  0.11596094043E+02  0.59301918059E+02  0.49999952639E+02 0.  0.
         12    1    1    2    0    0 -0.24514602744E+02  0.16771615212E+02 -0.11596094043E+02  0.31886081941E+02  0.00000000000E+00 0. -1.
         11    1    3    3    0    0 -0.61451729858E+01 -0.11264258506E+02  0.13096491895E+02  0.18334796724E+02  0.51100000000E-03 0. -1.
        -11    1    3    3    0    0  0.62207011216E+01  0.77727174655E+01  0.66632845243E+01  0.11979633557E+02  0.51100000000E-03 0.  1.
        -12    1    3    3    0    0  0.24439074608E+02 -0.13280074172E+02 -0.81636823760E+01  0.28987487778E+02  0.00000000000E+00 0.  1.
</event>
<event>
 7    1  0.6164995E-012  0.5930201E+02  0.7816164E-02  0.1266605E+00
        -11   -1    0    0    0    0  0.00000000000E+00  0.00000000000E+00  0.45593999997E+02  0.45594000000E+02  0.51100000000E-03 0. -1.
         11   -1    0    0    0    0 -0.00000000000E+00 -0.00000000000E+00 -0.45593999997E+02  0.45594000000E+02  0.51100000000E-03 0.  1.
    9900012    2    1    2    0    0  0.33413358650E+01  0.55822824280E+01 -0.31215214881E+02  0.59302014951E+02  0.50000129348E+02 0.  0.
         12    1    1    2    0    0 -0.33413358650E+01 -0.55822824280E+01  0.31215214881E+02  0.31885985049E+02  0.00000000000E+00 0. -1.
         11    1    3    3    0    0 -0.18034376932E+01 -0.19644433142E+01 -0.13283246670E+02  0.13548286512E+02  0.51100000000E-03 0. -1.
        -11    1    3    3    0    0 -0.24002830154E+01 -0.45178269512E+01 -0.27909594081E+02  0.28374593582E+02  0.51100000000E-03 0.  1.
         12    1    3    3    0    0  0.75450565736E+01  0.12064552694E+02  0.99776258703E+01  0.17379134858E+02  0.00000000000E+00 0. -1.
</event>
<event>
 7    1  0.6164995E-012  0.5930196E+02  0.7816164E-02  0.1266605E+00
        -11   -1    0    0    0    0  0.00000000000E+00  0.00000000000E+00  0.45593999997E+02  0.45594000000E+02  0.51100000000E-03 0. -1.
         11   -1    0    0    0    0 -0.00000000000E+00 -0.00000000000E+00 -0.45593999997E+02  0.45594000000E+02  0.51100000000E-03 0.  1.
    9900012    2    1    2    0    0 -0.18506952544E+01  0.27803128802E+02 -0.15500990775E+02  0.59301956673E+02  0.50000023061E+02 0.  0.
         12    1    1    2    0    0  0.18506952544E+01 -0.27803128802E+02  0.15500990775E+02  0.31886043327E+02  0.00000000000E+00 0. -1.
         11    1    3    3    0    0 -0.37173052700E+01  0.31470086530E+01 -0.59759429092E+01  0.77093395209E+01  0.51100000000E-03 0.  1.
        -11    1    3    3    0    0  0.95781486791E+00  0.29631146171E+02 -0.22791524767E+02  0.37394863741E+02  0.51100000000E-03 0. -1.
         12    1    3    3    0    0  0.90879514763E+00 -0.49750260229E+01  0.13266476901E+02  0.14197753411E+02  0.00000000000E+00 0. -1.
</event>
<event>
 7    1  0.6164995E-012  0.5930194E+02  0.7816164E-02  0.1266605E+00
        -11   -1    0    0    0    0  0.00000000000E+00  0.00000000000E+00  0.45593999997E+02  0.45594000000E+02  0.51100000000E-03 0.  1.
         11   -1    0    0    0    0 -0.00000000000E+00 -0.00000000000E+00 -0.45593999997E+02  0.45594000000E+02  0.51100000000E-03 0. -1.
    9900012    2    1    2    0    0 -0.20744756232E+02 -0.13366882196E+02  0.20191640759E+02  0.59301940236E+02  0.49999993084E+02 0.  0.
         12    1    1    2    0    0  0.20744756232E+02  0.13366882196E+02 -0.20191640759E+02  0.31886059764E+02  0.00000000000E+00 0. -1.
         11    1    3    3    0    0  0.54075019437E+01  0.89160038516E+01 -0.71610224403E+01  0.12649760654E+02  0.51100000000E-03 0. -1.
        -11    1    3    3    0    0 -0.48448974057E+01 -0.76032748717E+00  0.11426012179E+02  0.12434021205E+02  0.51100000000E-03 0.  1.
        -12    1    3    3    0    0 -0.21307360770E+02 -0.21522558560E+02  0.15926651020E+02  0.34218158377E+02  0.00000000000E+00 0.  1.
</event>
<event>
 7    1  0.6164995E-012  0.5930194E+02  0.7816164E-02  0.1266605E+00
        -11   -1    0    0    0    0  0.00000000000E+00  0.00000000000E+00  0.45593999997E+02  0.45594000000E+02  0.51100000000E-03 0. -1.
         11   -1    0    0    0    0 -0.00000000000E+00 -0.00000000000E+00 -0.45593999997E+02  0.45594000000E+02  0.51100000000E-03 0.  1.
    9900012    2    1    2    0    0 -0.54269847090E+01  0.30749294463E+02  0.64613941879E+01  0.59301938972E+02  0.49999990780E+02 0.  0.
         12    1    1    2    0    0  0.54269847090E+01 -0.30749294463E+02 -0.64613941879E+01  0.31886061028E+02  0.00000000000E+00 0. -1.
         11    1    3    3    0    0 -0.54411287641E+01  0.81585491430E+01 -0.77505681490E+01  0.12499564522E+02  0.51100000000E-03 0. -1.
        -11    1    3    3    0    0  0.56637900612E+01 -0.24044706302E+00 -0.10968022273E+02  0.12346410227E+02  0.51100000000E-03 0.  1.
         12    1    3    3    0    0 -0.56496460061E+01  0.22831192383E+02  0.25179984610E+02  0.34455964224E+02  0.00000000000E+00 0. -1.
</event>
<event>
 7    1  0.6164995E-012  0.5930197E+02  0.7816164E-02  0.1266605E+00
        -11   -1    0    0    0    0  0.00000000000E+00  0.00000000000E+00  0.45593999997E+02  0.45594000000E+02  0.51100000000E-03 0.  1.
         11   -1    0    0    0    0 -0.00000000000E+00 -0.00000000000E+00 -0.45593999997E+02  0.45594000000E+02  0.51100000000E-03 0. -1.
    9900012    2    1    2    0    0 -0.15058676287E+02  0.17957824508E+02  0.21621098825E+02  0.59301966898E+02  0.50000041709E+02 0.  0.
         12    1    1    2    0    0  0.15058676287E+02 -0.17957824508E+02 -0.21621098825E+02  0.31886033102E+02  0.00000000000E+00 0. -1.
         11    1    3    3    0    0 -0.16423571212E+02  0.21265026437E+02  0.11002128265E+02  0.29034150019E+02  0.51100000000E-03 0. -1.
        -11    1    3    3    0    0 -0.12973989518E+02 -0.14036475745E+01  0.86822324214E+01  0.15674048316E+02  0.51100000000E-03 0.  1.
         12    1    3    3    0    0  0.14338884443E+02 -0.19035543537E+01  0.19367381384E+01  0.14593768563E+02  0.00000000000E+00 0. -1.
</event>
<event>
 7    1  0.6164995E-012  0.5930192E+02  0.7816164E-02  0.1266605E+00
        -11   -1    0    0    0    0  0.00000000000E+00  0.00000000000E+00  0.45593999997E+02  0.45594000000E+02  0.51100000000E-03 0.  1.
         11   -1    0    0    0    0 -0.00000000000E+00 -0.00000000000E+00 -0.45593999997E+02  0.45594000000E+02  0.51100000000E-03 0. -1.
    9900012    2    1    2    0    0 -0.15955685633E+02 -0.26279232054E+02 -0.84581230180E+01  0.59301924883E+02  0.49999965085E+02 0.  0.
         12    1    1    2    0    0  0.15955685633E+02  0.26279232054E+02  0.84581230180E+01  0.31886075117E+02  0.00000000000E+00 0. -1.
         11    1    3    3    0    0 -0.75624895268E+01 -0.10650516796E+02  0.42400455441E+01  0.13733271363E+02  0.51100000000E-03 0. -1.
        -11    1    3    3    0    0 -0.32215309854E+01 -0.50110312929E+01  0.14630712052E+02  0.15797038708E+02  0.51100000000E-03 0.  1.
         12    1    3    3    0    0 -0.51716651212E+01 -0.10617683965E+02 -0.27328880614E+02  0.29771614813E+02  0.00000000000E+00 0. -1.
</event>
<event>
 7    1  0.6164995E-012  0.5930195E+02  0.7816164E-02  0.1266605E+00
        -11   -1    0    0    0    0  0.00000000000E+00  0.00000000000E+00  0.45593999997E+02  0.45594000000E+02  0.51100000000E-03 0.  1.
         11   -1    0    0    0    0 -0.00000000000E+00 -0.00000000000E+00 -0.45593999997E+02  0.45594000000E+02  0.51100000000E-03 0. -1.
    9900012    2    1    2    0    0 -0.14784502992E+02 -0.24773910495E+02 -0.13579111522E+02  0.59301946001E+02  0.50000003599E+02 0.  0.
         12    1    1    2    0    0  0.14784502992E+02  0.24773910495E+02  0.13579111522E+02  0.31886053999E+02  0.00000000000E+00 0. -1.
         11    1    3    3    0    0 -0.79915967791E+01 -0.10876943778E+02 -0.24827008661E+02  0.28258695730E+02  0.51100000000E-03 0. -1.
        -11    1    3    3    0    0 -0.76685706484E+01  0.38217196205E+01 -0.21244131322E+01  0.88275505133E+01  0.51100000000E-03 0.  1.
        -12    1    3    3    0    0  0.87566443601E+00 -0.17718686338E+02  0.13372310272E+02  0.22215699758E+02  0.00000000000E+00 0.  1.
</event>
<event>
 7    1  0.6164995E-012  0.5930203E+02  0.7816164E-02  0.1266604E+00
        -11   -1    0    0    0    0  0.00000000000E+00  0.00000000000E+00  0.45593999997E+02  0.45594000000E+02  0.51100000000E-03 0.  1.
         11   -1    0    0    0    0 -0.00000000000E+00 -0.00000000000E+00 -0.45593999997E+02  0.45594000000E+02  0.51100000000E-03 0. -1.
    9900012    2    1    2    0    0  0.17469784983E+02 -0.16711722725E+02 -0.20790386889E+02  0.59302027367E+02  0.50000151990E+02 0.  0.
         12    1    1    2    0    0 -0.17469784983E+02  0.16711722725E+02  0.20790386889E+02  0.31885972633E+02  0.00000000000E+00 0. -1.
         11    1    3    3    0    0  0.13646362839E+02 -0.12461941674E+02 -0.93430499532E+00  0.18503949176E+02  0.51100000000E-03 0. -1.
        -11    1    3    3    0    0  0.15842386998E+02  0.62997408020E+01 -0.25572734002E+01  0.17239710191E+02  0.51100000000E-03 0.  1.
         12    1    3    3    0    0 -0.12018964855E+02 -0.10549521852E+02 -0.17298808493E+02  0.23558367999E+02  0.00000000000E+00 0. -1.
</event>
<event>
 7    1  0.6164995E-012  0.5930191E+02  0.7816164E-02  0.1266605E+00
        -11   -1    0    0    0    0  0.00000000000E+00  0.00000000000E+00  0.45593999997E+02  0.45594000000E+02  0.51100000000E-03 0. -1.
         11   -1    0    0    0    0 -0.00000000000E+00 -0.00000000000E+00 -0.45593999997E+02  0.45594000000E+02  0.51100000000E-03 0.  1.
    9900012    2    1    2    0    0 -0.97704233981E+01 -0.30072228486E+02  0.41137182272E+01  0.59301909347E+02  0.49999936750E+02 0.  0.
         12    1    1    2    0    0  0.97704233981E+01  0.30072228486E+02 -0.41137182272E+01  0.31886090653E+02  0.00000000000E+00 0. -1.
         11    1    3    3    0    0  0.11292458226E+02 -0.22544846812E+01 -0.10730478972E+01  0.11565195459E+02  0.51100000000E-03 0.  1.
        -11    1    3    3    0    0 -0.19687175197E+02 -0.34958893830E+02  0.52555541769E+01  0.40463934250E+02  0.51100000000E-03 0. -1.
         12    1    3    3    0    0 -0.13757064274E+01  0.71411500251E+01 -0.68788052512E-01  0.72727796372E+01  0.00000000000E+00 0. -1.
</event>
<event>
 7    1  0.6164995E-012  0.5930194E+02  0.7816164E-02  0.1266605E+00
        -11   -1    0    0    0    0  0.00000000000E+00  0.00000000000E+00  0.45593999997E+02  0.45594000000E+02  0.51100000000E-03 0. -1.
         11   -1    0    0    0    0 -0.00000000000E+00 -0.00000000000E+00 -0.45593999997E+02  0.45594000000E+02  0.51100000000E-03 0.  1.
    9900012    2    1    2    0    0  0.43573032418E+01 -0.28140489362E+02 -0.14347385825E+02  0.59301941713E+02  0.49999995778E+02 0.  0.
         12    1    1    2    0    0 -0.43573032418E+01  0.28140489362E+02  0.14347385825E+02  0.31886058287E+02  0.00000000000E+00 0. -1.
         11    1    3    3    0    0 -0.50762417905E+00  0.10469728479E+02 -0.11354308737E+01  0.10543343884E+02  0.51100000000E-03 0. -1.
        -11    1    3    3    0    0  0.12209091713E+02 -0.23815274269E+02  0.12684540191E+01  0.26792502400E+02  0.51100000000E-03 0.  1.
        -12    1    3    3    0    0 -0.73441642924E+01 -0.14794943572E+02 -0.14480408971E+02  0.21966095429E+02  0.00000000000E+00 0.  1.
</event>
<event>
 7    1  0.6164995E-012  0.5930193E+02  0.7816164E-02  0.1266605E+00
        -11   -1    0    0    0    0  0.00000000000E+00  0.00000000000E+00  0.45593999997E+02  0.45594000000E+02  0.51100000000E-03 0.  1.
         11   -1    0    0    0    0 -0.00000000000E+00 -0.00000000000E+00 -0.45593999997E+02  0.45594000000E+02  0.51100000000E-03 0. -1.
    9900012    2    1    2    0    0  0.23725054908E+02  0.16036165562E+02 -0.14024422196E+02  0.59301933227E+02  0.49999980302E+02 0.  0.
         12    1    1    2    0    0 -0.23725054908E+02 -0.16036165562E+02  0.14024422196E+02  0.31886066773E+02  0.00000000000E+00 0. -1.
         11    1    3    3    0    0  0.12921581071E+02 -0.53578831689E+00 -0.19774719524E+02  0.23628242825E+02  0.51100000000E-03 0. -1.
        -11    1    3    3    0    0  0.10924103621E+02 -0.40587956340E+01 -0.46769876439E+01  0.12557232004E+02  0.51100000000E-03 0.  1.
        -12    1    3    3    0    0 -0.12062978328E+00  0.20630749512E+02  0.10427284971E+02  0.23116458398E+02  0.00000000000E+00 0.  1.
</event>
<event>
 7    1  0.6164995E-012  0.5930181E+02  0.7816164E-02  0.1266605E+00
        -11   -1    0    0    0    0  0.00000000000E+00  0.00000000000E+00  0.45593999997E+02  0.45594000000E+02  0.51100000000E-03 0.  1.
         11   -1    0    0    0    0 -0.00000000000E+00 -0.00000000000E+00 -0.45593999997E+02  0.45594000000E+02  0.51100000000E-03 0. -1.
    9900012    2    1    2    0    0 -0.10493929043E+02  0.17712596223E+02  0.24348926982E+02  0.59301814012E+02  0.49999762881E+02 0.  0.
         12    1    1    2    0    0  0.10493929043E+02 -0.17712596223E+02 -0.24348926982E+02  0.31886185988E+02  0.00000000000E+00 0. -1.
         11    1    3    3    0    0 -0.14564049520E+01 -0.17736349121E+01  0.63852819832E+01  0.67851840397E+01  0.51100000000E-03 0. -1.
        -11    1    3    3    0    0 -0.19504977349E+02  0.16868011705E+02  0.27798255969E+02  0.37917238764E+02  0.51100000000E-03 0.  1.
         12    1    3    3    0    0  0.10467453259E+02  0.26182194295E+01 -0.98346109706E+01  0.14599391208E+02  0.00000000000E+00 0. -1.
</event>
<event>
 7    1  0.6164995E-012  0.5930200E+02  0.7816164E-02  0.1266605E+00
        -11   -1    0    0    0    0  0.00000000000E+00  0.00000000000E+00  0.45593999997E+02  0.45594000000E+02  0.51100000000E-03 0.  1.
         11   -1    0    0    0    0 -0.00000000000E+00 -0.00000000000E+00 -0.45593999997E+02  0.45594000000E+02  0.51100000000E-03 0. -1.
    9900012    2    1    2    0    0  0.19415967558E+02 -0.10351886786E+02  0.23077602072E+02  0.59301998783E+02  0.50000099860E+02 0.  0.
         12    1    1    2    0    0 -0.19415967558E+02  0.10351886786E+02 -0.23077602072E+02  0.31886001217E+02  0.00000000000E+00 0. -1.
         11    1    3    3    0    0 -0.60630607119E+01 -0.46759819219E+01  0.12338695370E+02  0.14521326242E+02  0.51100000000E-03 0. -1.
        -11    1    3    3    0    0  0.28045446204E+01  0.95492573717E+01 -0.70409983013E+01  0.12191367611E+02  0.51100000000E-03 0.  1.
        -12    1    3    3    0    0  0.22674483650E+02 -0.15225162235E+02  0.17779905003E+02  0.32589304930E+02  0.00000000000E+00 0.  1.
</event>
<event>
 7    1  0.6164995E-012  0.5930194E+02  0.7816164E-02  0.1266605E+00
        -11   -1    0    0    0    0  0.00000000000E+00  0.00000000000E+00  0.45593999997E+02  0.45594000000E+02  0.51100000000E-03 0. -1.
         11   -1    0    0    0    0 -0.00000000000E+00 -0.00000000000E+00 -0.45593999997E+02  0.45594000000E+02  0.51100000000E-03 0.  1.
    9900012    2    1    2    0    0  0.27059028761E+01 -0.30808766423E+02 -0.77600892823E+01  0.59301937456E+02  0.49999988014E+02 0.  0.
         12    1    1    2    0    0 -0.27059028761E+01  0.30808766423E+02  0.77600892823E+01  0.31886062544E+02  0.00000000000E+00 0. -1.
         11    1    3    3    0    0  0.57774922497E+01 -0.54573613013E+01  0.49095941531E+01  0.93416446131E+01  0.51100000000E-03 0. -1.
        -11    1    3    3    0    0 -0.18477585367E+01 -0.30652694882E+02  0.53201058849E+01  0.31165773567E+02  0.51100000000E-03 0.  1.
         12    1    3    3    0    0 -0.12238308369E+01  0.53012897595E+01 -0.17989789320E+02  0.18794519276E+02  0.00000000000E+00 0. -1.
</event>
<event>
 7    1  0.6164995E-012  0.5930194E+02  0.7816164E-02  0.1266605E+00
        -11   -1    0    0    0    0  0.00000000000E+00  0.00000000000E+00  0.45593999997E+02  0.45594000000E+02  0.51100000000E-03 0. -1.
         11   -1    0    0    0    0 -0.00000000000E+00 -0.00000000000E+00 -0.45593999997E+02  0.45594000000E+02  0.51100000000E-03 0.  1.
    9900012    2    1    2    0    0  0.17189569856E+02  0.11567315902E+02 -0.24237097991E+02  0.59301936774E+02  0.49999986772E+02 0.  0.
         12    1    1    2    0    0 -0.17189569856E+02 -0.11567315902E+02  0.24237097991E+02  0.31886063226E+02  0.00000000000E+00 0. -1.
         11    1    3    3    0    0  0.61604226929E+01  0.76480269670E+01  0.66953861942E+01  0.11885761263E+02  0.51100000000E-03 0. -1.
        -11    1    3    3    0    0 -0.11183359663E+02  0.41560958403E+01 -0.41762039725E+01  0.12640464623E+02  0.51100000000E-03 0.  1.
        -12    1    3    3    0    0  0.22212506827E+02 -0.23680690494E+00 -0.26756280212E+02  0.34775710889E+02  0.00000000000E+00 0.  1.
</event>
<event>
 7    1  0.6164995E-012  0.5930194E+02  0.7816164E-02  0.1266605E+00
        -11   -1    0    0    0    0  0.00000000000E+00  0.00000000000E+00  0.45593999997E+02  0.45594000000E+02  0.51100000000E-03 0.  1.
         11   -1    0    0    0    0 -0.00000000000E+00 -0.00000000000E+00 -0.45593999997E+02  0.45594000000E+02  0.51100000000E-03 0. -1.
    9900012    2    1    2    0    0 -0.96153412607E+01 -0.26446787163E+02  0.14994447625E+02  0.59301940375E+02  0.49999993339E+02 0.  0.
         12    1    1    2    0    0  0.96153412607E+01  0.26446787163E+02 -0.14994447625E+02  0.31886059625E+02  0.00000000000E+00 0. -1.
         11    1    3    3    0    0  0.12045570155E+02 -0.10242400290E+02  0.14307632987E+02  0.21323950994E+02  0.51100000000E-03 0. -1.
        -11    1    3    3    0    0 -0.43855128388E+01 -0.47135509876E+00  0.11436725851E+02  0.12257797393E+02  0.51100000000E-03 0.  1.
        -12    1    3    3    0    0 -0.17275398577E+02 -0.15733031774E+02 -0.10749911213E+02  0.25720191988E+02  0.00000000000E+00 0.  1.
</event>
<event>
 7    1  0.6164995E-012  0.5930195E+02  0.7816164E-02  0.1266605E+00
        -11   -1    0    0    0    0  0.00000000000E+00  0.00000000000E+00  0.45593999997E+02  0.45594000000E+02  0.51100000000E-03 0.  1.
         11   -1    0    0    0    0 -0.00000000000E+00 -0.00000000000E+00 -0.45593999997E+02  0.45594000000E+02  0.51100000000E-03 0. -1.
    9900012    2    1    2    0    0  0.89528257916E+01  0.30597142572E+02  0.61777957941E+00  0.59301954857E+02  0.50000019751E+02 0.  0.
         12    1    1    2    0    0 -0.89528257916E+01 -0.30597142572E+02 -0.61777957941E+00  0.31886045143E+02  0.00000000000E+00 0. -1.
         11    1    3    3    0    0 -0.29210811871E+01  0.94971490880E+01  0.76096053369E+01  0.12515376532E+02  0.51100000000E-03 0. -1.
        -11    1    3    3    0    0  0.34416914189E+01  0.29193059053E+02  0.52511118351E+01  0.29860577899E+02  0.51100000000E-03 0.  1.
         12    1    3    3    0    0  0.84322155598E+01 -0.80930655685E+01 -0.12242937593E+02  0.16926000427E+02  0.00000000000E+00 0. -1.
</event>
<event>
 7    1  0.6164995E-012  0.5930193E+02  0.7816164E-02  0.1266605E+00
        -11   -1    0    0    0    0  0.00000000000E+00  0.00000000000E+00  0.45593999997E+02  0.45594000000E+02  0.51100000000E-03 0.  1.
         11   -1    0    0    0    0 -0.00000000000E+00 -0.00000000000E+00 -0.45593999997E+02  0.45594000000E+02  0.51100000000E-03 0. -1.
    9900012    2    1    2    0    0  0.15345861514E+02  0.96796796210E+01  0.26220790017E+02  0.59301929495E+02  0.49999973495E+02 0.  0.
         12    1    1    2    0    0 -0.15345861514E+02 -0.96796796210E+01 -0.26220790017E+02  0.31886070505E+02  0.00000000000E+00 0. -1.
         11    1    3    3    0    0  0.60457472666E+01  0.13386985379E+00  0.67210653376E-01  0.60476027219E+01  0.51100000000E-03 0. -1.
        -11    1    3    3    0    0  0.19734361410E+02 -0.10273738148E+02  0.20266286696E+02  0.30095134033E+02  0.51100000000E-03 0.  1.
         12    1    3    3    0    0 -0.10434247162E+02  0.19819547915E+02  0.58872926672E+01  0.23159192740E+02  0.00000000000E+00 0. -1.
</event>
<event>
 7    1  0.6164995E-012  0.5930194E+02  0.7816164E-02  0.1266605E+00
        -11   -1    0    0    0    0  0.00000000000E+00  0.00000000000E+00  0.45593999997E+02  0.45594000000E+02  0.51100000000E-03 0.  1.
         11   -1    0    0    0    0 -0.00000000000E+00 -0.00000000000E+00 -0.45593999997E+02  0.45594000000E+02  0.51100000000E-03 0. -1.
    9900012    2    1    2    0    0 -0.26715674165E+02  0.16200827097E+02  0.63660433011E+01  0.59301944239E+02  0.50000000385E+02 0.  0.
         12    1    1    2    0    0  0.26715674165E+02 -0.16200827097E+02 -0.63660433011E+01  0.31886055761E+02  0.00000000000E+00 0. -1.
         11    1    3    3    0    0 -0.80569068195E+01  0.18165118686E+02  0.77157689299E+01  0.21317091143E+02  0.51100000000E-03 0. -1.
        -11    1    3    3    0    0 -0.54348389919E+01  0.32985906857E+01 -0.16207632695E+02  0.17409926284E+02  0.51100000000E-03 0.  1.
        -12    1    3    3    0    0 -0.13223928353E+02 -0.52628822746E+01  0.14857907066E+02  0.20574926812E+02  0.00000000000E+00 0.  1.
</event>
<event>
 7    1  0.6164995E-012  0.5930192E+02  0.7816164E-02  0.1266605E+00
        -11   -1    0    0    0    0  0.00000000000E+00  0.00000000000E+00  0.45593999997E+02  0.45594000000E+02  0.51100000000E-03 0.  1.
         11   -1    0    0    0    0 -0.00000000000E+00 -0.00000000000E+00 -0.45593999997E+02  0.45594000000E+02  0.51100000000E-03 0. -1.
    9900012    2    1    2    0    0  0.27987775703E+02 -0.25801116070E+01 -0.15058195796E+02  0.59301924272E+02  0.49999963970E+02 0.  0.
         12    1    1    2    0    0 -0.27987775703E+02  0.25801116070E+01  0.15058195796E+02  0.31886075728E+02  0.00000000000E+00 0. -1.
         11    1    3    3    0    0 -0.10103407730E+02 -0.52944024922E+01 -0.57710144809E+01  0.12783354564E+02  0.51100000000E-03 0. -1.
        -11    1    3    3    0    0  0.39793271796E+01  0.97941332730E+01 -0.47389947798E+00  0.10582281056E+02  0.51100000000E-03 0.  1.
        -12    1    3    3    0    0  0.34111856254E+02 -0.70798423878E+01 -0.88132818367E+01  0.35936288652E+02  0.00000000000E+00 0.  1.
</event>
<event>
 7    1  0.6164995E-012  0.5930197E+02  0.7816164E-02  0.1266605E+00
        -11   -1    0    0    0    0  0.00000000000E+00  0.00000000000E+00  0.45593999997E+02  0.45594000000E+02  0.51100000000E-03 0.  1.
         11   -1    0    0    0    0 -0.00000000000E+00 -0.00000000000E+00 -0.45593999997E+02  0.45594000000E+02  0.51100000000E-03 0. -1.
    9900012    2    1    2    0    0  0.19191106373E+01  0.29181585474E+01  0.31694164317E+02  0.59301973489E+02  0.50000053730E+02 0.  0.
         12    1    1    2    0    0 -0.19191106373E+01 -0.29181585474E+01 -0.31694164317E+02  0.31886026511E+02  0.00000000000E+00 0. -1.
         11    1    3    3    0    0  0.49090568212E+01 -0.13296847640E+02  0.27878677413E+01  0.14445663808E+02  0.51100000000E-03 0. -1.
        -11    1    3    3    0    0  0.13363732672E+02  0.82615616728E+01  0.99999073906E+01  0.18623665061E+02  0.51100000000E-03 0.  1.
         12    1    3    3    0    0 -0.16353678856E+02  0.79534445148E+01  0.18906389185E+02  0.26232644620E+02  0.00000000000E+00 0. -1.
</event>
<event>
 7    1  0.6164995E-012  0.5930190E+02  0.7816164E-02  0.1266605E+00
        -11   -1    0    0    0    0  0.00000000000E+00  0.00000000000E+00  0.45593999997E+02  0.45594000000E+02  0.51100000000E-03 0. -1.
         11   -1    0    0    0    0 -0.00000000000E+00 -0.00000000000E+00 -0.45593999997E+02  0.45594000000E+02  0.51100000000E-03 0.  1.
    9900012    2    1    2    0    0 -0.19465761716E+01 -0.12660925638E+02 -0.29199913767E+02  0.59301903330E+02  0.49999925778E+02 0.  0.
         12    1    1    2    0    0  0.19465761716E+01  0.12660925638E+02  0.29199913767E+02  0.31886096670E+02  0.00000000000E+00 0. -1.
         11    1    3    3    0    0  0.40944447427E+00 -0.65676131732E+01  0.75870502753E+01  0.10043132963E+02  0.51100000000E-03 0. -1.
        -11    1    3    3    0    0 -0.48617194861E+01 -0.18994921126E+02 -0.21456373356E+02  0.29065775455E+02  0.51100000000E-03 0.  1.
         12    1    3    3    0    0  0.25056988403E+01  0.12901608661E+02 -0.15330590686E+02  0.20192994912E+02  0.00000000000E+00 0. -1.
</event>
<event>
 7    1  0.6164995E-012  0.5930200E+02  0.7816164E-02  0.1266605E+00
        -11   -1    0    0    0    0  0.00000000000E+00  0.00000000000E+00  0.45593999997E+02  0.45594000000E+02  0.51100000000E-03 0.  1.
         11   -1    0    0    0    0 -0.00000000000E+00 -0.00000000000E+00 -0.45593999997E+02  0.45594000000E+02  0.51100000000E-03 0. -1.
    9900012    2    1    2    0    0 -0.17426366065E+02 -0.26048182958E+02  0.58763190022E+01  0.59301996885E+02  0.50000096399E+02 0.  0.
         12    1    1    2    0    0  0.17426366065E+02  0.26048182958E+02 -0.58763190022E+01  0.31886003115E+02  0.00000000000E+00 0. -1.
         11    1    3    3    0    0  0.24511444440E+01 -0.18003919096E+02 -0.89866846441E+01  0.20270908047E+02  0.51100000000E-03 0. -1.
        -11    1    3    3    0    0 -0.17452051908E+02 -0.18072243838E+02  0.70628739093E+01  0.26097208688E+02  0.51100000000E-03 0.  1.
        -12    1    3    3    0    0 -0.24254586007E+01  0.10027979977E+02  0.78001297370E+01  0.12933880151E+02  0.00000000000E+00 0.  1.
</event>
<event>
 7    1  0.6164995E-012  0.5930193E+02  0.7816164E-02  0.1266605E+00
        -11   -1    0    0    0    0  0.00000000000E+00  0.00000000000E+00  0.45593999997E+02  0.45594000000E+02  0.51100000000E-03 0. -1.
         11   -1    0    0    0    0 -0.00000000000E+00 -0.00000000000E+00 -0.45593999997E+02  0.45594000000E+02  0.51100000000E-03 0.  1.
    9900012    2    1    2    0    0  0.20757804566E+02 -0.17944360274E+02  0.16242997440E+02  0.59301929657E+02  0.49999973792E+02 0.  0.
         12    1    1    2    0    0 -0.20757804566E+02  0.17944360274E+02 -0.16242997440E+02  0.31886070343E+02  0.00000000000E+00 0. -1.
         11    1    3    3    0    0 -0.24912359987E+01 -0.85456295954E+01  0.33428649654E+01  0.95083536125E+01  0.51100000000E-03 0. -1.
        -11    1    3    3    0    0 -0.77501926165E+01 -0.74820948724E+01 -0.70548925314E+01  0.12877062482E+02  0.51100000000E-03 0.  1.
         12    1    3    3    0    0  0.30999233182E+02 -0.19166358063E+01  0.19955025006E+02  0.36916513563E+02  0.00000000000E+00 0. -1.
</event>
<event>
 7    1  0.6164995E-012  0.5930198E+02  0.7816164E-02  0.1266605E+00
        -11   -1    0    0    0    0  0.00000000000E+00  0.00000000000E+00  0.45593999997E+02  0.45594000000E+02  0.51100000000E-03 0. -1.
         11   -1    0    0    0    0 -0.00000000000E+00 -0.00000000000E+00 -0.45593999997E+02  0.45594000000E+02  0.51100000000E-03 0.  1.
    9900012    2    1    2    0    0 -0.29192161236E+02 -0.71520136397E+01 -0.10648235019E+02  0.59301976640E+02  0.50000059477E+02 0.  0.
         12    1    1    2    0    0  0.29192161236E+02  0.71520136397E+01  0.10648235019E+02  0.31886023360E+02  0.00000000000E+00 0. -1.
         11    1    3    3    0    0  0.45238575786E+01 -0.26824984755E+00  0.10849035925E+01  0.46598563753E+01  0.51100000000E-03 0. -1.
        -11    1    3    3    0    0 -0.24024720657E+02 -0.20473092827E+02  0.38608012859E+01  0.31800008166E+02  0.51100000000E-03 0.  1.
        -12    1    3    3    0    0 -0.96912981572E+01  0.13589329035E+02 -0.15593939897E+02  0.22842112098E+02  0.00000000000E+00 0.  1.
</event>
<event>
 7    1  0.6164995E-012  0.5930194E+02  0.7816164E-02  0.1266605E+00
        -11   -1    0    0    0    0  0.00000000000E+00  0.00000000000E+00  0.45593999997E+02  0.45594000000E+02  0.51100000000E-03 0.  1.
         11   -1    0    0    0    0 -0.00000000000E+00 -0.00000000000E+00 -0.45593999997E+02  0.45594000000E+02  0.51100000000E-03 0. -1.
    9900012    2    1    2    0    0 -0.32316940149E+01 -0.20264019086E+02  0.24405870424E+02  0.59301939929E+02  0.49999992524E+02 0.  0.
         12    1    1    2    0    0  0.32316940149E+01  0.20264019086E+02 -0.24405870424E+02  0.31886060071E+02  0.00000000000E+00 0. -1.
         11    1    3    3    0    0 -0.81931863490E+01 -0.92247480297E+01  0.23758273775E+02  0.26770876933E+02  0.51100000000E-03 0. -1.
        -11    1    3    3    0    0  0.12387722804E+02  0.90314473512E+00  0.97404523036E+01  0.15784415036E+02  0.51100000000E-03 0.  1.
         12    1    3    3    0    0 -0.74262304699E+01 -0.11942415791E+02 -0.90928556545E+01  0.16746647960E+02  0.00000000000E+00 0. -1.
</event>
<event>
 7    1  0.6164995E-012  0.5930192E+02  0.7816164E-02  0.1266605E+00
        -11   -1    0    0    0    0  0.00000000000E+00  0.00000000000E+00  0.45593999997E+02  0.45594000000E+02  0.51100000000E-03 0. -1.
         11   -1    0    0    0    0 -0.00000000000E+00 -0.00000000000E+00 -0.45593999997E+02  0.45594000000E+02  0.51100000000E-03 0.  1.
    9900012    2    1    2    0    0  0.23755157354E+02 -0.12184920953E+02 -0.17433940292E+02  0.59301920378E+02  0.49999956869E+02 0.  0.
         12    1    1    2    0    0 -0.23755157354E+02  0.12184920953E+02  0.17433940292E+02  0.31886079622E+02  0.00000000000E+00 0. -1.
         11    1    3    3    0    0  0.15874885695E+01 -0.10893475369E+02  0.10612402268E+01  0.11059573077E+02  0.51100000000E-03 0. -1.
        -11    1    3    3    0    0  0.25510479244E+02 -0.10674584324E+02 -0.24213976136E+02  0.36756604065E+02  0.51100000000E-03 0.  1.
         12    1    3    3    0    0 -0.33428104603E+01  0.93831387399E+01  0.57187956174E+01  0.11485743237E+02  0.00000000000E+00 0. -1.
</event>
<event>
 7    1  0.6164995E-012  0.5930195E+02  0.7816164E-02  0.1266605E+00
        -11   -1    0    0    0    0  0.00000000000E+00  0.00000000000E+00  0.45593999997E+02  0.45594000000E+02  0.51100000000E-03 0.  1.
         11   -1    0    0    0    0 -0.00000000000E+00 -0.00000000000E+00 -0.45593999997E+02  0.45594000000E+02  0.51100000000E-03 0. -1.
    9900012    2    1    2    0    0 -0.84631828271E+01 -0.13496464908E+02  0.27621367116E+02  0.59301953680E+02  0.50000017603E+02 0.  0.
         12    1    1    2    0    0  0.84631828271E+01  0.13496464908E+02 -0.27621367116E+02  0.31886046320E+02  0.00000000000E+00 0. -1.
         11    1    3    3    0    0 -0.49688421133E+01 -0.54492786520E+01  0.51662979241E+01  0.90041470598E+01  0.51100000000E-03 0. -1.
        -11    1    3    3    0    0 -0.63996040540E+01 -0.22733653155E+02  0.25779350962E+02  0.34962105973E+02  0.51100000000E-03 0.  1.
         12    1    3    3    0    0  0.29052633402E+01  0.14686466898E+02 -0.33242817700E+01  0.15335700646E+02  0.00000000000E+00 0. -1.
</event>
<event>
 7    1  0.6164995E-012  0.5930193E+02  0.7816164E-02  0.1266605E+00
        -11   -1    0    0    0    0  0.00000000000E+00  0.00000000000E+00  0.45593999997E+02  0.45594000000E+02  0.51100000000E-03 0.  1.
         11   -1    0    0    0    0 -0.00000000000E+00 -0.00000000000E+00 -0.45593999997E+02  0.45594000000E+02  0.51100000000E-03 0. -1.
    9900012    2    1    2    0    0 -0.27430180300E+02 -0.15102377140E+02  0.60187346217E+01  0.59301925406E+02  0.49999966038E+02 0.  0.
         12    1    1    2    0    0  0.27430180300E+02  0.15102377140E+02 -0.60187346217E+01  0.31886074594E+02  0.00000000000E+00 0. -1.
         11    1    3    3    0    0  0.10632880813E+02 -0.93335358002E+01 -0.45860063906E+01  0.14872945229E+02  0.51100000000E-03 0. -1.
        -11    1    3    3    0    0 -0.10520160177E+02  0.61677686825E+01 -0.10222714421E+01  0.12237654180E+02  0.51100000000E-03 0.  1.
        -12    1    3    3    0    0 -0.27542900936E+02 -0.11936610023E+02  0.11627012454E+02  0.32191325997E+02  0.00000000000E+00 0.  1.
</event>
<event>
 7    1  0.6164995E-012  0.5930194E+02  0.7816164E-02  0.1266605E+00
        -11   -1    0    0    0    0  0.00000000000E+00  0.00000000000E+00  0.45593999997E+02  0.45594000000E+02  0.51100000000E-03 0.  1.
         11   -1    0    0    0    0 -0.00000000000E+00 -0.00000000000E+00 -0.45593999997E+02  0.45594000000E+02  0.51100000000E-03 0. -1.
    9900012    2    1    2    0    0  0.49666486805E+01  0.23787076605E+02  0.20645298424E+02  0.59301937848E+02  0.49999988730E+02 0.  0.
         12    1    1    2    0    0 -0.49666486805E+01 -0.23787076605E+02 -0.20645298424E+02  0.31886062152E+02  0.00000000000E+00 0. -1.
         11    1    3    3    0    0  0.18415869000E+02  0.10566092895E+02  0.28312291048E+01  0.21419673400E+02  0.51100000000E-03 0. -1.
        -11    1    3    3    0    0  0.80740977903E+01  0.22478722773E+01  0.98370810317E+00  0.84387005395E+01  0.51100000000E-03 0.  1.
        -12    1    3    3    0    0 -0.21523318109E+02  0.10973111433E+02  0.16830361216E+02  0.29443563908E+02  0.00000000000E+00 0.  1.
</event>
<event>
 7    1  0.6164995E-012  0.5930193E+02  0.7816164E-02  0.1266605E+00
        -11   -1    0    0    0    0  0.00000000000E+00  0.00000000000E+00  0.45593999997E+02  0.45594000000E+02  0.51100000000E-03 0.  1.
         11   -1    0    0    0    0 -0.00000000000E+00 -0.00000000000E+00 -0.45593999997E+02  0.45594000000E+02  0.51100000000E-03 0. -1.
    9900012    2    1    2    0    0  0.16228978660E+02 -0.23627534938E+02  0.13967152243E+02  0.59301929415E+02  0.49999973350E+02 0.  0.
         12    1    1    2    0    0 -0.16228978660E+02  0.23627534938E+02 -0.13967152243E+02  0.31886070585E+02  0.00000000000E+00 0. -1.
         11    1    3    3    0    0  0.47159688209E+01 -0.26937704697E+01  0.58491531050E+01  0.79818139273E+01  0.51100000000E-03 0. -1.
        -11    1    3    3    0    0  0.24537781927E+01 -0.27020406831E+02  0.21092284567E+02  0.34365795222E+02  0.51100000000E-03 0.  1.
         12    1    3    3    0    0  0.90592316460E+01  0.60866423635E+01 -0.12974285429E+02  0.16954320265E+02  0.00000000000E+00 0. -1.
</event>
<event>
 7    1  0.6164995E-012  0.5930193E+02  0.7816164E-02  0.1266605E+00
        -11   -1    0    0    0    0  0.00000000000E+00  0.00000000000E+00  0.45593999997E+02  0.45594000000E+02  0.51100000000E-03 0.  1.
         11   -1    0    0    0    0 -0.00000000000E+00 -0.00000000000E+00 -0.45593999997E+02  0.45594000000E+02  0.51100000000E-03 0. -1.
    9900012    2    1    2    0    0 -0.72103777145E+01  0.83929301775E+01  0.29904689383E+02  0.59301932967E+02  0.49999979827E+02 0.  0.
         12    1    1    2    0    0  0.72103777145E+01 -0.83929301775E+01 -0.29904689383E+02  0.31886067033E+02  0.00000000000E+00 0. -1.
         11    1    3    3    0    0  0.97824957947E+01 -0.43881523575E+01 -0.49565253562E+01  0.11811868986E+02  0.51100000000E-03 0. -1.
        -11    1    3    3    0    0  0.23103323818E+01  0.30531339643E+01  0.22014129737E+02  0.22344600490E+02  0.51100000000E-03 0.  1.
        -12    1    3    3    0    0 -0.19303205891E+02  0.97279485706E+01  0.12847085002E+02  0.25145463490E+02  0.00000000000E+00 0.  1.
</event>
<event>
 7    1  0.6164995E-012  0.5930195E+02  0.7816164E-02  0.1266605E+00
        -11   -1    0    0    0    0  0.00000000000E+00  0.00000000000E+00  0.45593999997E+02  0.45594000000E+02  0.51100000000E-03 0. -1.
         11   -1    0    0    0    0 -0.00000000000E+00 -0.00000000000E+00 -0.45593999997E+02  0.45594000000E+02  0.51100000000E-03 0.  1.
    9900012    2    1    2    0    0 -0.33012249326E+01  0.22775267865E+02 -0.22070551510E+02  0.59301950443E+02  0.50000011700E+02 0.  0.
         12    1    1    2    0    0  0.33012249326E+01 -0.22775267865E+02  0.22070551510E+02  0.31886049557E+02  0.00000000000E+00 0. -1.
         11    1    3    3    0    0 -0.11252429938E+02  0.22670427671E+02 -0.29968125830E+02  0.39225680827E+02  0.51100000000E-03 0. -1.
        -11    1    3    3    0    0  0.48313600488E+00  0.61845968687E+01 -0.17494469980E+01  0.64454033145E+01  0.51100000000E-03 0.  1.
         12    1    3    3    0    0  0.74680690002E+01 -0.60797566752E+01  0.96470213180E+01  0.13630866302E+02  0.00000000000E+00 0. -1.
</event>
<event>
 7    1  0.6164995E-012  0.5930201E+02  0.7816164E-02  0.1266605E+00
        -11   -1    0    0    0    0  0.00000000000E+00  0.00000000000E+00  0.45593999997E+02  0.45594000000E+02  0.51100000000E-03 0.  1.
         11   -1    0    0    0    0 -0.00000000000E+00 -0.00000000000E+00 -0.45593999997E+02  0.45594000000E+02  0.51100000000E-03 0. -1.
    9900012    2    1    2    0    0 -0.15182631094E+01 -0.17564928804E+02  0.26568485005E+02  0.59302011820E+02  0.50000123636E+02 0.  0.
         12    1    1    2    0    0  0.15182631094E+01  0.17564928804E+02 -0.26568485005E+02  0.31885988180E+02  0.00000000000E+00 0. -1.
         11    1    3    3    0    0 -0.23462227181E+01  0.74135793474E+01  0.20355022252E+01  0.80379841598E+01  0.51100000000E-03 0. -1.
        -11    1    3    3    0    0  0.40545312114E+01  0.18172355012E+01  0.23855994221E+02  0.24266232274E+02  0.51100000000E-03 0.  1.
         12    1    3    3    0    0 -0.32265716027E+01 -0.26795743653E+02  0.67698855846E+00  0.26997795386E+02  0.00000000000E+00 0. -1.
</event>
<event>
 7    1  0.6164995E-012  0.5930195E+02  0.7816164E-02  0.1266605E+00
        -11   -1    0    0    0    0  0.00000000000E+00  0.00000000000E+00  0.45593999997E+02  0.45594000000E+02  0.51100000000E-03 0. -1.
         11   -1    0    0    0    0 -0.00000000000E+00 -0.00000000000E+00 -0.45593999997E+02  0.45594000000E+02  0.51100000000E-03 0.  1.
    9900012    2    1    2    0    0  0.14468398220E+02 -0.27464014860E+02 -0.72878892102E+01  0.59301953076E+02  0.50000016502E+02 0.  0.
         12    1    1    2    0    0 -0.14468398220E+02  0.27464014860E+02  0.72878892102E+01  0.31886046924E+02  0.00000000000E+00 0. -1.
         11    1    3    3    0    0 -0.11977432471E+02 -0.86134365475E+01  0.37551301007E+01  0.15223376107E+02  0.51100000000E-03 0. -1.
        -11    1    3    3    0    0  0.14473354987E+01 -0.14780162413E+02 -0.11442414072E+02  0.18747715089E+02  0.51100000000E-03 0.  1.
         12    1    3    3    0    0  0.24998495192E+02 -0.40704159003E+01  0.39939476101E+00  0.25330861881E+02  0.00000000000E+00 0. -1.
</event>
<event>
 7    1  0.6164995E-012  0.5930195E+02  0.7816164E-02  0.1266605E+00
        -11   -1    0    0    0    0  0.00000000000E+00  0.00000000000E+00  0.45593999997E+02  0.45594000000E+02  0.51100000000E-03 0. -1.
         11   -1    0    0    0    0 -0.00000000000E+00 -0.00000000000E+00 -0.45593999997E+02  0.45594000000E+02  0.51100000000E-03 0.  1.
    9900012    2    1    2    0    0 -0.16782007097E+02 -0.56337897407E+01 -0.26520652057E+02  0.59301947649E+02  0.50000006604E+02 0.  0.
         12    1    1    2    0    0  0.16782007097E+02  0.56337897407E+01  0.26520652057E+02  0.31886052351E+02  0.00000000000E+00 0. -1.
         11    1    3    3    0    0 -0.12576184892E+02 -0.59649728448E+01  0.22780123808E+01  0.14104278363E+02  0.51100000000E-03 0. -1.
        -11    1    3    3    0    0  0.11668767760E+01 -0.12974617249E+02 -0.55621081751E-02  0.13026984508E+02  0.51100000000E-03 0.  1.
        -12    1    3    3    0    0 -0.53726989808E+01  0.13305800353E+02 -0.28793102329E+02  0.32170684778E+02  0.00000000000E+00 0.  1.
</event>
<event>
 7    1  0.6164995E-012  0.5930193E+02  0.7816164E-02  0.1266605E+00
        -11   -1    0    0    0    0  0.00000000000E+00  0.00000000000E+00  0.45593999997E+02  0.45594000000E+02  0.51100000000E-03 0. -1.
         11   -1    0    0    0    0 -0.00000000000E+00 -0.00000000000E+00 -0.45593999997E+02  0.45594000000E+02  0.51100000000E-03 0.  1.
    9900012    2    1    2    0    0  0.16394580666E+02 -0.20881804747E+02 -0.17660386201E+02  0.59301932737E+02  0.49999979409E+02 0.  0.
         12    1    1    2    0    0 -0.16394580666E+02  0.20881804747E+02  0.17660386201E+02  0.31886067263E+02  0.00000000000E+00 0. -1.
         11    1    3    3    0    0 -0.10347965097E+02 -0.46029559391E+01 -0.89122285381E+00  0.11360539753E+02  0.51100000000E-03 0. -1.
        -11    1    3    3    0    0  0.26333675797E+01 -0.98074390212E+00  0.90312540703E+01  0.94583314467E+01  0.51100000000E-03 0.  1.
        -12    1    3    3    0    0  0.24109178184E+02 -0.15298104906E+02 -0.25800417418E+02  0.38483061538E+02  0.00000000000E+00 0.  1.
</event>
<event>
 7    1  0.6164995E-012  0.5930195E+02  0.7816164E-02  0.1266605E+00
        -11   -1    0    0    0    0  0.00000000000E+00  0.00000000000E+00  0.45593999997E+02  0.45594000000E+02  0.51100000000E-03 0.  1.
         11   -1    0    0    0    0 -0.00000000000E+00 -0.00000000000E+00 -0.45593999997E+02  0.45594000000E+02  0.51100000000E-03 0. -1.
    9900012    2    1    2    0    0 -0.22951541053E+02 -0.80806333869E+01  0.20607045840E+02  0.59301949587E+02  0.50000010139E+02 0.  0.
         12    1    1    2    0    0  0.22951541053E+02  0.80806333869E+01 -0.20607045840E+02  0.31886050413E+02  0.00000000000E+00 0. -1.
         11    1    3    3    0    0 -0.11813691077E+02 -0.27675728914E+01 -0.41030461097E+01  0.12808502810E+02  0.51100000000E-03 0. -1.
        -11    1    3    3    0    0 -0.19351796712E+02  0.82161860383E+01  0.22009740411E+02  0.30437253854E+02  0.51100000000E-03 0.  1.
        -12    1    3    3    0    0  0.82139467359E+01 -0.13529246534E+02  0.27003515392E+01  0.16056192923E+02  0.00000000000E+00 0.  1.
</event>
<event>
 7    1  0.6164995E-012  0.5930192E+02  0.7816164E-02  0.1266605E+00
        -11   -1    0    0    0    0  0.00000000000E+00  0.00000000000E+00  0.45593999997E+02  0.45594000000E+02  0.51100000000E-03 0.  1.
         11   -1    0    0    0    0 -0.00000000000E+00 -0.00000000000E+00 -0.45593999997E+02  0.45594000000E+02  0.51100000000E-03 0. -1.
    9900012    2    1    2    0    0 -0.13834745882E+01 -0.21042692803E+02  0.23916793825E+02  0.59301922330E+02  0.49999960429E+02 0.  0.
         12    1    1    2    0    0  0.13834745882E+01  0.21042692803E+02 -0.23916793825E+02  0.31886077670E+02  0.00000000000E+00 0. -1.
         11    1    3    3    0    0  0.85387174174E+01 -0.10796277450E+02  0.68795381173E+01  0.15388221043E+02  0.51100000000E-03 0. -1.
        -11    1    3    3    0    0  0.57797908527E+01 -0.10087006944E+02  0.24052800221E+02  0.26714993732E+02  0.51100000000E-03 0.  1.
        -12    1    3    3    0    0 -0.15701982858E+02 -0.15940840911E+00 -0.70155445135E+01  0.17198707555E+02  0.00000000000E+00 0.  1.
</event>
<event>
 7    1  0.6164995E-012  0.5930193E+02  0.7816164E-02  0.1266605E+00
        -11   -1    0    0    0    0  0.00000000000E+00  0.00000000000E+00  0.45593999997E+02  0.45594000000E+02  0.51100000000E-03 0. -1.
         11   -1    0    0    0    0 -0.00000000000E+00 -0.00000000000E+00 -0.45593999997E+02  0.45594000000E+02  0.51100000000E-03 0.  1.
    9900012    2    1    2    0    0 -0.19190434353E+02  0.25176878109E+02 -0.38175036763E+01  0.59301932568E+02  0.49999979100E+02 0.  0.
         12    1    1    2    0    0  0.19190434353E+02 -0.25176878109E+02  0.38175036763E+01  0.31886067432E+02  0.00000000000E+00 0. -1.
         11    1    3    3    0    0 -0.22149185162E+02 -0.19587822506E+01  0.69342151225E+01  0.23291770453E+02  0.51100000000E-03 0. -1.
        -11    1    3    3    0    0 -0.95096113482E+00  0.11209222341E+02  0.58455869400E+01  0.12677613321E+02  0.51100000000E-03 0.  1.
         12    1    3    3    0    0  0.39097119431E+01  0.15926438018E+02 -0.16597305739E+02  0.23332548794E+02  0.00000000000E+00 0. -1.
</event>
<event>
 7    1  0.6164995E-012  0.5930197E+02  0.7816164E-02  0.1266605E+00
        -11   -1    0    0    0    0  0.00000000000E+00  0.00000000000E+00  0.45593999997E+02  0.45594000000E+02  0.51100000000E-03 0.  1.
         11   -1    0    0    0    0 -0.00000000000E+00 -0.00000000000E+00 -0.45593999997E+02  0.45594000000E+02  0.51100000000E-03 0. -1.
    9900012    2    1    2    0    0  0.27564429969E+02  0.25173520225E+01  0.15829842254E+02  0.59301972237E+02  0.50000051447E+02 0.  0.
         12    1    1    2    0    0 -0.27564429969E+02 -0.25173520225E+01 -0.15829842254E+02  0.31886027763E+02  0.00000000000E+00 0. -1.
         11    1    3    3    0    0 -0.37071456315E+01  0.13528837342E+01  0.11931781944E+01  0.41227293867E+01  0.51100000000E-03 0. -1.
        -11    1    3    3    0    0  0.29083835458E+02 -0.84904844625E+01 -0.72540309773E+01  0.31154113324E+02  0.51100000000E-03 0.  1.
         12    1    3    3    0    0  0.21877401428E+01  0.96549527509E+01  0.21890695037E+02  0.24025129526E+02  0.00000000000E+00 0. -1.
</event>
<event>
 7    1  0.6164995E-012  0.5930194E+02  0.7816164E-02  0.1266605E+00
        -11   -1    0    0    0    0  0.00000000000E+00  0.00000000000E+00  0.45593999997E+02  0.45594000000E+02  0.51100000000E-03 0.  1.
         11   -1    0    0    0    0 -0.00000000000E+00 -0.00000000000E+00 -0.45593999997E+02  0.45594000000E+02  0.51100000000E-03 0. -1.
    9900012    2    1    2    0    0  0.19230051703E+02  0.23706591045E+02  0.92154103418E+01  0.59301935093E+02  0.49999983705E+02 0.  0.
         12    1    1    2    0    0 -0.19230051703E+02 -0.23706591045E+02 -0.92154103418E+01  0.31886064907E+02  0.00000000000E+00 0. -1.
         11    1    3    3    0    0 -0.75903021479E+01 -0.52152545654E+01  0.74227698049E+00  0.92391851510E+01  0.51100000000E-03 0. -1.
        -11    1    3    3    0    0  0.13762496993E+02  0.38812489337E+01  0.15368983818E+02  0.20992286217E+02  0.51100000000E-03 0.  1.
        -12    1    3    3    0    0  0.13057856858E+02  0.25040596677E+02 -0.68958504566E+01  0.29070463725E+02  0.00000000000E+00 0.  1.
</event>
<event>
 7    1  0.6164995E-012  0.5930187E+02  0.7816164E-02  0.1266605E+00
        -11   -1    0    0    0    0  0.00000000000E+00  0.00000000000E+00  0.45593999997E+02  0.45594000000E+02  0.51100000000E-03 0.  1.
         11   -1    0    0    0    0 -0.00000000000E+00 -0.00000000000E+00 -0.45593999997E+02  0.45594000000E+02  0.51100000000E-03 0. -1.
    9900012    2    1    2    0    0  0.57798452963E+01 -0.94955417090E+01  0.29885667489E+02  0.59301873781E+02  0.49999871887E+02 0.  0.
         12    1    1    2    0    0 -0.57798452963E+01  0.94955417090E+01 -0.29885667489E+02  0.31886126219E+02  0.00000000000E+00 0. -1.
         11    1    3    3    0    0  0.18364919895E+02 -0.77272494029E-01  0.18630973918E+02  0.26160837968E+02  0.51100000000E-03 0. -1.
        -11    1    3    3    0    0 -0.91365492617E+01 -0.15339991477E+02  0.16654541139E+02  0.24416502856E+02  0.51100000000E-03 0.  1.
         12    1    3    3    0    0 -0.34485253371E+01  0.59217222618E+01 -0.53998475685E+01  0.87245329565E+01  0.00000000000E+00 0. -1.
</event>
<event>
 7    1  0.6164995E-012  0.5930194E+02  0.7816164E-02  0.1266605E+00
        -11   -1    0    0    0    0  0.00000000000E+00  0.00000000000E+00  0.45593999997E+02  0.45594000000E+02  0.51100000000E-03 0.  1.
         11   -1    0    0    0    0 -0.00000000000E+00 -0.00000000000E+00 -0.45593999997E+02  0.45594000000E+02  0.51100000000E-03 0. -1.
    9900012    2    1    2    0    0 -0.35814521119E+01  0.36379743228E+01  0.31474733727E+02  0.59301944747E+02  0.50000001312E+02 0.  0.
         12    1    1    2    0    0  0.35814521119E+01 -0.36379743228E+01 -0.31474733727E+02  0.31886055253E+02  0.00000000000E+00 0. -1.
         11    1    3    3    0    0 -0.11287682727E+02 -0.94819247358E+01 -0.42224628499E+00  0.14747778484E+02  0.51100000000E-03 0. -1.
        -11    1    3    3    0    0  0.53515931587E+01 -0.79690661832E+01  0.12850726550E+02  0.16040160171E+02  0.51100000000E-03 0.  1.
        -12    1    3    3    0    0  0.23546374562E+01  0.21088965242E+02  0.19046253461E+02  0.28514006092E+02  0.00000000000E+00 0.  1.
</event>
<event>
 7    1  0.6164995E-012  0.5930186E+02  0.7816164E-02  0.1266605E+00
        -11   -1    0    0    0    0  0.00000000000E+00  0.00000000000E+00  0.45593999997E+02  0.45594000000E+02  0.51100000000E-03 0. -1.
         11   -1    0    0    0    0 -0.00000000000E+00 -0.00000000000E+00 -0.45593999997E+02  0.45594000000E+02  0.51100000000E-03 0.  1.
    9900012    2    1    2    0    0 -0.12244669894E+01  0.12152386908E+02 -0.29454140366E+02  0.59301855491E+02  0.49999838529E+02 0.  0.
         12    1    1    2    0    0  0.12244669894E+01 -0.12152386908E+02  0.29454140366E+02  0.31886144509E+02  0.00000000000E+00 0. -1.
         11    1    3    3    0    0 -0.41723355205E+01  0.83094819343E+01  0.67059014210E+01  0.11464073789E+02  0.51100000000E-03 0. -1.
        -11    1    3    3    0    0 -0.12172201342E+02  0.91985997243E+01 -0.16735929864E+02  0.22646590717E+02  0.51100000000E-03 0.  1.
         12    1    3    3    0    0  0.15120069873E+02 -0.53556947510E+01 -0.19424111923E+02  0.25191190985E+02  0.00000000000E+00 0. -1.
</event>
<event>
 7    1  0.6164995E-012  0.5930195E+02  0.7816164E-02  0.1266605E+00
        -11   -1    0    0    0    0  0.00000000000E+00  0.00000000000E+00  0.45593999997E+02  0.45594000000E+02  0.51100000000E-03 0. -1.
         11   -1    0    0    0    0 -0.00000000000E+00 -0.00000000000E+00 -0.45593999997E+02  0.45594000000E+02  0.51100000000E-03 0.  1.
    9900012    2    1    2    0    0  0.30150504039E+02 -0.10326058695E+02 -0.10198431476E+01  0.59301945649E+02  0.50000002958E+02 0.  0.
         12    1    1    2    0    0 -0.30150504039E+02  0.10326058695E+02  0.10198431476E+01  0.31886054351E+02  0.00000000000E+00 0. -1.
         11    1    3    3    0    0 -0.46299470860E+00  0.73757838450E+00 -0.97400890081E+01  0.97789426893E+01  0.51100000000E-03 0.  1.
        -11    1    3    3    0    0  0.28040745158E+02 -0.20620972645E+02  0.14892194379E+02  0.37858755335E+02  0.51100000000E-03 0. -1.
         12    1    3    3    0    0  0.25727535901E+01  0.95573355655E+01 -0.61719485184E+01  0.11664247625E+02  0.00000000000E+00 0. -1.
</event>
<event>
 7    1  0.6164995E-012  0.5930201E+02  0.7816164E-02  0.1266605E+00
        -11   -1    0    0    0    0  0.00000000000E+00  0.00000000000E+00  0.45593999997E+02  0.45594000000E+02  0.51100000000E-03 0. -1.
         11   -1    0    0    0    0 -0.00000000000E+00 -0.00000000000E+00 -0.45593999997E+02  0.45594000000E+02  0.51100000000E-03 0.  1.
    9900012    2    1    2    0    0  0.14344175369E+02  0.23595989234E+02 -0.15943347726E+02  0.59302009163E+02  0.50000118791E+02 0.  0.
         12    1    1    2    0    0 -0.14344175369E+02 -0.23595989234E+02  0.15943347726E+02  0.31885990837E+02  0.00000000000E+00 0. -1.
         11    1    3    3    0    0 -0.12396102970E+02  0.16625043186E+02  0.71707281227E+00  0.20750171649E+02  0.51100000000E-03 0. -1.
        -11    1    3    3    0    0  0.38824216502E+01  0.23947086212E+01 -0.14430121082E+02  0.15133942710E+02  0.51100000000E-03 0.  1.
         12    1    3    3    0    0  0.22857856689E+02  0.45762374266E+01 -0.22302994560E+01  0.23417894804E+02  0.00000000000E+00 0. -1.
</event>
<event>
 7    1  0.6164995E-012  0.5930195E+02  0.7816164E-02  0.1266605E+00
        -11   -1    0    0    0    0  0.00000000000E+00  0.00000000000E+00  0.45593999997E+02  0.45594000000E+02  0.51100000000E-03 0.  1.
         11   -1    0    0    0    0 -0.00000000000E+00 -0.00000000000E+00 -0.45593999997E+02  0.45594000000E+02  0.51100000000E-03 0. -1.
    9900012    2    1    2    0    0 -0.21835654613E+02 -0.19484211898E+02  0.12660573388E+02  0.59301945930E+02  0.50000003469E+02 0.  0.
         12    1    1    2    0    0  0.21835654613E+02  0.19484211898E+02 -0.12660573388E+02  0.31886054070E+02  0.00000000000E+00 0. -1.
         11    1    3    3    0    0 -0.20556070344E+02 -0.39418867415E+01 -0.10916062805E+02  0.23606162892E+02  0.51100000000E-03 0. -1.
        -11    1    3    3    0    0  0.40898969326E+01  0.28860994324E+01 -0.35403336492E+00  0.50181836094E+01  0.51100000000E-03 0.  1.
        -12    1    3    3    0    0 -0.53694812015E+01 -0.18428424589E+02  0.23930669558E+02  0.30677599429E+02  0.00000000000E+00 0.  1.
</event>
<event>
 7    1  0.6164995E-012  0.5930196E+02  0.7816164E-02  0.1266605E+00
        -11   -1    0    0    0    0  0.00000000000E+00  0.00000000000E+00  0.45593999997E+02  0.45594000000E+02  0.51100000000E-03 0. -1.
         11   -1    0    0    0    0 -0.00000000000E+00 -0.00000000000E+00 -0.45593999997E+02  0.45594000000E+02  0.51100000000E-03 0.  1.
    9900012    2    1    2    0    0 -0.71485412021E+01  0.18708413881E+02 -0.24811553447E+02  0.59301959547E+02  0.50000028304E+02 0.  0.
         12    1    1    2    0    0  0.71485412021E+01 -0.18708413881E+02  0.24811553447E+02  0.31886040453E+02  0.00000000000E+00 0. -1.
         11    1    3    3    0    0  0.10406430096E+02  0.50764357747E+00 -0.19938214791E+02  0.22496308556E+02  0.51100000000E-03 0. -1.
        -11    1    3    3    0    0 -0.12294279414E+02  0.14162488329E+02 -0.15465507966E+02  0.24308585292E+02  0.51100000000E-03 0.  1.
         12    1    3    3    0    0 -0.52606918836E+01  0.40382819754E+01  0.10592169310E+02  0.12497065700E+02  0.00000000000E+00 0. -1.
</event>
<event>
 7    1  0.6164995E-012  0.5930193E+02  0.7816164E-02  0.1266605E+00
        -11   -1    0    0    0    0  0.00000000000E+00  0.00000000000E+00  0.45593999997E+02  0.45594000000E+02  0.51100000000E-03 0. -1.
         11   -1    0    0    0    0 -0.00000000000E+00 -0.00000000000E+00 -0.45593999997E+02  0.45594000000E+02  0.51100000000E-03 0.  1.
    9900012    2    1    2    0    0 -0.28281977971E+01  0.26294494043E+02  0.17813540985E+02  0.59301931534E+02  0.49999977215E+02 0.  0.
         12    1    1    2    0    0  0.28281977971E+01 -0.26294494043E+02 -0.17813540985E+02  0.31886068466E+02  0.00000000000E+00 0. -1.
         11    1    3    3    0    0 -0.61587199280E+01 -0.23302307849E+01 -0.35061869997E+01  0.74601041682E+01  0.51100000000E-03 0. -1.
        -11    1    3    3    0    0  0.87075869968E+01  0.34832379869E+02  0.89651687058E+01  0.37006634659E+02  0.51100000000E-03 0.  1.
         12    1    3    3    0    0 -0.53770648659E+01 -0.62076550403E+01  0.12354559279E+02  0.14835192707E+02  0.00000000000E+00 0. -1.
</event>
<event>
 7    1  0.6164995E-012  0.5930194E+02  0.7816164E-02  0.1266605E+00
        -11   -1    0    0    0    0  0.00000000000E+00  0.00000000000E+00  0.45593999997E+02  0.45594000000E+02  0.51100000000E-03 0.  1.
         11   -1    0    0    0    0 -0.00000000000E+00 -0.00000000000E+00 -0.45593999997E+02  0.45594000000E+02  0.51100000000E-03 0. -1.
    9900012    2    1    2    0    0  0.98971036314E+01  0.30207565781E+02  0.25041660320E+01  0.59301944455E+02  0.50000000779E+02 0.  0.
         12    1    1    2    0    0 -0.98971036314E+01 -0.30207565781E+02 -0.25041660320E+01  0.31886055545E+02  0.00000000000E+00 0. -1.
         11    1    3    3    0    0  0.99944866576E+01 -0.50772074014E+01 -0.68456440263E+01  0.13135091965E+02  0.51100000000E-03 0. -1.
        -11    1    3    3    0    0  0.12166087086E+02  0.12669744868E+02 -0.26775358187E+01  0.17768098050E+02  0.51100000000E-03 0.  1.
         12    1    3    3    0    0 -0.12263470112E+02  0.22615028314E+02  0.12027345877E+02  0.28398754439E+02  0.00000000000E+00 0. -1.
</event>
<event>
 7    1  0.6164995E-012  0.5930194E+02  0.7816164E-02  0.1266605E+00
        -11   -1    0    0    0    0  0.00000000000E+00  0.00000000000E+00  0.45593999997E+02  0.45594000000E+02  0.51100000000E-03 0. -1.
         11   -1    0    0    0    0 -0.00000000000E+00 -0.00000000000E+00 -0.45593999997E+02  0.45594000000E+02  0.51100000000E-03 0.  1.
    9900012    2    1    2    0    0 -0.29589770707E+02  0.18673937543E+01 -0.11733678427E+02  0.59301938792E+02  0.49999990452E+02 0.  0.
         12    1    1    2    0    0  0.29589770707E+02 -0.18673937543E+01  0.11733678427E+02  0.31886061208E+02  0.00000000000E+00 0. -1.
         11    1    3    3    0    0 -0.15041628216E+02  0.14319901190E+02  0.17247702048E+00  0.20768724036E+02  0.51100000000E-03 0. -1.
        -11    1    3    3    0    0  0.43909353161E+01  0.16437073372E+01 -0.14064712391E+02  0.14825593467E+02  0.51100000000E-03 0.  1.
        -12    1    3    3    0    0 -0.18939077807E+02 -0.14096214773E+02  0.21585569437E+01  0.23707621289E+02  0.00000000000E+00 0.  1.
</event>
<event>
 7    1  0.6164995E-012  0.5930188E+02  0.7816164E-02  0.1266605E+00
        -11   -1    0    0    0    0  0.00000000000E+00  0.00000000000E+00  0.45593999997E+02  0.45594000000E+02  0.51100000000E-03 0.  1.
         11   -1    0    0    0    0 -0.00000000000E+00 -0.00000000000E+00 -0.45593999997E+02  0.45594000000E+02  0.51100000000E-03 0. -1.
    9900012    2    1    2    0    0  0.20698077813E+02  0.23109541782E+02  0.73663422892E+01  0.59301884758E+02  0.49999891906E+02 0.  0.
         12    1    1    2    0    0 -0.20698077813E+02 -0.23109541782E+02 -0.73663422892E+01  0.31886115242E+02  0.00000000000E+00 0. -1.
         11    1    3    3    0    0  0.34432132250E+00  0.13881167059E+02 -0.96326816770E+01  0.16899524036E+02  0.51100000000E-03 0. -1.
        -11    1    3    3    0    0  0.16930601063E+02  0.20599203170E+02  0.92508747083E+01  0.28223236999E+02  0.51100000000E-03 0.  1.
         12    1    3    3    0    0  0.34231554273E+01 -0.11370828446E+02  0.77481492579E+01  0.14179123723E+02  0.00000000000E+00 0. -1.
</event>
<event>
 7    1  0.6164995E-012  0.5930190E+02  0.7816164E-02  0.1266605E+00
        -11   -1    0    0    0    0  0.00000000000E+00  0.00000000000E+00  0.45593999997E+02  0.45594000000E+02  0.51100000000E-03 0.  1.
         11   -1    0    0    0    0 -0.00000000000E+00 -0.00000000000E+00 -0.45593999997E+02  0.45594000000E+02  0.51100000000E-03 0. -1.
    9900012    2    1    2    0    0 -0.23346213703E+02 -0.21678596396E+02  0.13101123705E+01  0.59301895967E+02  0.49999912348E+02 0.  0.
         12    1    1    2    0    0  0.23346213703E+02  0.21678596396E+02 -0.13101123705E+01  0.31886104033E+02  0.00000000000E+00 0. -1.
         11    1    3    3    0    0  0.26119798196E+01  0.15078965899E+01 -0.12278075798E+01  0.32563326639E+01  0.51100000000E-03 0. -1.
        -11    1    3    3    0    0 -0.27894626561E+02 -0.89532217788E+01 -0.15374100965E+02  0.33085243718E+02  0.51100000000E-03 0.  1.
        -12    1    3    3    0    0  0.19364330376E+01 -0.14233271207E+02  0.17912020915E+02  0.22960319585E+02  0.00000000000E+00 0.  1.
</event>
<event>
 7    1  0.6164995E-012  0.5930194E+02  0.7816164E-02  0.1266605E+00
        -11   -1    0    0    0    0  0.00000000000E+00  0.00000000000E+00  0.45593999997E+02  0.45594000000E+02  0.51100000000E-03 0. -1.
         11   -1    0    0    0    0 -0.00000000000E+00 -0.00000000000E+00 -0.45593999997E+02  0.45594000000E+02  0.51100000000E-03 0.  1.
    9900012    2    1    2    0    0  0.30697287115E+02 -0.21241775106E+01  0.83597219319E+01  0.59301944786E+02  0.50000001383E+02 0.  0.
         12    1    1    2    0    0 -0.30697287115E+02  0.21241775106E+01 -0.83597219319E+01  0.31886055214E+02  0.00000000000E+00 0. -1.
         11    1    3    3    0    0  0.11065596904E+02 -0.40705925258E+01  0.17930336469E+02  0.21459592832E+02  0.51100000000E-03 0. -1.
        -11    1    3    3    0    0  0.22486655630E+02 -0.79578899558E+01 -0.11327500795E+00  0.23853522286E+02  0.51100000000E-03 0.  1.
        -12    1    3    3    0    0 -0.28549654186E+01  0.99043049710E+01 -0.94573395296E+01  0.13988829668E+02  0.00000000000E+00 0.  1.
</event>
<event>
 7    1  0.6164995E-012  0.5930196E+02  0.7816164E-02  0.1266605E+00
        -11   -1    0    0    0    0  0.00000000000E+00  0.00000000000E+00  0.45593999997E+02  0.45594000000E+02  0.51100000000E-03 0. -1.
         11   -1    0    0    0    0 -0.00000000000E+00 -0.00000000000E+00 -0.45593999997E+02  0.45594000000E+02  0.51100000000E-03 0.  1.
    9900012    2    1    2    0    0  0.23416405379E+02  0.10512201618E+02 -0.18917847877E+02  0.59301962428E+02  0.50000033558E+02 0.  0.
         12    1    1    2    0    0 -0.23416405379E+02 -0.10512201618E+02  0.18917847877E+02  0.31886037572E+02  0.00000000000E+00 0. -1.
         11    1    3    3    0    0 -0.45267238870E+01 -0.35050477596E+01  0.69788930807E+01  0.90267124602E+01  0.51100000000E-03 0. -1.
        -11    1    3    3    0    0  0.65618517993E+01  0.62196116177E+01  0.61752372923E+01  0.10948745297E+02  0.51100000000E-03 0.  1.
        -12    1    3    3    0    0  0.21381277467E+02  0.77976377595E+01 -0.32071978250E+02  0.39326504671E+02  0.00000000000E+00 0.  1.
</event>
<event>
 7    1  0.6164995E-012  0.5930196E+02  0.7816164E-02  0.1266605E+00
        -11   -1    0    0    0    0  0.00000000000E+00  0.00000000000E+00  0.45593999997E+02  0.45594000000E+02  0.51100000000E-03 0.  1.
         11   -1    0    0    0    0 -0.00000000000E+00 -0.00000000000E+00 -0.45593999997E+02  0.45594000000E+02  0.51100000000E-03 0. -1.
    9900012    2    1    2    0    0  0.89651091951E+01  0.24580037402E+02  0.18225475327E+02  0.59301962735E+02  0.50000034117E+02 0.  0.
         12    1    1    2    0    0 -0.89651091951E+01 -0.24580037402E+02 -0.18225475327E+02  0.31886037265E+02  0.00000000000E+00 0. -1.
         11    1    3    3    0    0 -0.11922937453E+02  0.32311212029E+01 -0.31046672319E+01  0.12737171610E+02  0.51100000000E-03 0. -1.
        -11    1    3    3    0    0  0.12978302646E+01  0.19551725848E+02  0.18009860705E+02  0.26614083300E+02  0.51100000000E-03 0.  1.
        -12    1    3    3    0    0  0.19590216384E+02  0.17971903511E+01  0.33202818543E+01  0.19950707825E+02  0.00000000000E+00 0.  1.
</event>
<event>
 7    1  0.6164995E-012  0.5930187E+02  0.7816164E-02  0.1266605E+00
        -11   -1    0    0    0    0  0.00000000000E+00  0.00000000000E+00  0.45593999997E+02  0.45594000000E+02  0.51100000000E-03 0.  1.
         11   -1    0    0    0    0 -0.00000000000E+00 -0.00000000000E+00 -0.45593999997E+02  0.45594000000E+02  0.51100000000E-03 0. -1.
    9900012    2    1    2    0    0  0.27065076354E+02 -0.56255642097E+01  0.15892130855E+02  0.59301872078E+02  0.49999868781E+02 0.  0.
         12    1    1    2    0    0 -0.27065076354E+02  0.56255642097E+01 -0.15892130855E+02  0.31886127922E+02  0.00000000000E+00 0. -1.
         11    1    3    3    0    0  0.11461645546E+02 -0.14492966210E+02  0.13434710187E+02  0.22845280175E+02  0.51100000000E-03 0. -1.
        -11    1    3    3    0    0  0.15968927392E+02  0.13929459210E+00  0.14506025746E+02  0.21574309450E+02  0.51100000000E-03 0.  1.
        -12    1    3    3    0    0 -0.36549658356E+00  0.87281074086E+01 -0.12048605078E+02  0.14882282453E+02  0.00000000000E+00 0.  1.
</event>
<event>
 7    1  0.6164995E-012  0.5930196E+02  0.7816164E-02  0.1266605E+00
        -11   -1    0    0    0    0  0.00000000000E+00  0.00000000000E+00  0.45593999997E+02  0.45594000000E+02  0.51100000000E-03 0.  1.
         11   -1    0    0    0    0 -0.00000000000E+00 -0.00000000000E+00 -0.45593999997E+02  0.45594000000E+02  0.51100000000E-03 0. -1.
    9900012    2    1    2    0    0 -0.25759652448E+02 -0.59257116472E+01  0.17833835321E+02  0.59301961754E+02  0.50000032329E+02 0.  0.
         12    1    1    2    0    0  0.25759652448E+02  0.59257116472E+01 -0.17833835321E+02  0.31886038246E+02  0.00000000000E+00 0. -1.
         11    1    3    3    0    0  0.76775428594E+01  0.15188504975E+01  0.68621079091E+00  0.78563640892E+01  0.51100000000E-03 0. -1.
        -11    1    3    3    0    0 -0.26814987957E+02 -0.91419378790E+01  0.27209717180E+02  0.39280877238E+02  0.51100000000E-03 0.  1.
         12    1    3    3    0    0 -0.66222073507E+01  0.16973757344E+01 -0.10062092650E+02  0.12164720427E+02  0.00000000000E+00 0. -1.
</event>
<event>
 7    1  0.6164995E-012  0.5930195E+02  0.7816164E-02  0.1266605E+00
        -11   -1    0    0    0    0  0.00000000000E+00  0.00000000000E+00  0.45593999997E+02  0.45594000000E+02  0.51100000000E-03 0. -1.
         11   -1    0    0    0    0 -0.00000000000E+00 -0.00000000000E+00 -0.45593999997E+02  0.45594000000E+02  0.51100000000E-03 0.  1.
    9900012    2    1    2    0    0 -0.24632265742E+02 -0.18462653512E+02  0.83127824167E+01  0.59301945967E+02  0.50000003536E+02 0.  0.
         12    1    1    2    0    0  0.24632265742E+02  0.18462653512E+02 -0.83127824167E+01  0.31886054033E+02  0.00000000000E+00 0. -1.
         11    1    3    3    0    0 -0.51802642423E+01 -0.24476204373E+02 -0.77585504471E+00  0.25030414888E+02  0.51100000000E-03 0. -1.
        -11    1    3    3    0    0 -0.14812791241E+02 -0.71809326982E+01  0.11497546817E+02  0.20079296846E+02  0.51100000000E-03 0.  1.
         12    1    3    3    0    0 -0.46392102589E+01  0.13194483559E+02 -0.24089093559E+01  0.14192234233E+02  0.00000000000E+00 0. -1.
</event>
<event>
 7    1  0.6164995E-012  0.5930194E+02  0.7816164E-02  0.1266605E+00
        -11   -1    0    0    0    0  0.00000000000E+00  0.00000000000E+00  0.45593999997E+02  0.45594000000E+02  0.51100000000E-03 0. -1.
         11   -1    0    0    0    0 -0.00000000000E+00 -0.00000000000E+00 -0.45593999997E+02  0.45594000000E+02  0.51100000000E-03 0.  1.
    9900012    2    1    2    0    0  0.16105590163E+02 -0.19406399295E+02 -0.19512104177E+02  0.59301943839E+02  0.49999999655E+02 0.  0.
         12    1    1    2    0    0 -0.16105590163E+02  0.19406399295E+02  0.19512104177E+02  0.31886056161E+02  0.00000000000E+00 0. -1.
         11    1    3    3    0    0 -0.17857860909E+01 -0.61854342413E+01  0.11903964446E+02  0.13533403064E+02  0.51100000000E-03 0. -1.
        -11    1    3    3    0    0 -0.15358404298E+00  0.40397565742E+01 -0.15817419307E+02  0.16325868278E+02  0.51100000000E-03 0.  1.
        -12    1    3    3    0    0  0.18044960297E+02 -0.17260721628E+02 -0.15598649316E+02  0.29442672496E+02  0.00000000000E+00 0.  1.
</event>
<event>
 7    1  0.6164995E-012  0.5930195E+02  0.7816164E-02  0.1266605E+00
        -11   -1    0    0    0    0  0.00000000000E+00  0.00000000000E+00  0.45593999997E+02  0.45594000000E+02  0.51100000000E-03 0. -1.
         11   -1    0    0    0    0 -0.00000000000E+00 -0.00000000000E+00 -0.45593999997E+02  0.45594000000E+02  0.51100000000E-03 0.  1.
    9900012    2    1    2    0    0 -0.17958262904E+02 -0.26412493643E+01 -0.26215354873E+02  0.59301949197E+02  0.50000009427E+02 0.  0.
         12    1    1    2    0    0  0.17958262904E+02  0.26412493643E+01  0.26215354873E+02  0.31886050803E+02  0.00000000000E+00 0. -1.
         11    1    3    3    0    0  0.66518335885E+00  0.14362266538E+01  0.45226750244E+00  0.16461354916E+01  0.51100000000E-03 0. -1.
        -11    1    3    3    0    0 -0.15295026127E+02 -0.12122453758E+02  0.86015936565E+01  0.21327895420E+02  0.51100000000E-03 0.  1.
         12    1    3    3    0    0 -0.33284201354E+01  0.80449777400E+01 -0.35269216032E+02  0.36327918285E+02  0.00000000000E+00 0. -1.
</event>
<event>
 7    1  0.6164995E-012  0.5930195E+02  0.7816164E-02  0.1266605E+00
        -11   -1    0    0    0    0  0.00000000000E+00  0.00000000000E+00  0.45593999997E+02  0.45594000000E+02  0.51100000000E-03 0. -1.
         11   -1    0    0    0    0 -0.00000000000E+00 -0.00000000000E+00 -0.45593999997E+02  0.45594000000E+02  0.51100000000E-03 0.  1.
    9900012    2    1    2    0    0  0.10565679727E+02  0.19853652401E+02 -0.22603515628E+02  0.59301952573E+02  0.50000015585E+02 0.  0.
         12    1    1    2    0    0 -0.10565679727E+02 -0.19853652401E+02  0.22603515628E+02  0.31886047427E+02  0.00000000000E+00 0. -1.
         11    1    3    3    0    0 -0.24481166987E+01  0.22964941548E+02  0.20769854860E+01  0.23188266098E+02  0.51100000000E-03 0. -1.
        -11    1    3    3    0    0  0.27711940349E+01  0.66418117280E+01 -0.19936889540E+02  0.21196054921E+02  0.51100000000E-03 0.  1.
        -12    1    3    3    0    0  0.10242602391E+02 -0.97531008752E+01 -0.47436115739E+01  0.14917631554E+02  0.00000000000E+00 0.  1.
</event>
<event>
 7    1  0.6164995E-012  0.5930178E+02  0.7816164E-02  0.1266605E+00
        -11   -1    0    0    0    0  0.00000000000E+00  0.00000000000E+00  0.45593999997E+02  0.45594000000E+02  0.51100000000E-03 0. -1.
         11   -1    0    0    0    0 -0.00000000000E+00 -0.00000000000E+00 -0.45593999997E+02  0.45594000000E+02  0.51100000000E-03 0.  1.
    9900012    2    1    2    0    0 -0.15775423357E+01 -0.21647235948E+02 -0.23358929507E+02  0.59301779595E+02  0.49999700113E+02 0.  0.
         12    1    1    2    0    0  0.15775423357E+01  0.21647235948E+02  0.23358929507E+02  0.31886220405E+02  0.00000000000E+00 0. -1.
         11    1    3    3    0    0  0.81489635895E+01 -0.96352289694E+01  0.82130981101E+01  0.15056501111E+02  0.51100000000E-03 0. -1.
        -11    1    3    3    0    0  0.10978198681E+01 -0.17781092028E+02 -0.13273782137E+02  0.22216339362E+02  0.51100000000E-03 0.  1.
        -12    1    3    3    0    0 -0.10824325793E+02  0.57690850493E+01 -0.18298245480E+02  0.22028939122E+02  0.00000000000E+00 0.  1.
</event>
<event>
 7    1  0.6164995E-012  0.5930198E+02  0.7816164E-02  0.1266605E+00
        -11   -1    0    0    0    0  0.00000000000E+00  0.00000000000E+00  0.45593999997E+02  0.45594000000E+02  0.51100000000E-03 0.  1.
         11   -1    0    0    0    0 -0.00000000000E+00 -0.00000000000E+00 -0.45593999997E+02  0.45594000000E+02  0.51100000000E-03 0. -1.
    9900012    2    1    2    0    0  0.18565526571E+02  0.16249504876E+02  0.20198844072E+02  0.59301976613E+02  0.50000059428E+02 0.  0.
         12    1    1    2    0    0 -0.18565526571E+02 -0.16249504876E+02 -0.20198844072E+02  0.31886023387E+02  0.00000000000E+00 0. -1.
         11    1    3    3    0    0  0.13577183528E+02  0.31413479919E+01  0.44351227238E+01  0.14624578408E+02  0.51100000000E-03 0. -1.
        -11    1    3    3    0    0  0.14611719813E+02  0.62813868909E+01 -0.82533470834E+01  0.17918591337E+02  0.51100000000E-03 0.  1.
        -12    1    3    3    0    0 -0.96233767700E+01  0.68267699927E+01  0.24017068432E+02  0.26758806869E+02  0.00000000000E+00 0.  1.
</event>
<event>
 7    1  0.6164995E-012  0.5930193E+02  0.7816164E-02  0.1266605E+00
        -11   -1    0    0    0    0  0.00000000000E+00  0.00000000000E+00  0.45593999997E+02  0.45594000000E+02  0.51100000000E-03 0. -1.
         11   -1    0    0    0    0 -0.00000000000E+00 -0.00000000000E+00 -0.45593999997E+02  0.45594000000E+02  0.51100000000E-03 0.  1.
    9900012    2    1    2    0    0  0.72742407028E+01 -0.12360251211E+01 -0.31020620081E+02  0.59301933982E+02  0.49999981678E+02 0.  0.
         12    1    1    2    0    0 -0.72742407028E+01  0.12360251211E+01  0.31020620081E+02  0.31886066018E+02  0.00000000000E+00 0. -1.
         11    1    3    3    0    0 -0.34544342738E+01 -0.13118102176E+02 -0.84399311897E+01  0.15976550304E+02  0.51100000000E-03 0. -1.
        -11    1    3    3    0    0  0.18195986473E+02 -0.46894291571E+01 -0.11002604774E+02  0.21774801529E+02  0.51100000000E-03 0.  1.
        -12    1    3    3    0    0 -0.74673114966E+01  0.16571506212E+02 -0.11578084118E+02  0.21550582149E+02  0.00000000000E+00 0.  1.
</event>
<event>
 7    1  0.6164995E-012  0.5930196E+02  0.7816164E-02  0.1266605E+00
        -11   -1    0    0    0    0  0.00000000000E+00  0.00000000000E+00  0.45593999997E+02  0.45594000000E+02  0.51100000000E-03 0.  1.
         11   -1    0    0    0    0 -0.00000000000E+00 -0.00000000000E+00 -0.45593999997E+02  0.45594000000E+02  0.51100000000E-03 0. -1.
    9900012    2    1    2    0    0 -0.27593519555E+02  0.15340095615E+02 -0.44719705844E+01  0.59301962683E+02  0.50000034022E+02 0.  0.
         12    1    1    2    0    0  0.27593519555E+02 -0.15340095615E+02  0.44719705844E+01  0.31886037317E+02  0.00000000000E+00 0. -1.
         11    1    3    3    0    0 -0.30345315108E+01 -0.83165013769E+01  0.19078121585E+01  0.90560655991E+01  0.51100000000E-03 0. -1.
        -11    1    3    3    0    0  0.46044897103E+01 -0.24724105935E+00 -0.11312818787E+02  0.12216477512E+02  0.51100000000E-03 0.  1.
        -12    1    3    3    0    0 -0.29163477754E+02  0.23903838051E+02  0.49330360445E+01  0.38029419571E+02  0.00000000000E+00 0.  1.
</event>
<event>
 7    1  0.6164995E-012  0.5930194E+02  0.7816164E-02  0.1266605E+00
        -11   -1    0    0    0    0  0.00000000000E+00  0.00000000000E+00  0.45593999997E+02  0.45594000000E+02  0.51100000000E-03 0.  1.
         11   -1    0    0    0    0 -0.00000000000E+00 -0.00000000000E+00 -0.45593999997E+02  0.45594000000E+02  0.51100000000E-03 0. -1.
    9900012    2    1    2    0    0  0.28097471051E+02 -0.13970572538E+02  0.56635726499E+01  0.59301939854E+02  0.49999992387E+02 0.  0.
         12    1    1    2    0    0 -0.28097471051E+02  0.13970572538E+02 -0.56635726499E+01  0.31886060146E+02  0.00000000000E+00 0. -1.
         11    1    3    3    0    0  0.55048196033E+01 -0.11622912660E+02  0.45552756006E+01  0.13643521306E+02  0.51100000000E-03 0. -1.
        -11    1    3    3    0    0  0.32664665758E+02 -0.83776459936E+01 -0.97465887712E+00  0.33735964513E+02  0.51100000000E-03 0.  1.
        -12    1    3    3    0    0 -0.10072014310E+02  0.60299861153E+01  0.20829559264E+01  0.11922454034E+02  0.00000000000E+00 0.  1.
</event>
<event>
 7    1  0.6164995E-012  0.5930200E+02  0.7816164E-02  0.1266605E+00
        -11   -1    0    0    0    0  0.00000000000E+00  0.00000000000E+00  0.45593999997E+02  0.45594000000E+02  0.51100000000E-03 0. -1.
         11   -1    0    0    0    0 -0.00000000000E+00 -0.00000000000E+00 -0.45593999997E+02  0.45594000000E+02  0.51100000000E-03 0.  1.
    9900012    2    1    2    0    0 -0.18827981288E+02 -0.19409118349E+00 -0.25732983614E+02  0.59301999993E+02  0.50000102068E+02 0.  0.
         12    1    1    2    0    0  0.18827981288E+02  0.19409118349E+00  0.25732983614E+02  0.31886000007E+02  0.00000000000E+00 0. -1.
         11    1    3    3    0    0 -0.57173253739E+01  0.73919116785E+01 -0.70912223021E+01  0.11730882392E+02  0.51100000000E-03 0. -1.
        -11    1    3    3    0    0  0.19907400824E+01  0.12902507409E+02  0.38434045704E+01  0.13609169794E+02  0.51100000000E-03 0.  1.
        -12    1    3    3    0    0 -0.15101395996E+02 -0.20488510271E+02 -0.22485165882E+02  0.33961947808E+02  0.00000000000E+00 0.  1.
</event>
<event>
 7    1  0.6164995E-012  0.5930193E+02  0.7816164E-02  0.1266605E+00
        -11   -1    0    0    0    0  0.00000000000E+00  0.00000000000E+00  0.45593999997E+02  0.45594000000E+02  0.51100000000E-03 0.  1.
         11   -1    0    0    0    0 -0.00000000000E+00 -0.00000000000E+00 -0.45593999997E+02  0.45594000000E+02  0.51100000000E-03 0. -1.
    9900012    2    1    2    0    0  0.94204563947E+01  0.71820617496E+00  0.30454241464E+02  0.59301927147E+02  0.49999969214E+02 0.  0.
         12    1    1    2    0    0 -0.94204563947E+01 -0.71820617496E+00 -0.30454241464E+02  0.31886072853E+02  0.00000000000E+00 0. -1.
         11    1    3    3    0    0  0.16287606343E+02  0.17955136568E+01 -0.60571623274E+01  0.17469951500E+02  0.51100000000E-03 0. -1.
        -11    1    3    3    0    0  0.44289285305E+01  0.57043179721E+01  0.12069489427E+02  0.14065106710E+02  0.51100000000E-03 0.  1.
        -12    1    3    3    0    0 -0.11296078479E+02 -0.67816254540E+01  0.24441914365E+02  0.27766868938E+02  0.00000000000E+00 0.  1.
</event>
<event>
 7    1  0.6164995E-012  0.5930196E+02  0.7816164E-02  0.1266605E+00
        -11   -1    0    0    0    0  0.00000000000E+00  0.00000000000E+00  0.45593999997E+02  0.45594000000E+02  0.51100000000E-03 0.  1.
         11   -1    0    0    0    0 -0.00000000000E+00 -0.00000000000E+00 -0.45593999997E+02  0.45594000000E+02  0.51100000000E-03 0. -1.
    9900012    2    1    2    0    0 -0.21169976873E+02 -0.18800576118E+02  0.14665950123E+02  0.59301957972E+02  0.50000025431E+02 0.  0.
         12    1    1    2    0    0  0.21169976873E+02  0.18800576118E+02 -0.14665950123E+02  0.31886042028E+02  0.00000000000E+00 0. -1.
         11    1    3    3    0    0 -0.21133863195E-01  0.59518819585E+01 -0.38211254192E+01  0.70729304548E+01  0.51100000000E-03 0. -1.
        -11    1    3    3    0    0 -0.14167956397E+02 -0.12594029740E+01 -0.78553126900E+01  0.16248785248E+02  0.51100000000E-03 0.  1.
        -12    1    3    3    0    0 -0.69808866125E+01 -0.23493055102E+02  0.26342388233E+02  0.35980242269E+02  0.00000000000E+00 0.  1.
</event>
<event>
 7    1  0.6164995E-012  0.5930195E+02  0.7816164E-02  0.1266605E+00
        -11   -1    0    0    0    0  0.00000000000E+00  0.00000000000E+00  0.45593999997E+02  0.45594000000E+02  0.51100000000E-03 0.  1.
         11   -1    0    0    0    0 -0.00000000000E+00 -0.00000000000E+00 -0.45593999997E+02  0.45594000000E+02  0.51100000000E-03 0. -1.
    9900012    2    1    2    0    0  0.23212406599E+02 -0.11329378725E+02  0.18696242813E+02  0.59301950735E+02  0.50000012232E+02 0.  0.
         12    1    1    2    0    0 -0.23212406599E+02  0.11329378725E+02 -0.18696242813E+02  0.31886049265E+02  0.00000000000E+00 0. -1.
         11    1    3    3    0    0  0.49854975405E+01  0.29301538955E+01  0.20241850512E+02  0.21051686393E+02  0.51100000000E-03 0. -1.
        -11    1    3    3    0    0 -0.41540155082E+01 -0.98475269987E+01  0.81729931193E+01  0.13454644166E+02  0.51100000000E-03 0.  1.
         12    1    3    3    0    0  0.22380924567E+02 -0.44120056215E+01 -0.97186008183E+01  0.24795620176E+02  0.00000000000E+00 0. -1.
</event>
<event>
 7    1  0.6164995E-012  0.5930191E+02  0.7816164E-02  0.1266605E+00
        -11   -1    0    0    0    0  0.00000000000E+00  0.00000000000E+00  0.45593999997E+02  0.45594000000E+02  0.51100000000E-03 0.  1.
         11   -1    0    0    0    0 -0.00000000000E+00 -0.00000000000E+00 -0.45593999997E+02  0.45594000000E+02  0.51100000000E-03 0. -1.
    9900012    2    1    2    0    0  0.29869342317E+02 -0.28520969250E+01  0.10789362794E+02  0.59301914997E+02  0.49999947055E+02 0.  0.
         12    1    1    2    0    0 -0.29869342317E+02  0.28520969250E+01 -0.10789362794E+02  0.31886085003E+02  0.00000000000E+00 0. -1.
         11    1    3    3    0    0  0.20186768763E+02  0.89288082741E-01 -0.13633923169E+02  0.24359750957E+02  0.51100000000E-03 0. -1.
        -11    1    3    3    0    0  0.12969865276E+02 -0.10517421775E+02  0.15494068685E+02  0.22779370727E+02  0.51100000000E-03 0.  1.
        -12    1    3    3    0    0 -0.32872917215E+01  0.75760367668E+01  0.89292172791E+01  0.12162793313E+02  0.00000000000E+00 0.  1.
</event>
<event>
 7    1  0.6164995E-012  0.5930213E+02  0.7816164E-02  0.1266604E+00
        -11   -1    0    0    0    0  0.00000000000E+00  0.00000000000E+00  0.45593999997E+02  0.45594000000E+02  0.51100000000E-03 0.  1.
         11   -1    0    0    0    0 -0.00000000000E+00 -0.00000000000E+00 -0.45593999997E+02  0.45594000000E+02  0.51100000000E-03 0. -1.
    9900012    2    1    2    0    0  0.11085208143E+02  0.24616329671E+01  0.29795426548E+02  0.59302126645E+02  0.50000333049E+02 0.  0.
         12    1    1    2    0    0 -0.11085208143E+02 -0.24616329671E+01 -0.29795426548E+02  0.31885873355E+02  0.00000000000E+00 0. -1.
         11    1    3    3    0    0 -0.47146677438E+01  0.25270826208E+01 -0.34792238974E+01  0.63811627229E+01  0.51100000000E-03 0. -1.
        -11    1    3    3    0    0  0.13413990259E+02 -0.10024827767E+02 -0.13625725662E+01  0.16801455612E+02  0.51100000000E-03 0.  1.
        -12    1    3    3    0    0  0.23858856280E+01  0.99593781130E+01  0.34637223012E+02  0.36119508310E+02  0.00000000000E+00 0.  1.
</event>
<event>
 7    1  0.6164995E-012  0.5930190E+02  0.7816164E-02  0.1266605E+00
        -11   -1    0    0    0    0  0.00000000000E+00  0.00000000000E+00  0.45593999997E+02  0.45594000000E+02  0.51100000000E-03 0.  1.
         11   -1    0    0    0    0 -0.00000000000E+00 -0.00000000000E+00 -0.45593999997E+02  0.45594000000E+02  0.51100000000E-03 0. -1.
    9900012    2    1    2    0    0  0.17952196660E+02 -0.21594814734E+02 -0.15103175405E+02  0.59301901216E+02  0.49999921922E+02 0.  0.
         12    1    1    2    0    0 -0.17952196660E+02  0.21594814734E+02  0.15103175405E+02  0.31886098784E+02  0.00000000000E+00 0. -1.
         11    1    3    3    0    0  0.95044799710E+01  0.21523238760E+01 -0.21231826650E+02  0.23361466152E+02  0.51100000000E-03 0. -1.
        -11    1    3    3    0    0  0.10392707889E+02 -0.10311728581E+02 -0.77171252451E+01  0.16549747608E+02  0.51100000000E-03 0.  1.
        -12    1    3    3    0    0 -0.19449911998E+01 -0.13435410029E+02  0.13845776490E+02  0.19390687456E+02  0.00000000000E+00 0.  1.
</event>
<event>
 7    1  0.6164995E-012  0.5930187E+02  0.7816164E-02  0.1266605E+00
        -11   -1    0    0    0    0  0.00000000000E+00  0.00000000000E+00  0.45593999997E+02  0.45594000000E+02  0.51100000000E-03 0. -1.
         11   -1    0    0    0    0 -0.00000000000E+00 -0.00000000000E+00 -0.45593999997E+02  0.45594000000E+02  0.51100000000E-03 0.  1.
    9900012    2    1    2    0    0  0.15651718292E+02  0.25100531078E+02 -0.11904306818E+02  0.59301867172E+02  0.49999859833E+02 0.  0.
         12    1    1    2    0    0 -0.15651718292E+02 -0.25100531078E+02  0.11904306818E+02  0.31886132828E+02  0.00000000000E+00 0. -1.
         11    1    3    3    0    0  0.94909083614E+01  0.80336359084E+01 -0.22925260966E+01  0.12644062781E+02  0.51100000000E-03 0. -1.
        -11    1    3    3    0    0  0.21331456544E+02  0.46494702335E+01 -0.14802917007E+02  0.26377546586E+02  0.51100000000E-03 0.  1.
         12    1    3    3    0    0 -0.15170646613E+02  0.12417424936E+02  0.51911362849E+01  0.20280257805E+02  0.00000000000E+00 0. -1.
</event>
<event>
 7    1  0.6164995E-012  0.5930198E+02  0.7816164E-02  0.1266605E+00
        -11   -1    0    0    0    0  0.00000000000E+00  0.00000000000E+00  0.45593999997E+02  0.45594000000E+02  0.51100000000E-03 0.  1.
         11   -1    0    0    0    0 -0.00000000000E+00 -0.00000000000E+00 -0.45593999997E+02  0.45594000000E+02  0.51100000000E-03 0. -1.
    9900012    2    1    2    0    0 -0.39591960334E+01 -0.30534760670E+02  0.82868151033E+01  0.59301981952E+02  0.50000069165E+02 0.  0.
         12    1    1    2    0    0  0.39591960334E+01  0.30534760670E+02 -0.82868151033E+01  0.31886018048E+02  0.00000000000E+00 0. -1.
         11    1    3    3    0    0 -0.14684348613E+01 -0.14508088723E+02 -0.68940271409E+01  0.16129741158E+02  0.51100000000E-03 0. -1.
        -11    1    3    3    0    0  0.49384860837E+01 -0.24731964105E+02  0.14001715348E+01  0.25259041428E+02  0.51100000000E-03 0.  1.
         12    1    3    3    0    0 -0.74292472557E+01  0.87052921576E+01  0.13780670709E+02  0.17913199366E+02  0.00000000000E+00 0. -1.
</event>
<event>
 7    1  0.6164995E-012  0.5930194E+02  0.7816164E-02  0.1266605E+00
        -11   -1    0    0    0    0  0.00000000000E+00  0.00000000000E+00  0.45593999997E+02  0.45594000000E+02  0.51100000000E-03 0.  1.
         11   -1    0    0    0    0 -0.00000000000E+00 -0.00000000000E+00 -0.45593999997E+02  0.45594000000E+02  0.51100000000E-03 0. -1.
    9900012    2    1    2    0    0  0.23009427496E+01 -0.21999679308E+02  0.22966073973E+02  0.59301940649E+02  0.49999993838E+02 0.  0.
         12    1    1    2    0    0 -0.23009427496E+01  0.21999679308E+02 -0.22966073973E+02  0.31886059351E+02  0.00000000000E+00 0. -1.
         11    1    3    3    0    0  0.65619319506E+01  0.42098344760E+01 -0.99411079746E-01  0.77968929750E+01  0.51100000000E-03 0. -1.
        -11    1    3    3    0    0  0.78330711264E+01 -0.17077213389E+02  0.29553465177E+02  0.35019930392E+02  0.51100000000E-03 0.  1.
         12    1    3    3    0    0 -0.12094060327E+02 -0.91323003956E+01 -0.64879801242E+01  0.16485117282E+02  0.00000000000E+00 0. -1.
</event>
<event>
 7    1  0.6164995E-012  0.5930191E+02  0.7816164E-02  0.1266605E+00
        -11   -1    0    0    0    0  0.00000000000E+00  0.00000000000E+00  0.45593999997E+02  0.45594000000E+02  0.51100000000E-03 0.  1.
         11   -1    0    0    0    0 -0.00000000000E+00 -0.00000000000E+00 -0.45593999997E+02  0.45594000000E+02  0.51100000000E-03 0. -1.
    9900012    2    1    2    0    0  0.27453862106E+01  0.24809208790E+02  0.19841593033E+02  0.59301908983E+02  0.49999936087E+02 0.  0.
         12    1    1    2    0    0 -0.27453862106E+01 -0.24809208790E+02 -0.19841593033E+02  0.31886091017E+02  0.00000000000E+00 0. -1.
         11    1    3    3    0    0 -0.89539918022E+00  0.19345356766E+02 -0.55887253817E+01  0.20156349366E+02  0.51100000000E-03 0. -1.
        -11    1    3    3    0    0  0.49467602541E+00 -0.52062831879E+01 -0.46974379951E+01  0.70296524083E+01  0.51100000000E-03 0.  1.
        -12    1    3    3    0    0  0.31461093654E+01  0.10670135212E+02  0.30127756410E+02  0.32115907209E+02  0.00000000000E+00 0.  1.
</event>
<event>
 7    1  0.6164995E-012  0.5930202E+02  0.7816164E-02  0.1266604E+00
        -11   -1    0    0    0    0  0.00000000000E+00  0.00000000000E+00  0.45593999997E+02  0.45594000000E+02  0.51100000000E-03 0.  1.
         11   -1    0    0    0    0 -0.00000000000E+00 -0.00000000000E+00 -0.45593999997E+02  0.45594000000E+02  0.51100000000E-03 0. -1.
    9900012    2    1    2    0    0  0.13937638591E+02  0.75064787812E+01  0.27678701824E+02  0.59302023022E+02  0.50000144066E+02 0.  0.
         12    1    1    2    0    0 -0.13937638591E+02 -0.75064787812E+01 -0.27678701824E+02  0.31885976978E+02  0.00000000000E+00 0. -1.
         11    1    3    3    0    0 -0.11280068607E+02 -0.55017901548E+01  0.47220270207E+01  0.13409220042E+02  0.51100000000E-03 0. -1.
        -11    1    3    3    0    0  0.15555973941E+01  0.15391151857E+02  0.56044545592E+01  0.16453490508E+02  0.51100000000E-03 0.  1.
        -12    1    3    3    0    0  0.23662109804E+02 -0.23828829212E+01  0.17352220244E+02  0.29439312471E+02  0.00000000000E+00 0.  1.
</event>
<event>
 7    1  0.6164995E-012  0.5930195E+02  0.7816164E-02  0.1266605E+00
        -11   -1    0    0    0    0  0.00000000000E+00  0.00000000000E+00  0.45593999997E+02  0.45594000000E+02  0.51100000000E-03 0. -1.
         11   -1    0    0    0    0 -0.00000000000E+00 -0.00000000000E+00 -0.45593999997E+02  0.45594000000E+02  0.51100000000E-03 0.  1.
    9900012    2    1    2    0    0 -0.29864324273E+02 -0.11120238216E+02 -0.10873928728E+01  0.59301953122E+02  0.50000016585E+02 0.  0.
         12    1    1    2    0    0  0.29864324273E+02  0.11120238216E+02  0.10873928728E+01  0.31886046878E+02  0.00000000000E+00 0. -1.
         11    1    3    3    0    0 -0.16071383143E+02  0.30036145396E+01  0.98579154088E+00  0.16379341918E+02  0.51100000000E-03 0. -1.
        -11    1    3    3    0    0 -0.33129119525E+01  0.12917909161E+02 -0.38088214825E+01  0.13869206324E+02  0.51100000000E-03 0.  1.
         12    1    3    3    0    0 -0.10480029178E+02 -0.27041761916E+02  0.17356370688E+01  0.29053404880E+02  0.00000000000E+00 0. -1.
</event>
<event>
 7    1  0.6164995E-012  0.5930192E+02  0.7816164E-02  0.1266605E+00
        -11   -1    0    0    0    0  0.00000000000E+00  0.00000000000E+00  0.45593999997E+02  0.45594000000E+02  0.51100000000E-03 0. -1.
         11   -1    0    0    0    0 -0.00000000000E+00 -0.00000000000E+00 -0.45593999997E+02  0.45594000000E+02  0.51100000000E-03 0.  1.
    9900012    2    1    2    0    0 -0.15675642522E+01  0.23894250339E+02 -0.21055392710E+02  0.59301921233E+02  0.49999958427E+02 0.  0.
         12    1    1    2    0    0  0.15675642522E+01 -0.23894250339E+02  0.21055392710E+02  0.31886078767E+02  0.00000000000E+00 0. -1.
         11    1    3    3    0    0  0.76524141841E+01  0.17355503834E+02 -0.26433712487E+01  0.19150988695E+02  0.51100000000E-03 0. -1.
        -11    1    3    3    0    0 -0.89667771559E+01  0.19899530777E+02 -0.14583266236E+02  0.26250068039E+02  0.51100000000E-03 0.  1.
        -12    1    3    3    0    0 -0.25320128043E+00 -0.13360784271E+02 -0.38287552259E+01  0.13900864499E+02  0.00000000000E+00 0.  1.
</event>
<event>
 7    1  0.6164995E-012  0.5930195E+02  0.7816164E-02  0.1266605E+00
        -11   -1    0    0    0    0  0.00000000000E+00  0.00000000000E+00  0.45593999997E+02  0.45594000000E+02  0.51100000000E-03 0.  1.
         11   -1    0    0    0    0 -0.00000000000E+00 -0.00000000000E+00 -0.45593999997E+02  0.45594000000E+02  0.51100000000E-03 0. -1.
    9900012    2    1    2    0    0  0.25115844929E+02  0.16008005395E+02  0.11386758662E+02  0.59301950134E+02  0.50000011136E+02 0.  0.
         12    1    1    2    0    0 -0.25115844929E+02 -0.16008005395E+02 -0.11386758662E+02  0.31886049866E+02  0.00000000000E+00 0. -1.
         11    1    3    3    0    0  0.17450088908E+02  0.18100783937E+02 -0.68765475757E+01  0.26065895128E+02  0.51100000000E-03 0. -1.
        -11    1    3    3    0    0 -0.43558423391E+01  0.86341735401E+01  0.11615931866E+01  0.97402060654E+01  0.51100000000E-03 0.  1.
         12    1    3    3    0    0  0.12021598361E+02 -0.10726952082E+02  0.17101713051E+02  0.23495848940E+02  0.00000000000E+00 0. -1.
</event>
<event>
 7    1  0.6164995E-012  0.5930195E+02  0.7816164E-02  0.1266605E+00
        -11   -1    0    0    0    0  0.00000000000E+00  0.00000000000E+00  0.45593999997E+02  0.45594000000E+02  0.51100000000E-03 0.  1.
         11   -1    0    0    0    0 -0.00000000000E+00 -0.00000000000E+00 -0.45593999997E+02  0.45594000000E+02  0.51100000000E-03 0. -1.
    9900012    2    1    2    0    0  0.14928002420E+02 -0.24949941550E+02  0.13091052634E+02  0.59301945075E+02  0.50000001911E+02 0.  0.
         12    1    1    2    0    0 -0.14928002420E+02  0.24949941550E+02 -0.13091052634E+02  0.31886054925E+02  0.00000000000E+00 0. -1.
         11    1    3    3    0    0 -0.72053293449E+01 -0.17351144415E+02  0.19611536259E+01  0.18889814909E+02  0.51100000000E-03 0.  1.
        -11    1    3    3    0    0  0.23040602426E+02  0.22518552320E+01  0.17168962665E+02  0.28822100746E+02  0.51100000000E-03 0. -1.
         12    1    3    3    0    0 -0.90727066153E+00 -0.98506523670E+01 -0.60390636576E+01  0.11590029421E+02  0.00000000000E+00 0. -1.
</event>
<event>
 7    1  0.6164995E-012  0.5930191E+02  0.7816164E-02  0.1266605E+00
        -11   -1    0    0    0    0  0.00000000000E+00  0.00000000000E+00  0.45593999997E+02  0.45594000000E+02  0.51100000000E-03 0.  1.
         11   -1    0    0    0    0 -0.00000000000E+00 -0.00000000000E+00 -0.45593999997E+02  0.45594000000E+02  0.51100000000E-03 0. -1.
    9900012    2    1    2    0    0  0.20526669023E+02  0.23026323890E+02  0.80725911525E+01  0.59301914305E+02  0.49999945792E+02 0.  0.
         12    1    1    2    0    0 -0.20526669023E+02 -0.23026323890E+02 -0.80725911525E+01  0.31886085695E+02  0.00000000000E+00 0. -1.
         11    1    3    3    0    0  0.23416702921E+01 -0.40084737764E+01  0.83468776911E+00  0.47167770465E+01  0.51100000000E-03 0. -1.
        -11    1    3    3    0    0  0.24141775723E+02 -0.14194741614E+01  0.80923127967E+01  0.25501485616E+02  0.51100000000E-03 0.  1.
        -12    1    3    3    0    0 -0.59567769928E+01  0.28454271828E+02 -0.85440941337E+00  0.29083651642E+02  0.00000000000E+00 0.  1.
</event>
<event>
 7    1  0.6164995E-012  0.5930203E+02  0.7816164E-02  0.1266604E+00
        -11   -1    0    0    0    0  0.00000000000E+00  0.00000000000E+00  0.45593999997E+02  0.45594000000E+02  0.51100000000E-03 0. -1.
         11   -1    0    0    0    0 -0.00000000000E+00 -0.00000000000E+00 -0.45593999997E+02  0.45594000000E+02  0.51100000000E-03 0.  1.
    9900012    2    1    2    0    0  0.30383826291E+02  0.88202586055E+01 -0.39674956604E+01  0.59302033121E+02  0.50000162485E+02 0.  0.
         12    1    1    2    0    0 -0.30383826291E+02 -0.88202586055E+01  0.39674956604E+01  0.31885966879E+02  0.00000000000E+00 0. -1.
         11    1    3    3    0    0 -0.31441012031E+01 -0.11049054528E+02 -0.10546196173E+02  0.15594525716E+02  0.51100000000E-03 0. -1.
        -11    1    3    3    0    0 -0.12145994450E+01  0.36153578616E+01  0.35847498753E+01  0.52341662382E+01  0.51100000000E-03 0.  1.
        -12    1    3    3    0    0  0.34742526940E+02  0.16253955272E+02  0.29939506371E+01  0.38473341167E+02  0.00000000000E+00 0.  1.
</event>
<event>
 7    1  0.6164995E-012  0.5930194E+02  0.7816164E-02  0.1266605E+00
        -11   -1    0    0    0    0  0.00000000000E+00  0.00000000000E+00  0.45593999997E+02  0.45594000000E+02  0.51100000000E-03 0. -1.
         11   -1    0    0    0    0 -0.00000000000E+00 -0.00000000000E+00 -0.45593999997E+02  0.45594000000E+02  0.51100000000E-03 0.  1.
    9900012    2    1    2    0    0  0.11783395865E+02 -0.24075347734E+02 -0.17269922688E+02  0.59301936959E+02  0.49999987108E+02 0.  0.
         12    1    1    2    0    0 -0.11783395865E+02  0.24075347734E+02  0.17269922688E+02  0.31886063041E+02  0.00000000000E+00 0. -1.
         11    1    3    3    0    0  0.14017309358E+02 -0.14322867432E+02 -0.91559130654E+00  0.20061600156E+02  0.51100000000E-03 0. -1.
        -11    1    3    3    0    0 -0.89868459714E+01 -0.15214471959E+02 -0.22493577625E+02  0.28604275767E+02  0.51100000000E-03 0.  1.
         12    1    3    3    0    0  0.67529324782E+01  0.54619916566E+01  0.61392462443E+01  0.10636061036E+02  0.00000000000E+00 0. -1.
</event>
<event>
 7    1  0.6164995E-012  0.5930193E+02  0.7816164E-02  0.1266605E+00
        -11   -1    0    0    0    0  0.00000000000E+00  0.00000000000E+00  0.45593999997E+02  0.45594000000E+02  0.51100000000E-03 0.  1.
         11   -1    0    0    0    0 -0.00000000000E+00 -0.00000000000E+00 -0.45593999997E+02  0.45594000000E+02  0.51100000000E-03 0. -1.
    9900012    2    1    2    0    0  0.73942456465E+01  0.30485643616E+02 -0.57159646667E+01  0.59301928003E+02  0.49999970774E+02 0.  0.
         12    1    1    2    0    0 -0.73942456465E+01 -0.30485643616E+02  0.57159646667E+01  0.31886071997E+02  0.00000000000E+00 0. -1.
         11    1    3    3    0    0  0.65930348075E+01  0.13142136842E+02 -0.38650041029E+01  0.15202701264E+02  0.51100000000E-03 0. -1.
        -11    1    3    3    0    0  0.69886271092E+01  0.20663315222E+02  0.14575651621E+02  0.26234769397E+02  0.51100000000E-03 0.  1.
         12    1    3    3    0    0 -0.61874162703E+01 -0.33198084490E+01 -0.16426612185E+02  0.17864457342E+02  0.00000000000E+00 0. -1.
</event>
<event>
 7    1  0.6164995E-012  0.5930197E+02  0.7816164E-02  0.1266605E+00
        -11   -1    0    0    0    0  0.00000000000E+00  0.00000000000E+00  0.45593999997E+02  0.45594000000E+02  0.51100000000E-03 0.  1.
         11   -1    0    0    0    0 -0.00000000000E+00 -0.00000000000E+00 -0.45593999997E+02  0.45594000000E+02  0.51100000000E-03 0. -1.
    9900012    2    1    2    0    0  0.31771870305E+02  0.13703910008E+01 -0.23214844043E+01  0.59301968513E+02  0.50000044655E+02 0.  0.
         12    1    1    2    0    0 -0.31771870305E+02 -0.13703910008E+01  0.23214844043E+01  0.31886031487E+02  0.00000000000E+00 0. -1.
         11    1    3    3    0    0  0.19840426458E+02 -0.66169834775E+01 -0.82010834877E+01  0.22465190028E+02  0.51100000000E-03 0. -1.
        -11    1    3    3    0    0  0.15044781911E+02 -0.61601050902E+01  0.12886653832E+02  0.20745076638E+02  0.51100000000E-03 0.  1.
         12    1    3    3    0    0 -0.31133380642E+01  0.14147479568E+02 -0.70070547491E+01  0.16091701846E+02  0.00000000000E+00 0. -1.
</event>
<event>
 7    1  0.6164995E-012  0.5930195E+02  0.7816164E-02  0.1266605E+00
        -11   -1    0    0    0    0  0.00000000000E+00  0.00000000000E+00  0.45593999997E+02  0.45594000000E+02  0.51100000000E-03 0. -1.
         11   -1    0    0    0    0 -0.00000000000E+00 -0.00000000000E+00 -0.45593999997E+02  0.45594000000E+02  0.51100000000E-03 0.  1.
    9900012    2    1    2    0    0  0.10298322462E+02 -0.18287827239E+02 -0.24004591259E+02  0.59301945491E+02  0.50000002668E+02 0.  0.
         12    1    1    2    0    0 -0.10298322462E+02  0.18287827239E+02  0.24004591259E+02  0.31886054509E+02  0.00000000000E+00 0. -1.
         11    1    3    3    0    0 -0.44851569221E+01 -0.22374739634E+02 -0.13459978902E+02  0.26493709416E+02  0.51100000000E-03 0. -1.
        -11    1    3    3    0    0 -0.35277931381E+01 -0.73823778122E+01 -0.72887028620E+01  0.10957646474E+02  0.51100000000E-03 0.  1.
         12    1    3    3    0    0  0.18311272522E+02  0.11469290207E+02 -0.32559094946E+01  0.21850589600E+02  0.00000000000E+00 0. -1.
</event>
<event>
 7    1  0.6164995E-012  0.5930193E+02  0.7816164E-02  0.1266605E+00
        -11   -1    0    0    0    0  0.00000000000E+00  0.00000000000E+00  0.45593999997E+02  0.45594000000E+02  0.51100000000E-03 0.  1.
         11   -1    0    0    0    0 -0.00000000000E+00 -0.00000000000E+00 -0.45593999997E+02  0.45594000000E+02  0.51100000000E-03 0. -1.
    9900012    2    1    2    0    0 -0.29720554136E+02 -0.11451787044E+02 -0.15055267137E+01  0.59301931328E+02  0.49999976838E+02 0.  0.
         12    1    1    2    0    0  0.29720554136E+02  0.11451787044E+02  0.15055267137E+01  0.31886068672E+02  0.00000000000E+00 0. -1.
         11    1    3    3    0    0 -0.22759755733E+02 -0.69205881718E+01  0.66737835857E+01  0.24707092287E+02  0.51100000000E-03 0.  1.
        -11    1    3    3    0    0 -0.11964831625E+02 -0.16043045635E+02 -0.91481093533E+01  0.22005099728E+02  0.51100000000E-03 0. -1.
        -12    1    3    3    0    0  0.50040332211E+01  0.11511846762E+02  0.96879905389E+00  0.12589739313E+02  0.00000000000E+00 0.  1.
</event>
<event>
 7    1  0.6164995E-012  0.5930201E+02  0.7816164E-02  0.1266605E+00
        -11   -1    0    0    0    0  0.00000000000E+00  0.00000000000E+00  0.45593999997E+02  0.45594000000E+02  0.51100000000E-03 0.  1.
         11   -1    0    0    0    0 -0.00000000000E+00 -0.00000000000E+00 -0.45593999997E+02  0.45594000000E+02  0.51100000000E-03 0. -1.
    9900012    2    1    2    0    0 -0.68320712659E+01  0.29460427262E+02  0.10105548675E+02  0.59302014265E+02  0.50000128096E+02 0.  0.
         12    1    1    2    0    0  0.68320712659E+01 -0.29460427262E+02 -0.10105548675E+02  0.31885985735E+02  0.00000000000E+00 0. -1.
         11    1    3    3    0    0 -0.84395640820E+01  0.17237025306E+02 -0.36394791472E+00  0.19195669867E+02  0.51100000000E-03 0.  1.
        -11    1    3    3    0    0 -0.48341213391E+01  0.42595945979E+01 -0.12994472156E+02  0.14504109147E+02  0.51100000000E-03 0. -1.
        -12    1    3    3    0    0  0.64416141553E+01  0.79638073587E+01  0.23463968746E+02  0.25602235252E+02  0.00000000000E+00 0.  1.
</event>
<event>
 7    1  0.6164995E-012  0.5930197E+02  0.7816164E-02  0.1266605E+00
        -11   -1    0    0    0    0  0.00000000000E+00  0.00000000000E+00  0.45593999997E+02  0.45594000000E+02  0.51100000000E-03 0.  1.
         11   -1    0    0    0    0 -0.00000000000E+00 -0.00000000000E+00 -0.45593999997E+02  0.45594000000E+02  0.51100000000E-03 0. -1.
    9900012    2    1    2    0    0  0.18454394976E+02 -0.13457093652E+02  0.22249969428E+02  0.59301965392E+02  0.50000038963E+02 0.  0.
         12    1    1    2    0    0 -0.18454394976E+02  0.13457093652E+02 -0.22249969428E+02  0.31886034608E+02  0.00000000000E+00 0. -1.
         11    1    3    3    0    0  0.78033283753E+01  0.87744407672E+01  0.19204961507E+01  0.11898363343E+02  0.51100000000E-03 0. -1.
        -11    1    3    3    0    0  0.19602684511E+02 -0.18469371832E+01  0.14311086372E+02  0.24340986225E+02  0.51100000000E-03 0.  1.
        -12    1    3    3    0    0 -0.89516179111E+01 -0.20384597236E+02  0.60183869050E+01  0.23062615824E+02  0.00000000000E+00 0.  1.
</event>
<event>
 7    1  0.6164995E-012  0.5930192E+02  0.7816164E-02  0.1266605E+00
        -11   -1    0    0    0    0  0.00000000000E+00  0.00000000000E+00  0.45593999997E+02  0.45594000000E+02  0.51100000000E-03 0. -1.
         11   -1    0    0    0    0 -0.00000000000E+00 -0.00000000000E+00 -0.45593999997E+02  0.45594000000E+02  0.51100000000E-03 0.  1.
    9900012    2    1    2    0    0  0.30550106617E+02  0.80681042217E+01  0.42800326840E+01  0.59301921536E+02  0.49999958980E+02 0.  0.
         12    1    1    2    0    0 -0.30550106617E+02 -0.80681042217E+01 -0.42800326840E+01  0.31886078464E+02  0.00000000000E+00 0. -1.
         11    1    3    3    0    0  0.98880195879E+01  0.37904540825E+01  0.11386644427E+02  0.15549795660E+02  0.51100000000E-03 0. -1.
        -11    1    3    3    0    0  0.29053652688E+02  0.11214601619E+02 -0.76505682387E+00  0.31152324732E+02  0.51100000000E-03 0.  1.
        -12    1    3    3    0    0 -0.83915656589E+01 -0.69369514801E+01 -0.63415549189E+01  0.12599801143E+02  0.00000000000E+00 0.  1.
</event>
<event>
 7    1  0.6164995E-012  0.5930191E+02  0.7816164E-02  0.1266605E+00
        -11   -1    0    0    0    0  0.00000000000E+00  0.00000000000E+00  0.45593999997E+02  0.45594000000E+02  0.51100000000E-03 0.  1.
         11   -1    0    0    0    0 -0.00000000000E+00 -0.00000000000E+00 -0.45593999997E+02  0.45594000000E+02  0.51100000000E-03 0. -1.
    9900012    2    1    2    0    0  0.14911352085E+02  0.24257597505E+02  0.14350734478E+02  0.59301905259E+02  0.49999929296E+02 0.  0.
         12    1    1    2    0    0 -0.14911352085E+02 -0.24257597505E+02 -0.14350734478E+02  0.31886094741E+02  0.00000000000E+00 0. -1.
         11    1    3    3    0    0 -0.42421556308E+01 -0.81051252425E+01  0.61962517984E+00  0.91691261970E+01  0.51100000000E-03 0. -1.
        -11    1    3    3    0    0  0.13592666176E+02  0.34295478168E+01  0.15143686474E+02  0.20636220882E+02  0.51100000000E-03 0.  1.
        -12    1    3    3    0    0  0.55608415395E+01  0.28933174931E+02 -0.14125771755E+01  0.29496558181E+02  0.00000000000E+00 0.  1.
</event>
<event>
 7    1  0.6164995E-012  0.5930198E+02  0.7816164E-02  0.1266605E+00
        -11   -1    0    0    0    0  0.00000000000E+00  0.00000000000E+00  0.45593999997E+02  0.45594000000E+02  0.51100000000E-03 0.  1.
         11   -1    0    0    0    0 -0.00000000000E+00 -0.00000000000E+00 -0.45593999997E+02  0.45594000000E+02  0.51100000000E-03 0. -1.
    9900012    2    1    2    0    0 -0.57229249741E+01  0.15353525788E+02  0.27353895242E+02  0.59301980974E+02  0.50000067382E+02 0.  0.
         12    1    1    2    0    0  0.57229249741E+01 -0.15353525788E+02 -0.27353895242E+02  0.31886019026E+02  0.00000000000E+00 0. -1.
         11    1    3    3    0    0 -0.95220970550E+01  0.27099134430E+02  0.35718111885E+00  0.28725615708E+02  0.51100000000E-03 0. -1.
        -11    1    3    3    0    0 -0.18299131481E+01 -0.75826795162E+00  0.30927655734E+01  0.36727035777E+01  0.51100000000E-03 0.  1.
        -12    1    3    3    0    0  0.56290852290E+01 -0.10987340691E+02  0.23903948550E+02  0.26903661688E+02  0.00000000000E+00 0.  1.
</event>
<event>
 7    1  0.6164995E-012  0.5930194E+02  0.7816164E-02  0.1266605E+00
        -11   -1    0    0    0    0  0.00000000000E+00  0.00000000000E+00  0.45593999997E+02  0.45594000000E+02  0.51100000000E-03 0. -1.
         11   -1    0    0    0    0 -0.00000000000E+00 -0.00000000000E+00 -0.45593999997E+02  0.45594000000E+02  0.51100000000E-03 0.  1.
    9900012    2    1    2    0    0  0.28264598015E+02 -0.11092374302E+02 -0.97361583964E+01  0.59301936447E+02  0.49999986174E+02 0.  0.
         12    1    1    2    0    0 -0.28264598015E+02  0.11092374302E+02  0.97361583964E+01  0.31886063553E+02  0.00000000000E+00 0. -1.
         11    1    3    3    0    0  0.64227684214E+01 -0.17651166550E+01 -0.87085171906E+01  0.10963843437E+02  0.51100000000E-03 0. -1.
        -11    1    3    3    0    0  0.34280511426E+02 -0.10333004035E+02  0.14065801781E+00  0.35804248643E+02  0.51100000000E-03 0.  1.
         12    1    3    3    0    0 -0.12438681832E+02  0.10057463881E+01 -0.11682992236E+01  0.12533844366E+02  0.00000000000E+00 0. -1.
</event>
<event>
 7    1  0.6164995E-012  0.5930194E+02  0.7816164E-02  0.1266605E+00
        -11   -1    0    0    0    0  0.00000000000E+00  0.00000000000E+00  0.45593999997E+02  0.45594000000E+02  0.51100000000E-03 0. -1.
         11   -1    0    0    0    0 -0.00000000000E+00 -0.00000000000E+00 -0.45593999997E+02  0.45594000000E+02  0.51100000000E-03 0.  1.
    9900012    2    1    2    0    0 -0.12314288063E+02 -0.21764965098E+00 -0.29411417730E+02  0.59301944195E+02  0.50000000306E+02 0.  0.
         12    1    1    2    0    0  0.12314288063E+02  0.21764965098E+00  0.29411417730E+02  0.31886055805E+02  0.00000000000E+00 0. -1.
         11    1    3    3    0    0  0.25835516258E+01 -0.11592582991E+02  0.13779410060E+01  0.11956648405E+02  0.51100000000E-03 0. -1.
        -11    1    3    3    0    0  0.86059017997E+01  0.33143626771E+01 -0.15892425460E+02  0.18374322654E+02  0.51100000000E-03 0.  1.
        -12    1    3    3    0    0 -0.23503741489E+02  0.80605706633E+01 -0.14896933276E+02  0.28970973136E+02  0.00000000000E+00 0.  1.
</event>
<event>
 7    1  0.6164995E-012  0.5930193E+02  0.7816164E-02  0.1266605E+00
        -11   -1    0    0    0    0  0.00000000000E+00  0.00000000000E+00  0.45593999997E+02  0.45594000000E+02  0.51100000000E-03 0. -1.
         11   -1    0    0    0    0 -0.00000000000E+00 -0.00000000000E+00 -0.45593999997E+02  0.45594000000E+02  0.51100000000E-03 0.  1.
    9900012    2    1    2    0    0  0.22105355868E+02  0.17731557398E+02 -0.14617333434E+02  0.59301932156E+02  0.49999978349E+02 0.  0.
         12    1    1    2    0    0 -0.22105355868E+02 -0.17731557398E+02  0.14617333434E+02  0.31886067844E+02  0.00000000000E+00 0. -1.
         11    1    3    3    0    0 -0.10365443313E+02 -0.14512357081E+01 -0.87842846624E+01  0.13664265712E+02  0.51100000000E-03 0. -1.
        -11    1    3    3    0    0 -0.33069963910E+00  0.47686612548E+01 -0.84553415122E+01  0.97129960755E+01  0.51100000000E-03 0.  1.
        -12    1    3    3    0    0  0.32801498820E+02  0.14414131851E+02  0.26222927409E+01  0.35924670369E+02  0.00000000000E+00 0.  1.
</event>
<event>
 7    1  0.6164995E-012  0.5930191E+02  0.7816164E-02  0.1266605E+00
        -11   -1    0    0    0    0  0.00000000000E+00  0.00000000000E+00  0.45593999997E+02  0.45594000000E+02  0.51100000000E-03 0.  1.
         11   -1    0    0    0    0 -0.00000000000E+00 -0.00000000000E+00 -0.45593999997E+02  0.45594000000E+02  0.51100000000E-03 0. -1.
    9900012    2    1    2    0    0 -0.88661528370E+01 -0.20786650921E+02  0.22495091196E+02  0.59301911331E+02  0.49999940369E+02 0.  0.
         12    1    1    2    0    0  0.88661528370E+01  0.20786650921E+02 -0.22495091196E+02  0.31886088669E+02  0.00000000000E+00 0. -1.
         11    1    3    3    0    0 -0.12649362166E+02  0.75877190137E+01  0.86485107624E+00  0.14775919960E+02  0.51100000000E-03 0. -1.
        -11    1    3    3    0    0 -0.10007775295E+02 -0.41013846095E+01  0.41309629642E+01  0.11577641268E+02  0.51100000000E-03 0.  1.
        -12    1    3    3    0    0  0.13790984623E+02 -0.24272985326E+02  0.17499277156E+02  0.32948350103E+02  0.00000000000E+00 0.  1.
</event>
<event>
 7    1  0.6164995E-012  0.5930195E+02  0.7816164E-02  0.1266605E+00
        -11   -1    0    0    0    0  0.00000000000E+00  0.00000000000E+00  0.45593999997E+02  0.45594000000E+02  0.51100000000E-03 0. -1.
         11   -1    0    0    0    0 -0.00000000000E+00 -0.00000000000E+00 -0.45593999997E+02  0.45594000000E+02  0.51100000000E-03 0.  1.
    9900012    2    1    2    0    0  0.20616963264E+02 -0.22119161075E+02 -0.10119483960E+02  0.59301946364E+02  0.50000004261E+02 0.  0.
         12    1    1    2    0    0 -0.20616963264E+02  0.22119161075E+02  0.10119483960E+02  0.31886053636E+02  0.00000000000E+00 0. -1.
         11    1    3    3    0    0  0.26952308532E+02 -0.26263571409E+02 -0.47460456552E+01  0.37930555862E+02  0.51100000000E-03 0. -1.
        -11    1    3    3    0    0  0.68135701964E+01 -0.24673411012E+00 -0.15732948271E+01  0.69972046859E+01  0.51100000000E-03 0.  1.
        -12    1    3    3    0    0 -0.13148915464E+02  0.43911444447E+01 -0.38001434781E+01  0.14374185816E+02  0.00000000000E+00 0.  1.
</event>
<event>
 7    1  0.6164995E-012  0.5930197E+02  0.7816164E-02  0.1266605E+00
        -11   -1    0    0    0    0  0.00000000000E+00  0.00000000000E+00  0.45593999997E+02  0.45594000000E+02  0.51100000000E-03 0.  1.
         11   -1    0    0    0    0 -0.00000000000E+00 -0.00000000000E+00 -0.45593999997E+02  0.45594000000E+02  0.51100000000E-03 0. -1.
    9900012    2    1    2    0    0  0.10499923669E+00  0.10594001458E+02  0.30074487537E+02  0.59301973400E+02  0.50000053568E+02 0.  0.
         12    1    1    2    0    0 -0.10499923669E+00 -0.10594001458E+02 -0.30074487537E+02  0.31886026600E+02  0.00000000000E+00 0. -1.
         11    1    3    3    0    0  0.14112389596E+02  0.13061564253E+02  0.67473277198E+01  0.20378675925E+02  0.51100000000E-03 0. -1.
        -11    1    3    3    0    0  0.85054178422E+01 -0.14065161587E+01  0.64429442075E+01  0.10762525294E+02  0.51100000000E-03 0.  1.
        -12    1    3    3    0    0 -0.22512808202E+02 -0.10610466357E+01  0.16884215610E+02  0.28160772181E+02  0.00000000000E+00 0.  1.
</event>
<event>
 7    1  0.6164995E-012  0.5930186E+02  0.7816164E-02  0.1266605E+00
        -11   -1    0    0    0    0  0.00000000000E+00  0.00000000000E+00  0.45593999997E+02  0.45594000000E+02  0.51100000000E-03 0. -1.
         11   -1    0    0    0    0 -0.00000000000E+00 -0.00000000000E+00 -0.45593999997E+02  0.45594000000E+02  0.51100000000E-03 0.  1.
    9900012    2    1    2    0    0  0.41444623659E+01 -0.60093763304E+01 -0.31039276751E+02  0.59301860795E+02  0.49999848204E+02 0.  0.
         12    1    1    2    0    0 -0.41444623659E+01  0.60093763304E+01  0.31039276751E+02  0.31886139205E+02  0.00000000000E+00 0. -1.
         11    1    3    3    0    0  0.15926617529E+02 -0.16898407688E+02 -0.15525664080E+02  0.27933126816E+02  0.51100000000E-03 0. -1.
        -11    1    3    3    0    0  0.57893133012E+01 -0.23515425458E-01 -0.50181494861E+00  0.58110687467E+01  0.51100000000E-03 0.  1.
        -12    1    3    3    0    0 -0.17571468464E+02  0.10912546784E+02 -0.15011797722E+02  0.25557665233E+02  0.00000000000E+00 0.  1.
</event>
<event>
 7    1  0.6164995E-012  0.5930196E+02  0.7816164E-02  0.1266605E+00
        -11   -1    0    0    0    0  0.00000000000E+00  0.00000000000E+00  0.45593999997E+02  0.45594000000E+02  0.51100000000E-03 0. -1.
         11   -1    0    0    0    0 -0.00000000000E+00 -0.00000000000E+00 -0.45593999997E+02  0.45594000000E+02  0.51100000000E-03 0.  1.
    9900012    2    1    2    0    0  0.21984652128E+02  0.17921378305E+02 -0.14567739497E+02  0.59301956602E+02  0.50000022932E+02 0.  0.
         12    1    1    2    0    0 -0.21984652128E+02 -0.17921378305E+02  0.14567739497E+02  0.31886043398E+02  0.00000000000E+00 0. -1.
         11    1    3    3    0    0  0.15603795971E+01 -0.12468020861E+02  0.73618842864E+00  0.12586830512E+02  0.51100000000E-03 0. -1.
        -11    1    3    3    0    0  0.17355266851E+02  0.13479789549E+02 -0.19099294166E+02  0.29115168755E+02  0.51100000000E-03 0.  1.
        -12    1    3    3    0    0  0.30690056800E+01  0.16909609617E+02  0.37953662409E+01  0.17599957334E+02  0.00000000000E+00 0.  1.
</event>
<event>
 7    1  0.6164995E-012  0.5930194E+02  0.7816164E-02  0.1266605E+00
        -11   -1    0    0    0    0  0.00000000000E+00  0.00000000000E+00  0.45593999997E+02  0.45594000000E+02  0.51100000000E-03 0. -1.
         11   -1    0    0    0    0 -0.00000000000E+00 -0.00000000000E+00 -0.45593999997E+02  0.45594000000E+02  0.51100000000E-03 0.  1.
    9900012    2    1    2    0    0 -0.17245956177E+02 -0.16255078690E+02 -0.21332379947E+02  0.59301936871E+02  0.49999986947E+02 0.  0.
         12    1    1    2    0    0  0.17245956177E+02  0.16255078690E+02  0.21332379947E+02  0.31886063129E+02  0.00000000000E+00 0. -1.
         11    1    3    3    0    0 -0.30878205774E+01 -0.23794000508E+02  0.53852675995E+01  0.24590449436E+02  0.51100000000E-03 0. -1.
        -11    1    3    3    0    0 -0.12715820465E+02  0.29404468955E+01 -0.78328155360E+01  0.15221409841E+02  0.51100000000E-03 0.  1.
        -12    1    3    3    0    0 -0.14423151347E+01  0.45984749225E+01 -0.18884832011E+02  0.19490077594E+02  0.00000000000E+00 0.  1.
</event>
<event>
 7    1  0.6164995E-012  0.5930196E+02  0.7816164E-02  0.1266605E+00
        -11   -1    0    0    0    0  0.00000000000E+00  0.00000000000E+00  0.45593999997E+02  0.45594000000E+02  0.51100000000E-03 0.  1.
         11   -1    0    0    0    0 -0.00000000000E+00 -0.00000000000E+00 -0.45593999997E+02  0.45594000000E+02  0.51100000000E-03 0. -1.
    9900012    2    1    2    0    0 -0.78051059169E+01  0.16854470766E+02 -0.25917692507E+02  0.59301958414E+02  0.50000026237E+02 0.  0.
         12    1    1    2    0    0  0.78051059169E+01 -0.16854470766E+02  0.25917692507E+02  0.31886041586E+02  0.00000000000E+00 0. -1.
         11    1    3    3    0    0 -0.29823690647E+01 -0.55519719461E+01 -0.42625914196E+01  0.76084560589E+01  0.51100000000E-03 0. -1.
        -11    1    3    3    0    0  0.12076607316E+02 -0.14468368288E+01 -0.18705384710E+02  0.22312086377E+02  0.51100000000E-03 0.  1.
        -12    1    3    3    0    0 -0.16899344169E+02  0.23853279540E+02 -0.29497163775E+01  0.29381415978E+02  0.00000000000E+00 0.  1.
</event>
<event>
 7    1  0.6164995E-012  0.5930195E+02  0.7816164E-02  0.1266605E+00
        -11   -1    0    0    0    0  0.00000000000E+00  0.00000000000E+00  0.45593999997E+02  0.45594000000E+02  0.51100000000E-03 0. -1.
         11   -1    0    0    0    0 -0.00000000000E+00 -0.00000000000E+00 -0.45593999997E+02  0.45594000000E+02  0.51100000000E-03 0.  1.
    9900012    2    1    2    0    0  0.26401983301E+02  0.21803273107E+01  0.17745473162E+02  0.59301947137E+02  0.50000005671E+02 0.  0.
         12    1    1    2    0    0 -0.26401983301E+02 -0.21803273107E+01 -0.17745473162E+02  0.31886052863E+02  0.00000000000E+00 0. -1.
         11    1    3    3    0    0  0.14205216624E+02 -0.36496560791E+01  0.25423912617E+02  0.29351039196E+02  0.51100000000E-03 0. -1.
        -11    1    3    3    0    0 -0.51576281251E+01  0.51759789191E+01  0.46429140509E+01  0.86572822983E+01  0.51100000000E-03 0.  1.
        -12    1    3    3    0    0  0.17354394803E+02  0.65400447073E+00 -0.12321353506E+02  0.21293625644E+02  0.00000000000E+00 0.  1.
</event>
<event>
 7    1  0.6164995E-012  0.5930202E+02  0.7816164E-02  0.1266605E+00
        -11   -1    0    0    0    0  0.00000000000E+00  0.00000000000E+00  0.45593999997E+02  0.45594000000E+02  0.51100000000E-03 0.  1.
         11   -1    0    0    0    0 -0.00000000000E+00 -0.00000000000E+00 -0.45593999997E+02  0.45594000000E+02  0.51100000000E-03 0. -1.
    9900012    2    1    2    0    0 -0.29083539177E+02 -0.19068837695E+01  0.12931643400E+02  0.59302017848E+02  0.50000134630E+02 0.  0.
         12    1    1    2    0    0  0.29083539177E+02  0.19068837695E+01 -0.12931643400E+02  0.31885982152E+02  0.00000000000E+00 0. -1.
         11    1    3    3    0    0 -0.53490573379E+01  0.81371823236E+01  0.34037746339E+01  0.10315611111E+02  0.51100000000E-03 0. -1.
        -11    1    3    3    0    0  0.71115309545E+01  0.34012786383E+01  0.12953366181E+02  0.15163517553E+02  0.51100000000E-03 0.  1.
         12    1    3    3    0    0 -0.30846012794E+02 -0.13445344731E+02 -0.34254974151E+01  0.33822889184E+02  0.00000000000E+00 0. -1.
</event>
<event>
 7    1  0.6164995E-012  0.5930196E+02  0.7816164E-02  0.1266605E+00
        -11   -1    0    0    0    0  0.00000000000E+00  0.00000000000E+00  0.45593999997E+02  0.45594000000E+02  0.51100000000E-03 0.  1.
         11   -1    0    0    0    0 -0.00000000000E+00 -0.00000000000E+00 -0.45593999997E+02  0.45594000000E+02  0.51100000000E-03 0. -1.
    9900012    2    1    2    0    0 -0.79764300593E+01 -0.15930915186E+02  0.26444321827E+02  0.59301958351E+02  0.50000026123E+02 0.  0.
         12    1    1    2    0    0  0.79764300593E+01  0.15930915186E+02 -0.26444321827E+02  0.31886041649E+02  0.00000000000E+00 0. -1.
         11    1    3    3    0    0 -0.30747127847E+01  0.28618506118E+01 -0.33178139849E+01  0.53527504642E+01  0.51100000000E-03 0. -1.
        -11    1    3    3    0    0 -0.17483352262E+02 -0.98835056322E+01 -0.38673273760E+00  0.20087330643E+02  0.51100000000E-03 0.  1.
         12    1    3    3    0    0  0.12581634988E+02 -0.89092601652E+01  0.30148868549E+02  0.33861877244E+02  0.00000000000E+00 0. -1.
</event>
<event>
 7    1  0.6164995E-012  0.5930193E+02  0.7816164E-02  0.1266605E+00
        -11   -1    0    0    0    0  0.00000000000E+00  0.00000000000E+00  0.45593999997E+02  0.45594000000E+02  0.51100000000E-03 0. -1.
         11   -1    0    0    0    0 -0.00000000000E+00 -0.00000000000E+00 -0.45593999997E+02  0.45594000000E+02  0.51100000000E-03 0.  1.
    9900012    2    1    2    0    0  0.15650018652E+02 -0.20487311534E+02 -0.18763486966E+02  0.59301929988E+02  0.49999974395E+02 0.  0.
         12    1    1    2    0    0 -0.15650018652E+02  0.20487311534E+02  0.18763486966E+02  0.31886070012E+02  0.00000000000E+00 0. -1.
         11    1    3    3    0    0 -0.28282707433E+01  0.57743722190E+01  0.22590508643E+01  0.68151156255E+01  0.51100000000E-03 0. -1.
        -11    1    3    3    0    0  0.16285219396E+02 -0.57962139854E+01  0.61953542098E+01  0.18362649084E+02  0.51100000000E-03 0.  1.
         12    1    3    3    0    0  0.21930699990E+01 -0.20465469767E+02 -0.27217892040E+02  0.34124165278E+02  0.00000000000E+00 0. -1.
</event>
<event>
 7    1  0.6164995E-012  0.5930194E+02  0.7816164E-02  0.1266605E+00
        -11   -1    0    0    0    0  0.00000000000E+00  0.00000000000E+00  0.45593999997E+02  0.45594000000E+02  0.51100000000E-03 0. -1.
         11   -1    0    0    0    0 -0.00000000000E+00 -0.00000000000E+00 -0.45593999997E+02  0.45594000000E+02  0.51100000000E-03 0.  1.
    9900012    2    1    2    0    0  0.30253846113E+02 -0.68745494218E+01  0.73597716828E+01  0.59301939196E+02  0.49999991188E+02 0.  0.
         12    1    1    2    0    0 -0.30253846113E+02  0.68745494218E+01 -0.73597716828E+01  0.31886060804E+02  0.00000000000E+00 0. -1.
         11    1    3    3    0    0  0.16906947144E+02  0.56145974687E+01  0.17525290461E+02  0.24990085484E+02  0.51100000000E-03 0. -1.
        -11    1    3    3    0    0 -0.41040102302E+01  0.47816817835E-01 -0.12061747082E+02  0.12740915562E+02  0.51100000000E-03 0.  1.
         12    1    3    3    0    0  0.17450909199E+02 -0.12536963708E+02  0.18962283041E+01  0.21570938150E+02  0.00000000000E+00 0. -1.
</event>
<event>
 7    1  0.6164995E-012  0.5930192E+02  0.7816164E-02  0.1266605E+00
        -11   -1    0    0    0    0  0.00000000000E+00  0.00000000000E+00  0.45593999997E+02  0.45594000000E+02  0.51100000000E-03 0. -1.
         11   -1    0    0    0    0 -0.00000000000E+00 -0.00000000000E+00 -0.45593999997E+02  0.45594000000E+02  0.51100000000E-03 0.  1.
    9900012    2    1    2    0    0 -0.16402162598E+00  0.12502975605E+02 -0.29332073723E+02  0.59301923870E+02  0.49999963237E+02 0.  0.
         12    1    1    2    0    0  0.16402162598E+00 -0.12502975605E+02  0.29332073723E+02  0.31886076130E+02  0.00000000000E+00 0. -1.
         11    1    3    3    0    0  0.45236783279E+01  0.10689728363E+02 -0.10194575866E+02  0.15448732486E+02  0.51100000000E-03 0. -1.
        -11    1    3    3    0    0 -0.59940946648E+01 -0.31677218284E+01 -0.30570924092E+02  0.31313655687E+02  0.51100000000E-03 0.  1.
         12    1    3    3    0    0  0.13063947109E+01  0.49809690709E+01  0.11433426234E+02  0.12539535696E+02  0.00000000000E+00 0. -1.
</event>
<event>
 7    1  0.6164995E-012  0.5930195E+02  0.7816164E-02  0.1266605E+00
        -11   -1    0    0    0    0  0.00000000000E+00  0.00000000000E+00  0.45593999997E+02  0.45594000000E+02  0.51100000000E-03 0.  1.
         11   -1    0    0    0    0 -0.00000000000E+00 -0.00000000000E+00 -0.45593999997E+02  0.45594000000E+02  0.51100000000E-03 0. -1.
    9900012    2    1    2    0    0 -0.30415219571E+02  0.92391244716E+01 -0.25046099504E+01  0.59301951741E+02  0.50000014067E+02 0.  0.
         12    1    1    2    0    0  0.30415219571E+02 -0.92391244716E+01  0.25046099504E+01  0.31886048259E+02  0.00000000000E+00 0. -1.
         11    1    3    3    0    0 -0.32356370287E+00  0.54615751540E+01  0.13074750111E+02  0.14173305449E+02  0.51100000000E-03 0. -1.
        -11    1    3    3    0    0  0.61184089977E+00 -0.89147888763E+01 -0.51149039382E+01  0.10296118325E+02  0.51100000000E-03 0.  1.
        -12    1    3    3    0    0 -0.30703496768E+02  0.12692338194E+02 -0.10464456123E+02  0.34832527967E+02  0.00000000000E+00 0.  1.
</event>
<event>
 7    1  0.6164995E-012  0.5930194E+02  0.7816164E-02  0.1266605E+00
        -11   -1    0    0    0    0  0.00000000000E+00  0.00000000000E+00  0.45593999997E+02  0.45594000000E+02  0.51100000000E-03 0.  1.
         11   -1    0    0    0    0 -0.00000000000E+00 -0.00000000000E+00 -0.45593999997E+02  0.45594000000E+02  0.51100000000E-03 0. -1.
    9900012    2    1    2    0    0 -0.25597558570E+02  0.11703884277E+02  0.14983492588E+02  0.59301937809E+02  0.49999988658E+02 0.  0.
         12    1    1    2    0    0  0.25597558570E+02 -0.11703884277E+02 -0.14983492588E+02  0.31886062191E+02  0.00000000000E+00 0. -1.
         11    1    3    3    0    0 -0.69606837053E+01  0.12778918871E+02  0.10967267080E+02  0.18221768098E+02  0.51100000000E-03 0.  1.
        -11    1    3    3    0    0  0.10417642833E+02  0.33680395357E+01 -0.18622519561E+01  0.11105807270E+02  0.51100000000E-03 0. -1.
         12    1    3    3    0    0 -0.29054517698E+02 -0.44430741297E+01  0.58784774642E+01  0.29974362440E+02  0.00000000000E+00 0. -1.
</event>
<event>
 7    1  0.6164995E-012  0.5930201E+02  0.7816164E-02  0.1266605E+00
        -11   -1    0    0    0    0  0.00000000000E+00  0.00000000000E+00  0.45593999997E+02  0.45594000000E+02  0.51100000000E-03 0.  1.
         11   -1    0    0    0    0 -0.00000000000E+00 -0.00000000000E+00 -0.45593999997E+02  0.45594000000E+02  0.51100000000E-03 0. -1.
    9900012    2    1    2    0    0  0.29577672141E+02 -0.11818834438E+02 -0.14808416193E+01  0.59302008896E+02  0.50000118305E+02 0.  0.
         12    1    1    2    0    0 -0.29577672141E+02  0.11818834438E+02  0.14808416193E+01  0.31885991104E+02  0.00000000000E+00 0. -1.
         11    1    3    3    0    0 -0.14391139083E+01  0.82178066282E+01 -0.10240609569E+01  0.84054801008E+01  0.51100000000E-03 0. -1.
        -11    1    3    3    0    0  0.13828701296E+02  0.62170317958E+01  0.95989063559E+01  0.17945012326E+02  0.51100000000E-03 0.  1.
         12    1    3    3    0    0  0.17188084753E+02 -0.26253672862E+02 -0.10055687018E+02  0.32951516470E+02  0.00000000000E+00 0. -1.
</event>
<event>
 7    1  0.6164995E-012  0.5930194E+02  0.7816164E-02  0.1266605E+00
        -11   -1    0    0    0    0  0.00000000000E+00  0.00000000000E+00  0.45593999997E+02  0.45594000000E+02  0.51100000000E-03 0.  1.
         11   -1    0    0    0    0 -0.00000000000E+00 -0.00000000000E+00 -0.45593999997E+02  0.45594000000E+02  0.51100000000E-03 0. -1.
    9900012    2    1    2    0    0 -0.18168026048E+01  0.24847135824E+02  0.19900755486E+02  0.59301937225E+02  0.49999987593E+02 0.  0.
         12    1    1    2    0    0  0.18168026048E+01 -0.24847135824E+02 -0.19900755486E+02  0.31886062775E+02  0.00000000000E+00 0. -1.
         11    1    3    3    0    0  0.61145701138E+01  0.54467856473E+01  0.12611180203E+01  0.82852797470E+01  0.51100000000E-03 0.  1.
        -11    1    3    3    0    0 -0.40332410672E+01 -0.13195076446E+02  0.12149110716E+01  0.13851104111E+02  0.51100000000E-03 0. -1.
         12    1    3    3    0    0 -0.38981316513E+01  0.32595426623E+02  0.17424726394E+02  0.37165553367E+02  0.00000000000E+00 0. -1.
</event>
<event>
 7    1  0.6164995E-012  0.5930194E+02  0.7816164E-02  0.1266605E+00
        -11   -1    0    0    0    0  0.00000000000E+00  0.00000000000E+00  0.45593999997E+02  0.45594000000E+02  0.51100000000E-03 0. -1.
         11   -1    0    0    0    0 -0.00000000000E+00 -0.00000000000E+00 -0.45593999997E+02  0.45594000000E+02  0.51100000000E-03 0.  1.
    9900012    2    1    2    0    0  0.15688660524E+02 -0.27355406560E+02 -0.47189684077E+01  0.59301937215E+02  0.49999987575E+02 0.  0.
         12    1    1    2    0    0 -0.15688660524E+02  0.27355406560E+02  0.47189684077E+01  0.31886062785E+02  0.00000000000E+00 0. -1.
         11    1    3    3    0    0 -0.11814712652E+02 -0.13442746177E+02 -0.13051896055E+01  0.17944313305E+02  0.51100000000E-03 0. -1.
        -11    1    3    3    0    0 -0.31564877485E+01 -0.33300351022E+01 -0.73708608051E+01  0.86822887511E+01  0.51100000000E-03 0.  1.
        -12    1    3    3    0    0  0.30659860924E+02 -0.10582625281E+02  0.39570820030E+01  0.32675335158E+02  0.00000000000E+00 0.  1.
</event>
<event>
 7    1  0.6164995E-012  0.5930197E+02  0.7816164E-02  0.1266605E+00
        -11   -1    0    0    0    0  0.00000000000E+00  0.00000000000E+00  0.45593999997E+02  0.45594000000E+02  0.51100000000E-03 0. -1.
         11   -1    0    0    0    0 -0.00000000000E+00 -0.00000000000E+00 -0.45593999997E+02  0.45594000000E+02  0.51100000000E-03 0.  1.
    9900012    2    1    2    0    0 -0.19881005478E+02 -0.23282770767E+02 -0.89093699452E+01  0.59301973809E+02  0.50000054315E+02 0.  0.
         12    1    1    2    0    0  0.19881005478E+02  0.23282770767E+02  0.89093699452E+01  0.31886026191E+02  0.00000000000E+00 0. -1.
         11    1    3    3    0    0 -0.10815323831E+02 -0.85833263278E+00  0.10676186190E+02  0.15221330963E+02  0.51100000000E-03 0. -1.
        -11    1    3    3    0    0  0.83391779894E+01  0.28164592610E+01 -0.50764750007E+01  0.10160951284E+02  0.51100000000E-03 0.  1.
         12    1    3    3    0    0 -0.17404859637E+02 -0.25240897395E+02 -0.14509081134E+02  0.33919691562E+02  0.00000000000E+00 0. -1.
</event>
<event>
 7    1  0.6164995E-012  0.5930200E+02  0.7816164E-02  0.1266605E+00
        -11   -1    0    0    0    0  0.00000000000E+00  0.00000000000E+00  0.45593999997E+02  0.45594000000E+02  0.51100000000E-03 0.  1.
         11   -1    0    0    0    0 -0.00000000000E+00 -0.00000000000E+00 -0.45593999997E+02  0.45594000000E+02  0.51100000000E-03 0. -1.
    9900012    2    1    2    0    0  0.26709705501E+02 -0.17788789324E+01  0.17324677985E+02  0.59301996088E+02  0.50000094945E+02 0.  0.
         12    1    1    2    0    0 -0.26709705501E+02  0.17788789324E+01 -0.17324677985E+02  0.31886003912E+02  0.00000000000E+00 0. -1.
         11    1    3    3    0    0  0.13602084372E+02  0.13428607813E+02 -0.96135398184E+01  0.21395428371E+02  0.51100000000E-03 0. -1.
        -11    1    3    3    0    0  0.72333999818E+01  0.15576121310E+01  0.27453990349E+01  0.78921129597E+01  0.51100000000E-03 0.  1.
         12    1    3    3    0    0  0.58742211468E+01 -0.16765098877E+02  0.24192818768E+02  0.30014454757E+02  0.00000000000E+00 0. -1.
</event>
<event>
 7    1  0.6164995E-012  0.5930197E+02  0.7816164E-02  0.1266605E+00
        -11   -1    0    0    0    0  0.00000000000E+00  0.00000000000E+00  0.45593999997E+02  0.45594000000E+02  0.51100000000E-03 0.  1.
         11   -1    0    0    0    0 -0.00000000000E+00 -0.00000000000E+00 -0.45593999997E+02  0.45594000000E+02  0.51100000000E-03 0. -1.
    9900012    2    1    2    0    0 -0.10772631839E+02  0.29892598212E+02  0.26648887739E+01  0.59301973958E+02  0.50000054585E+02 0.  0.
         12    1    1    2    0    0  0.10772631839E+02 -0.29892598212E+02 -0.26648887739E+01  0.31886026042E+02  0.00000000000E+00 0. -1.
         11    1    3    3    0    0  0.31890420896E+00  0.10041364556E+02  0.51766025690E+01  0.11301677595E+02  0.51100000000E-03 0. -1.
        -11    1    3    3    0    0  0.51821862026E+00  0.62056163215E+01  0.19006068035E+02  0.20000221171E+02  0.51100000000E-03 0.  1.
         12    1    3    3    0    0 -0.11609754669E+02  0.13645617335E+02 -0.21517781830E+02  0.28000075193E+02  0.00000000000E+00 0. -1.
</event>
<event>
 7    1  0.6164995E-012  0.5930194E+02  0.7816164E-02  0.1266605E+00
        -11   -1    0    0    0    0  0.00000000000E+00  0.00000000000E+00  0.45593999997E+02  0.45594000000E+02  0.51100000000E-03 0.  1.
         11   -1    0    0    0    0 -0.00000000000E+00 -0.00000000000E+00 -0.45593999997E+02  0.45594000000E+02  0.51100000000E-03 0. -1.
    9900012    2    1    2    0    0  0.31531060446E+02 -0.12749052500E+01  0.45703180562E+01  0.59301937788E+02  0.49999988621E+02 0.  0.
         12    1    1    2    0    0 -0.31531060446E+02  0.12749052500E+01 -0.45703180562E+01  0.31886062212E+02  0.00000000000E+00 0. -1.
         11    1    3    3    0    0  0.13299611297E+01 -0.61634193415E+00 -0.17021167678E+02  0.17084168794E+02  0.51100000000E-03 0. -1.
        -11    1    3    3    0    0 -0.10461277187E+01  0.45502666902E+00  0.80733894397E+01  0.81535912198E+01  0.51100000000E-03 0.  1.
        -12    1    3    3    0    0  0.31247227035E+02 -0.11135899849E+01  0.13518096295E+02  0.34064177774E+02  0.00000000000E+00 0.  1.
</event>
<event>
 7    1  0.6164995E-012  0.5930195E+02  0.7816164E-02  0.1266605E+00
        -11   -1    0    0    0    0  0.00000000000E+00  0.00000000000E+00  0.45593999997E+02  0.45594000000E+02  0.51100000000E-03 0.  1.
         11   -1    0    0    0    0 -0.00000000000E+00 -0.00000000000E+00 -0.45593999997E+02  0.45594000000E+02  0.51100000000E-03 0. -1.
    9900012    2    1    2    0    0  0.26368006765E+02  0.17805374626E+02 -0.21017247503E+01  0.59301946728E+02  0.50000004925E+02 0.  0.
         12    1    1    2    0    0 -0.26368006765E+02 -0.17805374626E+02  0.21017247503E+01  0.31886053272E+02  0.00000000000E+00 0. -1.
         11    1    3    3    0    0 -0.31249996340E+01  0.17575323886E+01  0.16319503229E+00  0.35890354817E+01  0.51100000000E-03 0. -1.
        -11    1    3    3    0    0 -0.11878055186E+02  0.25708415167E+01 -0.25888186776E+00  0.12155839798E+02  0.51100000000E-03 0.  1.
         12    1    3    3    0    0  0.41371061585E+02  0.13477000721E+02 -0.20060379148E+01  0.43557071449E+02  0.00000000000E+00 0. -1.
</event>
<event>
 7    1  0.6164995E-012  0.5930194E+02  0.7816164E-02  0.1266605E+00
        -11   -1    0    0    0    0  0.00000000000E+00  0.00000000000E+00  0.45593999997E+02  0.45594000000E+02  0.51100000000E-03 0.  1.
         11   -1    0    0    0    0 -0.00000000000E+00 -0.00000000000E+00 -0.45593999997E+02  0.45594000000E+02  0.51100000000E-03 0. -1.
    9900012    2    1    2    0    0  0.22489159896E+02 -0.18294540114E+02  0.13276615356E+02  0.59301936804E+02  0.49999986826E+02 0.  0.
         12    1    1    2    0    0 -0.22489159896E+02  0.18294540114E+02 -0.13276615356E+02  0.31886063196E+02  0.00000000000E+00 0. -1.
         11    1    3    3    0    0  0.16480822991E+02  0.11253579641E+02  0.68220049297E+01  0.21090290010E+02  0.51100000000E-03 0. -1.
        -11    1    3    3    0    0 -0.80466981549E+01 -0.82496053768E+01 -0.11583549011E+01  0.11582190052E+02  0.51100000000E-03 0.  1.
        -12    1    3    3    0    0  0.14055035060E+02 -0.21298514378E+02  0.76129653275E+01  0.26629456741E+02  0.00000000000E+00 0.  1.
</event>
<event>
 7    1  0.6164995E-012  0.5930198E+02  0.7816164E-02  0.1266605E+00
        -11   -1    0    0    0    0  0.00000000000E+00  0.00000000000E+00  0.45593999997E+02  0.45594000000E+02  0.51100000000E-03 0. -1.
         11   -1    0    0    0    0 -0.00000000000E+00 -0.00000000000E+00 -0.45593999997E+02  0.45594000000E+02  0.51100000000E-03 0.  1.
    9900012    2    1    2    0    0  0.80532216682E+01  0.15265845148E+02 -0.26810773143E+02  0.59301984823E+02  0.50000074402E+02 0.  0.
         12    1    1    2    0    0 -0.80532216682E+01 -0.15265845148E+02  0.26810773143E+02  0.31886015177E+02  0.00000000000E+00 0. -1.
         11    1    3    3    0    0  0.44130057733E+01  0.34008685384E+01  0.50823900953E-01  0.55716344192E+01  0.51100000000E-03 0. -1.
        -11    1    3    3    0    0  0.17464607087E+02  0.19406323639E+02 -0.46748555700E+01  0.26523049839E+02  0.51100000000E-03 0.  1.
         12    1    3    3    0    0 -0.13824391192E+02 -0.75413470293E+01 -0.22186741474E+02  0.27207300566E+02  0.00000000000E+00 0. -1.
</event>
<event>
 7    1  0.6164995E-012  0.5930199E+02  0.7816164E-02  0.1266605E+00
        -11   -1    0    0    0    0  0.00000000000E+00  0.00000000000E+00  0.45593999997E+02  0.45594000000E+02  0.51100000000E-03 0. -1.
         11   -1    0    0    0    0 -0.00000000000E+00 -0.00000000000E+00 -0.45593999997E+02  0.45594000000E+02  0.51100000000E-03 0.  1.
    9900012    2    1    2    0    0 -0.30556861054E+02 -0.57224127038E+01 -0.70887331874E+01  0.59301985780E+02  0.50000076146E+02 0.  0.
         12    1    1    2    0    0  0.30556861054E+02  0.57224127038E+01  0.70887331874E+01  0.31886014220E+02  0.00000000000E+00 0. -1.
         11    1    3    3    0    0 -0.12512425473E+02  0.73690848035E+00  0.98214389901E+01  0.15923708406E+02  0.51100000000E-03 0. -1.
        -11    1    3    3    0    0 -0.11577185780E+02 -0.15048325741E+02  0.44177864482E+01  0.19493593193E+02  0.51100000000E-03 0.  1.
         12    1    3    3    0    0 -0.64672498018E+01  0.85890045573E+01 -0.21327958626E+02  0.23884684181E+02  0.00000000000E+00 0. -1.
</event>
<event>
 7    1  0.6164995E-012  0.5930193E+02  0.7816164E-02  0.1266605E+00
        -11   -1    0    0    0    0  0.00000000000E+00  0.00000000000E+00  0.45593999997E+02  0.45594000000E+02  0.51100000000E-03 0.  1.
         11   -1    0    0    0    0 -0.00000000000E+00 -0.00000000000E+00 -0.45593999997E+02  0.45594000000E+02  0.51100000000E-03 0. -1.
    9900012    2    1    2    0    0 -0.12569592941E+02 -0.17236803208E+02  0.23698513950E+02  0.59301927571E+02  0.49999969986E+02 0.  0.
         12    1    1    2    0    0  0.12569592941E+02  0.17236803208E+02 -0.23698513950E+02  0.31886072429E+02  0.00000000000E+00 0. -1.
         11    1    3    3    0    0 -0.87481482987E+01  0.39240147395E+01  0.27130044311E+00  0.95917461666E+01  0.51100000000E-03 0. -1.
        -11    1    3    3    0    0 -0.14780033847E+02 -0.34457538093E+01 -0.35898129627E+01  0.15595171599E+02  0.51100000000E-03 0.  1.
         12    1    3    3    0    0  0.10958589204E+02 -0.17715064138E+02  0.27017026470E+02  0.34115009805E+02  0.00000000000E+00 0. -1.
</event>
<event>
 7    1  0.6164995E-012  0.5930194E+02  0.7816164E-02  0.1266605E+00
        -11   -1    0    0    0    0  0.00000000000E+00  0.00000000000E+00  0.45593999997E+02  0.45594000000E+02  0.51100000000E-03 0.  1.
         11   -1    0    0    0    0 -0.00000000000E+00 -0.00000000000E+00 -0.45593999997E+02  0.45594000000E+02  0.51100000000E-03 0. -1.
    9900012    2    1    2    0    0  0.23459422575E+02 -0.29552978730E+01 -0.21392574742E+02  0.59301944315E+02  0.50000000524E+02 0.  0.
         12    1    1    2    0    0 -0.23459422575E+02  0.29552978730E+01  0.21392574742E+02  0.31886055685E+02  0.00000000000E+00 0. -1.
         11    1    3    3    0    0  0.71341188259E+01  0.49973265733E+01  0.97823384828E+01  0.13098208685E+02  0.51100000000E-03 0.  1.
        -11    1    3    3    0    0  0.95045919668E+01 -0.16487071122E+02 -0.81184950019E+01  0.20689870565E+02  0.51100000000E-03 0. -1.
         12    1    3    3    0    0  0.68207117823E+01  0.85344466760E+01 -0.23056418223E+02  0.25513865065E+02  0.00000000000E+00 0. -1.
</event>
<event>
 7    1  0.6164995E-012  0.5930194E+02  0.7816164E-02  0.1266605E+00
        -11   -1    0    0    0    0  0.00000000000E+00  0.00000000000E+00  0.45593999997E+02  0.45594000000E+02  0.51100000000E-03 0.  1.
         11   -1    0    0    0    0 -0.00000000000E+00 -0.00000000000E+00 -0.45593999997E+02  0.45594000000E+02  0.51100000000E-03 0. -1.
    9900012    2    1    2    0    0  0.17230809126E+02  0.26829306538E+02 -0.90708304097E-01  0.59301941911E+02  0.49999996140E+02 0.  0.
         12    1    1    2    0    0 -0.17230809126E+02 -0.26829306538E+02  0.90708304097E-01  0.31886058089E+02  0.00000000000E+00 0. -1.
         11    1    3    3    0    0 -0.20798065377E+01  0.79029034523E+00  0.19143298882E+01  0.29351002106E+01  0.51100000000E-03 0. -1.
        -11    1    3    3    0    0 -0.10131323976E+02  0.22090971424E+02  0.70616240552E+01  0.25308521856E+02  0.51100000000E-03 0.  1.
         12    1    3    3    0    0  0.29441939640E+02  0.39480447685E+01 -0.90666622475E+01  0.31058319844E+02  0.00000000000E+00 0. -1.
</event>
<event>
 7    1  0.6164995E-012  0.5930194E+02  0.7816164E-02  0.1266605E+00
        -11   -1    0    0    0    0  0.00000000000E+00  0.00000000000E+00  0.45593999997E+02  0.45594000000E+02  0.51100000000E-03 0.  1.
         11   -1    0    0    0    0 -0.00000000000E+00 -0.00000000000E+00 -0.45593999997E+02  0.45594000000E+02  0.51100000000E-03 0. -1.
    9900012    2    1    2    0    0  0.21056767048E+02 -0.15046614957E+02  0.18626131980E+02  0.59301939524E+02  0.49999991786E+02 0.  0.
         12    1    1    2    0    0 -0.21056767048E+02  0.15046614957E+02 -0.18626131980E+02  0.31886060476E+02  0.00000000000E+00 0. -1.
         11    1    3    3    0    0  0.11855731144E+02 -0.16327424652E+01  0.14677231487E+02  0.18937933713E+02  0.51100000000E-03 0. -1.
        -11    1    3    3    0    0  0.22898406867E+02 -0.12059374937E+02  0.56669538717E+01  0.26493016577E+02  0.51100000000E-03 0.  1.
         12    1    3    3    0    0 -0.13697370963E+02 -0.13544975548E+01 -0.17180533790E+01  0.13870989234E+02  0.00000000000E+00 0. -1.
</event>
<event>
 7    1  0.6164995E-012  0.5930193E+02  0.7816164E-02  0.1266605E+00
        -11   -1    0    0    0    0  0.00000000000E+00  0.00000000000E+00  0.45593999997E+02  0.45594000000E+02  0.51100000000E-03 0. -1.
         11   -1    0    0    0    0 -0.00000000000E+00 -0.00000000000E+00 -0.45593999997E+02  0.45594000000E+02  0.51100000000E-03 0.  1.
    9900012    2    1    2    0    0 -0.30442022099E+02 -0.80165459305E+01 -0.50734613396E+01  0.59301925797E+02  0.49999966751E+02 0.  0.
         12    1    1    2    0    0  0.30442022099E+02  0.80165459305E+01  0.50734613396E+01  0.31886074203E+02  0.00000000000E+00 0. -1.
         11    1    3    3    0    0 -0.74475448803E+00 -0.68916588524E+01 -0.38691593009E+01  0.79385146560E+01  0.51100000000E-03 0.  1.
        -11    1    3    3    0    0 -0.19710542802E+02 -0.21140027844E+02 -0.20785743273E+01  0.28978039035E+02  0.51100000000E-03 0. -1.
         12    1    3    3    0    0 -0.99867248092E+01  0.20015140766E+02  0.87427228871E+00  0.22385372106E+02  0.00000000000E+00 0. -1.
</event>
<event>
 7    1  0.6164995E-012  0.5930191E+02  0.7816164E-02  0.1266605E+00
        -11   -1    0    0    0    0  0.00000000000E+00  0.00000000000E+00  0.45593999997E+02  0.45594000000E+02  0.51100000000E-03 0.  1.
         11   -1    0    0    0    0 -0.00000000000E+00 -0.00000000000E+00 -0.45593999997E+02  0.45594000000E+02  0.51100000000E-03 0. -1.
    9900012    2    1    2    0    0 -0.17385840622E+02  0.18855601008E+02  0.18945218703E+02  0.59301914395E+02  0.49999945956E+02 0.  0.
         12    1    1    2    0    0  0.17385840622E+02 -0.18855601008E+02 -0.18945218703E+02  0.31886085605E+02  0.00000000000E+00 0. -1.
         11    1    3    3    0    0 -0.10643339899E+02  0.84805681965E+01 -0.16454938102E+02  0.21353353585E+02  0.51100000000E-03 0. -1.
        -11    1    3    3    0    0 -0.11464284793E+00  0.34283848589E+01  0.49640165734E+01  0.60339395527E+01  0.51100000000E-03 0.  1.
        -12    1    3    3    0    0 -0.66278578752E+01  0.69466479531E+01  0.30436140231E+02  0.31914621257E+02  0.00000000000E+00 0.  1.
</event>
<event>
 7    1  0.6164995E-012  0.5930193E+02  0.7816164E-02  0.1266605E+00
        -11   -1    0    0    0    0  0.00000000000E+00  0.00000000000E+00  0.45593999997E+02  0.45594000000E+02  0.51100000000E-03 0.  1.
         11   -1    0    0    0    0 -0.00000000000E+00 -0.00000000000E+00 -0.45593999997E+02  0.45594000000E+02  0.51100000000E-03 0. -1.
    9900012    2    1    2    0    0  0.28379518915E+02  0.12225560728E+02  0.78651287615E+01  0.59301926560E+02  0.49999968144E+02 0.  0.
         12    1    1    2    0    0 -0.28379518915E+02 -0.12225560728E+02 -0.78651287615E+01  0.31886073440E+02  0.00000000000E+00 0. -1.
         11    1    3    3    0    0  0.11049441372E+02  0.43355005515E+01 -0.41669359586E+01  0.12579748615E+02  0.51100000000E-03 0. -1.
        -11    1    3    3    0    0  0.19451232736E+02  0.21869680287E+02  0.14003419850E+02  0.32445787686E+02  0.51100000000E-03 0.  1.
         12    1    3    3    0    0 -0.21211551923E+01 -0.13979620111E+02 -0.19713551299E+01  0.14276390260E+02  0.00000000000E+00 0. -1.
</event>
<event>
 7    1  0.6164995E-012  0.5930194E+02  0.7816164E-02  0.1266605E+00
        -11   -1    0    0    0    0  0.00000000000E+00  0.00000000000E+00  0.45593999997E+02  0.45594000000E+02  0.51100000000E-03 0. -1.
         11   -1    0    0    0    0 -0.00000000000E+00 -0.00000000000E+00 -0.45593999997E+02  0.45594000000E+02  0.51100000000E-03 0.  1.
    9900012    2    1    2    0    0 -0.29876214932E+01  0.12545260859E+02 -0.29161810801E+02  0.59301942523E+02  0.49999997257E+02 0.  0.
         12    1    1    2    0    0  0.29876214932E+01 -0.12545260859E+02  0.29161810801E+02  0.31886057477E+02  0.00000000000E+00 0. -1.
         11    1    3    3    0    0 -0.14019036903E+02  0.11039143430E+02  0.33424688048E-02  0.17843656990E+02  0.51100000000E-03 0. -1.
        -11    1    3    3    0    0  0.10394784125E+02 -0.69703759456E+00 -0.34293219009E+02  0.35840790569E+02  0.51100000000E-03 0.  1.
         12    1    3    3    0    0  0.63663128495E+00  0.22031550235E+01  0.51280657386E+01  0.56174949640E+01  0.00000000000E+00 0. -1.
</event>
<event>
 7    1  0.6164995E-012  0.5930197E+02  0.7816164E-02  0.1266605E+00
        -11   -1    0    0    0    0  0.00000000000E+00  0.00000000000E+00  0.45593999997E+02  0.45594000000E+02  0.51100000000E-03 0.  1.
         11   -1    0    0    0    0 -0.00000000000E+00 -0.00000000000E+00 -0.45593999997E+02  0.45594000000E+02  0.51100000000E-03 0. -1.
    9900012    2    1    2    0    0 -0.37981629564E+01 -0.31587229755E+02  0.21306590899E+01  0.59301971185E+02  0.50000049528E+02 0.  0.
         12    1    1    2    0    0  0.37981629564E+01  0.31587229755E+02 -0.21306590899E+01  0.31886028815E+02  0.00000000000E+00 0. -1.
         11    1    3    3    0    0  0.41065161835E+01 -0.11104221447E+02  0.80694283606E+01  0.14327696376E+02  0.51100000000E-03 0. -1.
        -11    1    3    3    0    0 -0.95476401520E+01 -0.31054452344E+02 -0.92413120875E+01  0.33777778083E+02  0.51100000000E-03 0.  1.
         12    1    3    3    0    0  0.16429610121E+01  0.10571444035E+02  0.33025428167E+01  0.11196496726E+02  0.00000000000E+00 0. -1.
</event>
<event>
 7    1  0.6164995E-012  0.5930194E+02  0.7816164E-02  0.1266605E+00
        -11   -1    0    0    0    0  0.00000000000E+00  0.00000000000E+00  0.45593999997E+02  0.45594000000E+02  0.51100000000E-03 0.  1.
         11   -1    0    0    0    0 -0.00000000000E+00 -0.00000000000E+00 -0.45593999997E+02  0.45594000000E+02  0.51100000000E-03 0. -1.
    9900012    2    1    2    0    0 -0.30424381786E+02  0.95026137438E+01  0.88202001175E+00  0.59301942948E+02  0.49999998030E+02 0.  0.
         12    1    1    2    0    0  0.30424381786E+02 -0.95026137438E+01 -0.88202001175E+00  0.31886057052E+02  0.00000000000E+00 0. -1.
         11    1    3    3    0    0  0.15454148838E+01  0.11879790056E+02  0.32484361783E+01  0.12412495994E+02  0.51100000000E-03 0. -1.
        -11    1    3    3    0    0 -0.45134827622E+01 -0.13778970427E+02  0.64656565852E+01  0.15875650160E+02  0.51100000000E-03 0.  1.
         12    1    3    3    0    0 -0.27456313908E+02  0.11401794115E+02 -0.88320727518E+01  0.31013796794E+02  0.00000000000E+00 0. -1.
</event>
<event>
 7    1  0.6164995E-012  0.5930196E+02  0.7816164E-02  0.1266605E+00
        -11   -1    0    0    0    0  0.00000000000E+00  0.00000000000E+00  0.45593999997E+02  0.45594000000E+02  0.51100000000E-03 0.  1.
         11   -1    0    0    0    0 -0.00000000000E+00 -0.00000000000E+00 -0.45593999997E+02  0.45594000000E+02  0.51100000000E-03 0. -1.
    9900012    2    1    2    0    0 -0.26086875158E+02  0.26894867879E+01  0.18137277649E+02  0.59301964888E+02  0.50000038044E+02 0.  0.
         12    1    1    2    0    0  0.26086875158E+02 -0.26894867879E+01 -0.18137277649E+02  0.31886035112E+02  0.00000000000E+00 0. -1.
         11    1    3    3    0    0 -0.91488930865E+01  0.49232415892E+01  0.24830437592E+01  0.10682043766E+02  0.51100000000E-03 0. -1.
        -11    1    3    3    0    0 -0.25765787298E+02 -0.15510516323E+02  0.10779844761E+02  0.31947722376E+02  0.51100000000E-03 0.  1.
        -12    1    3    3    0    0  0.88278052268E+01  0.13276761522E+02  0.48743891286E+01  0.16672198745E+02  0.00000000000E+00 0.  1.
</event>
<event>
 7    1  0.6164995E-012  0.5930195E+02  0.7816164E-02  0.1266605E+00
        -11   -1    0    0    0    0  0.00000000000E+00  0.00000000000E+00  0.45593999997E+02  0.45594000000E+02  0.51100000000E-03 0.  1.
         11   -1    0    0    0    0 -0.00000000000E+00 -0.00000000000E+00 -0.45593999997E+02  0.45594000000E+02  0.51100000000E-03 0. -1.
    9900012    2    1    2    0    0  0.77409930398E+01  0.24233159418E+02  0.19223719959E+02  0.59301946659E+02  0.50000004798E+02 0.  0.
         12    1    1    2    0    0 -0.77409930398E+01 -0.24233159418E+02 -0.19223719959E+02  0.31886053341E+02  0.00000000000E+00 0. -1.
         11    1    3    3    0    0  0.11147939106E+02  0.98172629800E+01  0.66421925781E+01  0.16271875160E+02  0.51100000000E-03 0. -1.
        -11    1    3    3    0    0  0.64696652325E+00  0.26894042811E+02  0.13053281797E+02  0.29901442613E+02  0.51100000000E-03 0.  1.
         12    1    3    3    0    0 -0.40539125890E+01 -0.12478146373E+02 -0.47175441621E+00  0.13128628885E+02  0.00000000000E+00 0. -1.
</event>
<event>
 7    1  0.6164995E-012  0.5930192E+02  0.7816164E-02  0.1266605E+00
        -11   -1    0    0    0    0  0.00000000000E+00  0.00000000000E+00  0.45593999997E+02  0.45594000000E+02  0.51100000000E-03 0. -1.
         11   -1    0    0    0    0 -0.00000000000E+00 -0.00000000000E+00 -0.45593999997E+02  0.45594000000E+02  0.51100000000E-03 0.  1.
    9900012    2    1    2    0    0  0.20232705007E+01 -0.24347512817E+02 -0.20489678060E+02  0.59301922930E+02  0.49999961524E+02 0.  0.
         12    1    1    2    0    0 -0.20232705007E+01  0.24347512817E+02  0.20489678060E+02  0.31886077070E+02  0.00000000000E+00 0. -1.
         11    1    3    3    0    0  0.42194855658E+01 -0.84472575409E+01 -0.12572763693E+02  0.15723695670E+02  0.51100000000E-03 0. -1.
        -11    1    3    3    0    0  0.15506646857E+02 -0.19148119499E+02 -0.24143219090E+01  0.24757534765E+02  0.51100000000E-03 0.  1.
        -12    1    3    3    0    0 -0.17702861922E+02  0.32478642235E+01 -0.55025924584E+01  0.18820692495E+02  0.00000000000E+00 0.  1.
</event>
<event>
 7    1  0.6164995E-012  0.5930192E+02  0.7816164E-02  0.1266605E+00
        -11   -1    0    0    0    0  0.00000000000E+00  0.00000000000E+00  0.45593999997E+02  0.45594000000E+02  0.51100000000E-03 0. -1.
         11   -1    0    0    0    0 -0.00000000000E+00 -0.00000000000E+00 -0.45593999997E+02  0.45594000000E+02  0.51100000000E-03 0.  1.
    9900012    2    1    2    0    0 -0.32179279224E+01 -0.29461720802E+01 -0.31586182914E+02  0.59301922456E+02  0.49999960659E+02 0.  0.
         12    1    1    2    0    0  0.32179279224E+01  0.29461720802E+01  0.31586182914E+02  0.31886077544E+02  0.00000000000E+00 0. -1.
         11    1    3    3    0    0 -0.10551671675E+01 -0.12793806574E+02 -0.75766926270E+01  0.14906412574E+02  0.51100000000E-03 0. -1.
        -11    1    3    3    0    0  0.64682107120E+01  0.13799345825E+02 -0.29661525667E+02  0.33347650594E+02  0.51100000000E-03 0.  1.
         12    1    3    3    0    0 -0.86309714669E+01 -0.39517113307E+01  0.56520353800E+01  0.11047859288E+02  0.00000000000E+00 0. -1.
</event>
<event>
 7    1  0.6164995E-012  0.5930197E+02  0.7816164E-02  0.1266605E+00
        -11   -1    0    0    0    0  0.00000000000E+00  0.00000000000E+00  0.45593999997E+02  0.45594000000E+02  0.51100000000E-03 0.  1.
         11   -1    0    0    0    0 -0.00000000000E+00 -0.00000000000E+00 -0.45593999997E+02  0.45594000000E+02  0.51100000000E-03 0. -1.
    9900012    2    1    2    0    0  0.10994040980E+02  0.27897011653E+02  0.10844664013E+02  0.59301969613E+02  0.50000046662E+02 0.  0.
         12    1    1    2    0    0 -0.10994040980E+02 -0.27897011653E+02 -0.10844664013E+02  0.31886030387E+02  0.00000000000E+00 0. -1.
         11    1    3    3    0    0  0.82822745656E+00  0.94496730538E+01 -0.11161502986E+02  0.14647915576E+02  0.51100000000E-03 0. -1.
        -11    1    3    3    0    0 -0.87359172656E+01  0.11054641959E+02 -0.81507832332E+00  0.14113316840E+02  0.51100000000E-03 0.  1.
        -12    1    3    3    0    0  0.18901730789E+02  0.73926966409E+01  0.22821245323E+02  0.30540737197E+02  0.00000000000E+00 0.  1.
</event>
<event>
 7    1  0.6164995E-012  0.5930195E+02  0.7816164E-02  0.1266605E+00
        -11   -1    0    0    0    0  0.00000000000E+00  0.00000000000E+00  0.45593999997E+02  0.45594000000E+02  0.51100000000E-03 0.  1.
         11   -1    0    0    0    0 -0.00000000000E+00 -0.00000000000E+00 -0.45593999997E+02  0.45594000000E+02  0.51100000000E-03 0. -1.
    9900012    2    1    2    0    0  0.13828241039E+02  0.18248277394E+02  0.22192342333E+02  0.59301953894E+02  0.50000017993E+02 0.  0.
         12    1    1    2    0    0 -0.13828241039E+02 -0.18248277394E+02 -0.22192342333E+02  0.31886046106E+02  0.00000000000E+00 0. -1.
         11    1    3    3    0    0  0.12535839886E+02  0.77488225289E+01 -0.42659334524E+01  0.15342415739E+02  0.51100000000E-03 0. -1.
        -11    1    3    3    0    0  0.48043577935E+01 -0.11648152376E+02  0.10969814170E+02  0.16706230298E+02  0.51100000000E-03 0.  1.
        -12    1    3    3    0    0 -0.35119566409E+01  0.22147607241E+02  0.15488461616E+02  0.27253307857E+02  0.00000000000E+00 0.  1.
</event>
<event>
 7    1  0.6164995E-012  0.5930170E+02  0.7816164E-02  0.1266606E+00
        -11   -1    0    0    0    0  0.00000000000E+00  0.00000000000E+00  0.45593999997E+02  0.45594000000E+02  0.51100000000E-03 0.  1.
         11   -1    0    0    0    0 -0.00000000000E+00 -0.00000000000E+00 -0.45593999997E+02  0.45594000000E+02  0.51100000000E-03 0. -1.
    9900012    2    1    2    0    0 -0.31815093892E+02  0.23274278669E+00 -0.21170734922E+01  0.59301696220E+02  0.49999548057E+02 0.  0.
         12    1    1    2    0    0  0.31815093892E+02 -0.23274278669E+00  0.21170734922E+01  0.31886303780E+02  0.00000000000E+00 0. -1.
         11    1    3    3    0    0 -0.69097764281E+01  0.10087572867E+02  0.14000783480E+02  0.18588331688E+02  0.51100000000E-03 0. -1.
        -11    1    3    3    0    0 -0.22672608717E+02 -0.12299790611E+02 -0.16228770714E+01  0.25845033669E+02  0.51100000000E-03 0.  1.
        -12    1    3    3    0    0 -0.22327087467E+01  0.24449605309E+01 -0.14494979900E+02  0.14868330863E+02  0.00000000000E+00 0.  1.
</event>
<event>
 7    1  0.6164995E-012  0.5930196E+02  0.7816164E-02  0.1266605E+00
        -11   -1    0    0    0    0  0.00000000000E+00  0.00000000000E+00  0.45593999997E+02  0.45594000000E+02  0.51100000000E-03 0.  1.
         11   -1    0    0    0    0 -0.00000000000E+00 -0.00000000000E+00 -0.45593999997E+02  0.45594000000E+02  0.51100000000E-03 0. -1.
    9900012    2    1    2    0    0  0.23668346177E+01  0.30076777267E+02  0.10320123757E+02  0.59301962441E+02  0.50000033581E+02 0.  0.
         12    1    1    2    0    0 -0.23668346177E+01 -0.30076777267E+02 -0.10320123757E+02  0.31886037559E+02  0.00000000000E+00 0. -1.
         11    1    3    3    0    0 -0.23800371691E+01 -0.35415221377E+01 -0.75339455415E+01  0.86583654151E+01  0.51100000000E-03 0. -1.
        -11    1    3    3    0    0  0.10060557843E+02 -0.29093183296E+01  0.35815172413E+01  0.11068252945E+02  0.51100000000E-03 0.  1.
        -12    1    3    3    0    0 -0.53136860560E+01  0.36527617734E+02  0.14272552058E+02  0.39575344080E+02  0.00000000000E+00 0.  1.
</event>
<event>
 7    1  0.6164995E-012  0.5930194E+02  0.7816164E-02  0.1266605E+00
        -11   -1    0    0    0    0  0.00000000000E+00  0.00000000000E+00  0.45593999997E+02  0.45594000000E+02  0.51100000000E-03 0.  1.
         11   -1    0    0    0    0 -0.00000000000E+00 -0.00000000000E+00 -0.45593999997E+02  0.45594000000E+02  0.51100000000E-03 0. -1.
    9900012    2    1    2    0    0 -0.15820875917E+02 -0.18407635226E+01  0.27623036959E+02  0.59301941982E+02  0.49999996268E+02 0.  0.
         12    1    1    2    0    0  0.15820875917E+02  0.18407635226E+01 -0.27623036959E+02  0.31886058018E+02  0.00000000000E+00 0. -1.
         11    1    3    3    0    0 -0.16095833313E+02  0.14512255007E+02  0.21788640903E+02  0.30731519131E+02  0.51100000000E-03 0. -1.
        -11    1    3    3    0    0 -0.12763145564E+01 -0.71963113600E+01  0.14264445367E+02  0.16027797039E+02  0.51100000000E-03 0.  1.
         12    1    3    3    0    0  0.15512719526E+01 -0.91567071699E+01 -0.84300493109E+01  0.12542625812E+02  0.00000000000E+00 0. -1.
</event>
<event>
 7    1  0.6164995E-012  0.5930191E+02  0.7816164E-02  0.1266605E+00
        -11   -1    0    0    0    0  0.00000000000E+00  0.00000000000E+00  0.45593999997E+02  0.45594000000E+02  0.51100000000E-03 0.  1.
         11   -1    0    0    0    0 -0.00000000000E+00 -0.00000000000E+00 -0.45593999997E+02  0.45594000000E+02  0.51100000000E-03 0. -1.
    9900012    2    1    2    0    0 -0.30697859810E+02  0.84989725343E+01  0.14600530078E+01  0.59301907642E+02  0.49999933641E+02 0.  0.
         12    1    1    2    0    0  0.30697859810E+02 -0.84989725343E+01 -0.14600530078E+01  0.31886092358E+02  0.00000000000E+00 0. -1.
         11    1    3    3    0    0  0.14721338886E+01  0.51234955031E+01 -0.15421510579E+01  0.55493796502E+01  0.51100000000E-03 0.  1.
        -11    1    3    3    0    0 -0.39821795442E+01  0.19973780531E+02 -0.27081362921E+01  0.20546135040E+02  0.51100000000E-03 0. -1.
        -12    1    3    3    0    0 -0.28187814155E+02 -0.16598303500E+02  0.57103403578E+01  0.33206392952E+02  0.00000000000E+00 0.  1.
</event>
<event>
 7    1  0.6164995E-012  0.5930192E+02  0.7816164E-02  0.1266605E+00
        -11   -1    0    0    0    0  0.00000000000E+00  0.00000000000E+00  0.45593999997E+02  0.45594000000E+02  0.51100000000E-03 0.  1.
         11   -1    0    0    0    0 -0.00000000000E+00 -0.00000000000E+00 -0.45593999997E+02  0.45594000000E+02  0.51100000000E-03 0. -1.
    9900012    2    1    2    0    0  0.10622318733E+02  0.28260992974E+02  0.10256936016E+02  0.59301919720E+02  0.49999955669E+02 0.  0.
         12    1    1    2    0    0 -0.10622318733E+02 -0.28260992974E+02 -0.10256936016E+02  0.31886080280E+02  0.00000000000E+00 0. -1.
         11    1    3    3    0    0 -0.10756625638E+02  0.95109794396E+01 -0.81180849066E+01  0.16494454457E+02  0.51100000000E-03 0. -1.
        -11    1    3    3    0    0 -0.59134905961E+00 -0.57315031277E+01  0.30281861462E+01  0.65092037463E+01  0.51100000000E-03 0.  1.
        -12    1    3    3    0    0  0.21970293430E+02  0.24481516662E+02  0.15346834776E+02  0.36298261517E+02  0.00000000000E+00 0.  1.
</event>
<event>
 7    1  0.6164995E-012  0.5930196E+02  0.7816164E-02  0.1266605E+00
        -11   -1    0    0    0    0  0.00000000000E+00  0.00000000000E+00  0.45593999997E+02  0.45594000000E+02  0.51100000000E-03 0. -1.
         11   -1    0    0    0    0 -0.00000000000E+00 -0.00000000000E+00 -0.45593999997E+02  0.45594000000E+02  0.51100000000E-03 0.  1.
    9900012    2    1    2    0    0  0.18802610886E+02  0.15142717058E+02 -0.20829778340E+02  0.59301957258E+02  0.50000024130E+02 0.  0.
         12    1    1    2    0    0 -0.18802610886E+02 -0.15142717058E+02  0.20829778340E+02  0.31886042742E+02  0.00000000000E+00 0. -1.
         11    1    3    3    0    0 -0.19133943918E+01  0.15282045095E+01  0.31306611386E+01  0.39746102384E+01  0.51100000000E-03 0.  1.
        -11    1    3    3    0    0  0.80324515663E+01 -0.92869218267E+01  0.75086636924E+01  0.14392610114E+02  0.51100000000E-03 0. -1.
        -12    1    3    3    0    0  0.12683553711E+02  0.22901434375E+02 -0.31469103171E+02  0.40934736906E+02  0.00000000000E+00 0.  1.
</event>
<event>
 7    1  0.6164995E-012  0.5930193E+02  0.7816164E-02  0.1266605E+00
        -11   -1    0    0    0    0  0.00000000000E+00  0.00000000000E+00  0.45593999997E+02  0.45594000000E+02  0.51100000000E-03 0.  1.
         11   -1    0    0    0    0 -0.00000000000E+00 -0.00000000000E+00 -0.45593999997E+02  0.45594000000E+02  0.51100000000E-03 0. -1.
    9900012    2    1    2    0    0 -0.78544968398E+00  0.25766263397E+02  0.18767106460E+02  0.59301928659E+02  0.49999971971E+02 0.  0.
         12    1    1    2    0    0  0.78544968398E+00 -0.25766263397E+02 -0.18767106460E+02  0.31886071341E+02  0.00000000000E+00 0. -1.
         11    1    3    3    0    0 -0.77826111020E+01 -0.61944444864E+01  0.59275989363E+01  0.11579145369E+02  0.51100000000E-03 0. -1.
        -11    1    3    3    0    0  0.11036145874E+02  0.33129751481E+02  0.19387790562E+02  0.39940748266E+02  0.51100000000E-03 0.  1.
         12    1    3    3    0    0 -0.40389844557E+01 -0.11690435975E+01 -0.65482830380E+01  0.77820350238E+01  0.00000000000E+00 0. -1.
</event>
<event>
 7    1  0.6164995E-012  0.5930201E+02  0.7816164E-02  0.1266605E+00
        -11   -1    0    0    0    0  0.00000000000E+00  0.00000000000E+00  0.45593999997E+02  0.45594000000E+02  0.51100000000E-03 0.  1.
         11   -1    0    0    0    0 -0.00000000000E+00 -0.00000000000E+00 -0.45593999997E+02  0.45594000000E+02  0.51100000000E-03 0. -1.
    9900012    2    1    2    0    0  0.38066752476E+01  0.64699330549E+00  0.31651332067E+02  0.59302012507E+02  0.50000124890E+02 0.  0.
         12    1    1    2    0    0 -0.38066752476E+01 -0.64699330549E+00 -0.31651332067E+02  0.31885987493E+02  0.00000000000E+00 0. -1.
         11    1    3    3    0    0 -0.73923083013E+01 -0.11552498053E+01 -0.23443396971E+01  0.78407112566E+01  0.51100000000E-03 0. -1.
        -11    1    3    3    0    0  0.39286468304E+01 -0.24056142711E+01 -0.76755519724E+01  0.89518346880E+01  0.51100000000E-03 0.  1.
        -12    1    3    3    0    0  0.72703367185E+01  0.42078573818E+01  0.41671223736E+02  0.42509466563E+02  0.00000000000E+00 0.  1.
</event>
<event>
 7    1  0.6164995E-012  0.5930195E+02  0.7816164E-02  0.1266605E+00
        -11   -1    0    0    0    0  0.00000000000E+00  0.00000000000E+00  0.45593999997E+02  0.45594000000E+02  0.51100000000E-03 0.  1.
         11   -1    0    0    0    0 -0.00000000000E+00 -0.00000000000E+00 -0.45593999997E+02  0.45594000000E+02  0.51100000000E-03 0. -1.
    9900012    2    1    2    0    0 -0.64466581592E+01  0.12104238026E+02  0.28786249414E+02  0.59301950778E+02  0.50000012311E+02 0.  0.
         12    1    1    2    0    0  0.64466581592E+01 -0.12104238026E+02 -0.28786249414E+02  0.31886049222E+02  0.00000000000E+00 0. -1.
         11    1    3    3    0    0  0.96617341892E+01 -0.11922771232E+02  0.71692692975E+01  0.16938122798E+02  0.51100000000E-03 0. -1.
        -11    1    3    3    0    0 -0.33281154272E+01 -0.28972657949E+01  0.89529539013E+01  0.99812767322E+01  0.51100000000E-03 0.  1.
         12    1    3    3    0    0 -0.12780276921E+02  0.26924275054E+02  0.12664026216E+02  0.32382551248E+02  0.00000000000E+00 0. -1.
</event>
<event>
 7    1  0.6164995E-012  0.5930196E+02  0.7816164E-02  0.1266605E+00
        -11   -1    0    0    0    0  0.00000000000E+00  0.00000000000E+00  0.45593999997E+02  0.45594000000E+02  0.51100000000E-03 0. -1.
         11   -1    0    0    0    0 -0.00000000000E+00 -0.00000000000E+00 -0.45593999997E+02  0.45594000000E+02  0.51100000000E-03 0.  1.
    9900012    2    1    2    0    0  0.25102253752E+02 -0.13279570846E+02 -0.14499989269E+02  0.59301955496E+02  0.50000020916E+02 0.  0.
         12    1    1    2    0    0 -0.25102253752E+02  0.13279570846E+02  0.14499989269E+02  0.31886044504E+02  0.00000000000E+00 0. -1.
         11    1    3    3    0    0  0.27144228520E+02 -0.49777517790E+01  0.63863435158E+01  0.28326181149E+02  0.51100000000E-03 0. -1.
        -11    1    3    3    0    0 -0.26230227528E+01 -0.52421526820E+01  0.32071909208E+01  0.66818026735E+01  0.51100000000E-03 0.  1.
         12    1    3    3    0    0  0.58104798546E+00 -0.30596663845E+01 -0.24093523706E+02  0.24293971674E+02  0.00000000000E+00 0. -1.
</event>
<event>
 7    1  0.6164995E-012  0.5930195E+02  0.7816164E-02  0.1266605E+00
        -11   -1    0    0    0    0  0.00000000000E+00  0.00000000000E+00  0.45593999997E+02  0.45594000000E+02  0.51100000000E-03 0.  1.
         11   -1    0    0    0    0 -0.00000000000E+00 -0.00000000000E+00 -0.45593999997E+02  0.45594000000E+02  0.51100000000E-03 0. -1.
    9900012    2    1    2    0    0 -0.67123763471E+01 -0.21215804493E+01  0.31099244263E+02  0.59301951427E+02  0.50000013495E+02 0.  0.
         12    1    1    2    0    0  0.67123763471E+01  0.21215804493E+01 -0.31099244263E+02  0.31886048573E+02  0.00000000000E+00 0. -1.
         11    1    3    3    0    0 -0.16665893054E+01 -0.26114165897E+01  0.10294336328E+02  0.10750366376E+02  0.51100000000E-03 0. -1.
        -11    1    3    3    0    0  0.92314609835E+01 -0.80232156327E+01  0.27911415827E+02  0.30473578633E+02  0.51100000000E-03 0.  1.
         12    1    3    3    0    0 -0.14277248025E+02  0.85130517731E+01 -0.71065078917E+01  0.18078006419E+02  0.00000000000E+00 0. -1.
</event>
<event>
 7    1  0.6164995E-012  0.5930193E+02  0.7816164E-02  0.1266605E+00
        -11   -1    0    0    0    0  0.00000000000E+00  0.00000000000E+00  0.45593999997E+02  0.45594000000E+02  0.51100000000E-03 0. -1.
         11   -1    0    0    0    0 -0.00000000000E+00 -0.00000000000E+00 -0.45593999997E+02  0.45594000000E+02  0.51100000000E-03 0.  1.
    9900012    2    1    2    0    0  0.46166928343E+01 -0.25647693267E+02 -0.18373979669E+02  0.59301934838E+02  0.49999983240E+02 0.  0.
         12    1    1    2    0    0 -0.46166928343E+01  0.25647693267E+02  0.18373979669E+02  0.31886065162E+02  0.00000000000E+00 0. -1.
         11    1    3    3    0    0  0.52973304266E+01  0.59121359823E+01 -0.92616598229E+01  0.12198090197E+02  0.51100000000E-03 0. -1.
        -11    1    3    3    0    0  0.11176066410E+02 -0.21516293203E+02 -0.17064130229E+02  0.29648606617E+02  0.51100000000E-03 0.  1.
         12    1    3    3    0    0 -0.11856704002E+02 -0.10043536046E+02  0.79518103828E+01  0.17455238024E+02  0.00000000000E+00 0. -1.
</event>
<event>
 7    1  0.6164995E-012  0.5930207E+02  0.7816164E-02  0.1266604E+00
        -11   -1    0    0    0    0  0.00000000000E+00  0.00000000000E+00  0.45593999997E+02  0.45594000000E+02  0.51100000000E-03 0. -1.
         11   -1    0    0    0    0 -0.00000000000E+00 -0.00000000000E+00 -0.45593999997E+02  0.45594000000E+02  0.51100000000E-03 0.  1.
    9900012    2    1    2    0    0  0.31276013284E+02 -0.17288584721E+01  0.59611135174E+01  0.59302065280E+02  0.50000221135E+02 0.  0.
         12    1    1    2    0    0 -0.31276013284E+02  0.17288584721E+01 -0.59611135174E+01  0.31885934720E+02  0.00000000000E+00 0. -1.
         11    1    3    3    0    0  0.40892565550E+01 -0.82171741725E+01  0.16727789050E+02  0.19080432315E+02  0.51100000000E-03 0. -1.
        -11    1    3    3    0    0 -0.15978850751E+00  0.82376166119E+01  0.39282125538E+01  0.91276894087E+01  0.51100000000E-03 0.  1.
         12    1    3    3    0    0  0.27346545237E+02 -0.17493009115E+01 -0.14694888086E+02  0.31093943557E+02  0.00000000000E+00 0. -1.
</event>
<event>
 7    1  0.6164995E-012  0.5930193E+02  0.7816164E-02  0.1266605E+00
        -11   -1    0    0    0    0  0.00000000000E+00  0.00000000000E+00  0.45593999997E+02  0.45594000000E+02  0.51100000000E-03 0.  1.
         11   -1    0    0    0    0 -0.00000000000E+00 -0.00000000000E+00 -0.45593999997E+02  0.45594000000E+02  0.51100000000E-03 0. -1.
    9900012    2    1    2    0    0 -0.30615492037E+01  0.31300826924E+02 -0.52542010970E+01  0.59301929706E+02  0.49999973881E+02 0.  0.
         12    1    1    2    0    0  0.30615492037E+01 -0.31300826924E+02  0.52542010970E+01  0.31886070294E+02  0.00000000000E+00 0. -1.
         11    1    3    3    0    0  0.15932087563E+01 -0.57420783151E+01 -0.12859082719E+02  0.14172712731E+02  0.51100000000E-03 0. -1.
        -11    1    3    3    0    0  0.95760847183E+01  0.11269358745E+02  0.28358969291E+00  0.14791222682E+02  0.51100000000E-03 0.  1.
         12    1    3    3    0    0 -0.14230842678E+02  0.25773546494E+02  0.73212919293E+01  0.30337994293E+02  0.00000000000E+00 0. -1.
</event>
<event>
 7    1  0.6164995E-012  0.5930196E+02  0.7816164E-02  0.1266605E+00
        -11   -1    0    0    0    0  0.00000000000E+00  0.00000000000E+00  0.45593999997E+02  0.45594000000E+02  0.51100000000E-03 0. -1.
         11   -1    0    0    0    0 -0.00000000000E+00 -0.00000000000E+00 -0.45593999997E+02  0.45594000000E+02  0.51100000000E-03 0.  1.
    9900012    2    1    2    0    0 -0.18406176415E+02  0.14343352849E+01  0.25997597817E+02  0.59301956969E+02  0.50000023602E+02 0.  0.
         12    1    1    2    0    0  0.18406176415E+02 -0.14343352849E+01 -0.25997597817E+02  0.31886043031E+02  0.00000000000E+00 0. -1.
         11    1    3    3    0    0 -0.18094587099E+02 -0.39461548711E+01  0.31432845381E+02  0.36483009601E+02  0.51100000000E-03 0. -1.
        -11    1    3    3    0    0  0.28532653850E+01 -0.25636031398E+01  0.68498424665E+01  0.78507022930E+01  0.51100000000E-03 0.  1.
        -12    1    3    3    0    0 -0.31648547015E+01  0.79440932958E+01 -0.12285090030E+02  0.14968245075E+02  0.00000000000E+00 0.  1.
</event>
<event>
 7    1  0.6164995E-012  0.5930194E+02  0.7816164E-02  0.1266605E+00
        -11   -1    0    0    0    0  0.00000000000E+00  0.00000000000E+00  0.45593999997E+02  0.45594000000E+02  0.51100000000E-03 0.  1.
         11   -1    0    0    0    0 -0.00000000000E+00 -0.00000000000E+00 -0.45593999997E+02  0.45594000000E+02  0.51100000000E-03 0. -1.
    9900012    2    1    2    0    0  0.84879496878E+00  0.27186539754E+02  0.16640077671E+02  0.59301943775E+02  0.49999999539E+02 0.  0.
         12    1    1    2    0    0 -0.84879496878E+00 -0.27186539754E+02 -0.16640077671E+02  0.31886056225E+02  0.00000000000E+00 0. -1.
         11    1    3    3    0    0 -0.18521388193E+02  0.21273815794E+02 -0.50802573773E+00  0.28211259267E+02  0.51100000000E-03 0. -1.
        -11    1    3    3    0    0  0.34994291000E+01 -0.54032008338E+01  0.45163270881E+01  0.78637010309E+01  0.51100000000E-03 0.  1.
        -12    1    3    3    0    0  0.15870754061E+02  0.11315924793E+02  0.12631776321E+02  0.23226983477E+02  0.00000000000E+00 0.  1.
</event>
<event>
 7    1  0.6164995E-012  0.5930192E+02  0.7816164E-02  0.1266605E+00
        -11   -1    0    0    0    0  0.00000000000E+00  0.00000000000E+00  0.45593999997E+02  0.45594000000E+02  0.51100000000E-03 0. -1.
         11   -1    0    0    0    0 -0.00000000000E+00 -0.00000000000E+00 -0.45593999997E+02  0.45594000000E+02  0.51100000000E-03 0.  1.
    9900012    2    1    2    0    0  0.20373006966E+02 -0.22474964807E+02 -0.98254066744E+01  0.59301920400E+02  0.49999956909E+02 0.  0.
         12    1    1    2    0    0 -0.20373006966E+02  0.22474964807E+02  0.98254066744E+01  0.31886079600E+02  0.00000000000E+00 0. -1.
         11    1    3    3    0    0 -0.98264756370E+01 -0.21199364302E+02 -0.36623422907E+01  0.23651330228E+02  0.51100000000E-03 0. -1.
        -11    1    3    3    0    0  0.17957843364E+01  0.48524128143E+01  0.18729687654E+01  0.55026142661E+01  0.51100000000E-03 0.  1.
        -12    1    3    3    0    0  0.28403698267E+02 -0.61280133196E+01 -0.80360331491E+01  0.30147975906E+02  0.00000000000E+00 0.  1.
</event>
<event>
 7    1  0.6164995E-012  0.5930191E+02  0.7816164E-02  0.1266605E+00
        -11   -1    0    0    0    0  0.00000000000E+00  0.00000000000E+00  0.45593999997E+02  0.45594000000E+02  0.51100000000E-03 0.  1.
         11   -1    0    0    0    0 -0.00000000000E+00 -0.00000000000E+00 -0.45593999997E+02  0.45594000000E+02  0.51100000000E-03 0. -1.
    9900012    2    1    2    0    0 -0.14335816336E+02 -0.27414322146E+02 -0.77241406371E+01  0.59301905267E+02  0.49999929309E+02 0.  0.
         12    1    1    2    0    0  0.14335816336E+02  0.27414322146E+02  0.77241406371E+01  0.31886094733E+02  0.00000000000E+00 0. -1.
         11    1    3    3    0    0  0.13080795215E+01  0.15167790775E+01  0.43395807119E+01  0.47795033027E+01  0.51100000000E-03 0. -1.
        -11    1    3    3    0    0  0.12766073391E+02 -0.50632323062E+01 -0.10669383035E+02  0.17390936887E+02  0.51100000000E-03 0.  1.
         12    1    3    3    0    0 -0.28409969249E+02 -0.23867868918E+02 -0.13943383141E+01  0.37131465076E+02  0.00000000000E+00 0. -1.
</event>
<event>
 7    1  0.6164995E-012  0.5930172E+02  0.7816164E-02  0.1266606E+00
        -11   -1    0    0    0    0  0.00000000000E+00  0.00000000000E+00  0.45593999997E+02  0.45594000000E+02  0.51100000000E-03 0.  1.
         11   -1    0    0    0    0 -0.00000000000E+00 -0.00000000000E+00 -0.45593999997E+02  0.45594000000E+02  0.51100000000E-03 0. -1.
    9900012    2    1    2    0    0  0.25300707239E+02 -0.19242845853E+02 -0.25143161235E+01  0.59301722562E+02  0.49999596097E+02 0.  0.
         12    1    1    2    0    0 -0.25300707239E+02  0.19242845853E+02  0.25143161235E+01  0.31886277438E+02  0.00000000000E+00 0. -1.
         11    1    3    3    0    0  0.24823325970E+01 -0.23307973249E+02  0.22842247819E+01  0.23550823238E+02  0.51100000000E-03 0. -1.
        -11    1    3    3    0    0  0.20165340104E+02 -0.42754599584E+01  0.63571221737E+01  0.21571590158E+02  0.51100000000E-03 0.  1.
        -12    1    3    3    0    0  0.26530345381E+01  0.83405873540E+01 -0.11155663079E+02  0.14179309165E+02  0.00000000000E+00 0.  1.
</event>
<event>
 7    1  0.6164995E-012  0.5930195E+02  0.7816164E-02  0.1266605E+00
        -11   -1    0    0    0    0  0.00000000000E+00  0.00000000000E+00  0.45593999997E+02  0.45594000000E+02  0.51100000000E-03 0. -1.
         11   -1    0    0    0    0 -0.00000000000E+00 -0.00000000000E+00 -0.45593999997E+02  0.45594000000E+02  0.51100000000E-03 0.  1.
    9900012    2    1    2    0    0  0.25492972924E+02  0.17390718931E+02 -0.80244377462E+01  0.59301947020E+02  0.50000005458E+02 0.  0.
         12    1    1    2    0    0 -0.25492972924E+02 -0.17390718931E+02  0.80244377462E+01  0.31886052980E+02  0.00000000000E+00 0. -1.
         11    1    3    3    0    0 -0.44231965750E+01  0.65382486055E+01  0.38194997275E+01  0.87693751886E+01  0.51100000000E-03 0. -1.
        -11    1    3    3    0    0  0.75970151251E+01 -0.84817396197E+01 -0.17095355855E+02  0.20540344152E+02  0.51100000000E-03 0.  1.
         12    1    3    3    0    0  0.22319154374E+02  0.19334209945E+02  0.52514183819E+01  0.29992227680E+02  0.00000000000E+00 0. -1.
</event>
<event>
 7    1  0.6164995E-012  0.5930194E+02  0.7816164E-02  0.1266605E+00
        -11   -1    0    0    0    0  0.00000000000E+00  0.00000000000E+00  0.45593999997E+02  0.45594000000E+02  0.51100000000E-03 0. -1.
         11   -1    0    0    0    0 -0.00000000000E+00 -0.00000000000E+00 -0.45593999997E+02  0.45594000000E+02  0.51100000000E-03 0.  1.
    9900012    2    1    2    0    0  0.99892539997E+01  0.14341594476E+02 -0.26669354145E+02  0.59301937557E+02  0.49999988199E+02 0.  0.
         12    1    1    2    0    0 -0.99892539997E+01 -0.14341594476E+02  0.26669354145E+02  0.31886062443E+02  0.00000000000E+00 0. -1.
         11    1    3    3    0    0  0.64354258913E+01  0.12163918292E+02  0.23154429737E+01  0.13954816052E+02  0.51100000000E-03 0. -1.
        -11    1    3    3    0    0  0.42607761691E+00  0.18328863276E+02 -0.13650731663E+02  0.22857629937E+02  0.51100000000E-03 0.  1.
        -12    1    3    3    0    0  0.31277504916E+01 -0.16151187092E+02 -0.15334065456E+02  0.22489491568E+02  0.00000000000E+00 0.  1.
</event>
<event>
 7    1  0.6164995E-012  0.5930196E+02  0.7816164E-02  0.1266605E+00
        -11   -1    0    0    0    0  0.00000000000E+00  0.00000000000E+00  0.45593999997E+02  0.45594000000E+02  0.51100000000E-03 0. -1.
         11   -1    0    0    0    0 -0.00000000000E+00 -0.00000000000E+00 -0.45593999997E+02  0.45594000000E+02  0.51100000000E-03 0.  1.
    9900012    2    1    2    0    0  0.24111457782E+02  0.19194319856E+02 -0.81813790225E+01  0.59301964282E+02  0.50000036938E+02 0.  0.
         12    1    1    2    0    0 -0.24111457782E+02 -0.19194319856E+02  0.81813790225E+01  0.31886035718E+02  0.00000000000E+00 0. -1.
         11    1    3    3    0    0 -0.48682883861E+01  0.35297199151E+01 -0.11373167124E+02  0.12864994566E+02  0.51100000000E-03 0. -1.
        -11    1    3    3    0    0  0.57436780946E+01 -0.22340815327E+01 -0.11937412991E+02  0.13434388245E+02  0.51100000000E-03 0.  1.
         12    1    3    3    0    0  0.23236068073E+02  0.17898681474E+02  0.15129201093E+02  0.33002581470E+02  0.00000000000E+00 0. -1.
</event>
<event>
 7    1  0.6164995E-012  0.5930198E+02  0.7816164E-02  0.1266605E+00
        -11   -1    0    0    0    0  0.00000000000E+00  0.00000000000E+00  0.45593999997E+02  0.45594000000E+02  0.51100000000E-03 0. -1.
         11   -1    0    0    0    0 -0.00000000000E+00 -0.00000000000E+00 -0.45593999997E+02  0.45594000000E+02  0.51100000000E-03 0.  1.
    9900012    2    1    2    0    0  0.18025660303E+02  0.55063512757E+01 -0.25719130671E+02  0.59301984003E+02  0.50000072905E+02 0.  0.
         12    1    1    2    0    0 -0.18025660303E+02 -0.55063512757E+01  0.25719130671E+02  0.31886015997E+02  0.00000000000E+00 0. -1.
         11    1    3    3    0    0  0.15238283238E+02 -0.23467639866E+01 -0.53761462823E+01  0.16328365698E+02  0.51100000000E-03 0. -1.
        -11    1    3    3    0    0 -0.29034035577E+00 -0.14895142501E+02 -0.79551450403E+01  0.16888869131E+02  0.51100000000E-03 0.  1.
        -12    1    3    3    0    0  0.30777174200E+01  0.22748257763E+02 -0.12387839348E+02  0.26084749174E+02  0.00000000000E+00 0.  1.
</event>
<event>
 7    1  0.6164995E-012  0.5930198E+02  0.7816164E-02  0.1266605E+00
        -11   -1    0    0    0    0  0.00000000000E+00  0.00000000000E+00  0.45593999997E+02  0.45594000000E+02  0.51100000000E-03 0. -1.
         11   -1    0    0    0    0 -0.00000000000E+00 -0.00000000000E+00 -0.45593999997E+02  0.45594000000E+02  0.51100000000E-03 0.  1.
    9900012    2    1    2    0    0  0.11199454415E+02  0.16806190868E+02 -0.24674726688E+02  0.59301984761E+02  0.50000074288E+02 0.  0.
         12    1    1    2    0    0 -0.11199454415E+02 -0.16806190868E+02  0.24674726688E+02  0.31886015239E+02  0.00000000000E+00 0. -1.
         11    1    3    3    0    0  0.11877030737E+02 -0.16865756436E+01  0.36518716433E+01  0.12539719426E+02  0.51100000000E-03 0. -1.
        -11    1    3    3    0    0  0.12978374962E+02  0.10937227140E+02 -0.33335627380E+01  0.17296641146E+02  0.51100000000E-03 0.  1.
         12    1    3    3    0    0 -0.13655951283E+02  0.75555393716E+01 -0.24993035594E+02  0.29465624189E+02  0.00000000000E+00 0. -1.
</event>
<event>
 7    1  0.6164995E-012  0.5930195E+02  0.7816164E-02  0.1266605E+00
        -11   -1    0    0    0    0  0.00000000000E+00  0.00000000000E+00  0.45593999997E+02  0.45594000000E+02  0.51100000000E-03 0.  1.
         11   -1    0    0    0    0 -0.00000000000E+00 -0.00000000000E+00 -0.45593999997E+02  0.45594000000E+02  0.51100000000E-03 0. -1.
    9900012    2    1    2    0    0 -0.25227619727E+02 -0.83508276668E+01  0.17622450797E+02  0.59301954590E+02  0.50000019263E+02 0.  0.
         12    1    1    2    0    0  0.25227619727E+02  0.83508276668E+01 -0.17622450797E+02  0.31886045410E+02  0.00000000000E+00 0. -1.
         11    1    3    3    0    0 -0.14211964263E+02 -0.15377692049E+02 -0.71701731331E+01  0.22132887837E+02  0.51100000000E-03 0. -1.
        -11    1    3    3    0    0 -0.12018794775E+01 -0.88906242400E+01  0.87255533316E+01  0.12514910901E+02  0.51100000000E-03 0.  1.
        -12    1    3    3    0    0 -0.98137759863E+01  0.15917488622E+02  0.16067070599E+02  0.24654155852E+02  0.00000000000E+00 0.  1.
</event>
<event>
 7    1  0.6164995E-012  0.5930195E+02  0.7816164E-02  0.1266605E+00
        -11   -1    0    0    0    0  0.00000000000E+00  0.00000000000E+00  0.45593999997E+02  0.45594000000E+02  0.51100000000E-03 0.  1.
         11   -1    0    0    0    0 -0.00000000000E+00 -0.00000000000E+00 -0.45593999997E+02  0.45594000000E+02  0.51100000000E-03 0. -1.
    9900012    2    1    2    0    0 -0.30105701754E+02 -0.10443605995E+02  0.11394225281E+01  0.59301945556E+02  0.50000002788E+02 0.  0.
         12    1    1    2    0    0  0.30105701754E+02  0.10443605995E+02 -0.11394225281E+01  0.31886054444E+02  0.00000000000E+00 0. -1.
         11    1    3    3    0    0 -0.86133665583E+01  0.10822216628E+02  0.87019598727E+01  0.16341192187E+02  0.51100000000E-03 0. -1.
        -11    1    3    3    0    0  0.68125680796E+01 -0.19517347813E+00  0.24903342367E+00  0.68199116147E+01  0.51100000000E-03 0.  1.
        -12    1    3    3    0    0 -0.28304903275E+02 -0.21070649146E+02 -0.78115707683E+01  0.36140841754E+02  0.00000000000E+00 0.  1.
</event>
<event>
 7    1  0.6164995E-012  0.5930195E+02  0.7816164E-02  0.1266605E+00
        -11   -1    0    0    0    0  0.00000000000E+00  0.00000000000E+00  0.45593999997E+02  0.45594000000E+02  0.51100000000E-03 0. -1.
         11   -1    0    0    0    0 -0.00000000000E+00 -0.00000000000E+00 -0.45593999997E+02  0.45594000000E+02  0.51100000000E-03 0.  1.
    9900012    2    1    2    0    0 -0.22893533006E+02 -0.14412827823E+02 -0.16878292383E+02  0.59301949553E+02  0.50000010076E+02 0.  0.
         12    1    1    2    0    0  0.22893533006E+02  0.14412827823E+02  0.16878292383E+02  0.31886050447E+02  0.00000000000E+00 0. -1.
         11    1    3    3    0    0  0.39172327387E+01  0.55692547241E+00  0.32810940373E+01  0.51400833314E+01  0.51100000000E-03 0. -1.
        -11    1    3    3    0    0 -0.54403830424E+01 -0.20811968555E+02 -0.23384551743E+02  0.31773779493E+02  0.51100000000E-03 0.  1.
         12    1    3    3    0    0 -0.21370382703E+02  0.58422152591E+01  0.32251653234E+01  0.22388086728E+02  0.00000000000E+00 0. -1.
</event>
<event>
 7    1  0.6164995E-012  0.5930193E+02  0.7816164E-02  0.1266605E+00
        -11   -1    0    0    0    0  0.00000000000E+00  0.00000000000E+00  0.45593999997E+02  0.45594000000E+02  0.51100000000E-03 0.  1.
         11   -1    0    0    0    0 -0.00000000000E+00 -0.00000000000E+00 -0.45593999997E+02  0.45594000000E+02  0.51100000000E-03 0. -1.
    9900012    2    1    2    0    0 -0.31036062809E+02  0.47288693281E+01  0.55786900591E+01  0.59301934351E+02  0.49999982352E+02 0.  0.
         12    1    1    2    0    0  0.31036062809E+02 -0.47288693281E+01 -0.55786900591E+01  0.31886065649E+02  0.00000000000E+00 0. -1.
         11    1    3    3    0    0 -0.53605394716E+01 -0.80869202347E+01  0.44182793661E+00  0.97123053132E+01  0.51100000000E-03 0. -1.
        -11    1    3    3    0    0 -0.25665056130E+02  0.21488807190E+01 -0.12769623570E+02  0.28746757746E+02  0.51100000000E-03 0.  1.
        -12    1    3    3    0    0 -0.10467206888E-01  0.10666908844E+02  0.17906485692E+02  0.20842871292E+02  0.00000000000E+00 0.  1.
</event>
<event>
 7    1  0.6164995E-012  0.5930196E+02  0.7816164E-02  0.1266605E+00
        -11   -1    0    0    0    0  0.00000000000E+00  0.00000000000E+00  0.45593999997E+02  0.45594000000E+02  0.51100000000E-03 0.  1.
         11   -1    0    0    0    0 -0.00000000000E+00 -0.00000000000E+00 -0.45593999997E+02  0.45594000000E+02  0.51100000000E-03 0. -1.
    9900012    2    1    2    0    0 -0.23087244502E+02 -0.14158395302E+02  0.16829691886E+02  0.59301960026E+02  0.50000029177E+02 0.  0.
         12    1    1    2    0    0  0.23087244502E+02  0.14158395302E+02 -0.16829691886E+02  0.31886039974E+02  0.00000000000E+00 0. -1.
         11    1    3    3    0    0  0.98956664730E+01 -0.75025268596E+01  0.30960846145E+00  0.12422076392E+02  0.51100000000E-03 0. -1.
        -11    1    3    3    0    0 -0.52519451657E+01  0.68449402971E+01  0.13321989917E+02  0.15871721750E+02  0.51100000000E-03 0.  1.
        -12    1    3    3    0    0 -0.27730965810E+02 -0.13500808740E+02  0.31980935082E+01  0.31008161884E+02  0.00000000000E+00 0.  1.
</event>
<event>
 7    1  0.6164995E-012  0.5930203E+02  0.7816164E-02  0.1266604E+00
        -11   -1    0    0    0    0  0.00000000000E+00  0.00000000000E+00  0.45593999997E+02  0.45594000000E+02  0.51100000000E-03 0. -1.
         11   -1    0    0    0    0 -0.00000000000E+00 -0.00000000000E+00 -0.45593999997E+02  0.45594000000E+02  0.51100000000E-03 0.  1.
    9900012    2    1    2    0    0  0.25768444205E+02  0.17804610141E+02  0.59748150900E+01  0.59302026996E+02  0.50000151315E+02 0.  0.
         12    1    1    2    0    0 -0.25768444205E+02 -0.17804610141E+02 -0.59748150900E+01  0.31885973004E+02  0.00000000000E+00 0. -1.
         11    1    3    3    0    0  0.19122653798E+02  0.11944961981E+00  0.16073852491E+02  0.24981170722E+02  0.51100000000E-03 0. -1.
        -11    1    3    3    0    0  0.14439756824E+02  0.18367243076E+02 -0.26420122237E+01  0.23512601391E+02  0.51100000000E-03 0.  1.
        -12    1    3    3    0    0 -0.77939664161E+01 -0.68208255482E+00 -0.74570251776E+01  0.10808254883E+02  0.00000000000E+00 0.  1.
</event>
<event>
 7    1  0.6164995E-012  0.5930196E+02  0.7816164E-02  0.1266605E+00
        -11   -1    0    0    0    0  0.00000000000E+00  0.00000000000E+00  0.45593999997E+02  0.45594000000E+02  0.51100000000E-03 0. -1.
         11   -1    0    0    0    0 -0.00000000000E+00 -0.00000000000E+00 -0.45593999997E+02  0.45594000000E+02  0.51100000000E-03 0.  1.
    9900012    2    1    2    0    0  0.20516231845E+02 -0.17380511901E+02 -0.17138315292E+02  0.59301955809E+02  0.50000021487E+02 0.  0.
         12    1    1    2    0    0 -0.20516231845E+02  0.17380511901E+02  0.17138315292E+02  0.31886044191E+02  0.00000000000E+00 0. -1.
         11    1    3    3    0    0  0.75327585483E+00 -0.80186560171E+01 -0.87784044649E+01  0.11913297362E+02  0.51100000000E-03 0. -1.
        -11    1    3    3    0    0  0.17955739282E+02 -0.23378141587E+02  0.24739188969E+01  0.29581520451E+02  0.51100000000E-03 0.  1.
         12    1    3    3    0    0  0.18072167086E+01  0.14016285703E+02 -0.10833829724E+02  0.17807137996E+02  0.00000000000E+00 0. -1.
</event>
<event>
 7    1  0.6164995E-012  0.5930194E+02  0.7816164E-02  0.1266605E+00
        -11   -1    0    0    0    0  0.00000000000E+00  0.00000000000E+00  0.45593999997E+02  0.45594000000E+02  0.51100000000E-03 0.  1.
         11   -1    0    0    0    0 -0.00000000000E+00 -0.00000000000E+00 -0.45593999997E+02  0.45594000000E+02  0.51100000000E-03 0. -1.
    9900012    2    1    2    0    0 -0.11184165047E+02 -0.25454405385E+02  0.15611157253E+02  0.59301944551E+02  0.50000000955E+02 0.  0.
         12    1    1    2    0    0  0.11184165047E+02  0.25454405385E+02 -0.15611157253E+02  0.31886055449E+02  0.00000000000E+00 0. -1.
         11    1    3    3    0    0 -0.20293090905E+02 -0.12788251455E+02  0.22769614956E+02  0.33072712003E+02  0.51100000000E-03 0.  1.
        -11    1    3    3    0    0  0.25738556584E+01  0.14948867049E+01 -0.99495517620E+01  0.10385229884E+02  0.51100000000E-03 0. -1.
        -12    1    3    3    0    0  0.65350701996E+01 -0.14161040635E+02  0.27910940593E+01  0.15844002664E+02  0.00000000000E+00 0.  1.
</event>
<event>
 7    1  0.6164995E-012  0.5930197E+02  0.7816164E-02  0.1266605E+00
        -11   -1    0    0    0    0  0.00000000000E+00  0.00000000000E+00  0.45593999997E+02  0.45594000000E+02  0.51100000000E-03 0.  1.
         11   -1    0    0    0    0 -0.00000000000E+00 -0.00000000000E+00 -0.45593999997E+02  0.45594000000E+02  0.51100000000E-03 0. -1.
    9900012    2    1    2    0    0  0.26375021923E+02 -0.12989817645E+02  0.12342690172E+02  0.59301966308E+02  0.50000040634E+02 0.  0.
         12    1    1    2    0    0 -0.26375021923E+02  0.12989817645E+02 -0.12342690172E+02  0.31886033692E+02  0.00000000000E+00 0. -1.
         11    1    3    3    0    0  0.12780111103E+02  0.79496525010E+01 -0.29506600117E+01  0.15337359924E+02  0.51100000000E-03 0. -1.
        -11    1    3    3    0    0 -0.20465010227E+01  0.57461746359E+01 -0.41971929082E+01  0.74042634983E+01  0.51100000000E-03 0.  1.
        -12    1    3    3    0    0  0.15641411843E+02 -0.26685644782E+02  0.19490543092E+02  0.36560342885E+02  0.00000000000E+00 0.  1.
</event>
<event>
 7    1  0.6164995E-012  0.5930195E+02  0.7816164E-02  0.1266605E+00
        -11   -1    0    0    0    0  0.00000000000E+00  0.00000000000E+00  0.45593999997E+02  0.45594000000E+02  0.51100000000E-03 0. -1.
         11   -1    0    0    0    0 -0.00000000000E+00 -0.00000000000E+00 -0.45593999997E+02  0.45594000000E+02  0.51100000000E-03 0.  1.
    9900012    2    1    2    0    0 -0.63318342293E+01  0.30611425003E+02 -0.62903488967E+01  0.59301953605E+02  0.50000017467E+02 0.  0.
         12    1    1    2    0    0  0.63318342293E+01 -0.30611425003E+02  0.62903488967E+01  0.31886046395E+02  0.00000000000E+00 0. -1.
         11    1    3    3    0    0  0.51443460532E+01  0.12378060771E+02  0.14247104536E+01  0.13480003150E+02  0.51100000000E-03 0. -1.
        -11    1    3    3    0    0 -0.34760704774E+01  0.30392825937E+02 -0.45639128931E+01  0.30929536620E+02  0.51100000000E-03 0.  1.
         12    1    3    3    0    0 -0.80001098051E+01 -0.12159461705E+02 -0.31511464572E+01  0.14892413835E+02  0.00000000000E+00 0. -1.
</event>
<event>
 7    1  0.6164995E-012  0.5930191E+02  0.7816164E-02  0.1266605E+00
        -11   -1    0    0    0    0  0.00000000000E+00  0.00000000000E+00  0.45593999997E+02  0.45594000000E+02  0.51100000000E-03 0. -1.
         11   -1    0    0    0    0 -0.00000000000E+00 -0.00000000000E+00 -0.45593999997E+02  0.45594000000E+02  0.51100000000E-03 0.  1.
    9900012    2    1    2    0    0 -0.13080110423E+02  0.23882648530E+01 -0.28981538821E+02  0.59301910711E+02  0.49999939239E+02 0.  0.
         12    1    1    2    0    0  0.13080110423E+02 -0.23882648530E+01  0.28981538821E+02  0.31886089289E+02  0.00000000000E+00 0. -1.
         11    1    3    3    0    0  0.25958996109E+01  0.68517089767E+01 -0.22797433023E+01  0.76734503632E+01  0.51100000000E-03 0. -1.
        -11    1    3    3    0    0  0.25302464143E+01  0.14777192338E+01 -0.31700576673E+02  0.31835708925E+02  0.51100000000E-03 0.  1.
        -12    1    3    3    0    0 -0.18206256448E+02 -0.59411633575E+01  0.49987811546E+01  0.19792751424E+02  0.00000000000E+00 0.  1.
</event>
<event>
 7    1  0.6537891E-012  0.5930200E+02  0.7816164E-02  0.1266605E+00
        -11   -1    0    0    0    0  0.00000000000E+00  0.00000000000E+00  0.45593999997E+02  0.45594000000E+02  0.51100000000E-03 0. -1.
         11   -1    0    0    0    0 -0.00000000000E+00 -0.00000000000E+00 -0.45593999997E+02  0.45594000000E+02  0.51100000000E-03 0.  1.
    9900012    2    1    2    0    0 -0.81992424375E+00 -0.30185827697E+02 -0.10240156873E+02  0.59301995511E+02  0.50000093892E+02 0.  0.
         12    1    1    2    0    0  0.81992424375E+00  0.30185827697E+02  0.10240156873E+02  0.31886004489E+02  0.00000000000E+00 0. -1.
         11    1    3    3    0    0 -0.15583366338E+00  0.63443741908E+01  0.40041673409E+01  0.75039139360E+01  0.51100000000E-03 0. -1.
        -11    1    3    3    0    0  0.10413234757E+02 -0.31927056824E+01 -0.12564625382E+02  0.16628248222E+02  0.51100000000E-03 0.  1.
        -12    1    3    3    0    0 -0.11077325337E+02 -0.33337496206E+02 -0.16796988317E+01  0.35169833353E+02  0.00000000000E+00 0.  1.
</event>
<event>
 7    1  0.6164995E-012  0.5930204E+02  0.7816164E-02  0.1266604E+00
        -11   -1    0    0    0    0  0.00000000000E+00  0.00000000000E+00  0.45593999997E+02  0.45594000000E+02  0.51100000000E-03 0.  1.
         11   -1    0    0    0    0 -0.00000000000E+00 -0.00000000000E+00 -0.45593999997E+02  0.45594000000E+02  0.51100000000E-03 0. -1.
    9900012    2    1    2    0    0  0.25044193477E+02  0.98322139290E+01  0.17112278910E+02  0.59302044673E+02  0.50000183552E+02 0.  0.
         12    1    1    2    0    0 -0.25044193477E+02 -0.98322139290E+01 -0.17112278910E+02  0.31885955327E+02  0.00000000000E+00 0. -1.
         11    1    3    3    0    0  0.23197693650E+02 -0.29284359760E+01  0.30214075080E+02  0.38204699464E+02  0.51100000000E-03 0. -1.
        -11    1    3    3    0    0  0.20004458094E+01 -0.78076930898E+00 -0.46820107047E+01  0.51509813289E+01  0.51100000000E-03 0.  1.
        -12    1    3    3    0    0 -0.15394598287E+00  0.13541419214E+02 -0.84197854651E+01  0.15946363879E+02  0.00000000000E+00 0.  1.
</event>
<event>
 7    1  0.6164995E-012  0.5930198E+02  0.7816164E-02  0.1266605E+00
        -11   -1    0    0    0    0  0.00000000000E+00  0.00000000000E+00  0.45593999997E+02  0.45594000000E+02  0.51100000000E-03 0. -1.
         11   -1    0    0    0    0 -0.00000000000E+00 -0.00000000000E+00 -0.45593999997E+02  0.45594000000E+02  0.51100000000E-03 0.  1.
    9900012    2    1    2    0    0  0.78313072507E+01 -0.26707924812E+02 -0.15558780660E+02  0.59301979918E+02  0.50000065455E+02 0.  0.
         12    1    1    2    0    0 -0.78313072507E+01  0.26707924812E+02  0.15558780660E+02  0.31886020082E+02  0.00000000000E+00 0. -1.
         11    1    3    3    0    0  0.70747734469E+01 -0.14857145364E+02  0.90430312430E+01  0.18776677076E+02  0.51100000000E-03 0. -1.
        -11    1    3    3    0    0 -0.50039537730E+01 -0.15067646465E+02 -0.87796529898E+00  0.15901080047E+02  0.51100000000E-03 0.  1.
        -12    1    3    3    0    0  0.57604875768E+01  0.32168670168E+01 -0.23723846604E+02  0.24624222795E+02  0.00000000000E+00 0.  1.
</event>
<event>
 7    1  0.6164995E-012  0.5930195E+02  0.7816164E-02  0.1266605E+00
        -11   -1    0    0    0    0  0.00000000000E+00  0.00000000000E+00  0.45593999997E+02  0.45594000000E+02  0.51100000000E-03 0.  1.
         11   -1    0    0    0    0 -0.00000000000E+00 -0.00000000000E+00 -0.45593999997E+02  0.45594000000E+02  0.51100000000E-03 0. -1.
    9900012    2    1    2    0    0  0.22380662490E+02  0.21761763742E+02 -0.65001550124E+01  0.59301946154E+02  0.50000003878E+02 0.  0.
         12    1    1    2    0    0 -0.22380662490E+02 -0.21761763742E+02  0.65001550124E+01  0.31886053846E+02  0.00000000000E+00 0. -1.
         11    1    3    3    0    0  0.47606863717E+01 -0.76332268367E+01  0.52633124473E+01  0.10422703337E+02  0.51100000000E-03 0. -1.
        -11    1    3    3    0    0 -0.63892103531E+00  0.18201926497E+02  0.78553737570E+01  0.19834950099E+02  0.51100000000E-03 0.  1.
         12    1    3    3    0    0  0.18258897154E+02  0.11193064082E+02 -0.19618841217E+02  0.29044292718E+02  0.00000000000E+00 0. -1.
</event>
<event>
 7    1  0.6164995E-012  0.5930194E+02  0.7816164E-02  0.1266605E+00
        -11   -1    0    0    0    0  0.00000000000E+00  0.00000000000E+00  0.45593999997E+02  0.45594000000E+02  0.51100000000E-03 0. -1.
         11   -1    0    0    0    0 -0.00000000000E+00 -0.00000000000E+00 -0.45593999997E+02  0.45594000000E+02  0.51100000000E-03 0.  1.
    9900012    2    1    2    0    0 -0.19667668166E+02 -0.23210303130E+02 -0.95491151471E+01  0.59301938115E+02  0.49999989216E+02 0.  0.
         12    1    1    2    0    0  0.19667668166E+02  0.23210303130E+02  0.95491151471E+01  0.31886061885E+02  0.00000000000E+00 0. -1.
         11    1    3    3    0    0 -0.10568617724E+02 -0.10912088290E+02  0.18656790403E+02  0.24059201563E+02  0.51100000000E-03 0. -1.
        -11    1    3    3    0    0  0.32375765658E+01 -0.56983810857E+01 -0.54221621762E+01  0.85060738266E+01  0.51100000000E-03 0.  1.
        -12    1    3    3    0    0 -0.12336627008E+02 -0.65998337541E+01 -0.22783743374E+02  0.26736662725E+02  0.00000000000E+00 0.  1.
</event>
<event>
 7    1  0.6164995E-012  0.5930195E+02  0.7816164E-02  0.1266605E+00
        -11   -1    0    0    0    0  0.00000000000E+00  0.00000000000E+00  0.45593999997E+02  0.45594000000E+02  0.51100000000E-03 0.  1.
         11   -1    0    0    0    0 -0.00000000000E+00 -0.00000000000E+00 -0.45593999997E+02  0.45594000000E+02  0.51100000000E-03 0. -1.
    9900012    2    1    2    0    0  0.95084654271E+01 -0.28359778470E+02  0.11046828378E+02  0.59301947142E+02  0.50000005680E+02 0.  0.
         12    1    1    2    0    0 -0.95084654271E+01  0.28359778470E+02 -0.11046828378E+02  0.31886052858E+02  0.00000000000E+00 0. -1.
         11    1    3    3    0    0 -0.63595100752E+01 -0.28532663089E+01  0.76446616033E-01  0.69706772535E+01  0.51100000000E-03 0. -1.
        -11    1    3    3    0    0  0.39450708149E+01 -0.33101261236E+02 -0.16566263429E+01  0.33376660861E+02  0.51100000000E-03 0.  1.
         12    1    3    3    0    0  0.11922904688E+02  0.75947490750E+01  0.12627008105E+02  0.18954609028E+02  0.00000000000E+00 0. -1.
</event>
<event>
 7    1  0.6164995E-012  0.5930226E+02  0.7816164E-02  0.1266604E+00
        -11   -1    0    0    0    0  0.00000000000E+00  0.00000000000E+00  0.45593999997E+02  0.45594000000E+02  0.51100000000E-03 0.  1.
         11   -1    0    0    0    0 -0.00000000000E+00 -0.00000000000E+00 -0.45593999997E+02  0.45594000000E+02  0.51100000000E-03 0. -1.
    9900012    2    1    2    0    0  0.54907975865E+01  0.52581969196E+01  0.30966155012E+02  0.59302262605E+02  0.50000581006E+02 0.  0.
         12    1    1    2    0    0 -0.54907975865E+01 -0.52581969196E+01 -0.30966155012E+02  0.31885737395E+02  0.00000000000E+00 0. -1.
         11    1    3    3    0    0  0.49407529610E+01  0.20572565123E+02  0.33113049084E+02  0.39295235022E+02  0.51100000000E-03 0. -1.
        -11    1    3    3    0    0  0.26200591085E+01 -0.10855230716E+01  0.35475719443E+01  0.45418429114E+01  0.51100000000E-03 0.  1.
         12    1    3    3    0    0 -0.20700144830E+01 -0.14228845131E+02 -0.56944660161E+01  0.15465184672E+02  0.00000000000E+00 0. -1.
</event>
<event>
 7    1  0.6164995E-012  0.5930194E+02  0.7816164E-02  0.1266605E+00
        -11   -1    0    0    0    0  0.00000000000E+00  0.00000000000E+00  0.45593999997E+02  0.45594000000E+02  0.51100000000E-03 0.  1.
         11   -1    0    0    0    0 -0.00000000000E+00 -0.00000000000E+00 -0.45593999997E+02  0.45594000000E+02  0.51100000000E-03 0. -1.
    9900012    2    1    2    0    0 -0.76380776420E+01 -0.27633677541E+02  0.13955662712E+02  0.59301938998E+02  0.49999990827E+02 0.  0.
         12    1    1    2    0    0  0.76380776420E+01  0.27633677541E+02 -0.13955662712E+02  0.31886061002E+02  0.00000000000E+00 0. -1.
         11    1    3    3    0    0 -0.49207162666E+01  0.86270316048E+00 -0.83354583931E+01  0.97178995778E+01  0.51100000000E-03 0. -1.
        -11    1    3    3    0    0 -0.18140039684E+02 -0.17968359588E+02  0.11354855698E+02  0.27943795987E+02  0.51100000000E-03 0.  1.
        -12    1    3    3    0    0  0.15422678308E+02 -0.10528021114E+02  0.10936265407E+02  0.21640243433E+02  0.00000000000E+00 0.  1.
</event>
<event>
 7    1  0.6164995E-012  0.5930187E+02  0.7816164E-02  0.1266605E+00
        -11   -1    0    0    0    0  0.00000000000E+00  0.00000000000E+00  0.45593999997E+02  0.45594000000E+02  0.51100000000E-03 0.  1.
         11   -1    0    0    0    0 -0.00000000000E+00 -0.00000000000E+00 -0.45593999997E+02  0.45594000000E+02  0.51100000000E-03 0. -1.
    9900012    2    1    2    0    0 -0.37521960508E+01 -0.50259342224E+01  0.31263180428E+02  0.59301867583E+02  0.49999860584E+02 0.  0.
         12    1    1    2    0    0  0.37521960508E+01  0.50259342224E+01 -0.31263180428E+02  0.31886132417E+02  0.00000000000E+00 0. -1.
         11    1    3    3    0    0  0.12781792055E+02  0.15262672650E+02  0.11142021487E+02  0.22813768378E+02  0.51100000000E-03 0. -1.
        -11    1    3    3    0    0 -0.28051964348E+01  0.14931621226E+01  0.67841020162E+01  0.74915085656E+01  0.51100000000E-03 0.  1.
         12    1    3    3    0    0 -0.13728791671E+02 -0.21781768995E+02  0.13337056925E+02  0.28996590639E+02  0.00000000000E+00 0. -1.
</event>
<event>
 7    1  0.6164995E-012  0.5930195E+02  0.7816164E-02  0.1266605E+00
        -11   -1    0    0    0    0  0.00000000000E+00  0.00000000000E+00  0.45593999997E+02  0.45594000000E+02  0.51100000000E-03 0. -1.
         11   -1    0    0    0    0 -0.00000000000E+00 -0.00000000000E+00 -0.45593999997E+02  0.45594000000E+02  0.51100000000E-03 0.  1.
    9900012    2    1    2    0    0 -0.18557245307E+01 -0.21549833517E+02 -0.23428215779E+02  0.59301947677E+02  0.50000006655E+02 0.  0.
         12    1    1    2    0    0  0.18557245307E+01  0.21549833517E+02  0.23428215779E+02  0.31886052323E+02  0.00000000000E+00 0. -1.
         11    1    3    3    0    0 -0.16212500348E+00  0.65690324438E+01 -0.78696882215E+01  0.10252339476E+02  0.51100000000E-03 0. -1.
        -11    1    3    3    0    0  0.77678206359E+01  0.60190460008E+01 -0.83577384012E+01  0.12900377655E+02  0.51100000000E-03 0.  1.
         12    1    3    3    0    0 -0.94614201631E+01 -0.34137911962E+02 -0.72007891566E+01  0.36149230546E+02  0.00000000000E+00 0. -1.
</event>
<event>
 7    1  0.6164995E-012  0.5930194E+02  0.7816164E-02  0.1266605E+00
        -11   -1    0    0    0    0  0.00000000000E+00  0.00000000000E+00  0.45593999997E+02  0.45594000000E+02  0.51100000000E-03 0.  1.
         11   -1    0    0    0    0 -0.00000000000E+00 -0.00000000000E+00 -0.45593999997E+02  0.45594000000E+02  0.51100000000E-03 0. -1.
    9900012    2    1    2    0    0  0.37764866092E+01 -0.13982808578E+02  0.28406686419E+02  0.59301943170E+02  0.49999998436E+02 0.  0.
         12    1    1    2    0    0 -0.37764866092E+01  0.13982808578E+02 -0.28406686419E+02  0.31886056830E+02  0.00000000000E+00 0. -1.
         11    1    3    3    0    0  0.15074731342E+01  0.76703743772E+01  0.25994482521E+02  0.27144432949E+02  0.51100000000E-03 0.  1.
        -11    1    3    3    0    0 -0.71347338751E+01 -0.89553266949E-01  0.46650823173E+01  0.85249891815E+01  0.51100000000E-03 0. -1.
        -12    1    3    3    0    0  0.94037473501E+01 -0.21563629688E+02 -0.22528784187E+01  0.23632521040E+02  0.00000000000E+00 0.  1.
</event>
<event>
 7    1  0.6164995E-012  0.5930194E+02  0.7816164E-02  0.1266605E+00
        -11   -1    0    0    0    0  0.00000000000E+00  0.00000000000E+00  0.45593999997E+02  0.45594000000E+02  0.51100000000E-03 0. -1.
         11   -1    0    0    0    0 -0.00000000000E+00 -0.00000000000E+00 -0.45593999997E+02  0.45594000000E+02  0.51100000000E-03 0.  1.
    9900012    2    1    2    0    0 -0.50379823265E+00  0.28139468278E+01 -0.31757656593E+02  0.59301939383E+02  0.49999991529E+02 0.  0.
         12    1    1    2    0    0  0.50379823265E+00 -0.28139468278E+01  0.31757656593E+02  0.31886060617E+02  0.00000000000E+00 0. -1.
         11    1    3    3    0    0 -0.22435850074E+02 -0.26908516928E+01 -0.17616585338E+02  0.28652262225E+02  0.51100000000E-03 0. -1.
        -11    1    3    3    0    0  0.77015349518E+01  0.57200504280E+01  0.12643692112E+01  0.96763240580E+01  0.51100000000E-03 0.  1.
        -12    1    3    3    0    0  0.14230516889E+02 -0.21525190739E+00 -0.15405440466E+02  0.20973353100E+02  0.00000000000E+00 0.  1.
</event>
<event>
 7    1  0.6164995E-012  0.5930194E+02  0.7816164E-02  0.1266605E+00
        -11   -1    0    0    0    0  0.00000000000E+00  0.00000000000E+00  0.45593999997E+02  0.45594000000E+02  0.51100000000E-03 0.  1.
         11   -1    0    0    0    0 -0.00000000000E+00 -0.00000000000E+00 -0.45593999997E+02  0.45594000000E+02  0.51100000000E-03 0. -1.
    9900012    2    1    2    0    0  0.13960565801E+02 -0.21114752483E+02  0.19390482951E+02  0.59301937230E+02  0.49999987602E+02 0.  0.
         12    1    1    2    0    0 -0.13960565801E+02  0.21114752483E+02 -0.19390482951E+02  0.31886062770E+02  0.00000000000E+00 0. -1.
         11    1    3    3    0    0  0.85008671105E+01 -0.78077341303E+01  0.77732301813E+01  0.13915766655E+02  0.51100000000E-03 0. -1.
        -11    1    3    3    0    0  0.20740528146E+02 -0.41326206368E+00  0.14324711000E+02  0.25209871852E+02  0.51100000000E-03 0.  1.
         12    1    3    3    0    0 -0.15280829456E+02 -0.12893756289E+02 -0.27074582296E+01  0.20176298723E+02  0.00000000000E+00 0. -1.
</event>
<event>
 7    1  0.6164995E-012  0.5930193E+02  0.7816164E-02  0.1266605E+00
        -11   -1    0    0    0    0  0.00000000000E+00  0.00000000000E+00  0.45593999997E+02  0.45594000000E+02  0.51100000000E-03 0. -1.
         11   -1    0    0    0    0 -0.00000000000E+00 -0.00000000000E+00 -0.45593999997E+02  0.45594000000E+02  0.51100000000E-03 0.  1.
    9900012    2    1    2    0    0  0.19329062734E+02 -0.42251094465E+00 -0.25356068011E+02  0.59301931464E+02  0.49999977087E+02 0.  0.
         12    1    1    2    0    0 -0.19329062734E+02  0.42251094465E+00  0.25356068011E+02  0.31886068536E+02  0.00000000000E+00 0. -1.
         11    1    3    3    0    0  0.11557827815E+02  0.10626247666E+02 -0.59688328786E+00  0.15711676969E+02  0.51100000000E-03 0. -1.
        -11    1    3    3    0    0  0.15697232251E+02 -0.61538877200E+01  0.29212470562E+00  0.16862940773E+02  0.51100000000E-03 0.  1.
        -12    1    3    3    0    0 -0.79259973308E+01 -0.48948708904E+01 -0.25051309429E+02  0.26727313723E+02  0.00000000000E+00 0.  1.
</event>
<event>
 7    1  0.6164995E-012  0.5930207E+02  0.7816164E-02  0.1266604E+00
        -11   -1    0    0    0    0  0.00000000000E+00  0.00000000000E+00  0.45593999997E+02  0.45594000000E+02  0.51100000000E-03 0. -1.
         11   -1    0    0    0    0 -0.00000000000E+00 -0.00000000000E+00 -0.45593999997E+02  0.45594000000E+02  0.51100000000E-03 0.  1.
    9900012    2    1    2    0    0 -0.17337691405E+02 -0.14485926627E+02 -0.22500546793E+02  0.59302074900E+02  0.50000238679E+02 0.  0.
         12    1    1    2    0    0  0.17337691405E+02  0.14485926627E+02  0.22500546793E+02  0.31885925100E+02  0.00000000000E+00 0. -1.
         11    1    3    3    0    0 -0.19280219968E+02  0.72521223670E+01  0.23395576181E+01  0.20731466204E+02  0.51100000000E-03 0. -1.
        -11    1    3    3    0    0  0.77592070316E+01 -0.27790610815E+01 -0.23174330049E+01  0.85614817787E+01  0.51100000000E-03 0.  1.
         12    1    3    3    0    0 -0.58166784689E+01 -0.18958987912E+02 -0.22522671406E+02  0.30009126917E+02  0.00000000000E+00 0. -1.
</event>
<event>
 7    1  0.6164995E-012  0.5930228E+02  0.7816164E-02  0.1266604E+00
        -11   -1    0    0    0    0  0.00000000000E+00  0.00000000000E+00  0.45593999997E+02  0.45594000000E+02  0.51100000000E-03 0.  1.
         11   -1    0    0    0    0 -0.00000000000E+00 -0.00000000000E+00 -0.45593999997E+02  0.45594000000E+02  0.51100000000E-03 0. -1.
    9900012    2    1    2    0    0  0.25116148395E+02 -0.19600625384E+02  0.13015050628E+01  0.59302276845E+02  0.50000606976E+02 0.  0.
         12    1    1    2    0    0 -0.25116148395E+02  0.19600625384E+02 -0.13015050628E+01  0.31885723155E+02  0.00000000000E+00 0. -1.
         11    1    3    3    0    0  0.80761088745E+01 -0.14780460761E+01 -0.14961577660E+02  0.17066252110E+02  0.51100000000E-03 0. -1.
        -11    1    3    3    0    0  0.13678798001E+02  0.25321112359E+00 -0.44087910841E+01  0.14373971953E+02  0.51100000000E-03 0.  1.
        -12    1    3    3    0    0  0.33612415198E+01 -0.18375790432E+02  0.20671873807E+02  0.27862052782E+02  0.00000000000E+00 0.  1.
</event>
<event>
 7    1  0.6164995E-012  0.5930189E+02  0.7816164E-02  0.1266605E+00
        -11   -1    0    0    0    0  0.00000000000E+00  0.00000000000E+00  0.45593999997E+02  0.45594000000E+02  0.51100000000E-03 0. -1.
         11   -1    0    0    0    0 -0.00000000000E+00 -0.00000000000E+00 -0.45593999997E+02  0.45594000000E+02  0.51100000000E-03 0.  1.
    9900012    2    1    2    0    0 -0.45726175589E+01 -0.54562625639E+01 -0.31081250108E+02  0.59301894236E+02  0.49999909193E+02 0.  0.
         12    1    1    2    0    0  0.45726175589E+01  0.54562625639E+01  0.31081250108E+02  0.31886105764E+02  0.00000000000E+00 0. -1.
         11    1    3    3    0    0 -0.74425306958E+00  0.30956509407E+01 -0.12657238211E+01  0.34262259748E+01  0.51100000000E-03 0. -1.
        -11    1    3    3    0    0 -0.18552093543E+02  0.29434175925E+01 -0.31961975716E+02  0.37073059947E+02  0.51100000000E-03 0.  1.
        -12    1    3    3    0    0  0.14723729053E+02 -0.11495331097E+02  0.21464494291E+01  0.18802608314E+02  0.00000000000E+00 0.  1.
</event>
<event>
 7    1  0.6164995E-012  0.5930196E+02  0.7816164E-02  0.1266605E+00
        -11   -1    0    0    0    0  0.00000000000E+00  0.00000000000E+00  0.45593999997E+02  0.45594000000E+02  0.51100000000E-03 0.  1.
         11   -1    0    0    0    0 -0.00000000000E+00 -0.00000000000E+00 -0.45593999997E+02  0.45594000000E+02  0.51100000000E-03 0. -1.
    9900012    2    1    2    0    0 -0.17061157359E+02 -0.84143804083E+01  0.25589739580E+02  0.59301958228E+02  0.50000025899E+02 0.  0.
         12    1    1    2    0    0  0.17061157359E+02  0.84143804083E+01 -0.25589739580E+02  0.31886041772E+02  0.00000000000E+00 0. -1.
         11    1    3    3    0    0 -0.26317526272E+02  0.12294238018E+02  0.14781313110E+02  0.32592141615E+02  0.51100000000E-03 0. -1.
        -11    1    3    3    0    0 -0.22168366581E-01 -0.26336746455E+00 -0.12133109167E+01  0.12417638662E+01  0.51100000000E-03 0.  1.
        -12    1    3    3    0    0  0.92785372803E+01 -0.20445250961E+02  0.12021737387E+02  0.25468052747E+02  0.00000000000E+00 0.  1.
</event>
<event>
 7    1  0.6164995E-012  0.5930188E+02  0.7816164E-02  0.1266605E+00
        -11   -1    0    0    0    0  0.00000000000E+00  0.00000000000E+00  0.45593999997E+02  0.45594000000E+02  0.51100000000E-03 0.  1.
         11   -1    0    0    0    0 -0.00000000000E+00 -0.00000000000E+00 -0.45593999997E+02  0.45594000000E+02  0.51100000000E-03 0. -1.
    9900012    2    1    2    0    0  0.12256340536E+02 -0.17774749805E+02  0.23464122246E+02  0.59301880030E+02  0.49999883283E+02 0.  0.
         12    1    1    2    0    0 -0.12256340536E+02  0.17774749805E+02 -0.23464122246E+02  0.31886119970E+02  0.00000000000E+00 0. -1.
         11    1    3    3    0    0  0.14490207435E+01 -0.22107324016E+02  0.87856436044E+01  0.23833190514E+02  0.51100000000E-03 0. -1.
        -11    1    3    3    0    0  0.12800469140E+02 -0.24649291242E+01 -0.54507997817E+01  0.14129370273E+02  0.51100000000E-03 0.  1.
        -12    1    3    3    0    0 -0.19931493468E+01  0.67975033358E+01  0.20129278423E+02  0.21339319243E+02  0.00000000000E+00 0.  1.
</event>
<event>
 7    1  0.6164995E-012  0.5930193E+02  0.7816164E-02  0.1266605E+00
        -11   -1    0    0    0    0  0.00000000000E+00  0.00000000000E+00  0.45593999997E+02  0.45594000000E+02  0.51100000000E-03 0.  1.
         11   -1    0    0    0    0 -0.00000000000E+00 -0.00000000000E+00 -0.45593999997E+02  0.45594000000E+02  0.51100000000E-03 0. -1.
    9900012    2    1    2    0    0  0.22672275008E+01 -0.29119031641E+02  0.12793088018E+02  0.59301930545E+02  0.49999975410E+02 0.  0.
         12    1    1    2    0    0 -0.22672275008E+01  0.29119031641E+02 -0.12793088018E+02  0.31886069455E+02  0.00000000000E+00 0. -1.
         11    1    3    3    0    0  0.12164410008E+01  0.58476742969E+01 -0.75368951760E+01  0.96166424778E+01  0.51100000000E-03 0. -1.
        -11    1    3    3    0    0 -0.79812182330E+01 -0.12417729782E+01  0.10815249362E+02  0.13498572652E+02  0.51100000000E-03 0.  1.
        -12    1    3    3    0    0  0.90320047329E+01 -0.33724932960E+02  0.95147338319E+01  0.36186715415E+02  0.00000000000E+00 0.  1.
</event>
<event>
 7    1  0.6164995E-012  0.5930190E+02  0.7816164E-02  0.1266605E+00
        -11   -1    0    0    0    0  0.00000000000E+00  0.00000000000E+00  0.45593999997E+02  0.45594000000E+02  0.51100000000E-03 0.  1.
         11   -1    0    0    0    0 -0.00000000000E+00 -0.00000000000E+00 -0.45593999997E+02  0.45594000000E+02  0.51100000000E-03 0. -1.
    9900012    2    1    2    0    0  0.19597393591E+02 -0.26910655196E+01  0.25008474475E+02  0.59301898565E+02  0.49999917086E+02 0.  0.
         12    1    1    2    0    0 -0.19597393591E+02  0.26910655196E+01 -0.25008474475E+02  0.31886101435E+02  0.00000000000E+00 0. -1.
         11    1    3    3    0    0  0.78720813120E+01  0.96112214872E+01  0.62132857618E+01  0.13890650196E+02  0.51100000000E-03 0. -1.
        -11    1    3    3    0    0  0.18505903352E+02 -0.94827147245E+01  0.27208030440E+02  0.34244229559E+02  0.51100000000E-03 0.  1.
         12    1    3    3    0    0 -0.67805910737E+01 -0.28195722824E+01 -0.84128417266E+01  0.11167018809E+02  0.00000000000E+00 0. -1.
</event>
<event>
 7    1  0.6164995E-012  0.5930195E+02  0.7816164E-02  0.1266605E+00
        -11   -1    0    0    0    0  0.00000000000E+00  0.00000000000E+00  0.45593999997E+02  0.45594000000E+02  0.51100000000E-03 0.  1.
         11   -1    0    0    0    0 -0.00000000000E+00 -0.00000000000E+00 -0.45593999997E+02  0.45594000000E+02  0.51100000000E-03 0. -1.
    9900012    2    1    2    0    0  0.33256937069E+00 -0.28151340535E+02  0.14970350969E+02  0.59301953139E+02  0.50000016616E+02 0.  0.
         12    1    1    2    0    0 -0.33256937069E+00  0.28151340535E+02 -0.14970350969E+02  0.31886046861E+02  0.00000000000E+00 0. -1.
         11    1    3    3    0    0 -0.18300167291E+01  0.38393210441E+01 -0.33994153877E+01  0.54447564268E+01  0.51100000000E-03 0. -1.
        -11    1    3    3    0    0  0.52526905244E+01 -0.24289690778E+02 -0.80836945368E+01  0.26132851996E+02  0.51100000000E-03 0.  1.
        -12    1    3    3    0    0 -0.30901044246E+01 -0.77009708012E+01  0.26453460894E+02  0.27724344716E+02  0.00000000000E+00 0.  1.
</event>
<event>
 7    1  0.6164995E-012  0.5930194E+02  0.7816164E-02  0.1266605E+00
        -11   -1    0    0    0    0  0.00000000000E+00  0.00000000000E+00  0.45593999997E+02  0.45594000000E+02  0.51100000000E-03 0.  1.
         11   -1    0    0    0    0 -0.00000000000E+00 -0.00000000000E+00 -0.45593999997E+02  0.45594000000E+02  0.51100000000E-03 0. -1.
    9900012    2    1    2    0    0  0.29855128430E+02  0.10370420118E+02 -0.42245108750E+01  0.59301940363E+02  0.49999993317E+02 0.  0.
         12    1    1    2    0    0 -0.29855128430E+02 -0.10370420118E+02  0.42245108750E+01  0.31886059637E+02  0.00000000000E+00 0. -1.
         11    1    3    3    0    0 -0.24753209731E+01  0.87669820757E+01  0.11219943810E+02  0.14452485184E+02  0.51100000000E-03 0.  1.
        -11    1    3    3    0    0  0.17100704683E+02 -0.11403243148E+02 -0.18364802374E+01  0.20635908385E+02  0.51100000000E-03 0. -1.
         12    1    3    3    0    0  0.15229744720E+02  0.13006681190E+02 -0.13607974447E+02  0.24213546795E+02  0.00000000000E+00 0. -1.
</event>
<event>
 7    1  0.6164995E-012  0.5930195E+02  0.7816164E-02  0.1266605E+00
        -11   -1    0    0    0    0  0.00000000000E+00  0.00000000000E+00  0.45593999997E+02  0.45594000000E+02  0.51100000000E-03 0.  1.
         11   -1    0    0    0    0 -0.00000000000E+00 -0.00000000000E+00 -0.45593999997E+02  0.45594000000E+02  0.51100000000E-03 0. -1.
    9900012    2    1    2    0    0  0.75671605685E+01 -0.30796619988E+02 -0.33205681091E+01  0.59301954552E+02  0.50000019194E+02 0.  0.
         12    1    1    2    0    0 -0.75671605685E+01  0.30796619988E+02  0.33205681091E+01  0.31886045448E+02  0.00000000000E+00 0. -1.
         11    1    3    3    0    0  0.41773596575E+01 -0.77925913246E+01  0.62152401402E+01  0.10807591014E+02  0.51100000000E-03 0. -1.
        -11    1    3    3    0    0  0.15181696075E+02 -0.29029565377E+02 -0.10697725775E+01  0.32777186812E+02  0.51100000000E-03 0.  1.
         12    1    3    3    0    0 -0.11791895164E+02  0.60255367143E+01 -0.84660356718E+01  0.15717176726E+02  0.00000000000E+00 0. -1.
</event>
<event>
 7    1  0.6164995E-012  0.5930194E+02  0.7816164E-02  0.1266605E+00
        -11   -1    0    0    0    0  0.00000000000E+00  0.00000000000E+00  0.45593999997E+02  0.45594000000E+02  0.51100000000E-03 0. -1.
         11   -1    0    0    0    0 -0.00000000000E+00 -0.00000000000E+00 -0.45593999997E+02  0.45594000000E+02  0.51100000000E-03 0.  1.
    9900012    2    1    2    0    0  0.24091105243E+01 -0.14094019683E+02 -0.28500446462E+02  0.59301942657E+02  0.49999997500E+02 0.  0.
         12    1    1    2    0    0 -0.24091105243E+01  0.14094019683E+02  0.28500446462E+02  0.31886057343E+02  0.00000000000E+00 0. -1.
         11    1    3    3    0    0 -0.25808548604E+01 -0.66755622260E+00  0.50239165985E+01  0.56873703388E+01  0.51100000000E-03 0. -1.
        -11    1    3    3    0    0 -0.11365000498E+02 -0.20448467707E+02 -0.14313819593E+02  0.27426055120E+02  0.51100000000E-03 0.  1.
        -12    1    3    3    0    0  0.16354965883E+02  0.70220042468E+01 -0.19210543468E+02  0.26188517198E+02  0.00000000000E+00 0.  1.
</event>
<event>
 7    1  0.6164995E-012  0.5930190E+02  0.7816164E-02  0.1266605E+00
        -11   -1    0    0    0    0  0.00000000000E+00  0.00000000000E+00  0.45593999997E+02  0.45594000000E+02  0.51100000000E-03 0.  1.
         11   -1    0    0    0    0 -0.00000000000E+00 -0.00000000000E+00 -0.45593999997E+02  0.45594000000E+02  0.51100000000E-03 0. -1.
    9900012    2    1    2    0    0  0.37636875675E+01 -0.42137800363E+01  0.31381555037E+02  0.59301901417E+02  0.49999922288E+02 0.  0.
         12    1    1    2    0    0 -0.37636875675E+01  0.42137800363E+01 -0.31381555037E+02  0.31886098583E+02  0.00000000000E+00 0. -1.
         11    1    3    3    0    0 -0.12428466775E+02  0.49543557173E-01  0.13554016393E+02  0.18389687371E+02  0.51100000000E-03 0. -1.
        -11    1    3    3    0    0 -0.52431031876E+01 -0.11194037426E+02  0.12871186370E+02  0.17845560898E+02  0.51100000000E-03 0.  1.
         12    1    3    3    0    0  0.21435257530E+02  0.69307138326E+01  0.49563522744E+01  0.23066653149E+02  0.00000000000E+00 0. -1.
</event>
<event>
 7    1  0.6164995E-012  0.5930195E+02  0.7816164E-02  0.1266605E+00
        -11   -1    0    0    0    0  0.00000000000E+00  0.00000000000E+00  0.45593999997E+02  0.45594000000E+02  0.51100000000E-03 0. -1.
         11   -1    0    0    0    0 -0.00000000000E+00 -0.00000000000E+00 -0.45593999997E+02  0.45594000000E+02  0.51100000000E-03 0.  1.
    9900012    2    1    2    0    0 -0.30355262741E+01  0.11721361811E+02 -0.29497719448E+02  0.59301949835E+02  0.50000010592E+02 0.  0.
         12    1    1    2    0    0  0.30355262741E+01 -0.11721361811E+02  0.29497719448E+02  0.31886050165E+02  0.00000000000E+00 0. -1.
         11    1    3    3    0    0 -0.16054025346E+01  0.33170864440E+01  0.24646447917E+01  0.44333795219E+01  0.51100000000E-03 0. -1.
        -11    1    3    3    0    0  0.16797300378E+02  0.45205290386E+01  0.53877714793E+00  0.17403297500E+02  0.51100000000E-03 0.  1.
        -12    1    3    3    0    0 -0.18227424118E+02  0.38837463288E+01 -0.32501141388E+02  0.37465272814E+02  0.00000000000E+00 0.  1.
</event>
<event>
 7    1  0.6164995E-012  0.5930194E+02  0.7816164E-02  0.1266605E+00
        -11   -1    0    0    0    0  0.00000000000E+00  0.00000000000E+00  0.45593999997E+02  0.45594000000E+02  0.51100000000E-03 0.  1.
         11   -1    0    0    0    0 -0.00000000000E+00 -0.00000000000E+00 -0.45593999997E+02  0.45594000000E+02  0.51100000000E-03 0. -1.
    9900012    2    1    2    0    0 -0.14064551481E+02 -0.25904223061E+02 -0.12160608712E+02  0.59301940584E+02  0.49999993720E+02 0.  0.
         12    1    1    2    0    0  0.14064551481E+02  0.25904223061E+02  0.12160608712E+02  0.31886059416E+02  0.00000000000E+00 0. -1.
         11    1    3    3    0    0 -0.16857030090E+02  0.18176355616E+00  0.13675390741E+02  0.21707344693E+02  0.51100000000E-03 0. -1.
        -11    1    3    3    0    0  0.91434841962E+00 -0.20860648447E+01  0.51012514224E-02  0.22776579754E+01  0.51100000000E-03 0.  1.
         12    1    3    3    0    0  0.18781301889E+01 -0.23999921773E+02 -0.25841100705E+02  0.35316937916E+02  0.00000000000E+00 0. -1.
</event>
<event>
 7    1  0.6164995E-012  0.5930193E+02  0.7816164E-02  0.1266605E+00
        -11   -1    0    0    0    0  0.00000000000E+00  0.00000000000E+00  0.45593999997E+02  0.45594000000E+02  0.51100000000E-03 0.  1.
         11   -1    0    0    0    0 -0.00000000000E+00 -0.00000000000E+00 -0.45593999997E+02  0.45594000000E+02  0.51100000000E-03 0. -1.
    9900012    2    1    2    0    0  0.27222662923E+02 -0.52015966422E+01  0.15766790320E+02  0.59301926845E+02  0.49999968663E+02 0.  0.
         12    1    1    2    0    0 -0.27222662923E+02  0.52015966422E+01 -0.15766790320E+02  0.31886073155E+02  0.00000000000E+00 0. -1.
         11    1    3    3    0    0  0.35732478822E+01 -0.40604213926E+01 -0.92680126702E+01  0.10730851850E+02  0.51100000000E-03 0. -1.
        -11    1    3    3    0    0 -0.41096333395E+01 -0.92733641235E+01  0.14689078468E+02  0.17850865381E+02  0.51100000000E-03 0.  1.
        -12    1    3    3    0    0  0.27759048380E+02  0.81321888739E+01  0.10345724523E+02  0.30720209614E+02  0.00000000000E+00 0.  1.
</event>
<event>
 7    1  0.6164995E-012  0.5930202E+02  0.7816164E-02  0.1266604E+00
        -11   -1    0    0    0    0  0.00000000000E+00  0.00000000000E+00  0.45593999997E+02  0.45594000000E+02  0.51100000000E-03 0.  1.
         11   -1    0    0    0    0 -0.00000000000E+00 -0.00000000000E+00 -0.45593999997E+02  0.45594000000E+02  0.51100000000E-03 0. -1.
    9900012    2    1    2    0    0 -0.10553684013E+02  0.26691806582E+02  0.13888222297E+02  0.59302023405E+02  0.50000144765E+02 0.  0.
         12    1    1    2    0    0  0.10553684013E+02 -0.26691806582E+02 -0.13888222297E+02  0.31885976595E+02  0.00000000000E+00 0. -1.
         11    1    3    3    0    0 -0.57503503347E+01 -0.11414225028E+02  0.70134057839E+01  0.14578714721E+02  0.51100000000E-03 0. -1.
        -11    1    3    3    0    0  0.73758057929E+01  0.60466723013E+01 -0.83020700885E+00  0.95736096093E+01  0.51100000000E-03 0.  1.
        -12    1    3    3    0    0 -0.12179139471E+02  0.32059359309E+02  0.77050235224E+01  0.35149699074E+02  0.00000000000E+00 0.  1.
</event>
<event>
 7    1  0.6164995E-012  0.5930194E+02  0.7816164E-02  0.1266605E+00
        -11   -1    0    0    0    0  0.00000000000E+00  0.00000000000E+00  0.45593999997E+02  0.45594000000E+02  0.51100000000E-03 0.  1.
         11   -1    0    0    0    0 -0.00000000000E+00 -0.00000000000E+00 -0.45593999997E+02  0.45594000000E+02  0.51100000000E-03 0. -1.
    9900012    2    1    2    0    0 -0.12045543084E+02 -0.16436967926E+02  0.24524514035E+02  0.59301940170E+02  0.49999992965E+02 0.  0.
         12    1    1    2    0    0  0.12045543084E+02  0.16436967926E+02 -0.24524514035E+02  0.31886059830E+02  0.00000000000E+00 0. -1.
         11    1    3    3    0    0  0.94037131385E+01  0.16815050091E+01  0.87586756755E+01  0.12960388873E+02  0.51100000000E-03 0. -1.
        -11    1    3    3    0    0 -0.58325411774E+01 -0.19752417625E+02  0.21360811161E+02  0.29672559585E+02  0.51100000000E-03 0.  1.
         12    1    3    3    0    0 -0.15616715046E+02  0.16339446895E+01 -0.55949728016E+01  0.16668991713E+02  0.00000000000E+00 0. -1.
</event>
<event>
 7    1  0.6164995E-012  0.5930194E+02  0.7816164E-02  0.1266605E+00
        -11   -1    0    0    0    0  0.00000000000E+00  0.00000000000E+00  0.45593999997E+02  0.45594000000E+02  0.51100000000E-03 0.  1.
         11   -1    0    0    0    0 -0.00000000000E+00 -0.00000000000E+00 -0.45593999997E+02  0.45594000000E+02  0.51100000000E-03 0. -1.
    9900012    2    1    2    0    0 -0.28508885473E+02 -0.90086928861E+01 -0.11081855258E+02  0.59301943260E+02  0.49999998600E+02 0.  0.
         12    1    1    2    0    0  0.28508885473E+02  0.90086928861E+01  0.11081855258E+02  0.31886056740E+02  0.00000000000E+00 0. -1.
         11    1    3    3    0    0  0.73615227823E+01 -0.17880330966E+01 -0.11199967478E+02  0.13521403470E+02  0.51100000000E-03 0. -1.
        -11    1    3    3    0    0 -0.41796291494E+01  0.85326072247E+01  0.37283016726E+01  0.10206611558E+02  0.51100000000E-03 0.  1.
         12    1    3    3    0    0 -0.31690779106E+02 -0.15753267014E+02 -0.36101894528E+01  0.35573928232E+02  0.00000000000E+00 0. -1.
</event>
<event>
 7    1  0.6164995E-012  0.5930193E+02  0.7816164E-02  0.1266605E+00
        -11   -1    0    0    0    0  0.00000000000E+00  0.00000000000E+00  0.45593999997E+02  0.45594000000E+02  0.51100000000E-03 0.  1.
         11   -1    0    0    0    0 -0.00000000000E+00 -0.00000000000E+00 -0.45593999997E+02  0.45594000000E+02  0.51100000000E-03 0. -1.
    9900012    2    1    2    0    0  0.14630045111E+02 -0.12727759716E+02  0.25311808388E+02  0.59301925748E+02  0.49999966662E+02 0.  0.
         12    1    1    2    0    0 -0.14630045111E+02  0.12727759716E+02 -0.25311808388E+02  0.31886074252E+02  0.00000000000E+00 0. -1.
         11    1    3    3    0    0 -0.72864176041E+01  0.54556925836E+01 -0.81392587536E+01  0.12210814731E+02  0.51100000000E-03 0. -1.
        -11    1    3    3    0    0  0.21159351157E+01  0.32626994085E+01  0.49538176492E+01  0.62978328342E+01  0.51100000000E-03 0.  1.
        -12    1    3    3    0    0  0.19800527600E+02 -0.21446151708E+02  0.28497249492E+02  0.40793278183E+02  0.00000000000E+00 0.  1.
</event>
<event>
 7    1  0.6164995E-012  0.5930185E+02  0.7816164E-02  0.1266605E+00
        -11   -1    0    0    0    0  0.00000000000E+00  0.00000000000E+00  0.45593999997E+02  0.45594000000E+02  0.51100000000E-03 0. -1.
         11   -1    0    0    0    0 -0.00000000000E+00 -0.00000000000E+00 -0.45593999997E+02  0.45594000000E+02  0.51100000000E-03 0.  1.
    9900012    2    1    2    0    0  0.88452590509E+01 -0.21452343763E+02 -0.21869729125E+02  0.59301847636E+02  0.49999824204E+02 0.  0.
         12    1    1    2    0    0 -0.88452590509E+01  0.21452343763E+02  0.21869729125E+02  0.31886152364E+02  0.00000000000E+00 0. -1.
         11    1    3    3    0    0 -0.74277351258E+00 -0.22215608336E+02 -0.22186723708E+01  0.22338475185E+02  0.51100000000E-03 0. -1.
        -11    1    3    3    0    0  0.11399824350E+02 -0.39788810784E+01  0.40417953493E+01  0.12732776592E+02  0.51100000000E-03 0.  1.
        -12    1    3    3    0    0 -0.18117917864E+01  0.47421456514E+01 -0.23692852103E+02  0.24230595858E+02  0.00000000000E+00 0.  1.
</event>
<event>
 7    1  0.6164995E-012  0.5930194E+02  0.7816164E-02  0.1266605E+00
        -11   -1    0    0    0    0  0.00000000000E+00  0.00000000000E+00  0.45593999997E+02  0.45594000000E+02  0.51100000000E-03 0.  1.
         11   -1    0    0    0    0 -0.00000000000E+00 -0.00000000000E+00 -0.45593999997E+02  0.45594000000E+02  0.51100000000E-03 0. -1.
    9900012    2    1    2    0    0  0.12384019730E+02 -0.22303011897E+02  0.19129365371E+02  0.59301938721E+02  0.49999990322E+02 0.  0.
         12    1    1    2    0    0 -0.12384019730E+02  0.22303011897E+02 -0.19129365371E+02  0.31886061279E+02  0.00000000000E+00 0. -1.
         11    1    3    3    0    0  0.16851186049E+01 -0.85832557472E+01  0.14942888402E+02  0.17314786109E+02  0.51100000000E-03 0.  1.
        -11    1    3    3    0    0  0.45644852400E+01 -0.26489218975E+02 -0.10075314119E+01  0.26898482619E+02  0.51100000000E-03 0. -1.
         12    1    3    3    0    0  0.61344158856E+01  0.12769462825E+02  0.51940083810E+01  0.15088669993E+02  0.00000000000E+00 0. -1.
</event>
<event>
 7    1  0.6164995E-012  0.5930194E+02  0.7816164E-02  0.1266605E+00
        -11   -1    0    0    0    0  0.00000000000E+00  0.00000000000E+00  0.45593999997E+02  0.45594000000E+02  0.51100000000E-03 0.  1.
         11   -1    0    0    0    0 -0.00000000000E+00 -0.00000000000E+00 -0.45593999997E+02  0.45594000000E+02  0.51100000000E-03 0. -1.
    9900012    2    1    2    0    0 -0.13450723353E+02  0.28412862854E+02  0.53392987465E+01  0.59301939638E+02  0.49999991995E+02 0.  0.
         12    1    1    2    0    0  0.13450723353E+02 -0.28412862854E+02 -0.53392987465E+01  0.31886060362E+02  0.00000000000E+00 0. -1.
         11    1    3    3    0    0  0.24056985624E+01 -0.25554563827E+01 -0.12829413144E+02  0.13300811433E+02  0.51100000000E-03 0. -1.
        -11    1    3    3    0    0  0.62534755429E+01  0.41680810178E+01  0.30396275343E+01  0.81066757394E+01  0.51100000000E-03 0.  1.
         12    1    3    3    0    0 -0.22109897458E+02  0.26800238219E+02  0.15129084356E+02  0.37894452466E+02  0.00000000000E+00 0. -1.
</event>
<event>
 7    1  0.6164995E-012  0.5930194E+02  0.7816164E-02  0.1266605E+00
        -11   -1    0    0    0    0  0.00000000000E+00  0.00000000000E+00  0.45593999997E+02  0.45594000000E+02  0.51100000000E-03 0.  1.
         11   -1    0    0    0    0 -0.00000000000E+00 -0.00000000000E+00 -0.45593999997E+02  0.45594000000E+02  0.51100000000E-03 0. -1.
    9900012    2    1    2    0    0  0.27366133784E+02 -0.15891954525E+02  0.39065692259E+01  0.59301940663E+02  0.49999993864E+02 0.  0.
         12    1    1    2    0    0 -0.27366133784E+02  0.15891954525E+02 -0.39065692259E+01  0.31886059337E+02  0.00000000000E+00 0. -1.
         11    1    3    3    0    0  0.14682753689E+02  0.83447312064E+01 -0.82986778211E+01  0.18817168986E+02  0.51100000000E-03 0. -1.
        -11    1    3    3    0    0  0.16471623531E+02 -0.84545330242E+01 -0.23758935533E+01  0.18666504248E+02  0.51100000000E-03 0.  1.
        -12    1    3    3    0    0 -0.37882434363E+01 -0.15782152707E+02  0.14581140600E+02  0.21818267429E+02  0.00000000000E+00 0.  1.
</event>
<event>
 7    1  0.6164995E-012  0.5930195E+02  0.7816164E-02  0.1266605E+00
        -11   -1    0    0    0    0  0.00000000000E+00  0.00000000000E+00  0.45593999997E+02  0.45594000000E+02  0.51100000000E-03 0.  1.
         11   -1    0    0    0    0 -0.00000000000E+00 -0.00000000000E+00 -0.45593999997E+02  0.45594000000E+02  0.51100000000E-03 0. -1.
    9900012    2    1    2    0    0 -0.20930387743E+02 -0.10821433181E+02  0.21483384130E+02  0.59301947550E+02  0.50000006424E+02 0.  0.
         12    1    1    2    0    0  0.20930387743E+02  0.10821433181E+02 -0.21483384130E+02  0.31886052450E+02  0.00000000000E+00 0. -1.
         11    1    3    3    0    0  0.81686418727E+01 -0.40969159893E+01  0.68490374249E+01  0.11420190216E+02  0.51100000000E-03 0. -1.
        -11    1    3    3    0    0 -0.20902630095E+02 -0.26521773112E+01  0.25886375763E+02  0.33377513984E+02  0.51100000000E-03 0.  1.
         12    1    3    3    0    0 -0.81963995212E+01 -0.40723398802E+01 -0.11252029058E+02  0.14504243349E+02  0.00000000000E+00 0. -1.
</event>
<event>
 7    1  0.6164995E-012  0.5930195E+02  0.7816164E-02  0.1266605E+00
        -11   -1    0    0    0    0  0.00000000000E+00  0.00000000000E+00  0.45593999997E+02  0.45594000000E+02  0.51100000000E-03 0.  1.
         11   -1    0    0    0    0 -0.00000000000E+00 -0.00000000000E+00 -0.45593999997E+02  0.45594000000E+02  0.51100000000E-03 0. -1.
    9900012    2    1    2    0    0 -0.41987595760E+01 -0.21487602678E+02  0.23181319538E+02  0.59301949345E+02  0.50000009698E+02 0.  0.
         12    1    1    2    0    0  0.41987595760E+01  0.21487602678E+02 -0.23181319538E+02  0.31886050655E+02  0.00000000000E+00 0. -1.
         11    1    3    3    0    0  0.89804696898E+01 -0.25739805680E+02  0.60814295459E+01  0.27931527310E+02  0.51100000000E-03 0.  1.
        -11    1    3    3    0    0  0.18774527028E+00  0.69305590839E+01 -0.26075725484E+01  0.74072486362E+01  0.51100000000E-03 0. -1.
        -12    1    3    3    0    0 -0.13366974536E+02 -0.26783560813E+01  0.19707462541E+02  0.23963173399E+02  0.00000000000E+00 0.  1.
</event>
<event>
 7    1  0.6164995E-012  0.5930194E+02  0.7816164E-02  0.1266605E+00
        -11   -1    0    0    0    0  0.00000000000E+00  0.00000000000E+00  0.45593999997E+02  0.45594000000E+02  0.51100000000E-03 0. -1.
         11   -1    0    0    0    0 -0.00000000000E+00 -0.00000000000E+00 -0.45593999997E+02  0.45594000000E+02  0.51100000000E-03 0.  1.
    9900012    2    1    2    0    0 -0.61331973886E+01  0.17187832854E+02 -0.26147330541E+02  0.59301943442E+02  0.49999998931E+02 0.  0.
         12    1    1    2    0    0  0.61331973886E+01 -0.17187832854E+02  0.26147330541E+02  0.31886056558E+02  0.00000000000E+00 0. -1.
         11    1    3    3    0    0 -0.42605589919E+01  0.27869037669E+01 -0.11588024772E+02  0.12657073671E+02  0.51100000000E-03 0. -1.
        -11    1    3    3    0    0 -0.21745737636E+02  0.61243225728E+01 -0.96388429864E+01  0.24561997612E+02  0.51100000000E-03 0.  1.
         12    1    3    3    0    0  0.19873099240E+02  0.82766065138E+01 -0.49204627832E+01  0.22082872159E+02  0.00000000000E+00 0. -1.
</event>
<event>
 7    1  0.6164995E-012  0.5930196E+02  0.7816164E-02  0.1266605E+00
        -11   -1    0    0    0    0  0.00000000000E+00  0.00000000000E+00  0.45593999997E+02  0.45594000000E+02  0.51100000000E-03 0. -1.
         11   -1    0    0    0    0 -0.00000000000E+00 -0.00000000000E+00 -0.45593999997E+02  0.45594000000E+02  0.51100000000E-03 0.  1.
    9900012    2    1    2    0    0 -0.27320025732E+02 -0.26852596962E+01 -0.16221129343E+02  0.59301961319E+02  0.50000031535E+02 0.  0.
         12    1    1    2    0    0  0.27320025732E+02  0.26852596962E+01  0.16221129343E+02  0.31886038681E+02  0.00000000000E+00 0. -1.
         11    1    3    3    0    0 -0.30670814830E+02  0.71987241020E+01 -0.19314501099E+01  0.31563444216E+02  0.51100000000E-03 0. -1.
        -11    1    3    3    0    0  0.21489591689E+01  0.33527826878E+01 -0.13881065149E+02  0.14441023066E+02  0.51100000000E-03 0.  1.
        -12    1    3    3    0    0  0.12018299291E+01 -0.13236766486E+02 -0.40861408450E+00  0.13297494037E+02  0.00000000000E+00 0.  1.
</event>
<event>
 7    1  0.6164995E-012  0.5930196E+02  0.7816164E-02  0.1266605E+00
        -11   -1    0    0    0    0  0.00000000000E+00  0.00000000000E+00  0.45593999997E+02  0.45594000000E+02  0.51100000000E-03 0. -1.
         11   -1    0    0    0    0 -0.00000000000E+00 -0.00000000000E+00 -0.45593999997E+02  0.45594000000E+02  0.51100000000E-03 0.  1.
    9900012    2    1    2    0    0 -0.39653747222E+01 -0.30965270153E+02  0.64920953752E+01  0.59301961445E+02  0.50000031766E+02 0.  0.
         12    1    1    2    0    0  0.39653747222E+01  0.30965270153E+02 -0.64920953752E+01  0.31886038555E+02  0.00000000000E+00 0. -1.
         11    1    3    3    0    0  0.20015919784E+01 -0.21609363033E+02  0.31849262007E+01  0.21934326894E+02  0.51100000000E-03 0. -1.
        -11    1    3    3    0    0  0.94602969300E+01 -0.89472458443E+01 -0.10448007527E+02  0.16694648476E+02  0.51100000000E-03 0.  1.
        -12    1    3    3    0    0 -0.15427263631E+02 -0.40866127607E+00  0.13755176702E+02  0.20672986075E+02  0.00000000000E+00 0.  1.
</event>
<event>
 7    1  0.6164995E-012  0.5930193E+02  0.7816164E-02  0.1266605E+00
        -11   -1    0    0    0    0  0.00000000000E+00  0.00000000000E+00  0.45593999997E+02  0.45594000000E+02  0.51100000000E-03 0.  1.
         11   -1    0    0    0    0 -0.00000000000E+00 -0.00000000000E+00 -0.45593999997E+02  0.45594000000E+02  0.51100000000E-03 0. -1.
    9900012    2    1    2    0    0  0.13063555820E+02  0.17437503721E+02  0.23280857551E+02  0.59301931647E+02  0.49999977420E+02 0.  0.
         12    1    1    2    0    0 -0.13063555820E+02 -0.17437503721E+02 -0.23280857551E+02  0.31886068353E+02  0.00000000000E+00 0. -1.
         11    1    3    3    0    0  0.10438560175E+02  0.23598400028E+02  0.13567699704E+02  0.29153567499E+02  0.51100000000E-03 0. -1.
        -11    1    3    3    0    0  0.11853478289E+02  0.67817781499E-01 -0.39763569882E+01  0.12502838156E+02  0.51100000000E-03 0.  1.
        -12    1    3    3    0    0 -0.92284826434E+01 -0.62287140880E+01  0.13689514836E+02  0.17645525992E+02  0.00000000000E+00 0.  1.
</event>
<event>
 7    1  0.6164995E-012  0.5930195E+02  0.7816164E-02  0.1266605E+00
        -11   -1    0    0    0    0  0.00000000000E+00  0.00000000000E+00  0.45593999997E+02  0.45594000000E+02  0.51100000000E-03 0.  1.
         11   -1    0    0    0    0 -0.00000000000E+00 -0.00000000000E+00 -0.45593999997E+02  0.45594000000E+02  0.51100000000E-03 0. -1.
    9900012    2    1    2    0    0  0.11608371447E+02  0.25902862065E+02  0.14526098966E+02  0.59301951296E+02  0.50000013255E+02 0.  0.
         12    1    1    2    0    0 -0.11608371447E+02 -0.25902862065E+02 -0.14526098966E+02  0.31886048704E+02  0.00000000000E+00 0. -1.
         11    1    3    3    0    0  0.13281208071E+02  0.34784756446E+02  0.76422041053E+01  0.38010170385E+02  0.51100000000E-03 0. -1.
        -11    1    3    3    0    0  0.38455646311E+01  0.31943620411E+01 -0.19260465802E+01  0.53574221293E+01  0.51100000000E-03 0.  1.
        -12    1    3    3    0    0 -0.55184012552E+01 -0.12076256422E+02  0.88099414404E+01  0.15934358781E+02  0.00000000000E+00 0.  1.
</event>
<event>
 7    1  0.6164995E-012  0.5930196E+02  0.7816164E-02  0.1266605E+00
        -11   -1    0    0    0    0  0.00000000000E+00  0.00000000000E+00  0.45593999997E+02  0.45594000000E+02  0.51100000000E-03 0.  1.
         11   -1    0    0    0    0 -0.00000000000E+00 -0.00000000000E+00 -0.45593999997E+02  0.45594000000E+02  0.51100000000E-03 0. -1.
    9900012    2    1    2    0    0  0.19449730866E+02 -0.38209131543E+01  0.24976556730E+02  0.59301956122E+02  0.50000022058E+02 0.  0.
         12    1    1    2    0    0 -0.19449730866E+02  0.38209131543E+01 -0.24976556730E+02  0.31886043878E+02  0.00000000000E+00 0. -1.
         11    1    3    3    0    0  0.13184600559E+01 -0.49148588508E+01 -0.75907222878E+01  0.91385578487E+01  0.51100000000E-03 0. -1.
        -11    1    3    3    0    0  0.11975088406E+02 -0.66586437619E+01 -0.23216905291E+01  0.13897140938E+02  0.51100000000E-03 0.  1.
         12    1    3    3    0    0  0.61561824044E+01  0.77525894584E+01  0.34888969547E+02  0.36266257336E+02  0.00000000000E+00 0. -1.
</event>
<event>
 7    1  0.6164995E-012  0.5930196E+02  0.7816164E-02  0.1266605E+00
        -11   -1    0    0    0    0  0.00000000000E+00  0.00000000000E+00  0.45593999997E+02  0.45594000000E+02  0.51100000000E-03 0. -1.
         11   -1    0    0    0    0 -0.00000000000E+00 -0.00000000000E+00 -0.45593999997E+02  0.45594000000E+02  0.51100000000E-03 0.  1.
    9900012    2    1    2    0    0  0.14113772438E+02  0.27489715018E+02 -0.78636286080E+01  0.59301958241E+02  0.50000025921E+02 0.  0.
         12    1    1    2    0    0 -0.14113772438E+02 -0.27489715018E+02  0.78636286080E+01  0.31886041759E+02  0.00000000000E+00 0. -1.
         11    1    3    3    0    0  0.17348027109E+02  0.15120345268E+02 -0.95608645077E+01  0.24919651201E+02  0.51100000000E-03 0. -1.
        -11    1    3    3    0    0  0.91764150265E+01  0.12142613914E+02 -0.92680995507E+01  0.17819857883E+02  0.51100000000E-03 0.  1.
         12    1    3    3    0    0 -0.12410669697E+02  0.22675583517E+00  0.10965335450E+02  0.16562449157E+02  0.00000000000E+00 0. -1.
</event>
<event>
 7    1  0.6164995E-012  0.5930195E+02  0.7816164E-02  0.1266605E+00
        -11   -1    0    0    0    0  0.00000000000E+00  0.00000000000E+00  0.45593999997E+02  0.45594000000E+02  0.51100000000E-03 0.  1.
         11   -1    0    0    0    0 -0.00000000000E+00 -0.00000000000E+00 -0.45593999997E+02  0.45594000000E+02  0.51100000000E-03 0. -1.
    9900012    2    1    2    0    0 -0.27932394798E+02  0.67204609474E+01 -0.13832450819E+02  0.59301953363E+02  0.50000017024E+02 0.  0.
         12    1    1    2    0    0  0.27932394798E+02 -0.67204609474E+01  0.13832450819E+02  0.31886046637E+02  0.00000000000E+00 0. -1.
         11    1    3    3    0    0 -0.21482510254E+02  0.15966832941E+02  0.97988021191E+01  0.28503587918E+02  0.51100000000E-03 0.  1.
        -11    1    3    3    0    0 -0.33324642968E+01 -0.58498400584E+01 -0.11073430817E-01  0.67324638789E+01  0.51100000000E-03 0. -1.
        -12    1    3    3    0    0 -0.31174202471E+01 -0.33965319353E+01 -0.23620179507E+02  0.24065901565E+02  0.00000000000E+00 0.  1.
</event>
<event>
 7    1  0.6164995E-012  0.5930197E+02  0.7816164E-02  0.1266605E+00
        -11   -1    0    0    0    0  0.00000000000E+00  0.00000000000E+00  0.45593999997E+02  0.45594000000E+02  0.51100000000E-03 0. -1.
         11   -1    0    0    0    0 -0.00000000000E+00 -0.00000000000E+00 -0.45593999997E+02  0.45594000000E+02  0.51100000000E-03 0.  1.
    9900012    2    1    2    0    0  0.31167096913E+02 -0.38579731517E+01  0.55178797074E+01  0.59301970406E+02  0.50000048108E+02 0.  0.
         12    1    1    2    0    0 -0.31167096913E+02  0.38579731517E+01 -0.55178797074E+01  0.31886029594E+02  0.00000000000E+00 0. -1.
         11    1    3    3    0    0  0.88481542606E+01 -0.91165869343E+00 -0.75269957855E+01  0.11652322567E+02  0.51100000000E-03 0.  1.
        -11    1    3    3    0    0  0.46577841713E+01 -0.12029245054E+02 -0.10653408393E+02  0.16729997029E+02  0.51100000000E-03 0. -1.
        -12    1    3    3    0    0  0.17661158481E+02  0.90829305953E+01  0.23698283886E+02  0.30919650810E+02  0.00000000000E+00 0.  1.
</event>
<event>
 7    1  0.6164995E-012  0.5930195E+02  0.7816164E-02  0.1266605E+00
        -11   -1    0    0    0    0  0.00000000000E+00  0.00000000000E+00  0.45593999997E+02  0.45594000000E+02  0.51100000000E-03 0.  1.
         11   -1    0    0    0    0 -0.00000000000E+00 -0.00000000000E+00 -0.45593999997E+02  0.45594000000E+02  0.51100000000E-03 0. -1.
    9900012    2    1    2    0    0  0.65142029242E+01  0.96941774896E+01  0.29669989185E+02  0.59301950148E+02  0.50000011162E+02 0.  0.
         12    1    1    2    0    0 -0.65142029242E+01 -0.96941774896E+01 -0.29669989185E+02  0.31886049852E+02  0.00000000000E+00 0. -1.
         11    1    3    3    0    0  0.14511090047E+02  0.24958483053E+02  0.19671235405E+02  0.34935012714E+02  0.51100000000E-03 0.  1.
        -11    1    3    3    0    0 -0.37301057547E+01  0.84171229423E+00 -0.15161367580E+01  0.41134947986E+01  0.51100000000E-03 0. -1.
        -12    1    3    3    0    0 -0.42667813684E+01 -0.16106017858E+02  0.11514890538E+02  0.20253442636E+02  0.00000000000E+00 0.  1.
</event>
<event>
 7    1  0.6164995E-012  0.5930193E+02  0.7816164E-02  0.1266605E+00
        -11   -1    0    0    0    0  0.00000000000E+00  0.00000000000E+00  0.45593999997E+02  0.45594000000E+02  0.51100000000E-03 0.  1.
         11   -1    0    0    0    0 -0.00000000000E+00 -0.00000000000E+00 -0.45593999997E+02  0.45594000000E+02  0.51100000000E-03 0. -1.
    9900012    2    1    2    0    0 -0.22038011100E+02  0.16496161344E+01  0.22985350814E+02  0.59301929081E+02  0.49999972740E+02 0.  0.
         12    1    1    2    0    0  0.22038011100E+02 -0.16496161344E+01 -0.22985350814E+02  0.31886070919E+02  0.00000000000E+00 0. -1.
         11    1    3    3    0    0 -0.33444722137E+02  0.24753958859E+01  0.13967732192E+02  0.36328701690E+02  0.51100000000E-03 0. -1.
        -11    1    3    3    0    0  0.83557732869E+00  0.34524180159E+01  0.10855658316E+02  0.11422026850E+02  0.51100000000E-03 0.  1.
        -12    1    3    3    0    0  0.10571133708E+02 -0.42781977674E+01 -0.18380396939E+01  0.11551200541E+02  0.00000000000E+00 0.  1.
</event>
<event>
 7    1  0.6164995E-012  0.5930192E+02  0.7816164E-02  0.1266605E+00
        -11   -1    0    0    0    0  0.00000000000E+00  0.00000000000E+00  0.45593999997E+02  0.45594000000E+02  0.51100000000E-03 0.  1.
         11   -1    0    0    0    0 -0.00000000000E+00 -0.00000000000E+00 -0.45593999997E+02  0.45594000000E+02  0.51100000000E-03 0. -1.
    9900012    2    1    2    0    0 -0.13344392251E+02  0.12067747114E+02  0.26325251080E+02  0.59301918877E+02  0.49999954130E+02 0.  0.
         12    1    1    2    0    0  0.13344392251E+02 -0.12067747114E+02 -0.26325251080E+02  0.31886081123E+02  0.00000000000E+00 0. -1.
         11    1    3    3    0    0  0.55105577592E+01  0.12030912320E+02  0.84997102785E+01  0.15727497358E+02  0.51100000000E-03 0. -1.
        -11    1    3    3    0    0  0.24817352151E+01 -0.10315541709E+01 -0.89360687621E+01  0.93314757068E+01  0.51100000000E-03 0.  1.
        -12    1    3    3    0    0 -0.21336685226E+02  0.10683889646E+01  0.26761609564E+02  0.34242945811E+02  0.00000000000E+00 0.  1.
</event>
<event>
 7    1  0.6164995E-012  0.5930194E+02  0.7816164E-02  0.1266605E+00
        -11   -1    0    0    0    0  0.00000000000E+00  0.00000000000E+00  0.45593999997E+02  0.45594000000E+02  0.51100000000E-03 0. -1.
         11   -1    0    0    0    0 -0.00000000000E+00 -0.00000000000E+00 -0.45593999997E+02  0.45594000000E+02  0.51100000000E-03 0.  1.
    9900012    2    1    2    0    0  0.12634459208E+02 -0.74467872192E+01 -0.28313191781E+02  0.59301936772E+02  0.49999986768E+02 0.  0.
         12    1    1    2    0    0 -0.12634459208E+02  0.74467872192E+01  0.28313191781E+02  0.31886063228E+02  0.00000000000E+00 0. -1.
         11    1    3    3    0    0 -0.21897315107E+01 -0.14803345551E+02 -0.23042934531E+02  0.27475640040E+02  0.51100000000E-03 0. -1.
        -11    1    3    3    0    0  0.91314587062E+01  0.14755648315E+02 -0.11304750682E+02  0.20710144460E+02  0.51100000000E-03 0.  1.
        -12    1    3    3    0    0  0.56927320122E+01 -0.73990899839E+01  0.60344934320E+01  0.11116152272E+02  0.00000000000E+00 0.  1.
</event>
<event>
 7    1  0.6164995E-012  0.5930193E+02  0.7816164E-02  0.1266605E+00
        -11   -1    0    0    0    0  0.00000000000E+00  0.00000000000E+00  0.45593999997E+02  0.45594000000E+02  0.51100000000E-03 0.  1.
         11   -1    0    0    0    0 -0.00000000000E+00 -0.00000000000E+00 -0.45593999997E+02  0.45594000000E+02  0.51100000000E-03 0. -1.
    9900012    2    1    2    0    0  0.20593228138E+02  0.23949653220E+02 -0.43651132006E+01  0.59301934897E+02  0.49999983347E+02 0.  0.
         12    1    1    2    0    0 -0.20593228138E+02 -0.23949653220E+02  0.43651132006E+01  0.31886065103E+02  0.00000000000E+00 0. -1.
         11    1    3    3    0    0  0.88923754849E+01  0.13772290180E+01  0.41983947074E+01  0.99296334229E+01  0.51100000000E-03 0.  1.
        -11    1    3    3    0    0  0.18470860182E+02  0.15001349572E+02 -0.22082605505E+02  0.32463127253E+02  0.51100000000E-03 0. -1.
         12    1    3    3    0    0 -0.67700075290E+01  0.75710746299E+01  0.13519097597E+02  0.16909174221E+02  0.00000000000E+00 0. -1.
</event>
<event>
 7    1  0.6164995E-012  0.5930195E+02  0.7816164E-02  0.1266605E+00
        -11   -1    0    0    0    0  0.00000000000E+00  0.00000000000E+00  0.45593999997E+02  0.45594000000E+02  0.51100000000E-03 0.  1.
         11   -1    0    0    0    0 -0.00000000000E+00 -0.00000000000E+00 -0.45593999997E+02  0.45594000000E+02  0.51100000000E-03 0. -1.
    9900012    2    1    2    0    0  0.74144640593E+01  0.26287445853E+02  0.16453462023E+02  0.59301945066E+02  0.50000001893E+02 0.  0.
         12    1    1    2    0    0 -0.74144640593E+01 -0.26287445853E+02 -0.16453462023E+02  0.31886054934E+02  0.00000000000E+00 0. -1.
         11    1    3    3    0    0  0.92837507098E+01  0.22020046779E+02  0.16417959900E+02  0.28993445724E+02  0.51100000000E-03 0. -1.
        -11    1    3    3    0    0  0.75324178290E+01 -0.99061381834E+00  0.12004039492E+02  0.14206181699E+02  0.51100000000E-03 0.  1.
         12    1    3    3    0    0 -0.94017044795E+01  0.52580128921E+01 -0.11968537369E+02  0.16102317642E+02  0.00000000000E+00 0. -1.
</event>
<event>
 7    1  0.6164995E-012  0.5930195E+02  0.7816164E-02  0.1266605E+00
        -11   -1    0    0    0    0  0.00000000000E+00  0.00000000000E+00  0.45593999997E+02  0.45594000000E+02  0.51100000000E-03 0.  1.
         11   -1    0    0    0    0 -0.00000000000E+00 -0.00000000000E+00 -0.45593999997E+02  0.45594000000E+02  0.51100000000E-03 0. -1.
    9900012    2    1    2    0    0  0.30552288977E+02  0.80217434920E+01  0.43508172433E+01  0.59301947546E+02  0.50000006417E+02 0.  0.
         12    1    1    2    0    0 -0.30552288977E+02 -0.80217434920E+01 -0.43508172433E+01  0.31886052454E+02  0.00000000000E+00 0. -1.
         11    1    3    3    0    0 -0.84364297801E+01 -0.79937039357E+01 -0.11780652822E+01  0.11681630371E+02  0.51100000000E-03 0. -1.
        -11    1    3    3    0    0  0.17330927595E+02 -0.19085065627E+01  0.84143058793E+01  0.19359855173E+02  0.51100000000E-03 0.  1.
        -12    1    3    3    0    0  0.21657791162E+02  0.17923953990E+02 -0.28854233538E+01  0.28260462003E+02  0.00000000000E+00 0.  1.
</event>
<event>
 7    1  0.6164995E-012  0.5930194E+02  0.7816164E-02  0.1266605E+00
        -11   -1    0    0    0    0  0.00000000000E+00  0.00000000000E+00  0.45593999997E+02  0.45594000000E+02  0.51100000000E-03 0. -1.
         11   -1    0    0    0    0 -0.00000000000E+00 -0.00000000000E+00 -0.45593999997E+02  0.45594000000E+02  0.51100000000E-03 0.  1.
    9900012    2    1    2    0    0 -0.29737042325E+02  0.27571005360E+01  0.11172610851E+02  0.59301944696E+02  0.50000001220E+02 0.  0.
         12    1    1    2    0    0  0.29737042325E+02 -0.27571005360E+01 -0.11172610851E+02  0.31886055304E+02  0.00000000000E+00 0. -1.
         11    1    3    3    0    0  0.34123068796E+01  0.39572810111E+01 -0.53373996510E+01  0.74693872933E+01  0.51100000000E-03 0. -1.
        -11    1    3    3    0    0 -0.10827256424E+02  0.14285735380E+02  0.16937317951E+02  0.24661396080E+02  0.51100000000E-03 0.  1.
         12    1    3    3    0    0 -0.22322092780E+02 -0.15485915855E+02 -0.42730744812E+00  0.27171161323E+02  0.00000000000E+00 0. -1.
</event>
<event>
 7    1  0.6164995E-012  0.5930196E+02  0.7816164E-02  0.1266605E+00
        -11   -1    0    0    0    0  0.00000000000E+00  0.00000000000E+00  0.45593999997E+02  0.45594000000E+02  0.51100000000E-03 0.  1.
         11   -1    0    0    0    0 -0.00000000000E+00 -0.00000000000E+00 -0.45593999997E+02  0.45594000000E+02  0.51100000000E-03 0. -1.
    9900012    2    1    2    0    0 -0.17281148365E+02  0.18561833991E+02  0.19327183007E+02  0.59301956456E+02  0.50000022666E+02 0.  0.
         12    1    1    2    0    0  0.17281148365E+02 -0.18561833991E+02 -0.19327183007E+02  0.31886043544E+02  0.00000000000E+00 0. -1.
         11    1    3    3    0    0 -0.77768272525E+01  0.60577649949E+01 -0.26465748657E+01  0.10206856403E+02  0.51100000000E-03 0. -1.
        -11    1    3    3    0    0 -0.19976925772E+02  0.17368101116E+02  0.25766574707E+02  0.36941100038E+02  0.51100000000E-03 0.  1.
        -12    1    3    3    0    0  0.10472604659E+02 -0.48640321196E+01 -0.37928168346E+01  0.12154000014E+02  0.00000000000E+00 0.  1.
</event>
<event>
 7    1  0.6164995E-012  0.5930195E+02  0.7816164E-02  0.1266605E+00
        -11   -1    0    0    0    0  0.00000000000E+00  0.00000000000E+00  0.45593999997E+02  0.45594000000E+02  0.51100000000E-03 0.  1.
         11   -1    0    0    0    0 -0.00000000000E+00 -0.00000000000E+00 -0.45593999997E+02  0.45594000000E+02  0.51100000000E-03 0. -1.
    9900012    2    1    2    0    0  0.29709732627E+02  0.42759620598E+00  0.11570190052E+02  0.59301947421E+02  0.50000006188E+02 0.  0.
         12    1    1    2    0    0 -0.29709732627E+02 -0.42759620598E+00 -0.11570190052E+02  0.31886052579E+02  0.00000000000E+00 0. -1.
         11    1    3    3    0    0  0.55703981918E+01  0.38201289116E+00  0.14296121233E+02  0.15347780049E+02  0.51100000000E-03 0. -1.
        -11    1    3    3    0    0  0.22469791310E+02 -0.15807126360E+02  0.13329223430E+01  0.27505153108E+02  0.51100000000E-03 0.  1.
         12    1    3    3    0    0  0.16695431250E+01  0.15852709675E+02 -0.40588535249E+01  0.16449014263E+02  0.00000000000E+00 0. -1.
</event>
<event>
 7    1  0.6164995E-012  0.5930193E+02  0.7816164E-02  0.1266605E+00
        -11   -1    0    0    0    0  0.00000000000E+00  0.00000000000E+00  0.45593999997E+02  0.45594000000E+02  0.51100000000E-03 0. -1.
         11   -1    0    0    0    0 -0.00000000000E+00 -0.00000000000E+00 -0.45593999997E+02  0.45594000000E+02  0.51100000000E-03 0.  1.
    9900012    2    1    2    0    0  0.12321560960E+02  0.16214385347E+02 -0.24535574413E+02  0.59301928300E+02  0.49999971317E+02 0.  0.
         12    1    1    2    0    0 -0.12321560960E+02 -0.16214385347E+02  0.24535574413E+02  0.31886071700E+02  0.00000000000E+00 0. -1.
         11    1    3    3    0    0  0.15792206469E+02 -0.41226836265E+01  0.74593074413E+01  0.17945238176E+02  0.51100000000E-03 0. -1.
        -11    1    3    3    0    0  0.26808145581E+01  0.15118063752E+01 -0.14838017695E+02  0.15153847518E+02  0.51100000000E-03 0.  1.
        -12    1    3    3    0    0 -0.61514600674E+01  0.18825262598E+02 -0.17156864160E+02  0.26202842606E+02  0.00000000000E+00 0.  1.
</event>
<event>
 7    1  0.6164995E-012  0.5930192E+02  0.7816164E-02  0.1266605E+00
        -11   -1    0    0    0    0  0.00000000000E+00  0.00000000000E+00  0.45593999997E+02  0.45594000000E+02  0.51100000000E-03 0. -1.
         11   -1    0    0    0    0 -0.00000000000E+00 -0.00000000000E+00 -0.45593999997E+02  0.45594000000E+02  0.51100000000E-03 0.  1.
    9900012    2    1    2    0    0 -0.61609085164E+01  0.31200331124E+02 -0.23032329581E+01  0.59301916232E+02  0.49999949307E+02 0.  0.
         12    1    1    2    0    0  0.61609085164E+01 -0.31200331124E+02  0.23032329581E+01  0.31886083768E+02  0.00000000000E+00 0. -1.
         11    1    3    3    0    0 -0.34013821901E+00 -0.23009754049E+01 -0.66196963914E+01  0.70164494153E+01  0.51100000000E-03 0. -1.
        -11    1    3    3    0    0 -0.16578839379E+02  0.88275932424E+01 -0.10542969806E+02  0.21539232349E+02  0.51100000000E-03 0.  1.
        -12    1    3    3    0    0  0.10758069082E+02  0.24673713287E+02  0.14859433239E+02  0.30746234467E+02  0.00000000000E+00 0.  1.
</event>
<event>
 7    1  0.6164995E-012  0.5930194E+02  0.7816164E-02  0.1266605E+00
        -11   -1    0    0    0    0  0.00000000000E+00  0.00000000000E+00  0.45593999997E+02  0.45594000000E+02  0.51100000000E-03 0. -1.
         11   -1    0    0    0    0 -0.00000000000E+00 -0.00000000000E+00 -0.45593999997E+02  0.45594000000E+02  0.51100000000E-03 0.  1.
    9900012    2    1    2    0    0  0.54393679338E+01 -0.29898110534E+02 -0.96559477151E+01  0.59301936221E+02  0.49999985763E+02 0.  0.
         12    1    1    2    0    0 -0.54393679338E+01  0.29898110534E+02  0.96559477151E+01  0.31886063779E+02  0.00000000000E+00 0. -1.
         11    1    3    3    0    0  0.42154161411E+01 -0.93077227284E+01  0.10366889778E+02  0.14555955467E+02  0.51100000000E-03 0. -1.
        -11    1    3    3    0    0  0.19689952517E+01 -0.23932060171E+02 -0.27508268437E+02  0.36514726878E+02  0.51100000000E-03 0.  1.
         12    1    3    3    0    0 -0.74504345894E+00  0.33416723647E+01  0.74854309445E+01  0.82312538762E+01  0.00000000000E+00 0. -1.
</event>
<event>
 7    1  0.6164995E-012  0.5930194E+02  0.7816164E-02  0.1266605E+00
        -11   -1    0    0    0    0  0.00000000000E+00  0.00000000000E+00  0.45593999997E+02  0.45594000000E+02  0.51100000000E-03 0. -1.
         11   -1    0    0    0    0 -0.00000000000E+00 -0.00000000000E+00 -0.45593999997E+02  0.45594000000E+02  0.51100000000E-03 0.  1.
    9900012    2    1    2    0    0  0.46516343836E+01 -0.31485165373E+02 -0.19410788144E+01  0.59301935207E+02  0.49999983914E+02 0.  0.
         12    1    1    2    0    0 -0.46516343836E+01  0.31485165373E+02  0.19410788144E+01  0.31886064793E+02  0.00000000000E+00 0. -1.
         11    1    3    3    0    0  0.11014271778E+01 -0.30427890177E+02  0.81134354336E+00  0.30458626382E+02  0.51100000000E-03 0. -1.
        -11    1    3    3    0    0 -0.96749547465E+01 -0.76932822355E+01 -0.59293424341E+01  0.13709428977E+02  0.51100000000E-03 0.  1.
         12    1    3    3    0    0  0.13225161952E+02  0.66360070400E+01  0.31769200763E+01  0.15133879849E+02  0.00000000000E+00 0. -1.
</event>
<event>
 7    1  0.6164995E-012  0.5930192E+02  0.7816164E-02  0.1266605E+00
        -11   -1    0    0    0    0  0.00000000000E+00  0.00000000000E+00  0.45593999997E+02  0.45594000000E+02  0.51100000000E-03 0.  1.
         11   -1    0    0    0    0 -0.00000000000E+00 -0.00000000000E+00 -0.45593999997E+02  0.45594000000E+02  0.51100000000E-03 0. -1.
    9900012    2    1    2    0    0  0.20144070198E+02  0.24196138643E+02  0.50483353348E+01  0.59301915590E+02  0.49999948137E+02 0.  0.
         12    1    1    2    0    0 -0.20144070198E+02 -0.24196138643E+02 -0.50483353348E+01  0.31886084410E+02  0.00000000000E+00 0. -1.
         11    1    3    3    0    0  0.18128121662E+02  0.17195967244E+02 -0.10815726322E+01  0.25009995683E+02  0.51100000000E-03 0. -1.
        -11    1    3    3    0    0  0.78193640801E+01  0.52668570110E+01  0.18362886752E+02  0.20641653217E+02  0.51100000000E-03 0.  1.
         12    1    3    3    0    0 -0.58034155444E+01  0.17333143881E+01 -0.12232978785E+02  0.13650266690E+02  0.00000000000E+00 0. -1.
</event>
<event>
 7    1  0.6164995E-012  0.5930192E+02  0.7816164E-02  0.1266605E+00
        -11   -1    0    0    0    0  0.00000000000E+00  0.00000000000E+00  0.45593999997E+02  0.45594000000E+02  0.51100000000E-03 0.  1.
         11   -1    0    0    0    0 -0.00000000000E+00 -0.00000000000E+00 -0.45593999997E+02  0.45594000000E+02  0.51100000000E-03 0. -1.
    9900012    2    1    2    0    0  0.23982863468E+02  0.49659191018E+01  0.20417732739E+02  0.59301923057E+02  0.49999961754E+02 0.  0.
         12    1    1    2    0    0 -0.23982863468E+02 -0.49659191018E+01 -0.20417732739E+02  0.31886076943E+02  0.00000000000E+00 0. -1.
         11    1    3    3    0    0  0.27006294083E+01 -0.13293223405E+02  0.15614698177E+02  0.20683858130E+02  0.51100000000E-03 0. -1.
        -11    1    3    3    0    0  0.10035138046E+02 -0.84677783558E+00 -0.81372040089E+01  0.12947398103E+02  0.51100000000E-03 0.  1.
        -12    1    3    3    0    0  0.11247096014E+02  0.19105920343E+02  0.12940238571E+02  0.25670666823E+02  0.00000000000E+00 0.  1.
</event>
<event>
 7    1  0.6164995E-012  0.5930195E+02  0.7816164E-02  0.1266605E+00
        -11   -1    0    0    0    0  0.00000000000E+00  0.00000000000E+00  0.45593999997E+02  0.45594000000E+02  0.51100000000E-03 0. -1.
         11   -1    0    0    0    0 -0.00000000000E+00 -0.00000000000E+00 -0.45593999997E+02  0.45594000000E+02  0.51100000000E-03 0.  1.
    9900012    2    1    2    0    0 -0.27808116621E+02  0.14658706729E+02  0.53433454578E+01  0.59301947035E+02  0.50000005484E+02 0.  0.
         12    1    1    2    0    0  0.27808116621E+02 -0.14658706729E+02 -0.53433454578E+01  0.31886052965E+02  0.00000000000E+00 0. -1.
         11    1    3    3    0    0 -0.70086122177E+01  0.19522483146E+02  0.15585912365E+01  0.20800894219E+02  0.51100000000E-03 0. -1.
        -11    1    3    3    0    0  0.76813010553E+01 -0.11495456150E+00 -0.39091271883E+01  0.86195635672E+01  0.51100000000E-03 0.  1.
        -12    1    3    3    0    0 -0.28480805459E+02 -0.47488218548E+01  0.76938814097E+01  0.29881489249E+02  0.00000000000E+00 0.  1.
</event>
<event>
 7    1  0.6164995E-012  0.5930192E+02  0.7816164E-02  0.1266605E+00
        -11   -1    0    0    0    0  0.00000000000E+00  0.00000000000E+00  0.45593999997E+02  0.45594000000E+02  0.51100000000E-03 0.  1.
         11   -1    0    0    0    0 -0.00000000000E+00 -0.00000000000E+00 -0.45593999997E+02  0.45594000000E+02  0.51100000000E-03 0. -1.
    9900012    2    1    2    0    0  0.15042982938E+02  0.25364606473E+02  0.12127151832E+02  0.59301915124E+02  0.49999947286E+02 0.  0.
         12    1    1    2    0    0 -0.15042982938E+02 -0.25364606473E+02 -0.12127151832E+02  0.31886084876E+02  0.00000000000E+00 0. -1.
         11    1    3    3    0    0 -0.27695438578E+01  0.29855667873E+01  0.15314697870E+02  0.15846890967E+02  0.51100000000E-03 0. -1.
        -11    1    3    3    0    0  0.11100791649E+02  0.98042629760E+01  0.14508178915E+02  0.20732544548E+02  0.51100000000E-03 0.  1.
         12    1    3    3    0    0  0.67117351461E+01  0.12574776709E+02 -0.17695724953E+02  0.22722479608E+02  0.00000000000E+00 0. -1.
</event>
<event>
 7    1  0.6164995E-012  0.5930193E+02  0.7816164E-02  0.1266605E+00
        -11   -1    0    0    0    0  0.00000000000E+00  0.00000000000E+00  0.45593999997E+02  0.45594000000E+02  0.51100000000E-03 0. -1.
         11   -1    0    0    0    0 -0.00000000000E+00 -0.00000000000E+00 -0.45593999997E+02  0.45594000000E+02  0.51100000000E-03 0.  1.
    9900012    2    1    2    0    0  0.25604609106E+02 -0.96749099478E+00  0.18978648501E+02  0.59301934937E+02  0.49999983420E+02 0.  0.
         12    1    1    2    0    0 -0.25604609106E+02  0.96749099478E+00 -0.18978648501E+02  0.31886065063E+02  0.00000000000E+00 0. -1.
         11    1    3    3    0    0 -0.86268539255E+00  0.18327068592E+02  0.55714467554E+01  0.19174636593E+02  0.51100000000E-03 0. -1.
        -11    1    3    3    0    0  0.12621741783E+01 -0.72494090885E+01  0.93508767362E+01  0.11898987847E+02  0.51100000000E-03 0.  1.
        -12    1    3    3    0    0  0.25205120320E+02 -0.12045150499E+02  0.40563250091E+01  0.28228310496E+02  0.00000000000E+00 0.  1.
</event>
<event>
 7    1  0.6164995E-012  0.5930193E+02  0.7816164E-02  0.1266605E+00
        -11   -1    0    0    0    0  0.00000000000E+00  0.00000000000E+00  0.45593999997E+02  0.45594000000E+02  0.51100000000E-03 0. -1.
         11   -1    0    0    0    0 -0.00000000000E+00 -0.00000000000E+00 -0.45593999997E+02  0.45594000000E+02  0.51100000000E-03 0.  1.
    9900012    2    1    2    0    0  0.29723660909E+02 -0.25907862835E+01 -0.11247806557E+02  0.59301931824E+02  0.49999977743E+02 0.  0.
         12    1    1    2    0    0 -0.29723660909E+02  0.25907862835E+01  0.11247806557E+02  0.31886068176E+02  0.00000000000E+00 0. -1.
         11    1    3    3    0    0 -0.25849914743E+01  0.38603543991E+01  0.29270884293E+01  0.54911168211E+01  0.51100000000E-03 0. -1.
        -11    1    3    3    0    0  0.66131980778E+01  0.14846556376E+02 -0.12302499949E+02  0.20383967482E+02  0.51100000000E-03 0.  1.
         12    1    3    3    0    0  0.25695454306E+02 -0.21297697059E+02 -0.18723950368E+01  0.33426847521E+02  0.00000000000E+00 0. -1.
</event>
<event>
 7    1  0.6164995E-012  0.5930202E+02  0.7816164E-02  0.1266605E+00
        -11   -1    0    0    0    0  0.00000000000E+00  0.00000000000E+00  0.45593999997E+02  0.45594000000E+02  0.51100000000E-03 0. -1.
         11   -1    0    0    0    0 -0.00000000000E+00 -0.00000000000E+00 -0.45593999997E+02  0.45594000000E+02  0.51100000000E-03 0.  1.
    9900012    2    1    2    0    0  0.16958110140E+02 -0.15875162524E+02 -0.21843020285E+02  0.59302018443E+02  0.50000135715E+02 0.  0.
         12    1    1    2    0    0 -0.16958110140E+02  0.15875162524E+02  0.21843020285E+02  0.31885981557E+02  0.00000000000E+00 0. -1.
         11    1    3    3    0    0  0.15848582758E+02 -0.13491161384E+01 -0.46040581366E+01  0.16558835749E+02  0.51100000000E-03 0. -1.
        -11    1    3    3    0    0  0.91256252642E+01 -0.23733763252E+02 -0.16897507407E+02  0.30530219642E+02  0.51100000000E-03 0.  1.
         12    1    3    3    0    0 -0.80160978816E+01  0.92077168668E+01 -0.34145474224E+00  0.12212963051E+02  0.00000000000E+00 0. -1.
</event>
<event>
 7    1  0.6164995E-012  0.5930196E+02  0.7816164E-02  0.1266605E+00
        -11   -1    0    0    0    0  0.00000000000E+00  0.00000000000E+00  0.45593999997E+02  0.45594000000E+02  0.51100000000E-03 0.  1.
         11   -1    0    0    0    0 -0.00000000000E+00 -0.00000000000E+00 -0.45593999997E+02  0.45594000000E+02  0.51100000000E-03 0. -1.
    9900012    2    1    2    0    0 -0.10042246071E+02 -0.15716660140E+02  0.25862311460E+02  0.59301964401E+02  0.50000037156E+02 0.  0.
         12    1    1    2    0    0  0.10042246071E+02  0.15716660140E+02 -0.25862311460E+02  0.31886035599E+02  0.00000000000E+00 0. -1.
         11    1    3    3    0    0  0.46400057697E+01 -0.19716962945E+02 -0.84420738193E+00  0.20273158799E+02  0.51100000000E-03 0. -1.
        -11    1    3    3    0    0 -0.37045892689E+01 -0.95008240426E+01  0.54640434717E+01  0.11569157725E+02  0.51100000000E-03 0.  1.
         12    1    3    3    0    0 -0.10977662572E+02  0.13501126847E+02  0.21242475371E+02  0.27459647878E+02  0.00000000000E+00 0. -1.
</event>
<event>
 7    1  0.6164995E-012  0.5930196E+02  0.7816164E-02  0.1266605E+00
        -11   -1    0    0    0    0  0.00000000000E+00  0.00000000000E+00  0.45593999997E+02  0.45594000000E+02  0.51100000000E-03 0. -1.
         11   -1    0    0    0    0 -0.00000000000E+00 -0.00000000000E+00 -0.45593999997E+02  0.45594000000E+02  0.51100000000E-03 0.  1.
    9900012    2    1    2    0    0  0.95503371015E+01 -0.28222489719E+01 -0.30291010139E+02  0.59301963507E+02  0.50000035525E+02 0.  0.
         12    1    1    2    0    0 -0.95503371015E+01  0.28222489719E+01  0.30291010139E+02  0.31886036493E+02  0.00000000000E+00 0. -1.
         11    1    3    3    0    0  0.22544621109E+02  0.27716473496E+01 -0.17649246203E+02  0.28765219655E+02  0.51100000000E-03 0. -1.
        -11    1    3    3    0    0  0.25910737120E+01 -0.59270346688E+01 -0.13452322650E+02  0.14926767496E+02  0.51100000000E-03 0.  1.
         12    1    3    3    0    0 -0.15585357720E+02  0.33313834734E+00  0.81055871343E+00  0.15609976356E+02  0.00000000000E+00 0. -1.
</event>
<event>
 7    1  0.6164995E-012  0.5930193E+02  0.7816164E-02  0.1266605E+00
        -11   -1    0    0    0    0  0.00000000000E+00  0.00000000000E+00  0.45593999997E+02  0.45594000000E+02  0.51100000000E-03 0.  1.
         11   -1    0    0    0    0 -0.00000000000E+00 -0.00000000000E+00 -0.45593999997E+02  0.45594000000E+02  0.51100000000E-03 0. -1.
    9900012    2    1    2    0    0 -0.12633059143E+02 -0.28364824001E+02  0.72500922557E+01  0.59301933111E+02  0.49999980091E+02 0.  0.
         12    1    1    2    0    0  0.12633059143E+02  0.28364824001E+02 -0.72500922557E+01  0.31886066889E+02  0.00000000000E+00 0. -1.
         11    1    3    3    0    0  0.83726369735E+01  0.67351385860E+00 -0.77896311307E+01  0.11455698330E+02  0.51100000000E-03 0. -1.
        -11    1    3    3    0    0 -0.88961796826E+01 -0.38030830662E+01 -0.72296195927E+01  0.12077783467E+02  0.51100000000E-03 0.  1.
        -12    1    3    3    0    0 -0.12109516434E+02 -0.25235254793E+02  0.22269342979E+02  0.35768451315E+02  0.00000000000E+00 0.  1.
</event>
<event>
 7    1  0.6164995E-012  0.5930192E+02  0.7816164E-02  0.1266605E+00
        -11   -1    0    0    0    0  0.00000000000E+00  0.00000000000E+00  0.45593999997E+02  0.45594000000E+02  0.51100000000E-03 0.  1.
         11   -1    0    0    0    0 -0.00000000000E+00 -0.00000000000E+00 -0.45593999997E+02  0.45594000000E+02  0.51100000000E-03 0. -1.
    9900012    2    1    2    0    0 -0.17352532367E+02 -0.26698957111E+02 -0.16664946189E+01  0.59301923185E+02  0.49999961987E+02 0.  0.
         12    1    1    2    0    0  0.17352532367E+02  0.26698957111E+02  0.16664946189E+01  0.31886076815E+02  0.00000000000E+00 0. -1.
         11    1    3    3    0    0 -0.21289692408E+02 -0.49017001140E+01  0.39923815402E+00  0.21850333137E+02  0.51100000000E-03 0.  1.
        -11    1    3    3    0    0  0.28155415832E+01  0.35924317070E+01 -0.98630000343E+01  0.10867916540E+02  0.51100000000E-03 0. -1.
        -12    1    3    3    0    0  0.11216184576E+01 -0.25389688704E+02  0.77972672614E+01  0.26583673508E+02  0.00000000000E+00 0.  1.
</event>
<event>
 7    1  0.6164995E-012  0.5930195E+02  0.7816164E-02  0.1266605E+00
        -11   -1    0    0    0    0  0.00000000000E+00  0.00000000000E+00  0.45593999997E+02  0.45594000000E+02  0.51100000000E-03 0. -1.
         11   -1    0    0    0    0 -0.00000000000E+00 -0.00000000000E+00 -0.45593999997E+02  0.45594000000E+02  0.51100000000E-03 0.  1.
    9900012    2    1    2    0    0 -0.95540787864E+01  0.21537021793E+02 -0.21484794051E+02  0.59301951255E+02  0.50000013180E+02 0.  0.
         12    1    1    2    0    0  0.95540787864E+01 -0.21537021793E+02  0.21484794051E+02  0.31886048745E+02  0.00000000000E+00 0. -1.
         11    1    3    3    0    0  0.51413042024E+01 -0.30798726592E+01 -0.14563041096E+02  0.15748040853E+02  0.51100000000E-03 0. -1.
        -11    1    3    3    0    0  0.27409074986E+01  0.24577835731E+02  0.16941303970E+00  0.24730776053E+02  0.51100000000E-03 0.  1.
         12    1    3    3    0    0 -0.17436290488E+02  0.39058721333E-01 -0.70911659951E+01  0.18823134349E+02  0.00000000000E+00 0. -1.
</event>
<event>
 7    1  0.6164995E-012  0.5930193E+02  0.7816164E-02  0.1266605E+00
        -11   -1    0    0    0    0  0.00000000000E+00  0.00000000000E+00  0.45593999997E+02  0.45594000000E+02  0.51100000000E-03 0.  1.
         11   -1    0    0    0    0 -0.00000000000E+00 -0.00000000000E+00 -0.45593999997E+02  0.45594000000E+02  0.51100000000E-03 0. -1.
    9900012    2    1    2    0    0  0.14328455978E+01  0.23073962965E+02  0.21960434960E+02  0.59301929106E+02  0.49999972787E+02 0.  0.
         12    1    1    2    0    0 -0.14328455978E+01 -0.23073962965E+02 -0.21960434960E+02  0.31886070894E+02  0.00000000000E+00 0. -1.
         11    1    3    3    0    0  0.14776649634E+02  0.10680227721E+02 -0.76283313921E+01  0.19763807292E+02  0.51100000000E-03 0. -1.
        -11    1    3    3    0    0  0.47327105078E+01  0.34107644213E+01  0.88323762352E+01  0.10585023992E+02  0.51100000000E-03 0.  1.
        -12    1    3    3    0    0 -0.18076514544E+02  0.89829708224E+01  0.20756390117E+02  0.28953097823E+02  0.00000000000E+00 0.  1.
</event>
<event>
 7    1  0.6164995E-012  0.5930192E+02  0.7816164E-02  0.1266605E+00
        -11   -1    0    0    0    0  0.00000000000E+00  0.00000000000E+00  0.45593999997E+02  0.45594000000E+02  0.51100000000E-03 0.  1.
         11   -1    0    0    0    0 -0.00000000000E+00 -0.00000000000E+00 -0.45593999997E+02  0.45594000000E+02  0.51100000000E-03 0. -1.
    9900012    2    1    2    0    0  0.17274048055E+02  0.46232153780E+01  0.26399906302E+02  0.59301922954E+02  0.49999961567E+02 0.  0.
         12    1    1    2    0    0 -0.17274048055E+02 -0.46232153780E+01 -0.26399906302E+02  0.31886077046E+02  0.00000000000E+00 0. -1.
         11    1    3    3    0    0 -0.94028938143E+01  0.17202644147E+02  0.65430605505E+01  0.20667777320E+02  0.51100000000E-03 0. -1.
        -11    1    3    3    0    0  0.17021938583E+02 -0.34794568444E+00  0.69089175154E+01  0.18373910875E+02  0.51100000000E-03 0.  1.
        -12    1    3    3    0    0  0.96550032860E+01 -0.12231483085E+02  0.12947928236E+02  0.20260234759E+02  0.00000000000E+00 0.  1.
</event>
<event>
 7    1  0.6164995E-012  0.5930186E+02  0.7816164E-02  0.1266605E+00
        -11   -1    0    0    0    0  0.00000000000E+00  0.00000000000E+00  0.45593999997E+02  0.45594000000E+02  0.51100000000E-03 0. -1.
         11   -1    0    0    0    0 -0.00000000000E+00 -0.00000000000E+00 -0.45593999997E+02  0.45594000000E+02  0.51100000000E-03 0.  1.
    9900012    2    1    2    0    0 -0.22230979967E+02 -0.21840179338E+02 -0.67465669585E+01  0.59301857719E+02  0.49999842594E+02 0.  0.
         12    1    1    2    0    0  0.22230979967E+02  0.21840179338E+02  0.67465669585E+01  0.31886142281E+02  0.00000000000E+00 0. -1.
         11    1    3    3    0    0  0.17977160553E+01 -0.11236474369E+01  0.91512476391E+01  0.93935988945E+01  0.51100000000E-03 0. -1.
        -11    1    3    3    0    0 -0.27351364400E+02 -0.26198418373E+02 -0.63419546045E+01  0.38401492787E+02  0.51100000000E-03 0.  1.
         12    1    3    3    0    0  0.33226683780E+01  0.54818864714E+01 -0.95558599931E+01  0.11506766038E+02  0.00000000000E+00 0. -1.
</event>
<event>
 7    1  0.6164995E-012  0.5930193E+02  0.7816164E-02  0.1266605E+00
        -11   -1    0    0    0    0  0.00000000000E+00  0.00000000000E+00  0.45593999997E+02  0.45594000000E+02  0.51100000000E-03 0.  1.
         11   -1    0    0    0    0 -0.00000000000E+00 -0.00000000000E+00 -0.45593999997E+02  0.45594000000E+02  0.51100000000E-03 0. -1.
    9900012    2    1    2    0    0 -0.26024149737E+02  0.17739847969E+02 -0.49762059799E+01  0.59301934055E+02  0.49999981812E+02 0.  0.
         12    1    1    2    0    0  0.26024149737E+02 -0.17739847969E+02  0.49762059799E+01  0.31886065945E+02  0.00000000000E+00 0. -1.
         11    1    3    3    0    0 -0.15764155141E+02  0.13830087099E+02  0.55281718874E+01  0.21687336885E+02  0.51100000000E-03 0.  1.
        -11    1    3    3    0    0  0.11645751264E+02  0.68338682864E+01 -0.70942828581E+01  0.15253003894E+02  0.51100000000E-03 0. -1.
        -12    1    3    3    0    0 -0.21905745860E+02 -0.29241074165E+01 -0.34100950093E+01  0.22361593276E+02  0.00000000000E+00 0.  1.
</event>
<event>
 7    1  0.6164995E-012  0.5930205E+02  0.7816164E-02  0.1266604E+00
        -11   -1    0    0    0    0  0.00000000000E+00  0.00000000000E+00  0.45593999997E+02  0.45594000000E+02  0.51100000000E-03 0.  1.
         11   -1    0    0    0    0 -0.00000000000E+00 -0.00000000000E+00 -0.45593999997E+02  0.45594000000E+02  0.51100000000E-03 0. -1.
    9900012    2    1    2    0    0 -0.71441210498E+01  0.30410622488E+02  0.63929282491E+01  0.59302047650E+02  0.50000188981E+02 0.  0.
         12    1    1    2    0    0  0.71441210498E+01 -0.30410622488E+02 -0.63929282491E+01  0.31885952350E+02  0.00000000000E+00 0. -1.
         11    1    3    3    0    0  0.26253667749E+01  0.10828965218E+02 -0.74074042266E+01  0.13380159791E+02  0.51100000000E-03 0. -1.
        -11    1    3    3    0    0  0.80650127321E+01  0.74824447252E+01 -0.92445843404E+01  0.14369890373E+02  0.51100000000E-03 0.  1.
        -12    1    3    3    0    0 -0.17834500557E+02  0.12099212545E+02  0.23044916816E+02  0.31551997486E+02  0.00000000000E+00 0.  1.
</event>
<event>
 7    1  0.6164995E-012  0.5930178E+02  0.7816164E-02  0.1266605E+00
        -11   -1    0    0    0    0  0.00000000000E+00  0.00000000000E+00  0.45593999997E+02  0.45594000000E+02  0.51100000000E-03 0.  1.
         11   -1    0    0    0    0 -0.00000000000E+00 -0.00000000000E+00 -0.45593999997E+02  0.45594000000E+02  0.51100000000E-03 0. -1.
    9900012    2    1    2    0    0  0.30160162664E+02 -0.77513068800E+01  0.68565770914E+01  0.59301783234E+02  0.49999706749E+02 0.  0.
         12    1    1    2    0    0 -0.30160162664E+02  0.77513068800E+01 -0.68565770914E+01  0.31886216766E+02  0.00000000000E+00 0. -1.
         11    1    3    3    0    0  0.80052904135E+01 -0.30640540085E+00 -0.53563265473E+01  0.96368456051E+01  0.51100000000E-03 0. -1.
        -11    1    3    3    0    0  0.90904098013E+01 -0.21482996967E+02  0.18187102211E+02  0.29579137853E+02  0.51100000000E-03 0.  1.
         12    1    3    3    0    0  0.13064462449E+02  0.14038095488E+02 -0.59741985724E+01  0.20085799775E+02  0.00000000000E+00 0. -1.
</event>
<event>
 7    1  0.6164995E-012  0.5930198E+02  0.7816164E-02  0.1266605E+00
        -11   -1    0    0    0    0  0.00000000000E+00  0.00000000000E+00  0.45593999997E+02  0.45594000000E+02  0.51100000000E-03 0.  1.
         11   -1    0    0    0    0 -0.00000000000E+00 -0.00000000000E+00 -0.45593999997E+02  0.45594000000E+02  0.51100000000E-03 0. -1.
    9900012    2    1    2    0    0 -0.26749328833E+02  0.14290697204E+02  0.98472251300E+01  0.59301977006E+02  0.50000060145E+02 0.  0.
         12    1    1    2    0    0  0.26749328833E+02 -0.14290697204E+02 -0.98472251300E+01  0.31886022994E+02  0.00000000000E+00 0. -1.
         11    1    3    3    0    0 -0.58201822843E+01 -0.86046223663E+01 -0.33958447401E+01  0.10929126664E+02  0.51100000000E-03 0. -1.
        -11    1    3    3    0    0 -0.19446189951E+02 -0.19581814843E+00  0.15849465762E+02  0.25087810059E+02  0.51100000000E-03 0.  1.
         12    1    3    3    0    0 -0.14829565976E+01  0.23091137719E+02 -0.26063958921E+01  0.23285040283E+02  0.00000000000E+00 0. -1.
</event>
<event>
 7    1  0.6164995E-012  0.5930172E+02  0.7816164E-02  0.1266606E+00
        -11   -1    0    0    0    0  0.00000000000E+00  0.00000000000E+00  0.45593999997E+02  0.45594000000E+02  0.51100000000E-03 0.  1.
         11   -1    0    0    0    0 -0.00000000000E+00 -0.00000000000E+00 -0.45593999997E+02  0.45594000000E+02  0.51100000000E-03 0. -1.
    9900012    2    1    2    0    0 -0.15038219784E+02 -0.18777511258E+02  0.20928255403E+02  0.59301719917E+02  0.49999591273E+02 0.  0.
         12    1    1    2    0    0  0.15038219784E+02  0.18777511258E+02 -0.20928255403E+02  0.31886280083E+02  0.00000000000E+00 0. -1.
         11    1    3    3    0    0 -0.10827466096E+02 -0.51483611992E+01  0.44975627149E+01  0.12804987924E+02  0.51100000000E-03 0. -1.
        -11    1    3    3    0    0 -0.44019153658E+01 -0.53478312133E+01  0.29895792199E+02  0.30687693772E+02  0.51100000000E-03 0.  1.
         12    1    3    3    0    0  0.19116167793E+00 -0.82813188458E+01 -0.13465099511E+02  0.15809038220E+02  0.00000000000E+00 0. -1.
</event>
<event>
 7    1  0.6164995E-012  0.5930195E+02  0.7816164E-02  0.1266605E+00
        -11   -1    0    0    0    0  0.00000000000E+00  0.00000000000E+00  0.45593999997E+02  0.45594000000E+02  0.51100000000E-03 0.  1.
         11   -1    0    0    0    0 -0.00000000000E+00 -0.00000000000E+00 -0.45593999997E+02  0.45594000000E+02  0.51100000000E-03 0. -1.
    9900012    2    1    2    0    0 -0.13005693624E+01 -0.15029246361E+02  0.28091825637E+02  0.59301946709E+02  0.50000004890E+02 0.  0.
         12    1    1    2    0    0  0.13005693624E+01  0.15029246361E+02 -0.28091825637E+02  0.31886053291E+02  0.00000000000E+00 0. -1.
         11    1    3    3    0    0  0.43895554110E+01 -0.28539195270E+02  0.11120148456E+02  0.30942067890E+02  0.51100000000E-03 0. -1.
        -11    1    3    3    0    0  0.46101974513E+01 -0.11982463208E+01  0.34315886061E+01  0.58707338049E+01  0.51100000000E-03 0.  1.
        -12    1    3    3    0    0 -0.10300322225E+02  0.14708195230E+02  0.13540088575E+02  0.22489145014E+02  0.00000000000E+00 0.  1.
</event>
<event>
 7    1  0.6164995E-012  0.5930197E+02  0.7816164E-02  0.1266605E+00
        -11   -1    0    0    0    0  0.00000000000E+00  0.00000000000E+00  0.45593999997E+02  0.45594000000E+02  0.51100000000E-03 0. -1.
         11   -1    0    0    0    0 -0.00000000000E+00 -0.00000000000E+00 -0.45593999997E+02  0.45594000000E+02  0.51100000000E-03 0.  1.
    9900012    2    1    2    0    0  0.21484539454E+02 -0.54192098995E+01 -0.22929585834E+02  0.59301965785E+02  0.50000039679E+02 0.  0.
         12    1    1    2    0    0 -0.21484539454E+02  0.54192098995E+01  0.22929585834E+02  0.31886034215E+02  0.00000000000E+00 0. -1.
         11    1    3    3    0    0 -0.10267411161E+01  0.54384179677E+01 -0.84425263505E+01  0.10094891716E+02  0.51100000000E-03 0. -1.
        -11    1    3    3    0    0  0.29756739912E+02 -0.19488576063E+02 -0.12846417048E+02  0.37819288708E+02  0.51100000000E-03 0.  1.
         12    1    3    3    0    0 -0.72454593419E+01  0.86309481957E+01 -0.16406424353E+01  0.11387785361E+02  0.00000000000E+00 0. -1.
</event>
<event>
 7    1  0.6164995E-012  0.5930193E+02  0.7816164E-02  0.1266605E+00
        -11   -1    0    0    0    0  0.00000000000E+00  0.00000000000E+00  0.45593999997E+02  0.45594000000E+02  0.51100000000E-03 0. -1.
         11   -1    0    0    0    0 -0.00000000000E+00 -0.00000000000E+00 -0.45593999997E+02  0.45594000000E+02  0.51100000000E-03 0.  1.
    9900012    2    1    2    0    0 -0.28010007784E+02  0.15165765963E+02  0.14698525748E+01  0.59301930002E+02  0.49999974421E+02 0.  0.
         12    1    1    2    0    0  0.28010007784E+02 -0.15165765963E+02 -0.14698525748E+01  0.31886069998E+02  0.00000000000E+00 0. -1.
         11    1    3    3    0    0 -0.47042641221E+01  0.67682406339E+01 -0.71333126220E+01  0.10900611517E+02  0.51100000000E-03 0. -1.
        -11    1    3    3    0    0 -0.32619073556E+02  0.11775496819E+02 -0.87508551947E+00  0.34690518300E+02  0.51100000000E-03 0.  1.
         12    1    3    3    0    0  0.93133298940E+01 -0.33779714897E+01  0.94782507163E+01  0.13710800186E+02  0.00000000000E+00 0. -1.
</event>
<event>
 7    1  0.6164995E-012  0.5930195E+02  0.7816164E-02  0.1266605E+00
        -11   -1    0    0    0    0  0.00000000000E+00  0.00000000000E+00  0.45593999997E+02  0.45594000000E+02  0.51100000000E-03 0. -1.
         11   -1    0    0    0    0 -0.00000000000E+00 -0.00000000000E+00 -0.45593999997E+02  0.45594000000E+02  0.51100000000E-03 0.  1.
    9900012    2    1    2    0    0 -0.16940965339E+02 -0.72114661747E+01 -0.26033031849E+02  0.59301948217E+02  0.50000007641E+02 0.  0.
         12    1    1    2    0    0  0.16940965339E+02  0.72114661747E+01  0.26033031849E+02  0.31886051783E+02  0.00000000000E+00 0. -1.
         11    1    3    3    0    0 -0.16840787070E+02 -0.44327991954E+01  0.53817630525E+01  0.18227045609E+02  0.51100000000E-03 0.  1.
        -11    1    3    3    0    0  0.48302074426E+00  0.97775622044E+01 -0.33892383328E+01  0.10359583410E+02  0.51100000000E-03 0. -1.
        -12    1    3    3    0    0 -0.58319901405E+00 -0.12556229184E+02 -0.28025556569E+02  0.30715319198E+02  0.00000000000E+00 0.  1.
</event>
<event>
 7    1  0.6164995E-012  0.5930184E+02  0.7816164E-02  0.1266605E+00
        -11   -1    0    0    0    0  0.00000000000E+00  0.00000000000E+00  0.45593999997E+02  0.45594000000E+02  0.51100000000E-03 0. -1.
         11   -1    0    0    0    0 -0.00000000000E+00 -0.00000000000E+00 -0.45593999997E+02  0.45594000000E+02  0.51100000000E-03 0.  1.
    9900012    2    1    2    0    0  0.28564267315E+02  0.12396849852E+02  0.68649683672E+01  0.59301842436E+02  0.49999814721E+02 0.  0.
         12    1    1    2    0    0 -0.28564267315E+02 -0.12396849852E+02 -0.68649683672E+01  0.31886157564E+02  0.00000000000E+00 0. -1.
         11    1    3    3    0    0 -0.82887267747E+01 -0.38359777300E+01  0.36882652521E+01  0.98499247470E+01  0.51100000000E-03 0. -1.
        -11    1    3    3    0    0  0.15674433730E+02  0.13692717346E+02 -0.11290587112E+02  0.23678170087E+02  0.51100000000E-03 0.  1.
        -12    1    3    3    0    0  0.21178560360E+02  0.25401102364E+01  0.14467290227E+02  0.25773747602E+02  0.00000000000E+00 0.  1.
</event>
<event>
 7    1  0.6164995E-012  0.5930196E+02  0.7816164E-02  0.1266605E+00
        -11   -1    0    0    0    0  0.00000000000E+00  0.00000000000E+00  0.45593999997E+02  0.45594000000E+02  0.51100000000E-03 0.  1.
         11   -1    0    0    0    0 -0.00000000000E+00 -0.00000000000E+00 -0.45593999997E+02  0.45594000000E+02  0.51100000000E-03 0. -1.
    9900012    2    1    2    0    0 -0.17589867751E+02  0.64778411594E+01  0.25794450597E+02  0.59301959870E+02  0.50000028893E+02 0.  0.
         12    1    1    2    0    0  0.17589867751E+02 -0.64778411594E+01 -0.25794450597E+02  0.31886040130E+02  0.00000000000E+00 0. -1.
         11    1    3    3    0    0 -0.12557535379E+02 -0.10909551237E+02  0.86377310942E+01  0.18743542933E+02  0.51100000000E-03 0. -1.
        -11    1    3    3    0    0  0.79089046622E+01 -0.60432966635E+01  0.39232882287E+01  0.10698803592E+02  0.51100000000E-03 0.  1.
        -12    1    3    3    0    0 -0.12941237034E+02  0.23430689060E+02  0.13233431274E+02  0.29859613345E+02  0.00000000000E+00 0.  1.
</event>
<event>
 7    1  0.6164995E-012  0.5930198E+02  0.7816164E-02  0.1266605E+00
        -11   -1    0    0    0    0  0.00000000000E+00  0.00000000000E+00  0.45593999997E+02  0.45594000000E+02  0.51100000000E-03 0.  1.
         11   -1    0    0    0    0 -0.00000000000E+00 -0.00000000000E+00 -0.45593999997E+02  0.45594000000E+02  0.51100000000E-03 0. -1.
    9900012    2    1    2    0    0 -0.12497050085E+02  0.32368397591E+01  0.29155869585E+02  0.59301982316E+02  0.50000069829E+02 0.  0.
         12    1    1    2    0    0  0.12497050085E+02 -0.32368397591E+01 -0.29155869585E+02  0.31886017684E+02  0.00000000000E+00 0. -1.
         11    1    3    3    0    0  0.27460018294E+01  0.42295628039E+01  0.22739156873E+02  0.23291607568E+02  0.51100000000E-03 0. -1.
        -11    1    3    3    0    0 -0.78408912036E+01  0.58590237520E+00  0.19427502413E+02  0.20958308776E+02  0.51100000000E-03 0.  1.
         12    1    3    3    0    0 -0.74021607109E+01 -0.15786254200E+01 -0.13010789701E+02  0.15052065972E+02  0.00000000000E+00 0. -1.
</event>
<event>
 7    1  0.6164995E-012  0.5930194E+02  0.7816164E-02  0.1266605E+00
        -11   -1    0    0    0    0  0.00000000000E+00  0.00000000000E+00  0.45593999997E+02  0.45594000000E+02  0.51100000000E-03 0.  1.
         11   -1    0    0    0    0 -0.00000000000E+00 -0.00000000000E+00 -0.45593999997E+02  0.45594000000E+02  0.51100000000E-03 0. -1.
    9900012    2    1    2    0    0 -0.15307005845E+02  0.15713174114E+02  0.23141141038E+02  0.59301942276E+02  0.49999996805E+02 0.  0.
         12    1    1    2    0    0  0.15307005845E+02 -0.15713174114E+02 -0.23141141038E+02  0.31886057724E+02  0.00000000000E+00 0. -1.
         11    1    3    3    0    0  0.40789205277E+01 -0.19400048528E+01 -0.14778331292E+00  0.45191870584E+01  0.51100000000E-03 0. -1.
        -11    1    3    3    0    0  0.85418943782E+01  0.13570626125E+02  0.21060636482E+02  0.26470290182E+02  0.51100000000E-03 0.  1.
        -12    1    3    3    0    0 -0.27927820751E+02  0.40825528410E+01  0.22282878685E+01  0.28312465036E+02  0.00000000000E+00 0.  1.
</event>
<event>
 7    1  0.6164995E-012  0.5930193E+02  0.7816164E-02  0.1266605E+00
        -11   -1    0    0    0    0  0.00000000000E+00  0.00000000000E+00  0.45593999997E+02  0.45594000000E+02  0.51100000000E-03 0. -1.
         11   -1    0    0    0    0 -0.00000000000E+00 -0.00000000000E+00 -0.45593999997E+02  0.45594000000E+02  0.51100000000E-03 0.  1.
    9900012    2    1    2    0    0  0.76133451645E+01 -0.22033110919E+02  0.21755466007E+02  0.59301932470E+02  0.49999978921E+02 0.  0.
         12    1    1    2    0    0 -0.76133451645E+01  0.22033110919E+02 -0.21755466007E+02  0.31886067530E+02  0.00000000000E+00 0. -1.
         11    1    3    3    0    0  0.12409382267E+02 -0.23341536535E+02  0.22919431744E+02  0.34987432712E+02  0.51100000000E-03 0. -1.
        -11    1    3    3    0    0 -0.59141346298E+01 -0.10680629677E+02  0.83212623091E-01  0.12209003371E+02  0.51100000000E-03 0.  1.
        -12    1    3    3    0    0  0.11180975277E+01  0.11989055293E+02 -0.12471783602E+01  0.12105496387E+02  0.00000000000E+00 0.  1.
</event>
<event>
 7    1  0.6164995E-012  0.5930198E+02  0.7816164E-02  0.1266605E+00
        -11   -1    0    0    0    0  0.00000000000E+00  0.00000000000E+00  0.45593999997E+02  0.45594000000E+02  0.51100000000E-03 0.  1.
         11   -1    0    0    0    0 -0.00000000000E+00 -0.00000000000E+00 -0.45593999997E+02  0.45594000000E+02  0.51100000000E-03 0. -1.
    9900012    2    1    2    0    0 -0.25285049423E+02  0.14314430838E+02  0.13133214296E+02  0.59301984691E+02  0.50000074160E+02 0.  0.
         12    1    1    2    0    0  0.25285049423E+02 -0.14314430838E+02 -0.13133214296E+02  0.31886015309E+02  0.00000000000E+00 0. -1.
         11    1    3    3    0    0 -0.10010637883E+02  0.35317244731E+01  0.11869670180E+02  0.15924039030E+02  0.51100000000E-03 0. -1.
        -11    1    3    3    0    0 -0.79508000583E+01 -0.96435445310E+01 -0.12504000838E+02  0.17679457285E+02  0.51100000000E-03 0.  1.
         12    1    3    3    0    0 -0.73236114821E+01  0.20426250895E+02  0.13767544954E+02  0.25698488376E+02  0.00000000000E+00 0. -1.
</event>
<event>
 7    1  0.6164995E-012  0.5930194E+02  0.7816164E-02  0.1266605E+00
        -11   -1    0    0    0    0  0.00000000000E+00  0.00000000000E+00  0.45593999997E+02  0.45594000000E+02  0.51100000000E-03 0.  1.
         11   -1    0    0    0    0 -0.00000000000E+00 -0.00000000000E+00 -0.45593999997E+02  0.45594000000E+02  0.51100000000E-03 0. -1.
    9900012    2    1    2    0    0 -0.20992903870E+02  0.60966076168E+01  0.23213145953E+02  0.59301940626E+02  0.49999993796E+02 0.  0.
         12    1    1    2    0    0  0.20992903870E+02 -0.60966076168E+01 -0.23213145953E+02  0.31886059374E+02  0.00000000000E+00 0. -1.
         11    1    3    3    0    0  0.82852701457E+01 -0.14071377867E+01  0.49008315699E+01  0.97285090572E+01  0.51100000000E-03 0. -1.
        -11    1    3    3    0    0 -0.22701350896E+01 -0.37946815677E+00 -0.96415077468E+01  0.99124256012E+01  0.51100000000E-03 0.  1.
        -12    1    3    3    0    0 -0.27008038926E+02  0.78832135603E+01  0.27953822130E+02  0.39661005968E+02  0.00000000000E+00 0.  1.
</event>
<event>
 7    1  0.6164995E-012  0.5930197E+02  0.7816164E-02  0.1266605E+00
        -11   -1    0    0    0    0  0.00000000000E+00  0.00000000000E+00  0.45593999997E+02  0.45594000000E+02  0.51100000000E-03 0.  1.
         11   -1    0    0    0    0 -0.00000000000E+00 -0.00000000000E+00 -0.45593999997E+02  0.45594000000E+02  0.51100000000E-03 0. -1.
    9900012    2    1    2    0    0  0.15437984224E+02  0.25705759003E+02  0.10844408387E+02  0.59301974909E+02  0.50000056320E+02 0.  0.
         12    1    1    2    0    0 -0.15437984224E+02 -0.25705759003E+02 -0.10844408387E+02  0.31886025091E+02  0.00000000000E+00 0. -1.
         11    1    3    3    0    0  0.15677342485E+02 -0.54649781718E+01  0.26174239209E+01  0.16807616192E+02  0.51100000000E-03 0. -1.
        -11    1    3    3    0    0  0.13386602434E+02  0.13450791129E+02  0.65613088778E+01  0.20079235075E+02  0.51100000000E-03 0.  1.
        -12    1    3    3    0    0 -0.13625960695E+02  0.17719946046E+02  0.16656755884E+01  0.22415123642E+02  0.00000000000E+00 0.  1.
</event>
<event>
 7    1  0.6164995E-012  0.5930194E+02  0.7816164E-02  0.1266605E+00
        -11   -1    0    0    0    0  0.00000000000E+00  0.00000000000E+00  0.45593999997E+02  0.45594000000E+02  0.51100000000E-03 0.  1.
         11   -1    0    0    0    0 -0.00000000000E+00 -0.00000000000E+00 -0.45593999997E+02  0.45594000000E+02  0.51100000000E-03 0. -1.
    9900012    2    1    2    0    0 -0.11794599755E+01  0.84721625823E+01  0.30717299272E+02  0.59301935031E+02  0.49999983592E+02 0.  0.
         12    1    1    2    0    0  0.11794599755E+01 -0.84721625823E+01 -0.30717299272E+02  0.31886064969E+02  0.00000000000E+00 0. -1.
         11    1    3    3    0    0 -0.97322503654E+01  0.30219168472E+01 -0.50882315601E+01  0.11390293204E+02  0.51100000000E-03 0. -1.
        -11    1    3    3    0    0  0.12841910286E+02  0.51640638232E+01  0.21793890940E+01  0.14011850415E+02  0.51100000000E-03 0.  1.
        -12    1    3    3    0    0 -0.42891198965E+01  0.28618191190E+00  0.33626141738E+02  0.33899791412E+02  0.00000000000E+00 0.  1.
</event>
<event>
 7    1  0.6164995E-012  0.5930196E+02  0.7816164E-02  0.1266605E+00
        -11   -1    0    0    0    0  0.00000000000E+00  0.00000000000E+00  0.45593999997E+02  0.45594000000E+02  0.51100000000E-03 0.  1.
         11   -1    0    0    0    0 -0.00000000000E+00 -0.00000000000E+00 -0.45593999997E+02  0.45594000000E+02  0.51100000000E-03 0. -1.
    9900012    2    1    2    0    0  0.16444328557E+02  0.15230244619E+02  0.22679142750E+02  0.59301955894E+02  0.50000021642E+02 0.  0.
         12    1    1    2    0    0 -0.16444328557E+02 -0.15230244619E+02 -0.22679142750E+02  0.31886044106E+02  0.00000000000E+00 0. -1.
         11    1    3    3    0    0  0.14896795866E+02 -0.83943761977E+01  0.98920018907E+01  0.19754285117E+02  0.51100000000E-03 0. -1.
        -11    1    3    3    0    0  0.29168780544E+01 -0.60138529949E+01 -0.11248582858E+01  0.67778987786E+01  0.51100000000E-03 0.  1.
         12    1    3    3    0    0 -0.13693453639E+01  0.29638473812E+02  0.13911999145E+02  0.32769771999E+02  0.00000000000E+00 0. -1.
</event>
<event>
 7    1  0.6164995E-012  0.5930195E+02  0.7816164E-02  0.1266605E+00
        -11   -1    0    0    0    0  0.00000000000E+00  0.00000000000E+00  0.45593999997E+02  0.45594000000E+02  0.51100000000E-03 0. -1.
         11   -1    0    0    0    0 -0.00000000000E+00 -0.00000000000E+00 -0.45593999997E+02  0.45594000000E+02  0.51100000000E-03 0.  1.
    9900012    2    1    2    0    0  0.26743012763E+01  0.31351294944E+02 -0.51637955491E+01  0.59301947148E+02  0.50000005690E+02 0.  0.
         12    1    1    2    0    0 -0.26743012763E+01 -0.31351294944E+02  0.51637955491E+01  0.31886052852E+02  0.00000000000E+00 0. -1.
         11    1    3    3    0    0 -0.14274125079E+02 -0.38484941316E+01 -0.18999888462E+01  0.14905418871E+02  0.51100000000E-03 0. -1.
        -11    1    3    3    0    0 -0.48687731156E+01  0.61203192489E+01  0.56774451635E+00  0.78412749892E+01  0.51100000000E-03 0.  1.
         12    1    3    3    0    0  0.21817199471E+02  0.29079469827E+02 -0.38315512193E+01  0.36555253288E+02  0.00000000000E+00 0. -1.
</event>
<event>
 7    1  0.6164995E-012  0.5930193E+02  0.7816164E-02  0.1266605E+00
        -11   -1    0    0    0    0  0.00000000000E+00  0.00000000000E+00  0.45593999997E+02  0.45594000000E+02  0.51100000000E-03 0.  1.
         11   -1    0    0    0    0 -0.00000000000E+00 -0.00000000000E+00 -0.45593999997E+02  0.45594000000E+02  0.51100000000E-03 0. -1.
    9900012    2    1    2    0    0  0.87387744692E+01 -0.21361683439E+02  0.22000768137E+02  0.59301929418E+02  0.49999973354E+02 0.  0.
         12    1    1    2    0    0 -0.87387744692E+01  0.21361683439E+02 -0.22000768137E+02  0.31886070582E+02  0.00000000000E+00 0. -1.
         11    1    3    3    0    0  0.15790229704E+02 -0.23005078675E+02  0.15816161016E+02  0.32073602051E+02  0.51100000000E-03 0. -1.
        -11    1    3    3    0    0  0.22724108393E+01 -0.33445952915E+01 -0.83363392756E+01  0.92652426555E+01  0.51100000000E-03 0.  1.
        -12    1    3    3    0    0 -0.93238660745E+01  0.49879905281E+01  0.14520946396E+02  0.17963084711E+02  0.00000000000E+00 0.  1.
</event>
<event>
 7    1  0.6164995E-012  0.5930192E+02  0.7816164E-02  0.1266605E+00
        -11   -1    0    0    0    0  0.00000000000E+00  0.00000000000E+00  0.45593999997E+02  0.45594000000E+02  0.51100000000E-03 0.  1.
         11   -1    0    0    0    0 -0.00000000000E+00 -0.00000000000E+00 -0.45593999997E+02  0.45594000000E+02  0.51100000000E-03 0. -1.
    9900012    2    1    2    0    0  0.11959829586E+02 -0.13318311935E+01  0.29528137342E+02  0.59301918508E+02  0.49999953458E+02 0.  0.
         12    1    1    2    0    0 -0.11959829586E+02  0.13318311935E+01 -0.29528137342E+02  0.31886081492E+02  0.00000000000E+00 0. -1.
         11    1    3    3    0    0  0.18988984187E+02  0.76782327949E+01  0.88450152875E+01  0.22310783828E+02  0.51100000000E-03 0. -1.
        -11    1    3    3    0    0  0.19984755761E+01  0.93607645402E+01  0.32625022745E+01  0.10112454636E+02  0.51100000000E-03 0.  1.
        -12    1    3    3    0    0 -0.90276301771E+01 -0.18370828529E+02  0.17420619780E+02  0.26878680045E+02  0.00000000000E+00 0.  1.
</event>
<event>
 7    1  0.6164995E-012  0.5930192E+02  0.7816164E-02  0.1266605E+00
        -11   -1    0    0    0    0  0.00000000000E+00  0.00000000000E+00  0.45593999997E+02  0.45594000000E+02  0.51100000000E-03 0.  1.
         11   -1    0    0    0    0 -0.00000000000E+00 -0.00000000000E+00 -0.45593999997E+02  0.45594000000E+02  0.51100000000E-03 0. -1.
    9900012    2    1    2    0    0 -0.25231562304E+02  0.13700849391E+02  0.13869997033E+02  0.59301924230E+02  0.49999963893E+02 0.  0.
         12    1    1    2    0    0  0.25231562304E+02 -0.13700849391E+02 -0.13869997033E+02  0.31886075770E+02  0.00000000000E+00 0. -1.
         11    1    3    3    0    0 -0.36855172564E+01  0.13650786963E+02  0.51397436504E+01  0.15044732873E+02  0.51100000000E-03 0. -1.
        -11    1    3    3    0    0 -0.31776406744E+02 -0.27806266148E+01  0.10316314767E+02  0.33524591877E+02  0.51100000000E-03 0.  1.
         12    1    3    3    0    0  0.10230361696E+02  0.28306890424E+01 -0.15860613843E+01  0.10732599480E+02  0.00000000000E+00 0. -1.
</event>
<event>
 7    1  0.6164995E-012  0.5930197E+02  0.7816164E-02  0.1266605E+00
        -11   -1    0    0    0    0  0.00000000000E+00  0.00000000000E+00  0.45593999997E+02  0.45594000000E+02  0.51100000000E-03 0.  1.
         11   -1    0    0    0    0 -0.00000000000E+00 -0.00000000000E+00 -0.45593999997E+02  0.45594000000E+02  0.51100000000E-03 0. -1.
    9900012    2    1    2    0    0 -0.20266551834E+02  0.23670530331E+02  0.67595890010E+01  0.59301965866E+02  0.50000039827E+02 0.  0.
         12    1    1    2    0    0  0.20266551834E+02 -0.23670530331E+02 -0.67595890010E+01  0.31886034134E+02  0.00000000000E+00 0. -1.
         11    1    3    3    0    0 -0.22413675402E+02  0.12756176785E+02 -0.44673198452E+01  0.26173456747E+02  0.51100000000E-03 0. -1.
        -11    1    3    3    0    0 -0.62965644110E+01 -0.76512840140E+01  0.13071945647E+00  0.99098919410E+01  0.51100000000E-03 0.  1.
        -12    1    3    3    0    0  0.84436879798E+01  0.18565637559E+02  0.11096189390E+02  0.23218617178E+02  0.00000000000E+00 0.  1.
</event>
<event>
 7    1  0.6164995E-012  0.5930191E+02  0.7816164E-02  0.1266605E+00
        -11   -1    0    0    0    0  0.00000000000E+00  0.00000000000E+00  0.45593999997E+02  0.45594000000E+02  0.51100000000E-03 0.  1.
         11   -1    0    0    0    0 -0.00000000000E+00 -0.00000000000E+00 -0.45593999997E+02  0.45594000000E+02  0.51100000000E-03 0. -1.
    9900012    2    1    2    0    0 -0.22220957712E+02 -0.98284221548E+01  0.20648345096E+02  0.59301905870E+02  0.49999930409E+02 0.  0.
         12    1    1    2    0    0  0.22220957712E+02  0.98284221548E+01 -0.20648345096E+02  0.31886094130E+02  0.00000000000E+00 0. -1.
         11    1    3    3    0    0 -0.39795303635E+01 -0.12861163015E+02  0.36788427133E+01  0.13956362706E+02  0.51100000000E-03 0. -1.
        -11    1    3    3    0    0 -0.22398522803E+02 -0.11425067552E+02  0.16910804199E+02  0.30301836434E+02  0.51100000000E-03 0.  1.
         12    1    3    3    0    0  0.41570954549E+01  0.14457808412E+02  0.58698183876E-01  0.15043706730E+02  0.00000000000E+00 0. -1.
</event>
<event>
 7    1  0.6164995E-012  0.5930190E+02  0.7816164E-02  0.1266605E+00
        -11   -1    0    0    0    0  0.00000000000E+00  0.00000000000E+00  0.45593999997E+02  0.45594000000E+02  0.51100000000E-03 0.  1.
         11   -1    0    0    0    0 -0.00000000000E+00 -0.00000000000E+00 -0.45593999997E+02  0.45594000000E+02  0.51100000000E-03 0. -1.
    9900012    2    1    2    0    0 -0.57094529401E+01  0.30511317393E+02  0.72927869356E+01  0.59301904547E+02  0.49999927997E+02 0.  0.
         12    1    1    2    0    0  0.57094529401E+01 -0.30511317393E+02 -0.72927869356E+01  0.31886095453E+02  0.00000000000E+00 0. -1.
         11    1    3    3    0    0 -0.87225599856E+01 -0.80328352952E+01 -0.10189612876E+02  0.15634503715E+02  0.51100000000E-03 0. -1.
        -11    1    3    3    0    0 -0.46036593133E+00  0.45458612968E+00  0.25126646770E+01  0.25946231673E+01  0.51100000000E-03 0.  1.
         12    1    3    3    0    0  0.34734729768E+01  0.38089566558E+02  0.14969735135E+02  0.41072777665E+02  0.00000000000E+00 0. -1.
</event>
<event>
 7    1  0.6164995E-012  0.5930193E+02  0.7816164E-02  0.1266605E+00
        -11   -1    0    0    0    0  0.00000000000E+00  0.00000000000E+00  0.45593999997E+02  0.45594000000E+02  0.51100000000E-03 0.  1.
         11   -1    0    0    0    0 -0.00000000000E+00 -0.00000000000E+00 -0.45593999997E+02  0.45594000000E+02  0.51100000000E-03 0. -1.
    9900012    2    1    2    0    0 -0.15110469002E+02 -0.23136736320E+02  0.15908699649E+02  0.59301928346E+02  0.49999971400E+02 0.  0.
         12    1    1    2    0    0  0.15110469002E+02  0.23136736320E+02 -0.15908699649E+02  0.31886071654E+02  0.00000000000E+00 0. -1.
         11    1    3    3    0    0 -0.16146841010E+02  0.21872314251E+01 -0.11531987202E+01  0.16335064232E+02  0.51100000000E-03 0. -1.
        -11    1    3    3    0    0  0.33468454785E+01 -0.54081839858E+01  0.21509534687E+02  0.22430111712E+02  0.51100000000E-03 0.  1.
         12    1    3    3    0    0 -0.23104734707E+01 -0.19915783760E+02 -0.44476363176E+01  0.20536752402E+02  0.00000000000E+00 0. -1.
</event>
<event>
 7    1  0.6164995E-012  0.5930192E+02  0.7816164E-02  0.1266605E+00
        -11   -1    0    0    0    0  0.00000000000E+00  0.00000000000E+00  0.45593999997E+02  0.45594000000E+02  0.51100000000E-03 0.  1.
         11   -1    0    0    0    0 -0.00000000000E+00 -0.00000000000E+00 -0.45593999997E+02  0.45594000000E+02  0.51100000000E-03 0. -1.
    9900012    2    1    2    0    0  0.10409726263E+02 -0.11671594730E+02  0.27787292126E+02  0.59301919525E+02  0.49999955312E+02 0.  0.
         12    1    1    2    0    0 -0.10409726263E+02  0.11671594730E+02 -0.27787292126E+02  0.31886080475E+02  0.00000000000E+00 0. -1.
         11    1    3    3    0    0 -0.81947543149E+01 -0.29967502224E+01  0.10140657086E+02  0.13377871153E+02  0.51100000000E-03 0. -1.
        -11    1    3    3    0    0 -0.11506626810E+01 -0.10474612454E+02  0.23066920426E+02  0.25359896468E+02  0.51100000000E-03 0.  1.
        -12    1    3    3    0    0  0.19755143258E+02  0.17997679466E+01 -0.54202853869E+01  0.20564151903E+02  0.00000000000E+00 0.  1.
</event>
<event>
 7    1  0.6164995E-012  0.5930190E+02  0.7816164E-02  0.1266605E+00
        -11   -1    0    0    0    0  0.00000000000E+00  0.00000000000E+00  0.45593999997E+02  0.45594000000E+02  0.51100000000E-03 0. -1.
         11   -1    0    0    0    0 -0.00000000000E+00 -0.00000000000E+00 -0.45593999997E+02  0.45594000000E+02  0.51100000000E-03 0.  1.
    9900012    2    1    2    0    0 -0.17594461413E+02 -0.15499642930E+02 -0.21608322888E+02  0.59301896108E+02  0.49999912605E+02 0.  0.
         12    1    1    2    0    0  0.17594461413E+02  0.15499642930E+02  0.21608322888E+02  0.31886103892E+02  0.00000000000E+00 0. -1.
         11    1    3    3    0    0 -0.60366326712E+01 -0.37295072178E+01 -0.28866795676E+02  0.29726117321E+02  0.51100000000E-03 0. -1.
        -11    1    3    3    0    0 -0.16877415027E+01  0.45289842586E+01 -0.49717153588E+01  0.69338390279E+01  0.51100000000E-03 0.  1.
         12    1    3    3    0    0 -0.98700872392E+01 -0.16299119971E+02  0.12230188147E+02  0.22641939759E+02  0.00000000000E+00 0. -1.
</event>
<event>
 7    1  0.6164995E-012  0.5930195E+02  0.7816164E-02  0.1266605E+00
        -11   -1    0    0    0    0  0.00000000000E+00  0.00000000000E+00  0.45593999997E+02  0.45594000000E+02  0.51100000000E-03 0. -1.
         11   -1    0    0    0    0 -0.00000000000E+00 -0.00000000000E+00 -0.45593999997E+02  0.45594000000E+02  0.51100000000E-03 0.  1.
    9900012    2    1    2    0    0  0.16514966704E+02  0.10699462480E+02  0.25089794528E+02  0.59301946433E+02  0.50000004387E+02 0.  0.
         12    1    1    2    0    0 -0.16514966704E+02 -0.10699462480E+02 -0.25089794528E+02  0.31886053567E+02  0.00000000000E+00 0. -1.
         11    1    3    3    0    0 -0.94591487859E+01  0.13836881284E+02  0.19916919978E+02  0.26031106029E+02  0.51100000000E-03 0. -1.
        -11    1    3    3    0    0  0.92748697015E+01  0.84370934995E+01  0.15822174252E+01  0.12637688354E+02  0.51100000000E-03 0.  1.
        -12    1    3    3    0    0  0.16699245788E+02 -0.11574512303E+02  0.35906571252E+01  0.20633152050E+02  0.00000000000E+00 0.  1.
</event>
<event>
 7    1  0.6164995E-012  0.5930193E+02  0.7816164E-02  0.1266605E+00
        -11   -1    0    0    0    0  0.00000000000E+00  0.00000000000E+00  0.45593999997E+02  0.45594000000E+02  0.51100000000E-03 0.  1.
         11   -1    0    0    0    0 -0.00000000000E+00 -0.00000000000E+00 -0.45593999997E+02  0.45594000000E+02  0.51100000000E-03 0. -1.
    9900012    2    1    2    0    0 -0.22473796198E+02  0.19122900093E+02  0.12081587516E+02  0.59301928112E+02  0.49999970974E+02 0.  0.
         12    1    1    2    0    0  0.22473796198E+02 -0.19122900093E+02 -0.12081587516E+02  0.31886071888E+02  0.00000000000E+00 0. -1.
         11    1    3    3    0    0  0.51230060408E+01  0.11654566161E+00  0.78294114306E+01  0.93572676245E+01  0.51100000000E-03 0. -1.
        -11    1    3    3    0    0 -0.23627947161E+02  0.30204419415E+01  0.16875793450E+02  0.29192385332E+02  0.51100000000E-03 0.  1.
         12    1    3    3    0    0 -0.39688550779E+01  0.15985912490E+02 -0.12623617365E+02  0.20752275156E+02  0.00000000000E+00 0. -1.
</event>
<event>
 7    1  0.6164995E-012  0.5930190E+02  0.7816164E-02  0.1266605E+00
        -11   -1    0    0    0    0  0.00000000000E+00  0.00000000000E+00  0.45593999997E+02  0.45594000000E+02  0.51100000000E-03 0.  1.
         11   -1    0    0    0    0 -0.00000000000E+00 -0.00000000000E+00 -0.45593999997E+02  0.45594000000E+02  0.51100000000E-03 0. -1.
    9900012    2    1    2    0    0 -0.11849984363E+02 -0.58831040481E+01  0.29011903792E+02  0.59301896377E+02  0.49999913096E+02 0.  0.
         12    1    1    2    0    0  0.11849984363E+02  0.58831040481E+01 -0.29011903792E+02  0.31886103623E+02  0.00000000000E+00 0. -1.
         11    1    3    3    0    0 -0.12298390670E+02 -0.88097190837E+00 -0.10391885547E+02  0.16125067754E+02  0.51100000000E-03 0. -1.
        -11    1    3    3    0    0  0.10595039646E+01 -0.82977244415E+01  0.79345927423E+01  0.11529637540E+02  0.51100000000E-03 0.  1.
        -12    1    3    3    0    0 -0.61109765806E+00  0.32955923018E+01  0.31469196597E+02  0.31647191083E+02  0.00000000000E+00 0.  1.
</event>
<event>
 7    1  0.6164995E-012  0.5930198E+02  0.7816164E-02  0.1266605E+00
        -11   -1    0    0    0    0  0.00000000000E+00  0.00000000000E+00  0.45593999997E+02  0.45594000000E+02  0.51100000000E-03 0.  1.
         11   -1    0    0    0    0 -0.00000000000E+00 -0.00000000000E+00 -0.45593999997E+02  0.45594000000E+02  0.51100000000E-03 0. -1.
    9900012    2    1    2    0    0  0.70333408503E+01  0.19907714650E+02  0.23894207971E+02  0.59301981737E+02  0.50000068773E+02 0.  0.
         12    1    1    2    0    0 -0.70333408503E+01 -0.19907714650E+02 -0.23894207971E+02  0.31886018263E+02  0.00000000000E+00 0. -1.
         11    1    3    3    0    0 -0.18736683649E+01  0.19144834298E+02  0.26896649413E+02  0.33067583271E+02  0.51100000000E-03 0. -1.
        -11    1    3    3    0    0  0.42897887586E+01  0.59163067306E+00  0.10823085315E+02  0.11657250552E+02  0.51100000000E-03 0.  1.
         12    1    3    3    0    0  0.46172204566E+01  0.17124967832E+00 -0.13825526757E+02  0.14577147914E+02  0.00000000000E+00 0. -1.
</event>
<event>
 7    1  0.6164995E-012  0.5930200E+02  0.7816164E-02  0.1266605E+00
        -11   -1    0    0    0    0  0.00000000000E+00  0.00000000000E+00  0.45593999997E+02  0.45594000000E+02  0.51100000000E-03 0. -1.
         11   -1    0    0    0    0 -0.00000000000E+00 -0.00000000000E+00 -0.45593999997E+02  0.45594000000E+02  0.51100000000E-03 0.  1.
    9900012    2    1    2    0    0 -0.44644163699E+01  0.30768613114E+02 -0.70766190060E+01  0.59301998322E+02  0.50000099020E+02 0.  0.
         12    1    1    2    0    0  0.44644163699E+01 -0.30768613114E+02  0.70766190060E+01  0.31886001678E+02  0.00000000000E+00 0. -1.
         11    1    3    3    0    0  0.10507179948E+01  0.21135091096E+02  0.26761507603E+01  0.21329741374E+02  0.51100000000E-03 0.  1.
        -11    1    3    3    0    0 -0.15319409301E+02  0.17744804614E+02 -0.32020489596E+01  0.23660420746E+02  0.51100000000E-03 0. -1.
         12    1    3    3    0    0  0.98042749360E+01 -0.81112825959E+01 -0.65507208067E+01  0.14311836201E+02  0.00000000000E+00 0. -1.
</event>
<event>
 7    1  0.6164995E-012  0.5930180E+02  0.7816164E-02  0.1266605E+00
        -11   -1    0    0    0    0  0.00000000000E+00  0.00000000000E+00  0.45593999997E+02  0.45594000000E+02  0.51100000000E-03 0.  1.
         11   -1    0    0    0    0 -0.00000000000E+00 -0.00000000000E+00 -0.45593999997E+02  0.45594000000E+02  0.51100000000E-03 0. -1.
    9900012    2    1    2    0    0 -0.10154426454E+02 -0.17714827170E+02  0.24490855686E+02  0.59301804075E+02  0.49999744760E+02 0.  0.
         12    1    1    2    0    0  0.10154426454E+02  0.17714827170E+02 -0.24490855686E+02  0.31886195925E+02  0.00000000000E+00 0. -1.
         11    1    3    3    0    0  0.80760328150E+01 -0.16815689031E+01  0.75569368266E+01  0.11187371205E+02  0.51100000000E-03 0. -1.
        -11    1    3    3    0    0  0.25321052561E+01 -0.10507507833E+02  0.23317651409E+02  0.25700819936E+02  0.51100000000E-03 0.  1.
         12    1    3    3    0    0 -0.20762564525E+02 -0.55257504344E+01 -0.63837325494E+01  0.22413612935E+02  0.00000000000E+00 0. -1.
</event>
<event>
 7    1  0.6164995E-012  0.5930195E+02  0.7816164E-02  0.1266605E+00
        -11   -1    0    0    0    0  0.00000000000E+00  0.00000000000E+00  0.45593999997E+02  0.45594000000E+02  0.51100000000E-03 0. -1.
         11   -1    0    0    0    0 -0.00000000000E+00 -0.00000000000E+00 -0.45593999997E+02  0.45594000000E+02  0.51100000000E-03 0.  1.
    9900012    2    1    2    0    0  0.22554933698E+02 -0.17989908576E+02 -0.13577863797E+02  0.59301949288E+02  0.50000009593E+02 0.  0.
         12    1    1    2    0    0 -0.22554933698E+02  0.17989908576E+02  0.13577863797E+02  0.31886050712E+02  0.00000000000E+00 0. -1.
         11    1    3    3    0    0  0.14879406528E+02 -0.17274000133E+02 -0.96426109754E+01  0.24754146438E+02  0.51100000000E-03 0. -1.
        -11    1    3    3    0    0 -0.37488210844E+01  0.45037007988E+01 -0.16056647417E+02  0.17092481006E+02  0.51100000000E-03 0.  1.
         12    1    3    3    0    0  0.11424348255E+02 -0.52196092426E+01  0.12121394596E+02  0.17455321843E+02  0.00000000000E+00 0. -1.
</event>
<event>
 7    1  0.6164995E-012  0.5930195E+02  0.7816164E-02  0.1266605E+00
        -11   -1    0    0    0    0  0.00000000000E+00  0.00000000000E+00  0.45593999997E+02  0.45594000000E+02  0.51100000000E-03 0.  1.
         11   -1    0    0    0    0 -0.00000000000E+00 -0.00000000000E+00 -0.45593999997E+02  0.45594000000E+02  0.51100000000E-03 0. -1.
    9900012    2    1    2    0    0 -0.26101510403E+02  0.17848557757E+02  0.41061081679E+01  0.59301953152E+02  0.50000016640E+02 0.  0.
         12    1    1    2    0    0  0.26101510403E+02 -0.17848557757E+02 -0.41061081679E+01  0.31886046848E+02  0.00000000000E+00 0. -1.
         11    1    3    3    0    0 -0.70549773891E+01  0.28874587916E+02  0.10114277924E+01  0.29741175493E+02  0.51100000000E-03 0. -1.
        -11    1    3    3    0    0 -0.85925943181E+00  0.25192720473E+01 -0.48498686853E+01  0.55322947269E+01  0.51100000000E-03 0.  1.
        -12    1    3    3    0    0 -0.18187273582E+02 -0.13545302207E+02  0.79445490608E+01  0.24028482932E+02  0.00000000000E+00 0.  1.
</event>
<event>
 7    1  0.6164995E-012  0.5930192E+02  0.7816164E-02  0.1266605E+00
        -11   -1    0    0    0    0  0.00000000000E+00  0.00000000000E+00  0.45593999997E+02  0.45594000000E+02  0.51100000000E-03 0. -1.
         11   -1    0    0    0    0 -0.00000000000E+00 -0.00000000000E+00 -0.45593999997E+02  0.45594000000E+02  0.51100000000E-03 0.  1.
    9900012    2    1    2    0    0 -0.28609916269E+01 -0.30364820706E+02  0.93013031401E+01  0.59301923890E+02  0.49999963274E+02 0.  0.
         12    1    1    2    0    0  0.28609916269E+01  0.30364820706E+02 -0.93013031401E+01  0.31886076110E+02  0.00000000000E+00 0. -1.
         11    1    3    3    0    0  0.68069786721E+01  0.32921891939E+01  0.45803542082E+01  0.88404249482E+01  0.51100000000E-03 0. -1.
        -11    1    3    3    0    0  0.21208184376E+01 -0.28303233886E+02  0.16608171309E+02  0.32884681445E+02  0.51100000000E-03 0.  1.
        -12    1    3    3    0    0 -0.11788788737E+02 -0.53537760135E+01 -0.11887222377E+02  0.17576817497E+02  0.00000000000E+00 0.  1.
</event>
<event>
 7    1  0.6164995E-012  0.5930195E+02  0.7816164E-02  0.1266605E+00
        -11   -1    0    0    0    0  0.00000000000E+00  0.00000000000E+00  0.45593999997E+02  0.45594000000E+02  0.51100000000E-03 0.  1.
         11   -1    0    0    0    0 -0.00000000000E+00 -0.00000000000E+00 -0.45593999997E+02  0.45594000000E+02  0.51100000000E-03 0. -1.
    9900012    2    1    2    0    0  0.35073414158E+01 -0.24420823257E+02  0.20200052168E+02  0.59301950386E+02  0.50000011597E+02 0.  0.
         12    1    1    2    0    0 -0.35073414158E+01  0.24420823257E+02 -0.20200052168E+02  0.31886049614E+02  0.00000000000E+00 0. -1.
         11    1    3    3    0    0  0.10701301603E+02 -0.11837632371E+02  0.13379790333E+02  0.20824653317E+02  0.51100000000E-03 0. -1.
        -11    1    3    3    0    0  0.14182284721E+01 -0.21746425040E+02  0.11998919463E+02  0.24877548966E+02  0.51100000000E-03 0.  1.
         12    1    3    3    0    0 -0.86121886591E+01  0.91632341542E+01 -0.51786576275E+01  0.13599748104E+02  0.00000000000E+00 0. -1.
</event>
<event>
 7    1  0.6164995E-012  0.5930192E+02  0.7816164E-02  0.1266605E+00
        -11   -1    0    0    0    0  0.00000000000E+00  0.00000000000E+00  0.45593999997E+02  0.45594000000E+02  0.51100000000E-03 0.  1.
         11   -1    0    0    0    0 -0.00000000000E+00 -0.00000000000E+00 -0.45593999997E+02  0.45594000000E+02  0.51100000000E-03 0. -1.
    9900012    2    1    2    0    0  0.15954906644E+02 -0.27239905917E+01  0.27472590715E+02  0.59301915083E+02  0.49999947211E+02 0.  0.
         12    1    1    2    0    0 -0.15954906644E+02  0.27239905917E+01 -0.27472590715E+02  0.31886084917E+02  0.00000000000E+00 0. -1.
         11    1    3    3    0    0  0.63769778172E+01 -0.35716625829E+01  0.29605913559E+02  0.30494798533E+02  0.51100000000E-03 0. -1.
        -11    1    3    3    0    0  0.11850654822E+01  0.10866662946E+02  0.68933558280E+01  0.12923122634E+02  0.51100000000E-03 0.  1.
         12    1    3    3    0    0  0.83928633447E+01 -0.10018990954E+02 -0.90266786718E+01  0.15883993916E+02  0.00000000000E+00 0. -1.
</event>
<event>
 7    1  0.6164995E-012  0.5930176E+02  0.7816164E-02  0.1266605E+00
        -11   -1    0    0    0    0  0.00000000000E+00  0.00000000000E+00  0.45593999997E+02  0.45594000000E+02  0.51100000000E-03 0.  1.
         11   -1    0    0    0    0 -0.00000000000E+00 -0.00000000000E+00 -0.45593999997E+02  0.45594000000E+02  0.51100000000E-03 0. -1.
    9900012    2    1    2    0    0 -0.72162972876E+01 -0.30989632897E+02 -0.20735907178E+01  0.59301763595E+02  0.49999670933E+02 0.  0.
         12    1    1    2    0    0  0.72162972876E+01  0.30989632897E+02  0.20735907178E+01  0.31886236405E+02  0.00000000000E+00 0. -1.
         11    1    3    3    0    0  0.51043896199E+01 -0.96160504171E+01  0.45168938780E+01  0.11786668299E+02  0.51100000000E-03 0. -1.
        -11    1    3    3    0    0 -0.15457952718E+02 -0.26295180924E+01  0.12891232326E+02  0.20298929499E+02  0.51100000000E-03 0.  1.
         12    1    3    3    0    0  0.31372658108E+01 -0.18744064387E+02 -0.19481716922E+02  0.27216165798E+02  0.00000000000E+00 0. -1.
</event>
<event>
 7    1  0.6164995E-012  0.5930196E+02  0.7816164E-02  0.1266605E+00
        -11   -1    0    0    0    0  0.00000000000E+00  0.00000000000E+00  0.45593999997E+02  0.45594000000E+02  0.51100000000E-03 0.  1.
         11   -1    0    0    0    0 -0.00000000000E+00 -0.00000000000E+00 -0.45593999997E+02  0.45594000000E+02  0.51100000000E-03 0. -1.
    9900012    2    1    2    0    0 -0.19151756920E+01 -0.22369225165E+02  0.22642210741E+02  0.59301955409E+02  0.50000020756E+02 0.  0.
         12    1    1    2    0    0  0.19151756920E+01  0.22369225165E+02 -0.22642210741E+02  0.31886044591E+02  0.00000000000E+00 0. -1.
         11    1    3    3    0    0  0.11430765511E+02 -0.30171725902E+01 -0.42011223510E+01  0.12546519831E+02  0.51100000000E-03 0. -1.
        -11    1    3    3    0    0  0.66090875337E+01 -0.16075290397E+02  0.80724410990E+01  0.19164010669E+02  0.51100000000E-03 0.  1.
        -12    1    3    3    0    0 -0.19955028737E+02 -0.32767621783E+01  0.18770891993E+02  0.27591424909E+02  0.00000000000E+00 0.  1.
</event>
<event>
 7    1  0.6164995E-012  0.5930195E+02  0.7816164E-02  0.1266605E+00
        -11   -1    0    0    0    0  0.00000000000E+00  0.00000000000E+00  0.45593999997E+02  0.45594000000E+02  0.51100000000E-03 0.  1.
         11   -1    0    0    0    0 -0.00000000000E+00 -0.00000000000E+00 -0.45593999997E+02  0.45594000000E+02  0.51100000000E-03 0. -1.
    9900012    2    1    2    0    0 -0.22486360874E+02 -0.22604107980E+02 -0.37188585991E+00  0.59301946277E+02  0.50000004102E+02 0.  0.
         12    1    1    2    0    0  0.22486360874E+02  0.22604107980E+02  0.37188585991E+00  0.31886053723E+02  0.00000000000E+00 0. -1.
         11    1    3    3    0    0 -0.17948625813E+02 -0.16321193884E+02 -0.57983307683E+01  0.24943038675E+02  0.51100000000E-03 0. -1.
        -11    1    3    3    0    0 -0.67071655158E+01  0.10351435031E+00  0.18483274529E+02  0.19662864035E+02  0.51100000000E-03 0.  1.
         12    1    3    3    0    0  0.21694304547E+01 -0.63864284463E+01 -0.13056829620E+02  0.14696043567E+02  0.00000000000E+00 0. -1.
</event>
<event>
 7    1  0.6164995E-012  0.5930197E+02  0.7816164E-02  0.1266605E+00
        -11   -1    0    0    0    0  0.00000000000E+00  0.00000000000E+00  0.45593999997E+02  0.45594000000E+02  0.51100000000E-03 0. -1.
         11   -1    0    0    0    0 -0.00000000000E+00 -0.00000000000E+00 -0.45593999997E+02  0.45594000000E+02  0.51100000000E-03 0.  1.
    9900012    2    1    2    0    0  0.11346947995E+02 -0.27573699341E+02 -0.11298540472E+02  0.59301966365E+02  0.50000040738E+02 0.  0.
         12    1    1    2    0    0 -0.11346947995E+02  0.27573699341E+02  0.11298540472E+02  0.31886033635E+02  0.00000000000E+00 0. -1.
         11    1    3    3    0    0 -0.38851880764E+01 -0.19603255364E+02  0.51031576619E+01  0.20625821817E+02  0.51100000000E-03 0. -1.
        -11    1    3    3    0    0  0.23825474097E+02 -0.26452234189E+01 -0.72622795139E+01  0.25047776885E+02  0.51100000000E-03 0.  1.
         12    1    3    3    0    0 -0.85933380261E+01 -0.53252205589E+01 -0.91394186203E+01  0.13628367663E+02  0.00000000000E+00 0. -1.
</event>
<event>
 7    1  0.6164995E-012  0.5930196E+02  0.7816164E-02  0.1266605E+00
        -11   -1    0    0    0    0  0.00000000000E+00  0.00000000000E+00  0.45593999997E+02  0.45594000000E+02  0.51100000000E-03 0.  1.
         11   -1    0    0    0    0 -0.00000000000E+00 -0.00000000000E+00 -0.45593999997E+02  0.45594000000E+02  0.51100000000E-03 0. -1.
    9900012    2    1    2    0    0  0.27184170364E+02  0.57712059488E+01 -0.15634378553E+02  0.59301957141E+02  0.50000023915E+02 0.  0.
         12    1    1    2    0    0 -0.27184170364E+02 -0.57712059488E+01  0.15634378553E+02  0.31886042859E+02  0.00000000000E+00 0. -1.
         11    1    3    3    0    0  0.11311618634E+02  0.19598933863E+02 -0.27721193110E+01  0.22798148399E+02  0.51100000000E-03 0. -1.
        -11    1    3    3    0    0  0.13169029686E+02  0.44787314598E+00  0.44451955965E+01  0.13906246704E+02  0.51100000000E-03 0.  1.
        -12    1    3    3    0    0  0.27035220435E+01 -0.14275601061E+02 -0.17307454838E+02  0.22597562038E+02  0.00000000000E+00 0.  1.
</event>
<event>
 7    1  0.6164995E-012  0.5930193E+02  0.7816164E-02  0.1266605E+00
        -11   -1    0    0    0    0  0.00000000000E+00  0.00000000000E+00  0.45593999997E+02  0.45594000000E+02  0.51100000000E-03 0. -1.
         11   -1    0    0    0    0 -0.00000000000E+00 -0.00000000000E+00 -0.45593999997E+02  0.45594000000E+02  0.51100000000E-03 0.  1.
    9900012    2    1    2    0    0 -0.78484141259E+01 -0.15644029237E+02 -0.26653109406E+02  0.59301929435E+02  0.49999973387E+02 0.  0.
         12    1    1    2    0    0  0.78484141259E+01  0.15644029237E+02  0.26653109406E+02  0.31886070565E+02  0.00000000000E+00 0. -1.
         11    1    3    3    0    0 -0.76459484140E+00  0.25977913769E+01  0.58568825604E+01  0.64526117888E+01  0.51100000000E-03 0. -1.
        -11    1    3    3    0    0  0.13961416479E+02 -0.25224066036E+00 -0.11621193533E+02  0.18166918144E+02  0.51100000000E-03 0.  1.
         12    1    3    3    0    0 -0.21045235764E+02 -0.17989579953E+02 -0.20888798433E+02  0.34682399502E+02  0.00000000000E+00 0. -1.
</event>
<event>
 7    1  0.6164995E-012  0.5930195E+02  0.7816164E-02  0.1266605E+00
        -11   -1    0    0    0    0  0.00000000000E+00  0.00000000000E+00  0.45593999997E+02  0.45594000000E+02  0.51100000000E-03 0. -1.
         11   -1    0    0    0    0 -0.00000000000E+00 -0.00000000000E+00 -0.45593999997E+02  0.45594000000E+02  0.51100000000E-03 0.  1.
    9900012    2    1    2    0    0 -0.67655105634E+00  0.31726689660E+02  0.31112272441E+01  0.59301948299E+02  0.50000007789E+02 0.  0.
         12    1    1    2    0    0  0.67655105634E+00 -0.31726689660E+02 -0.31112272441E+01  0.31886051701E+02  0.00000000000E+00 0. -1.
         11    1    3    3    0    0  0.16708101285E+00  0.22589654983E+01  0.12455754863E+02  0.12660042285E+02  0.51100000000E-03 0. -1.
        -11    1    3    3    0    0 -0.15219517477E+02  0.29360914554E+01 -0.25179461006E+01  0.15703324428E+02  0.51100000000E-03 0.  1.
        -12    1    3    3    0    0  0.14375885407E+02  0.26531632707E+02 -0.68265815185E+01  0.30938581586E+02  0.00000000000E+00 0.  1.
</event>
<event>
 7    1  0.6164995E-012  0.5930189E+02  0.7816164E-02  0.1266605E+00
        -11   -1    0    0    0    0  0.00000000000E+00  0.00000000000E+00  0.45593999997E+02  0.45594000000E+02  0.51100000000E-03 0.  1.
         11   -1    0    0    0    0 -0.00000000000E+00 -0.00000000000E+00 -0.45593999997E+02  0.45594000000E+02  0.51100000000E-03 0. -1.
    9900012    2    1    2    0    0  0.59719654724E+01 -0.17204660238E+02  0.26173639124E+02  0.59301888752E+02  0.49999899190E+02 0.  0.
         12    1    1    2    0    0 -0.59719654724E+01  0.17204660238E+02 -0.26173639124E+02  0.31886111248E+02  0.00000000000E+00 0. -1.
         11    1    3    3    0    0 -0.14266764841E+02 -0.19549178525E+02  0.73435357470E+01  0.25291075058E+02  0.51100000000E-03 0. -1.
        -11    1    3    3    0    0  0.74909522582E+01 -0.71923282169E+01  0.13887476526E+02  0.17340875279E+02  0.51100000000E-03 0.  1.
         12    1    3    3    0    0  0.12747778055E+02  0.95368465038E+01  0.49426268514E+01  0.16669938416E+02  0.00000000000E+00 0. -1.
</event>
<event>
 7    1  0.6164995E-012  0.5930193E+02  0.7816164E-02  0.1266605E+00
        -11   -1    0    0    0    0  0.00000000000E+00  0.00000000000E+00  0.45593999997E+02  0.45594000000E+02  0.51100000000E-03 0.  1.
         11   -1    0    0    0    0 -0.00000000000E+00 -0.00000000000E+00 -0.45593999997E+02  0.45594000000E+02  0.51100000000E-03 0. -1.
    9900012    2    1    2    0    0  0.27042106158E+02 -0.70346114533E+01  0.15360998882E+02  0.59301928583E+02  0.49999971833E+02 0.  0.
         12    1    1    2    0    0 -0.27042106158E+02  0.70346114533E+01 -0.15360998882E+02  0.31886071417E+02  0.00000000000E+00 0. -1.
         11    1    3    3    0    0  0.15787656760E+02 -0.31835070098E+01  0.70097632119E+01  0.17564783044E+02  0.51100000000E-03 0. -1.
        -11    1    3    3    0    0  0.20922437500E+02  0.10640345218E+02  0.47833182113E+01  0.23955071919E+02  0.51100000000E-03 0.  1.
         12    1    3    3    0    0 -0.96679881015E+01 -0.14491449662E+02  0.35679174588E+01  0.17782073620E+02  0.00000000000E+00 0. -1.
</event>
<event>
 7    1  0.6164995E-012  0.5930189E+02  0.7816164E-02  0.1266605E+00
        -11   -1    0    0    0    0  0.00000000000E+00  0.00000000000E+00  0.45593999997E+02  0.45594000000E+02  0.51100000000E-03 0.  1.
         11   -1    0    0    0    0 -0.00000000000E+00 -0.00000000000E+00 -0.45593999997E+02  0.45594000000E+02  0.51100000000E-03 0. -1.
    9900012    2    1    2    0    0  0.88380485447E+01  0.10240611013E+02  0.28874604917E+02  0.59301889777E+02  0.49999901060E+02 0.  0.
         12    1    1    2    0    0 -0.88380485447E+01 -0.10240611013E+02 -0.28874604917E+02  0.31886110223E+02  0.00000000000E+00 0. -1.
         11    1    3    3    0    0  0.62845834355E+01 -0.16176658752E+02  0.34620869444E+01  0.17696505972E+02  0.51100000000E-03 0. -1.
        -11    1    3    3    0    0 -0.13441567372E+01 -0.17426355073E+00 -0.25084804592E+01  0.28512452709E+01  0.51100000000E-03 0.  1.
        -12    1    3    3    0    0  0.38976218463E+01  0.26591533315E+02  0.27920998432E+02  0.38754138535E+02  0.00000000000E+00 0.  1.
</event>
<event>
 7    1  0.6164995E-012  0.5930207E+02  0.7816164E-02  0.1266604E+00
        -11   -1    0    0    0    0  0.00000000000E+00  0.00000000000E+00  0.45593999997E+02  0.45594000000E+02  0.51100000000E-03 0.  1.
         11   -1    0    0    0    0 -0.00000000000E+00 -0.00000000000E+00 -0.45593999997E+02  0.45594000000E+02  0.51100000000E-03 0. -1.
    9900012    2    1    2    0    0 -0.20567776698E+02 -0.20281503689E+02  0.13503333541E+02  0.59302065061E+02  0.50000220735E+02 0.  0.
         12    1    1    2    0    0  0.20567776698E+02  0.20281503689E+02 -0.13503333541E+02  0.31885934939E+02  0.00000000000E+00 0. -1.
         11    1    3    3    0    0 -0.63436826093E+01 -0.41707263710E+01  0.33485229403E+01  0.82975823980E+01  0.51100000000E-03 0. -1.
        -11    1    3    3    0    0 -0.85374702022E+01 -0.14051877618E+02  0.27829476530E+02  0.32323728532E+02  0.51100000000E-03 0.  1.
         12    1    3    3    0    0 -0.56866238866E+01 -0.20588997007E+01 -0.17674665929E+02  0.18680754131E+02  0.00000000000E+00 0. -1.
</event>
<event>
 7    1  0.6164995E-012  0.5930195E+02  0.7816164E-02  0.1266605E+00
        -11   -1    0    0    0    0  0.00000000000E+00  0.00000000000E+00  0.45593999997E+02  0.45594000000E+02  0.51100000000E-03 0.  1.
         11   -1    0    0    0    0 -0.00000000000E+00 -0.00000000000E+00 -0.45593999997E+02  0.45594000000E+02  0.51100000000E-03 0. -1.
    9900012    2    1    2    0    0 -0.13444567163E+02  0.24564391557E+02  0.15249734555E+02  0.59301950970E+02  0.50000012661E+02 0.  0.
         12    1    1    2    0    0  0.13444567163E+02 -0.24564391557E+02 -0.15249734555E+02  0.31886049030E+02  0.00000000000E+00 0. -1.
         11    1    3    3    0    0  0.41735469874E+01  0.34877281205E+01  0.12817993260E+02  0.13924212487E+02  0.51100000000E-03 0.  1.
        -11    1    3    3    0    0 -0.16214923939E+02 -0.35922027207E+01  0.10183503973E+02  0.19481566471E+02  0.51100000000E-03 0. -1.
         12    1    3    3    0    0 -0.14031902107E+01  0.24668866157E+02 -0.77517626783E+01  0.25896172012E+02  0.00000000000E+00 0. -1.
</event>
<event>
 7    1  0.6164995E-012  0.5930194E+02  0.7816164E-02  0.1266605E+00
        -11   -1    0    0    0    0  0.00000000000E+00  0.00000000000E+00  0.45593999997E+02  0.45594000000E+02  0.51100000000E-03 0. -1.
         11   -1    0    0    0    0 -0.00000000000E+00 -0.00000000000E+00 -0.45593999997E+02  0.45594000000E+02  0.51100000000E-03 0.  1.
    9900012    2    1    2    0    0  0.16929888139E+02  0.25172965232E+02  0.98194338609E+01  0.59301943920E+02  0.49999999804E+02 0.  0.
         12    1    1    2    0    0 -0.16929888139E+02 -0.25172965232E+02 -0.98194338609E+01  0.31886056080E+02  0.00000000000E+00 0. -1.
         11    1    3    3    0    0 -0.18172465377E+01  0.23399456831E+02  0.58992005150E+01  0.24199949007E+02  0.51100000000E-03 0. -1.
        -11    1    3    3    0    0  0.60978454253E+01  0.12453192152E+02  0.10391158803E+02  0.17327489580E+02  0.51100000000E-03 0.  1.
        -12    1    3    3    0    0  0.12649289251E+02 -0.10679683751E+02 -0.64709254568E+01  0.17774505334E+02  0.00000000000E+00 0.  1.
</event>
<event>
 7    1  0.6164995E-012  0.5930194E+02  0.7816164E-02  0.1266605E+00
        -11   -1    0    0    0    0  0.00000000000E+00  0.00000000000E+00  0.45593999997E+02  0.45594000000E+02  0.51100000000E-03 0.  1.
         11   -1    0    0    0    0 -0.00000000000E+00 -0.00000000000E+00 -0.45593999997E+02  0.45594000000E+02  0.51100000000E-03 0. -1.
    9900012    2    1    2    0    0  0.12547578439E+02 -0.16832363088E+02  0.23998973276E+02  0.59301938937E+02  0.49999990716E+02 0.  0.
         12    1    1    2    0    0 -0.12547578439E+02  0.16832363088E+02 -0.23998973276E+02  0.31886061063E+02  0.00000000000E+00 0. -1.
         11    1    3    3    0    0 -0.43142385293E+01 -0.97987174738E+01  0.19455031115E+02  0.22206434972E+02  0.51100000000E-03 0. -1.
        -11    1    3    3    0    0 -0.17517623569E+01 -0.15972458962E+02  0.33404619356E+01  0.16411788533E+02  0.51100000000E-03 0.  1.
        -12    1    3    3    0    0  0.18613579326E+02  0.89388133485E+01  0.12034802252E+01  0.20683715431E+02  0.00000000000E+00 0.  1.
</event>
<event>
 7    1  0.8009771E-012  0.5930192E+02  0.7816164E-02  0.1266605E+00
        -11   -1    0    0    0    0  0.00000000000E+00  0.00000000000E+00  0.45593999997E+02  0.45594000000E+02  0.51100000000E-03 0. -1.
         11   -1    0    0    0    0 -0.00000000000E+00 -0.00000000000E+00 -0.45593999997E+02  0.45594000000E+02  0.51100000000E-03 0.  1.
    9900012    2    1    2    0    0 -0.13092766506E+02  0.28377916249E+02 -0.63241747782E+01  0.59301923853E+02  0.49999963206E+02 0.  0.
         12    1    1    2    0    0  0.13092766506E+02 -0.28377916249E+02  0.63241747782E+01  0.31886076147E+02  0.00000000000E+00 0. -1.
         11    1    3    3    0    0  0.34711957960E+01  0.14056989818E+02  0.13826892788E+02  0.20020767404E+02  0.51100000000E-03 0. -1.
        -11    1    3    3    0    0  0.14378296002E+00  0.16365119846E+02 -0.13375625924E+02  0.21136347608E+02  0.51100000000E-03 0.  1.
        -12    1    3    3    0    0 -0.16707745262E+02 -0.20441934145E+01 -0.67754416420E+01  0.18144808841E+02  0.00000000000E+00 0.  1.
</event>
<event>
 7    1  0.6164995E-012  0.5930190E+02  0.7816164E-02  0.1266605E+00
        -11   -1    0    0    0    0  0.00000000000E+00  0.00000000000E+00  0.45593999997E+02  0.45594000000E+02  0.51100000000E-03 0. -1.
         11   -1    0    0    0    0 -0.00000000000E+00 -0.00000000000E+00 -0.45593999997E+02  0.45594000000E+02  0.51100000000E-03 0.  1.
    9900012    2    1    2    0    0 -0.13552067710E+02 -0.92711001325E+01 -0.27333346940E+02  0.59301895004E+02  0.49999910592E+02 0.  0.
         12    1    1    2    0    0  0.13552067710E+02  0.92711001325E+01  0.27333346940E+02  0.31886104996E+02  0.00000000000E+00 0. -1.
         11    1    3    3    0    0  0.11543955756E+02 -0.94985144391E+01 -0.29761812823E+01  0.15242780138E+02  0.51100000000E-03 0. -1.
        -11    1    3    3    0    0  0.49278972792E+01  0.16230886014E+01 -0.87990446942E+01  0.10214782229E+02  0.51100000000E-03 0.  1.
        -12    1    3    3    0    0 -0.30023920746E+02 -0.13956742947E+01 -0.15558120964E+02  0.33844332636E+02  0.00000000000E+00 0.  1.
</event>
<event>
 7    1  0.6164995E-012  0.5930195E+02  0.7816164E-02  0.1266605E+00
        -11   -1    0    0    0    0  0.00000000000E+00  0.00000000000E+00  0.45593999997E+02  0.45594000000E+02  0.51100000000E-03 0. -1.
         11   -1    0    0    0    0 -0.00000000000E+00 -0.00000000000E+00 -0.45593999997E+02  0.45594000000E+02  0.51100000000E-03 0.  1.
    9900012    2    1    2    0    0  0.25597941497E+02 -0.31240245286E+01 -0.18753828755E+02  0.59301949270E+02  0.50000009561E+02 0.  0.
         12    1    1    2    0    0 -0.25597941497E+02  0.31240245286E+01  0.18753828755E+02  0.31886050730E+02  0.00000000000E+00 0. -1.
         11    1    3    3    0    0 -0.48256090840E+00  0.63396476005E+00  0.18540744953E+01  0.20180111106E+01  0.51100000000E-03 0. -1.
        -11    1    3    3    0    0  0.87366750641E+01 -0.22872976964E+02 -0.37405057305E+00  0.24487598503E+02  0.51100000000E-03 0.  1.
        -12    1    3    3    0    0  0.17343827342E+02  0.19114987675E+02 -0.20233852678E+02  0.32796339656E+02  0.00000000000E+00 0.  1.
</event>
<event>
 7    1  0.6164995E-012  0.5930192E+02  0.7816164E-02  0.1266605E+00
        -11   -1    0    0    0    0  0.00000000000E+00  0.00000000000E+00  0.45593999997E+02  0.45594000000E+02  0.51100000000E-03 0.  1.
         11   -1    0    0    0    0 -0.00000000000E+00 -0.00000000000E+00 -0.45593999997E+02  0.45594000000E+02  0.51100000000E-03 0. -1.
    9900012    2    1    2    0    0  0.10831972616E+02  0.17698168335E+02  0.24210844974E+02  0.59301924552E+02  0.49999964480E+02 0.  0.
         12    1    1    2    0    0 -0.10831972616E+02 -0.17698168335E+02 -0.24210844974E+02  0.31886075448E+02  0.00000000000E+00 0. -1.
         11    1    3    3    0    0  0.14837577626E+01 -0.11652935893E+02  0.10519304276E+01  0.11794024330E+02  0.51100000000E-03 0. -1.
        -11    1    3    3    0    0  0.17692321730E+02  0.11750353896E+02  0.75291469794E+01  0.22533910432E+02  0.51100000000E-03 0.  1.
         12    1    3    3    0    0 -0.83441068764E+01  0.17600750331E+02  0.15629767567E+02  0.24973989789E+02  0.00000000000E+00 0. -1.
</event>
<event>
 7    1  0.6164995E-012  0.5930208E+02  0.7816164E-02  0.1266604E+00
        -11   -1    0    0    0    0  0.00000000000E+00  0.00000000000E+00  0.45593999997E+02  0.45594000000E+02  0.51100000000E-03 0.  1.
         11   -1    0    0    0    0 -0.00000000000E+00 -0.00000000000E+00 -0.45593999997E+02  0.45594000000E+02  0.51100000000E-03 0. -1.
    9900012    2    1    2    0    0  0.29662671017E+02  0.59602361872E+01  0.10065455782E+02  0.59302080421E+02  0.50000248749E+02 0.  0.
         12    1    1    2    0    0 -0.29662671017E+02 -0.59602361872E+01 -0.10065455782E+02  0.31885919579E+02  0.00000000000E+00 0. -1.
         11    1    3    3    0    0  0.42563517598E+01  0.41718798533E+01  0.15588691110E+02  0.16689170219E+02  0.51100000000E-03 0. -1.
        -11    1    3    3    0    0  0.18821307931E+02  0.15000192773E+02  0.48750721124E+01  0.24556338161E+02  0.51100000000E-03 0.  1.
         12    1    3    3    0    0  0.65850113257E+01 -0.13211836440E+02 -0.10398307441E+02  0.18056572042E+02  0.00000000000E+00 0. -1.
</event>
<event>
 7    1  0.6164995E-012  0.5930194E+02  0.7816164E-02  0.1266605E+00
        -11   -1    0    0    0    0  0.00000000000E+00  0.00000000000E+00  0.45593999997E+02  0.45594000000E+02  0.51100000000E-03 0.  1.
         11   -1    0    0    0    0 -0.00000000000E+00 -0.00000000000E+00 -0.45593999997E+02  0.45594000000E+02  0.51100000000E-03 0. -1.
    9900012    2    1    2    0    0 -0.24101663547E+02 -0.17982946105E+02 -0.10603963551E+02  0.59301943810E+02  0.49999999603E+02 0.  0.
         12    1    1    2    0    0  0.24101663547E+02  0.17982946105E+02  0.10603963551E+02  0.31886056190E+02  0.00000000000E+00 0. -1.
         11    1    3    3    0    0 -0.96292166734E+01  0.82734948621E+01  0.48954356867E+01  0.13606535996E+02  0.51100000000E-03 0. -1.
        -11    1    3    3    0    0  0.53789516596E+01 -0.66083874989E+01  0.60228610426E+01  0.10434498632E+02  0.51100000000E-03 0.  1.
         12    1    3    3    0    0 -0.19851398533E+02 -0.19648053468E+02 -0.21522260281E+02  0.35260909183E+02  0.00000000000E+00 0. -1.
</event>
<event>
 7    1  0.6164995E-012  0.5930193E+02  0.7816164E-02  0.1266605E+00
        -11   -1    0    0    0    0  0.00000000000E+00  0.00000000000E+00  0.45593999997E+02  0.45594000000E+02  0.51100000000E-03 0.  1.
         11   -1    0    0    0    0 -0.00000000000E+00 -0.00000000000E+00 -0.45593999997E+02  0.45594000000E+02  0.51100000000E-03 0. -1.
    9900012    2    1    2    0    0  0.77211182435E+01  0.70870981795E+01  0.30114431853E+02  0.59301927282E+02  0.49999969459E+02 0.  0.
         12    1    1    2    0    0 -0.77211182435E+01 -0.70870981795E+01 -0.30114431853E+02  0.31886072718E+02  0.00000000000E+00 0. -1.
         11    1    3    3    0    0 -0.58560766191E+01 -0.71904929943E+01  0.99993513291E+01  0.13637589601E+02  0.51100000000E-03 0. -1.
        -11    1    3    3    0    0  0.21282223599E+02 -0.31760636112E+01  0.74792675052E+01  0.22780690597E+02  0.51100000000E-03 0.  1.
        -12    1    3    3    0    0 -0.77050287369E+01  0.17453654785E+02  0.12635813019E+02  0.22883647083E+02  0.00000000000E+00 0.  1.
</event>
<event>
 7    1  0.6164995E-012  0.5930194E+02  0.7816164E-02  0.1266605E+00
        -11   -1    0    0    0    0  0.00000000000E+00  0.00000000000E+00  0.45593999997E+02  0.45594000000E+02  0.51100000000E-03 0.  1.
         11   -1    0    0    0    0 -0.00000000000E+00 -0.00000000000E+00 -0.45593999997E+02  0.45594000000E+02  0.51100000000E-03 0. -1.
    9900012    2    1    2    0    0 -0.29679577146E+02  0.33451517382E+01  0.11164844720E+02  0.59301935687E+02  0.49999984789E+02 0.  0.
         12    1    1    2    0    0  0.29679577146E+02 -0.33451517382E+01 -0.11164844720E+02  0.31886064313E+02  0.00000000000E+00 0. -1.
         11    1    3    3    0    0  0.44643506974E+01  0.79337787829E+01 -0.10714493810E+02  0.14059717308E+02  0.51100000000E-03 0. -1.
        -11    1    3    3    0    0 -0.73705550463E+01  0.72325386084E+01  0.53463244109E+01  0.11628322380E+02  0.51100000000E-03 0.  1.
         12    1    3    3    0    0 -0.26773372797E+02 -0.11821165653E+02  0.16533014119E+02  0.33613895999E+02  0.00000000000E+00 0. -1.
</event>
<event>
 7    1  0.6164995E-012  0.5930190E+02  0.7816164E-02  0.1266605E+00
        -11   -1    0    0    0    0  0.00000000000E+00  0.00000000000E+00  0.45593999997E+02  0.45594000000E+02  0.51100000000E-03 0. -1.
         11   -1    0    0    0    0 -0.00000000000E+00 -0.00000000000E+00 -0.45593999997E+02  0.45594000000E+02  0.51100000000E-03 0.  1.
    9900012    2    1    2    0    0 -0.20115363730E+01  0.18878071053E+02 -0.25618265978E+02  0.59301899627E+02  0.49999919024E+02 0.  0.
         12    1    1    2    0    0  0.20115363730E+01 -0.18878071053E+02  0.25618265978E+02  0.31886100373E+02  0.00000000000E+00 0. -1.
         11    1    3    3    0    0 -0.44981750186E+01  0.14991596089E+00 -0.44562602425E+01  0.63335857855E+01  0.51100000000E-03 0. -1.
        -11    1    3    3    0    0 -0.18221086849E+02  0.95311764522E+01 -0.22233255793E+02  0.30284798067E+02  0.51100000000E-03 0.  1.
         12    1    3    3    0    0  0.20707725494E+02  0.91969786397E+01  0.10712500577E+01  0.22683515775E+02  0.00000000000E+00 0. -1.
</event>
<event>
 7    1  0.6164995E-012  0.5930172E+02  0.7816164E-02  0.1266606E+00
        -11   -1    0    0    0    0  0.00000000000E+00  0.00000000000E+00  0.45593999997E+02  0.45594000000E+02  0.51100000000E-03 0.  1.
         11   -1    0    0    0    0 -0.00000000000E+00 -0.00000000000E+00 -0.45593999997E+02  0.45594000000E+02  0.51100000000E-03 0. -1.
    9900012    2    1    2    0    0  0.17502905465E+02  0.42755689491E+01  0.26307847794E+02  0.59301716975E+02  0.49999585909E+02 0.  0.
         12    1    1    2    0    0 -0.17502905465E+02 -0.42755689491E+01 -0.26307847794E+02  0.31886283025E+02  0.00000000000E+00 0. -1.
         11    1    3    3    0    0 -0.32670426147E+01 -0.41010582803E+01 -0.82547999734E+01  0.97792622077E+01  0.51100000000E-03 0. -1.
        -11    1    3    3    0    0  0.47913365773E+01 -0.10010572583E+02  0.11332771134E+02  0.15861909452E+02  0.51100000000E-03 0.  1.
        -12    1    3    3    0    0  0.15978611503E+02  0.18387199812E+02  0.23229876634E+02  0.33660545315E+02  0.00000000000E+00 0.  1.
</event>
<event>
 7    1  0.6164995E-012  0.5930193E+02  0.7816164E-02  0.1266605E+00
        -11   -1    0    0    0    0  0.00000000000E+00  0.00000000000E+00  0.45593999997E+02  0.45594000000E+02  0.51100000000E-03 0. -1.
         11   -1    0    0    0    0 -0.00000000000E+00 -0.00000000000E+00 -0.45593999997E+02  0.45594000000E+02  0.51100000000E-03 0.  1.
    9900012    2    1    2    0    0 -0.48213257822E+01  0.21459809360E+02 -0.23085764945E+02  0.59301934969E+02  0.49999983479E+02 0.  0.
         12    1    1    2    0    0  0.48213257822E+01 -0.21459809360E+02  0.23085764945E+02  0.31886065031E+02  0.00000000000E+00 0. -1.
         11    1    3    3    0    0  0.11609944298E+01  0.50642001072E+01 -0.52129379637E+01  0.73599424771E+01  0.51100000000E-03 0. -1.
        -11    1    3    3    0    0 -0.19255770559E+02  0.14403460637E+02 -0.26657417231E+02  0.35900728013E+02  0.51100000000E-03 0.  1.
         12    1    3    3    0    0  0.13273450347E+02  0.19921486161E+01  0.87845902497E+01  0.16041264479E+02  0.00000000000E+00 0. -1.
</event>
<event>
 7    1  0.6164995E-012  0.5930195E+02  0.7816164E-02  0.1266605E+00
        -11   -1    0    0    0    0  0.00000000000E+00  0.00000000000E+00  0.45593999997E+02  0.45594000000E+02  0.51100000000E-03 0. -1.
         11   -1    0    0    0    0 -0.00000000000E+00 -0.00000000000E+00 -0.45593999997E+02  0.45594000000E+02  0.51100000000E-03 0.  1.
    9900012    2    1    2    0    0 -0.23774920330E+02 -0.12856383415E+02 -0.16917048280E+02  0.59301953620E+02  0.50000017495E+02 0.  0.
         12    1    1    2    0    0  0.23774920330E+02  0.12856383415E+02  0.16917048280E+02  0.31886046380E+02  0.00000000000E+00 0. -1.
         11    1    3    3    0    0 -0.17521513944E+02  0.10655729909E+02 -0.63931597232E+01  0.21480701159E+02  0.51100000000E-03 0. -1.
        -11    1    3    3    0    0  0.21966996462E+01 -0.88735599687E+00  0.73841868545E+01  0.77549407324E+01  0.51100000000E-03 0.  1.
        -12    1    3    3    0    0 -0.84501060324E+01 -0.22624757327E+02 -0.17908075412E+02  0.30066311729E+02  0.00000000000E+00 0.  1.
</event>
<event>
 7    1  0.6164995E-012  0.5930195E+02  0.7816164E-02  0.1266605E+00
        -11   -1    0    0    0    0  0.00000000000E+00  0.00000000000E+00  0.45593999997E+02  0.45594000000E+02  0.51100000000E-03 0. -1.
         11   -1    0    0    0    0 -0.00000000000E+00 -0.00000000000E+00 -0.45593999997E+02  0.45594000000E+02  0.51100000000E-03 0.  1.
    9900012    2    1    2    0    0  0.86934598984E+01  0.29233260081E+02  0.93037768705E+01  0.59301952832E+02  0.50000016057E+02 0.  0.
         12    1    1    2    0    0 -0.86934598984E+01 -0.29233260081E+02 -0.93037768705E+01  0.31886047168E+02  0.00000000000E+00 0. -1.
         11    1    3    3    0    0 -0.51630995847E+01 -0.47845218068E+01 -0.10887109217E+02  0.12964505143E+02  0.51100000000E-03 0.  1.
        -11    1    3    3    0    0  0.17873949009E+02  0.20118427948E+02  0.10318538370E+02  0.28821891517E+02  0.51100000000E-03 0. -1.
        -12    1    3    3    0    0 -0.40173895256E+01  0.13899353939E+02  0.98723477175E+01  0.17515556171E+02  0.00000000000E+00 0.  1.
</event>
<event>
 7    1  0.6164995E-012  0.5930193E+02  0.7816164E-02  0.1266605E+00
        -11   -1    0    0    0    0  0.00000000000E+00  0.00000000000E+00  0.45593999997E+02  0.45594000000E+02  0.51100000000E-03 0.  1.
         11   -1    0    0    0    0 -0.00000000000E+00 -0.00000000000E+00 -0.45593999997E+02  0.45594000000E+02  0.51100000000E-03 0. -1.
    9900012    2    1    2    0    0  0.17748129503E+02  0.25495511077E+02  0.71905507506E+01  0.59301933983E+02  0.49999981681E+02 0.  0.
         12    1    1    2    0    0 -0.17748129503E+02 -0.25495511077E+02 -0.71905507506E+01  0.31886066017E+02  0.00000000000E+00 0. -1.
         11    1    3    3    0    0 -0.11788134143E+02 -0.55213917971E+00  0.39368566993E+01  0.12440410169E+02  0.51100000000E-03 0. -1.
        -11    1    3    3    0    0  0.12863661474E+02  0.65770305526E+01 -0.10416065457E+02  0.17810826406E+02  0.51100000000E-03 0.  1.
        -12    1    3    3    0    0  0.16672602173E+02  0.19470619704E+02  0.13669759508E+02  0.29050697408E+02  0.00000000000E+00 0.  1.
</event>
<event>
 7    1  0.6164995E-012  0.5930178E+02  0.7816164E-02  0.1266605E+00
        -11   -1    0    0    0    0  0.00000000000E+00  0.00000000000E+00  0.45593999997E+02  0.45594000000E+02  0.51100000000E-03 0. -1.
         11   -1    0    0    0    0 -0.00000000000E+00 -0.00000000000E+00 -0.45593999997E+02  0.45594000000E+02  0.51100000000E-03 0.  1.
    9900012    2    1    2    0    0 -0.25639939043E+02 -0.16519203843E+02 -0.92973214634E+01  0.59301784230E+02  0.49999708566E+02 0.  0.
         12    1    1    2    0    0  0.25639939043E+02  0.16519203843E+02  0.92973214634E+01  0.31886215770E+02  0.00000000000E+00 0. -1.
         11    1    3    3    0    0 -0.17178948221E+02 -0.75989438657E+01  0.40396205556E+00  0.18788916825E+02  0.51100000000E-03 0. -1.
        -11    1    3    3    0    0 -0.10981138744E+02 -0.40228718058E+00 -0.22438150619E+02  0.24984352034E+02  0.51100000000E-03 0.  1.
        -12    1    3    3    0    0  0.25201479214E+01 -0.85179727969E+01  0.12736867100E+02  0.15528515371E+02  0.00000000000E+00 0.  1.
</event>
<event>
 7    1  0.6164995E-012  0.5930191E+02  0.7816164E-02  0.1266605E+00
        -11   -1    0    0    0    0  0.00000000000E+00  0.00000000000E+00  0.45593999997E+02  0.45594000000E+02  0.51100000000E-03 0.  1.
         11   -1    0    0    0    0 -0.00000000000E+00 -0.00000000000E+00 -0.45593999997E+02  0.45594000000E+02  0.51100000000E-03 0. -1.
    9900012    2    1    2    0    0  0.21846100912E+02 -0.18405065371E+02 -0.14167721378E+02  0.59301907649E+02  0.49999933654E+02 0.  0.
         12    1    1    2    0    0 -0.21846100912E+02  0.18405065371E+02  0.14167721378E+02  0.31886092351E+02  0.00000000000E+00 0. -1.
         11    1    3    3    0    0 -0.58942060259E+01 -0.18329617073E+02 -0.18108163014E+01  0.19338965397E+02  0.51100000000E-03 0. -1.
        -11    1    3    3    0    0  0.36019360359E+01  0.54098616761E+01  0.62337153500E+01  0.90055401775E+01  0.51100000000E-03 0.  1.
         12    1    3    3    0    0  0.24138370902E+02 -0.54853099744E+01 -0.18590620427E+02  0.30957402074E+02  0.00000000000E+00 0. -1.
</event>
<event>
 7    1  0.6164995E-012  0.5930193E+02  0.7816164E-02  0.1266605E+00
        -11   -1    0    0    0    0  0.00000000000E+00  0.00000000000E+00  0.45593999997E+02  0.45594000000E+02  0.51100000000E-03 0. -1.
         11   -1    0    0    0    0 -0.00000000000E+00 -0.00000000000E+00 -0.45593999997E+02  0.45594000000E+02  0.51100000000E-03 0.  1.
    9900012    2    1    2    0    0  0.17040877208E+02  0.25852064847E+02 -0.76158193963E+01  0.59301930033E+02  0.49999974477E+02 0.  0.
         12    1    1    2    0    0 -0.17040877208E+02 -0.25852064847E+02  0.76158193963E+01  0.31886069967E+02  0.00000000000E+00 0. -1.
         11    1    3    3    0    0  0.75772572034E+01 -0.65817298887E+01  0.39061027969E+01  0.10769941243E+02  0.51100000000E-03 0. -1.
        -11    1    3    3    0    0  0.66345805854E+01 -0.43507930289E+01  0.35333649748E+01  0.86851440880E+01  0.51100000000E-03 0.  1.
        -12    1    3    3    0    0  0.28290394197E+01  0.36784587764E+02 -0.15055287168E+02  0.39846844702E+02  0.00000000000E+00 0.  1.
</event>
<event>
 7    1  0.6164995E-012  0.5930194E+02  0.7816164E-02  0.1266605E+00
        -11   -1    0    0    0    0  0.00000000000E+00  0.00000000000E+00  0.45593999997E+02  0.45594000000E+02  0.51100000000E-03 0. -1.
         11   -1    0    0    0    0 -0.00000000000E+00 -0.00000000000E+00 -0.45593999997E+02  0.45594000000E+02  0.51100000000E-03 0.  1.
    9900012    2    1    2    0    0 -0.69925111984E+01 -0.25640456861E+02 -0.17617962656E+02  0.59301939581E+02  0.49999991890E+02 0.  0.
         12    1    1    2    0    0  0.69925111984E+01  0.25640456861E+02  0.17617962656E+02  0.31886060419E+02  0.00000000000E+00 0. -1.
         11    1    3    3    0    0 -0.77388931442E+01 -0.77373731312E+00  0.32656684581E+01  0.84352668758E+01  0.51100000000E-03 0. -1.
        -11    1    3    3    0    0  0.48470956018E+01  0.71265710914E+01  0.45908394879E+01  0.97651502169E+01  0.51100000000E-03 0.  1.
        -12    1    3    3    0    0 -0.41007136560E+01 -0.31993290639E+02 -0.25474470602E+02  0.41101522488E+02  0.00000000000E+00 0.  1.
</event>
<event>
 7    1  0.6164995E-012  0.5930188E+02  0.7816164E-02  0.1266605E+00
        -11   -1    0    0    0    0  0.00000000000E+00  0.00000000000E+00  0.45593999997E+02  0.45594000000E+02  0.51100000000E-03 0. -1.
         11   -1    0    0    0    0 -0.00000000000E+00 -0.00000000000E+00 -0.45593999997E+02  0.45594000000E+02  0.51100000000E-03 0.  1.
    9900012    2    1    2    0    0 -0.13478347003E+02  0.28460273021E+02 -0.50071699654E+01  0.59301878733E+02  0.49999880919E+02 0.  0.
         12    1    1    2    0    0  0.13478347003E+02 -0.28460273021E+02  0.50071699654E+01  0.31886121267E+02  0.00000000000E+00 0. -1.
         11    1    3    3    0    0 -0.34910300203E+01  0.14609844999E+02 -0.13812328242E+02  0.20406255737E+02  0.51100000000E-03 0. -1.
        -11    1    3    3    0    0 -0.20477077056E+02  0.16615767804E+02  0.28593514227E+01  0.26524899911E+02  0.51100000000E-03 0.  1.
         12    1    3    3    0    0  0.10489760073E+02 -0.27653397813E+01  0.59458068543E+01  0.12370723085E+02  0.00000000000E+00 0. -1.
</event>
<event>
 7    1  0.6164995E-012  0.5930189E+02  0.7816164E-02  0.1266605E+00
        -11   -1    0    0    0    0  0.00000000000E+00  0.00000000000E+00  0.45593999997E+02  0.45594000000E+02  0.51100000000E-03 0. -1.
         11   -1    0    0    0    0 -0.00000000000E+00 -0.00000000000E+00 -0.45593999997E+02  0.45594000000E+02  0.51100000000E-03 0.  1.
    9900012    2    1    2    0    0 -0.94596608182E+01 -0.23457357829E+02  0.19416254965E+02  0.59301893684E+02  0.49999908186E+02 0.  0.
         12    1    1    2    0    0  0.94596608182E+01  0.23457357829E+02 -0.19416254965E+02  0.31886106316E+02  0.00000000000E+00 0. -1.
         11    1    3    3    0    0 -0.11441172428E+02 -0.42646131247E+01  0.17355681224E+01  0.12332864574E+02  0.51100000000E-03 0. -1.
        -11    1    3    3    0    0 -0.10770847623E+02 -0.24033417977E+02  0.23386934872E+01  0.26440231195E+02  0.51100000000E-03 0.  1.
         12    1    3    3    0    0  0.12752359233E+02  0.48406732723E+01  0.15341993355E+02  0.20528797915E+02  0.00000000000E+00 0. -1.
</event>
<event>
 7    1  0.6164995E-012  0.5930192E+02  0.7816164E-02  0.1266605E+00
        -11   -1    0    0    0    0  0.00000000000E+00  0.00000000000E+00  0.45593999997E+02  0.45594000000E+02  0.51100000000E-03 0.  1.
         11   -1    0    0    0    0 -0.00000000000E+00 -0.00000000000E+00 -0.45593999997E+02  0.45594000000E+02  0.51100000000E-03 0. -1.
    9900012    2    1    2    0    0 -0.22105356580E+02 -0.20192190425E+02  0.10970439023E+02  0.59301923477E+02  0.49999962520E+02 0.  0.
         12    1    1    2    0    0  0.22105356580E+02  0.20192190425E+02 -0.10970439023E+02  0.31886076523E+02  0.00000000000E+00 0. -1.
         11    1    3    3    0    0 -0.63379600742E+01 -0.11375282820E+02 -0.12152486253E+02  0.17811505257E+02  0.51100000000E-03 0. -1.
        -11    1    3    3    0    0 -0.11112549533E+02 -0.19592410510E+02  0.17213765000E+02  0.28348986092E+02  0.51100000000E-03 0.  1.
        -12    1    3    3    0    0 -0.46548469728E+01  0.10775502905E+02  0.59091602756E+01  0.13141432127E+02  0.00000000000E+00 0.  1.
</event>
<event>
 7    1  0.6164995E-012  0.5930192E+02  0.7816164E-02  0.1266605E+00
        -11   -1    0    0    0    0  0.00000000000E+00  0.00000000000E+00  0.45593999997E+02  0.45594000000E+02  0.51100000000E-03 0.  1.
         11   -1    0    0    0    0 -0.00000000000E+00 -0.00000000000E+00 -0.45593999997E+02  0.45594000000E+02  0.51100000000E-03 0. -1.
    9900012    2    1    2    0    0  0.18815474120E+02 -0.25400247278E+02  0.41865510124E+01  0.59301924081E+02  0.49999963622E+02 0.  0.
         12    1    1    2    0    0 -0.18815474120E+02  0.25400247278E+02 -0.41865510124E+01  0.31886075919E+02  0.00000000000E+00 0. -1.
         11    1    3    3    0    0  0.21691085294E+02 -0.38099656944E+01 -0.14001821048E+02  0.26097318114E+02  0.51100000000E-03 0. -1.
        -11    1    3    3    0    0 -0.71443827268E+01 -0.66300365483E+01  0.66162863727E+00  0.97692037492E+01  0.51100000000E-03 0.  1.
        -12    1    3    3    0    0  0.42687715532E+01 -0.14960245035E+02  0.17526743423E+02  0.23435402218E+02  0.00000000000E+00 0.  1.
</event>
<event>
 7    1  0.6164995E-012  0.5930204E+02  0.7816164E-02  0.1266604E+00
        -11   -1    0    0    0    0  0.00000000000E+00  0.00000000000E+00  0.45593999997E+02  0.45594000000E+02  0.51100000000E-03 0.  1.
         11   -1    0    0    0    0 -0.00000000000E+00 -0.00000000000E+00 -0.45593999997E+02  0.45594000000E+02  0.51100000000E-03 0. -1.
    9900012    2    1    2    0    0  0.27606364587E+02 -0.11690645144E+02 -0.10859637161E+02  0.59302042764E+02  0.50000180071E+02 0.  0.
         12    1    1    2    0    0 -0.27606364587E+02  0.11690645144E+02  0.10859637161E+02  0.31885957236E+02  0.00000000000E+00 0. -1.
         11    1    3    3    0    0  0.13677386936E+02 -0.20408747434E+01  0.10110694717E+01  0.13865725543E+02  0.51100000000E-03 0. -1.
        -11    1    3    3    0    0  0.64921923288E+01 -0.10196675711E+02  0.14009240555E+02  0.18503501776E+02  0.51100000000E-03 0.  1.
         12    1    3    3    0    0  0.74367853223E+01  0.54690531046E+00 -0.25879947188E+02  0.26932815445E+02  0.00000000000E+00 0. -1.
</event>
<event>
 7    1  0.6164995E-012  0.5930193E+02  0.7816164E-02  0.1266605E+00
        -11   -1    0    0    0    0  0.00000000000E+00  0.00000000000E+00  0.45593999997E+02  0.45594000000E+02  0.51100000000E-03 0.  1.
         11   -1    0    0    0    0 -0.00000000000E+00 -0.00000000000E+00 -0.45593999997E+02  0.45594000000E+02  0.51100000000E-03 0. -1.
    9900012    2    1    2    0    0  0.27752494689E+02  0.76920123243E+01  0.13687704799E+02  0.59301932859E+02  0.49999979631E+02 0.  0.
         12    1    1    2    0    0 -0.27752494689E+02 -0.76920123243E+01 -0.13687704799E+02  0.31886067141E+02  0.00000000000E+00 0. -1.
         11    1    3    3    0    0 -0.16586741841E+00  0.11461036438E+02 -0.79677247992E+01  0.13959495226E+02  0.51100000000E-03 0. -1.
        -11    1    3    3    0    0  0.10351757723E+02 -0.38345553178E+01 -0.60114352739E+01  0.12569807348E+02  0.51100000000E-03 0.  1.
        -12    1    3    3    0    0  0.17566604384E+02  0.65531204478E-01  0.27666864873E+02  0.32772630285E+02  0.00000000000E+00 0.  1.
</event>
<event>
 7    1  0.6164995E-012  0.5930196E+02  0.7816164E-02  0.1266605E+00
        -11   -1    0    0    0    0  0.00000000000E+00  0.00000000000E+00  0.45593999997E+02  0.45594000000E+02  0.51100000000E-03 0. -1.
         11   -1    0    0    0    0 -0.00000000000E+00 -0.00000000000E+00 -0.45593999997E+02  0.45594000000E+02  0.51100000000E-03 0.  1.
    9900012    2    1    2    0    0  0.27378657643E+02 -0.14368629407E+02 -0.77891795435E+01  0.59301957233E+02  0.50000024082E+02 0.  0.
         12    1    1    2    0    0 -0.27378657643E+02  0.14368629407E+02  0.77891795435E+01  0.31886042767E+02  0.00000000000E+00 0. -1.
         11    1    3    3    0    0  0.14998176824E+02 -0.18347339275E+02  0.12185190800E+02  0.26646745423E+02  0.51100000000E-03 0. -1.
        -11    1    3    3    0    0 -0.20468005197E+01  0.27179781816E+01  0.36217194350E+01  0.49692705390E+01  0.51100000000E-03 0.  1.
         12    1    3    3    0    0  0.14427281339E+02  0.12607316861E+01 -0.23596089779E+02  0.27685941271E+02  0.00000000000E+00 0. -1.
</event>
<event>
 7    1  0.6164995E-012  0.5930204E+02  0.7816164E-02  0.1266604E+00
        -11   -1    0    0    0    0  0.00000000000E+00  0.00000000000E+00  0.45593999997E+02  0.45594000000E+02  0.51100000000E-03 0.  1.
         11   -1    0    0    0    0 -0.00000000000E+00 -0.00000000000E+00 -0.45593999997E+02  0.45594000000E+02  0.51100000000E-03 0. -1.
    9900012    2    1    2    0    0 -0.88557806375E+00 -0.24977385534E+02  0.19800513207E+02  0.59302041337E+02  0.50000177468E+02 0.  0.
         12    1    1    2    0    0  0.88557806375E+00  0.24977385534E+02 -0.19800513207E+02  0.31885958663E+02  0.00000000000E+00 0. -1.
         11    1    3    3    0    0  0.22830638107E+01 -0.18685559859E+02  0.22077226416E+01  0.18953537061E+02  0.51100000000E-03 0.  1.
        -11    1    3    3    0    0 -0.27941779358E+01  0.46701337704E+01 -0.95953694010E+01  0.11031259854E+02  0.51100000000E-03 0. -1.
         12    1    3    3    0    0 -0.37446393862E+00 -0.10961959445E+02  0.27188159966E+02  0.29317244421E+02  0.00000000000E+00 0. -1.
</event>
<event>
 7    1  0.6164995E-012  0.5930195E+02  0.7816164E-02  0.1266605E+00
        -11   -1    0    0    0    0  0.00000000000E+00  0.00000000000E+00  0.45593999997E+02  0.45594000000E+02  0.51100000000E-03 0. -1.
         11   -1    0    0    0    0 -0.00000000000E+00 -0.00000000000E+00 -0.45593999997E+02  0.45594000000E+02  0.51100000000E-03 0.  1.
    9900012    2    1    2    0    0 -0.11254808955E+02 -0.23539659302E+02  0.18328507591E+02  0.59301945444E+02  0.50000002582E+02 0.  0.
         12    1    1    2    0    0  0.11254808955E+02  0.23539659302E+02 -0.18328507591E+02  0.31886054556E+02  0.00000000000E+00 0. -1.
         11    1    3    3    0    0  0.10007881869E+02  0.29681873006E+01  0.99206306841E+01  0.14400928747E+02  0.51100000000E-03 0. -1.
        -11    1    3    3    0    0  0.31692456900E+00 -0.15234632635E+02  0.13113484782E+02  0.20103680163E+02  0.51100000000E-03 0.  1.
        -12    1    3    3    0    0 -0.21579615393E+02 -0.11273213967E+02 -0.47056078757E+01  0.24797336533E+02  0.00000000000E+00 0.  1.
</event>
<event>
 7    1  0.6164995E-012  0.5930194E+02  0.7816164E-02  0.1266605E+00
        -11   -1    0    0    0    0  0.00000000000E+00  0.00000000000E+00  0.45593999997E+02  0.45594000000E+02  0.51100000000E-03 0. -1.
         11   -1    0    0    0    0 -0.00000000000E+00 -0.00000000000E+00 -0.45593999997E+02  0.45594000000E+02  0.51100000000E-03 0.  1.
    9900012    2    1    2    0    0 -0.10853200464E+02 -0.63523281484E+00 -0.29975410549E+02  0.59301941626E+02  0.49999995620E+02 0.  0.
         12    1    1    2    0    0  0.10853200464E+02  0.63523281484E+00  0.29975410549E+02  0.31886058374E+02  0.00000000000E+00 0. -1.
         11    1    3    3    0    0  0.31411190265E+01  0.45666424932E+01  0.67859842180E+00  0.55840261889E+01  0.51100000000E-03 0. -1.
        -11    1    3    3    0    0 -0.13323757852E+02  0.16270150353E+02 -0.22345026973E+02  0.30684532691E+02  0.51100000000E-03 0.  1.
         12    1    3    3    0    0 -0.67056163891E+00 -0.21472025661E+02 -0.83089819977E+01  0.23033382746E+02  0.00000000000E+00 0. -1.
</event>
<event>
 7    1  0.6164995E-012  0.5930194E+02  0.7816164E-02  0.1266605E+00
        -11   -1    0    0    0    0  0.00000000000E+00  0.00000000000E+00  0.45593999997E+02  0.45594000000E+02  0.51100000000E-03 0.  1.
         11   -1    0    0    0    0 -0.00000000000E+00 -0.00000000000E+00 -0.45593999997E+02  0.45594000000E+02  0.51100000000E-03 0. -1.
    9900012    2    1    2    0    0  0.40495633101E+01 -0.26713386338E+02  0.16932713266E+02  0.59301941115E+02  0.49999994688E+02 0.  0.
         12    1    1    2    0    0 -0.40495633101E+01  0.26713386338E+02 -0.16932713266E+02  0.31886058885E+02  0.00000000000E+00 0. -1.
         11    1    3    3    0    0  0.22072512172E+01  0.56234512111E+00 -0.22202387469E+01  0.31808254157E+01  0.51100000000E-03 0. -1.
        -11    1    3    3    0    0  0.31276617790E+01  0.43121081046E+01  0.23601939038E+02  0.24195620908E+02  0.51100000000E-03 0.  1.
        -12    1    3    3    0    0 -0.12853496861E+01 -0.31587839564E+02 -0.44489870244E+01  0.31925494792E+02  0.00000000000E+00 0.  1.
</event>
<event>
 7    1  0.6164995E-012  0.5930183E+02  0.7816164E-02  0.1266605E+00
        -11   -1    0    0    0    0  0.00000000000E+00  0.00000000000E+00  0.45593999997E+02  0.45594000000E+02  0.51100000000E-03 0.  1.
         11   -1    0    0    0    0 -0.00000000000E+00 -0.00000000000E+00 -0.45593999997E+02  0.45594000000E+02  0.51100000000E-03 0. -1.
    9900012    2    1    2    0    0  0.13204648384E+02  0.23750829285E+02  0.16681231529E+02  0.59301825630E+02  0.49999784071E+02 0.  0.
         12    1    1    2    0    0 -0.13204648384E+02 -0.23750829285E+02 -0.16681231529E+02  0.31886174370E+02  0.00000000000E+00 0. -1.
         11    1    3    3    0    0 -0.78428786938E+01  0.29430235419E+01 -0.45526876533E+01  0.95341018929E+01  0.51100000000E-03 0. -1.
        -11    1    3    3    0    0  0.42132827891E+01 -0.93614579231E+01  0.29589029025E+01  0.10683807980E+02  0.51100000000E-03 0.  1.
        -12    1    3    3    0    0  0.16834244288E+02  0.30169263666E+02  0.18275016279E+02  0.39083915757E+02  0.00000000000E+00 0.  1.
</event>
<event>
 7    1  0.6164995E-012  0.5930195E+02  0.7816164E-02  0.1266605E+00
        -11   -1    0    0    0    0  0.00000000000E+00  0.00000000000E+00  0.45593999997E+02  0.45594000000E+02  0.51100000000E-03 0. -1.
         11   -1    0    0    0    0 -0.00000000000E+00 -0.00000000000E+00 -0.45593999997E+02  0.45594000000E+02  0.51100000000E-03 0.  1.
    9900012    2    1    2    0    0 -0.14756729329E+02 -0.93986100911E+01 -0.26657558003E+02  0.59301947708E+02  0.50000006712E+02 0.  0.
         12    1    1    2    0    0  0.14756729329E+02  0.93986100911E+01  0.26657558003E+02  0.31886052292E+02  0.00000000000E+00 0. -1.
         11    1    3    3    0    0 -0.14930382030E+01  0.16721854935E+02 -0.81686680921E+01  0.18670209806E+02  0.51100000000E-03 0. -1.
        -11    1    3    3    0    0 -0.61958767959E+01  0.18926033429E+01 -0.28653434020E+00  0.64848237349E+01  0.51100000000E-03 0.  1.
         12    1    3    3    0    0 -0.70678143296E+01 -0.28013068369E+02 -0.18202355570E+02  0.34146914167E+02  0.00000000000E+00 0. -1.
</event>
<event>
 7    1  0.6164995E-012  0.5930194E+02  0.7816164E-02  0.1266605E+00
        -11   -1    0    0    0    0  0.00000000000E+00  0.00000000000E+00  0.45593999997E+02  0.45594000000E+02  0.51100000000E-03 0.  1.
         11   -1    0    0    0    0 -0.00000000000E+00 -0.00000000000E+00 -0.45593999997E+02  0.45594000000E+02  0.51100000000E-03 0. -1.
    9900012    2    1    2    0    0  0.12686878363E+02 -0.22719348095E+02  0.18428115487E+02  0.59301935633E+02  0.49999984690E+02 0.  0.
         12    1    1    2    0    0 -0.12686878363E+02  0.22719348095E+02 -0.18428115487E+02  0.31886064367E+02  0.00000000000E+00 0. -1.
         11    1    3    3    0    0 -0.23793335153E+01 -0.30903014229E+01 -0.24034243493E+00  0.39075511012E+01  0.51100000000E-03 0. -1.
        -11    1    3    3    0    0  0.23551888172E+02 -0.19741257439E+02 -0.41861534158E+01  0.31015037682E+02  0.51100000000E-03 0.  1.
         12    1    3    3    0    0 -0.84856762939E+01  0.11221076704E+00  0.22854611338E+02  0.24379346850E+02  0.00000000000E+00 0. -1.
</event>
<event>
 7    1  0.6164995E-012  0.5930186E+02  0.7816164E-02  0.1266605E+00
        -11   -1    0    0    0    0  0.00000000000E+00  0.00000000000E+00  0.45593999997E+02  0.45594000000E+02  0.51100000000E-03 0. -1.
         11   -1    0    0    0    0 -0.00000000000E+00 -0.00000000000E+00 -0.45593999997E+02  0.45594000000E+02  0.51100000000E-03 0.  1.
    9900012    2    1    2    0    0 -0.24956814949E+02  0.18093833471E+02 -0.81545207404E+01  0.59301864603E+02  0.49999855148E+02 0.  0.
         12    1    1    2    0    0  0.24956814949E+02 -0.18093833471E+02  0.81545207404E+01  0.31886135397E+02  0.00000000000E+00 0. -1.
         11    1    3    3    0    0  0.11813228574E+01  0.14119576962E+01  0.62594128635E+00  0.19444667609E+01  0.51100000000E-03 0. -1.
        -11    1    3    3    0    0 -0.32924068234E+02 -0.42325162644E+01  0.11863261561E+01  0.33216198352E+02  0.51100000000E-03 0.  1.
        -12    1    3    3    0    0  0.67859304274E+01  0.20914392039E+02 -0.99667881829E+01  0.24141199490E+02  0.00000000000E+00 0.  1.
</event>
<event>
 7    1  0.6164995E-012  0.5930194E+02  0.7816164E-02  0.1266605E+00
        -11   -1    0    0    0    0  0.00000000000E+00  0.00000000000E+00  0.45593999997E+02  0.45594000000E+02  0.51100000000E-03 0.  1.
         11   -1    0    0    0    0 -0.00000000000E+00 -0.00000000000E+00 -0.45593999997E+02  0.45594000000E+02  0.51100000000E-03 0. -1.
    9900012    2    1    2    0    0 -0.78180648800E+01 -0.26613312393E+02 -0.15726744100E+02  0.59301936979E+02  0.49999987146E+02 0.  0.
         12    1    1    2    0    0  0.78180648800E+01  0.26613312393E+02  0.15726744100E+02  0.31886063021E+02  0.00000000000E+00 0. -1.
         11    1    3    3    0    0 -0.26340135735E+01 -0.31154796864E+00  0.75772953135E+01  0.80281065122E+01  0.51100000000E-03 0. -1.
        -11    1    3    3    0    0 -0.88576992572E+01 -0.20370752213E+02  0.44515520146E+01  0.22654860349E+02  0.51100000000E-03 0.  1.
         12    1    3    3    0    0  0.36736479508E+01 -0.59310122115E+01 -0.27755591428E+02  0.28618970118E+02  0.00000000000E+00 0. -1.
</event>
<event>
 7    1  0.6164995E-012  0.5930190E+02  0.7816164E-02  0.1266605E+00
        -11   -1    0    0    0    0  0.00000000000E+00  0.00000000000E+00  0.45593999997E+02  0.45594000000E+02  0.51100000000E-03 0.  1.
         11   -1    0    0    0    0 -0.00000000000E+00 -0.00000000000E+00 -0.45593999997E+02  0.45594000000E+02  0.51100000000E-03 0. -1.
    9900012    2    1    2    0    0  0.11450979467E+02 -0.54193725212E+01  0.29261390762E+02  0.59301897720E+02  0.49999915546E+02 0.  0.
         12    1    1    2    0    0 -0.11450979467E+02  0.54193725212E+01 -0.29261390762E+02  0.31886102280E+02  0.00000000000E+00 0. -1.
         11    1    3    3    0    0 -0.69032079162E+01 -0.95786195645E+01 -0.31424439706E+01  0.12217986195E+02  0.51100000000E-03 0. -1.
        -11    1    3    3    0    0 -0.32829751562E+01  0.74973214490E+01  0.20698707375E+02  0.22258127551E+02  0.51100000000E-03 0.  1.
         12    1    3    3    0    0  0.21637162539E+02 -0.33380744057E+01  0.11705127357E+02  0.24825783974E+02  0.00000000000E+00 0. -1.
</event>
<event>
 7    1  0.6164995E-012  0.5930202E+02  0.7816164E-02  0.1266604E+00
        -11   -1    0    0    0    0  0.00000000000E+00  0.00000000000E+00  0.45593999997E+02  0.45594000000E+02  0.51100000000E-03 0. -1.
         11   -1    0    0    0    0 -0.00000000000E+00 -0.00000000000E+00 -0.45593999997E+02  0.45594000000E+02  0.51100000000E-03 0.  1.
    9900012    2    1    2    0    0  0.19790300416E+02 -0.22371158749E+02  0.11162029331E+02  0.59302021372E+02  0.50000141057E+02 0.  0.
         12    1    1    2    0    0 -0.19790300416E+02  0.22371158749E+02 -0.11162029331E+02  0.31885978628E+02  0.00000000000E+00 0. -1.
         11    1    3    3    0    0  0.83389295804E+01 -0.15275042756E+01  0.52050852086E+01  0.99480615272E+01  0.51100000000E-03 0. -1.
        -11    1    3    3    0    0 -0.72399601651E+01 -0.25983714397E+02  0.11301621974E+02  0.29245462837E+02  0.51100000000E-03 0.  1.
         12    1    3    3    0    0  0.18691331000E+02  0.51400599234E+01 -0.53446778515E+01  0.20108497008E+02  0.00000000000E+00 0. -1.
</event>
<event>
 7    1  0.6164995E-012  0.5930193E+02  0.7816164E-02  0.1266605E+00
        -11   -1    0    0    0    0  0.00000000000E+00  0.00000000000E+00  0.45593999997E+02  0.45594000000E+02  0.51100000000E-03 0.  1.
         11   -1    0    0    0    0 -0.00000000000E+00 -0.00000000000E+00 -0.45593999997E+02  0.45594000000E+02  0.51100000000E-03 0. -1.
    9900012    2    1    2    0    0 -0.68481141742E+01  0.26612960886E+02  0.16173293107E+02  0.59301925222E+02  0.49999965702E+02 0.  0.
         12    1    1    2    0    0  0.68481141742E+01 -0.26612960886E+02 -0.16173293107E+02  0.31886074778E+02  0.00000000000E+00 0. -1.
         11    1    3    3    0    0  0.33278491014E+01  0.19424715159E+01 -0.75210802814E+01  0.84507055381E+01  0.51100000000E-03 0. -1.
        -11    1    3    3    0    0 -0.15365188983E+01  0.32848995837E+02  0.15166264817E+02  0.36213712963E+02  0.51100000000E-03 0.  1.
         12    1    3    3    0    0 -0.86394443773E+01 -0.81785064671E+01  0.85281085716E+01  0.14637506720E+02  0.00000000000E+00 0. -1.
</event>
<event>
 7    1  0.6164995E-012  0.5930231E+02  0.7816164E-02  0.1266604E+00
        -11   -1    0    0    0    0  0.00000000000E+00  0.00000000000E+00  0.45593999997E+02  0.45594000000E+02  0.51100000000E-03 0.  1.
         11   -1    0    0    0    0 -0.00000000000E+00 -0.00000000000E+00 -0.45593999997E+02  0.45594000000E+02  0.51100000000E-03 0. -1.
    9900012    2    1    2    0    0 -0.56929703299E+00  0.98320939379E+01  0.30326609415E+02  0.59302307143E+02  0.50000662231E+02 0.  0.
         12    1    1    2    0    0  0.56929703299E+00 -0.98320939379E+01 -0.30326609415E+02  0.31885692857E+02  0.00000000000E+00 0. -1.
         11    1    3    3    0    0  0.29010700609E+01  0.11276554270E+02  0.23800298122E+02  0.26495869011E+02  0.51100000000E-03 0. -1.
        -11    1    3    3    0    0  0.46682999686E+01 -0.11128520722E+02  0.13705479393E+02  0.18261357115E+02  0.51100000000E-03 0.  1.
        -12    1    3    3    0    0 -0.81386670625E+01  0.96840603901E+01 -0.71791680989E+01  0.14545081017E+02  0.00000000000E+00 0.  1.
</event>
<event>
 7    1  0.6164995E-012  0.5930194E+02  0.7816164E-02  0.1266605E+00
        -11   -1    0    0    0    0  0.00000000000E+00  0.00000000000E+00  0.45593999997E+02  0.45594000000E+02  0.51100000000E-03 0.  1.
         11   -1    0    0    0    0 -0.00000000000E+00 -0.00000000000E+00 -0.45593999997E+02  0.45594000000E+02  0.51100000000E-03 0. -1.
    9900012    2    1    2    0    0  0.17746271257E+02  0.15344163854E+02  0.21595075426E+02  0.59301940499E+02  0.49999993564E+02 0.  0.
         12    1    1    2    0    0 -0.17746271257E+02 -0.15344163854E+02 -0.21595075426E+02  0.31886059501E+02  0.00000000000E+00 0. -1.
         11    1    3    3    0    0  0.12121521423E+02 -0.10440396806E+02  0.96412530795E+01  0.18678515152E+02  0.51100000000E-03 0. -1.
        -11    1    3    3    0    0  0.33720979453E+01  0.35400682495E+01  0.17011609375E+02  0.17700225466E+02  0.51100000000E-03 0.  1.
         12    1    3    3    0    0  0.22526518886E+01  0.22244492411E+02 -0.50577870286E+01  0.22923199881E+02  0.00000000000E+00 0. -1.
</event>
<event>
 7    1  0.6164995E-012  0.5930195E+02  0.7816164E-02  0.1266605E+00
        -11   -1    0    0    0    0  0.00000000000E+00  0.00000000000E+00  0.45593999997E+02  0.45594000000E+02  0.51100000000E-03 0. -1.
         11   -1    0    0    0    0 -0.00000000000E+00 -0.00000000000E+00 -0.45593999997E+02  0.45594000000E+02  0.51100000000E-03 0.  1.
    9900012    2    1    2    0    0  0.34543543419E+01 -0.22406976987E+02 -0.22421313992E+02  0.59301945011E+02  0.50000001794E+02 0.  0.
         12    1    1    2    0    0 -0.34543543419E+01  0.22406976987E+02  0.22421313992E+02  0.31886054989E+02  0.00000000000E+00 0. -1.
         11    1    3    3    0    0 -0.32322185375E+01 -0.35102822014E+01 -0.10672928257E+02  0.11691052804E+02  0.51100000000E-03 0.  1.
        -11    1    3    3    0    0 -0.43423060341E+01  0.10562245553E+02 -0.11424425191E+02  0.16153456101E+02  0.51100000000E-03 0. -1.
        -12    1    3    3    0    0  0.11028878913E+02 -0.29458940338E+02 -0.32396054340E+00  0.31457436106E+02  0.00000000000E+00 0.  1.
</event>
<event>
 7    1  0.6164995E-012  0.5930192E+02  0.7816164E-02  0.1266605E+00
        -11   -1    0    0    0    0  0.00000000000E+00  0.00000000000E+00  0.45593999997E+02  0.45594000000E+02  0.51100000000E-03 0.  1.
         11   -1    0    0    0    0 -0.00000000000E+00 -0.00000000000E+00 -0.45593999997E+02  0.45594000000E+02  0.51100000000E-03 0. -1.
    9900012    2    1    2    0    0 -0.21736962438E+02  0.82561344538E+01  0.21818856357E+02  0.59301924906E+02  0.49999965127E+02 0.  0.
         12    1    1    2    0    0  0.21736962438E+02 -0.82561344538E+01 -0.21818856357E+02  0.31886075094E+02  0.00000000000E+00 0. -1.
         11    1    3    3    0    0  0.83395810553E+00  0.14028159379E+02  0.15422088697E+01  0.14137296423E+02  0.51100000000E-03 0. -1.
        -11    1    3    3    0    0 -0.12867335286E+02  0.13569726522E+02  0.10060961570E+02  0.21235082840E+02  0.51100000000E-03 0.  1.
        -12    1    3    3    0    0 -0.97035852575E+01 -0.19341751448E+02  0.10215685917E+02  0.23929545643E+02  0.00000000000E+00 0.  1.
</event>
<event>
 7    1  0.6164995E-012  0.5930196E+02  0.7816164E-02  0.1266605E+00
        -11   -1    0    0    0    0  0.00000000000E+00  0.00000000000E+00  0.45593999997E+02  0.45594000000E+02  0.51100000000E-03 0.  1.
         11   -1    0    0    0    0 -0.00000000000E+00 -0.00000000000E+00 -0.45593999997E+02  0.45594000000E+02  0.51100000000E-03 0. -1.
    9900012    2    1    2    0    0 -0.23404919380E+01 -0.22501802944E+01  0.31720317542E+02  0.59301956676E+02  0.50000023068E+02 0.  0.
         12    1    1    2    0    0  0.23404919380E+01  0.22501802944E+01 -0.31720317542E+02  0.31886043324E+02  0.00000000000E+00 0. -1.
         11    1    3    3    0    0  0.87309295824E+00 -0.13637282518E+02  0.19937575232E+02  0.24171153720E+02  0.51100000000E-03 0. -1.
        -11    1    3    3    0    0  0.93753581005E+01  0.32855973646E-01  0.15179086202E+02  0.17841050340E+02  0.51100000000E-03 0.  1.
         12    1    3    3    0    0 -0.12588942997E+02  0.11354246250E+02 -0.33963438922E+01  0.17289752616E+02  0.00000000000E+00 0. -1.
</event>
<event>
 7    1  0.6164995E-012  0.5930195E+02  0.7816164E-02  0.1266605E+00
        -11   -1    0    0    0    0  0.00000000000E+00  0.00000000000E+00  0.45593999997E+02  0.45594000000E+02  0.51100000000E-03 0.  1.
         11   -1    0    0    0    0 -0.00000000000E+00 -0.00000000000E+00 -0.45593999997E+02  0.45594000000E+02  0.51100000000E-03 0. -1.
    9900012    2    1    2    0    0 -0.18985069092E+02  0.11374329423E+02  0.22954556798E+02  0.59301954524E+02  0.50000019143E+02 0.  0.
         12    1    1    2    0    0  0.18985069092E+02 -0.11374329423E+02 -0.22954556798E+02  0.31886045476E+02  0.00000000000E+00 0. -1.
         11    1    3    3    0    0 -0.19376436667E+02 -0.74078495725E+01  0.78779198851E+01  0.22189730850E+02  0.51100000000E-03 0. -1.
        -11    1    3    3    0    0 -0.50705668434E+01  0.15938824973E+02  0.22136054109E+02  0.27744579316E+02  0.51100000000E-03 0.  1.
         12    1    3    3    0    0  0.54619344183E+01  0.28433540229E+01 -0.70594171959E+01  0.93676443589E+01  0.00000000000E+00 0. -1.
</event>
<event>
 7    1  0.6164995E-012  0.5930194E+02  0.7816164E-02  0.1266605E+00
        -11   -1    0    0    0    0  0.00000000000E+00  0.00000000000E+00  0.45593999997E+02  0.45594000000E+02  0.51100000000E-03 0.  1.
         11   -1    0    0    0    0 -0.00000000000E+00 -0.00000000000E+00 -0.45593999997E+02  0.45594000000E+02  0.51100000000E-03 0. -1.
    9900012    2    1    2    0    0 -0.10560408424E+02  0.29508180430E+02  0.58707388462E+01  0.59301944851E+02  0.50000001501E+02 0.  0.
         12    1    1    2    0    0  0.10560408424E+02 -0.29508180430E+02 -0.58707388462E+01  0.31886055149E+02  0.00000000000E+00 0. -1.
         11    1    3    3    0    0 -0.14458832264E+01  0.14546323856E+02 -0.18757811949E+02  0.23781119095E+02  0.51100000000E-03 0. -1.
        -11    1    3    3    0    0  0.17347437959E+01 -0.33922955591E+01  0.65012295776E+01  0.75354489899E+01  0.51100000000E-03 0.  1.
        -12    1    3    3    0    0 -0.10849268993E+02  0.18354152133E+02  0.18127321218E+02  0.27985376766E+02  0.00000000000E+00 0.  1.
</event>
<event>
 7    1  0.6164995E-012  0.5930192E+02  0.7816164E-02  0.1266605E+00
        -11   -1    0    0    0    0  0.00000000000E+00  0.00000000000E+00  0.45593999997E+02  0.45594000000E+02  0.51100000000E-03 0.  1.
         11   -1    0    0    0    0 -0.00000000000E+00 -0.00000000000E+00 -0.45593999997E+02  0.45594000000E+02  0.51100000000E-03 0. -1.
    9900012    2    1    2    0    0  0.10943777731E+02 -0.15141517934E+02  0.25839702130E+02  0.59301920866E+02  0.49999957759E+02 0.  0.
         12    1    1    2    0    0 -0.10943777731E+02  0.15141517934E+02 -0.25839702130E+02  0.31886079134E+02  0.00000000000E+00 0. -1.
         11    1    3    3    0    0  0.32918163201E+01  0.31945040836E+01 -0.66711350291E+01  0.80959838107E+01  0.51100000000E-03 0. -1.
        -11    1    3    3    0    0  0.39567826283E+01 -0.19578502672E+02  0.15869373078E+01  0.20037271918E+02  0.51100000000E-03 0.  1.
        -12    1    3    3    0    0  0.36951787829E+01  0.12424806550E+01  0.30923899851E+02  0.31168665137E+02  0.00000000000E+00 0.  1.
</event>
<event>
 7    1  0.6164995E-012  0.5930197E+02  0.7816164E-02  0.1266605E+00
        -11   -1    0    0    0    0  0.00000000000E+00  0.00000000000E+00  0.45593999997E+02  0.45594000000E+02  0.51100000000E-03 0.  1.
         11   -1    0    0    0    0 -0.00000000000E+00 -0.00000000000E+00 -0.45593999997E+02  0.45594000000E+02  0.51100000000E-03 0. -1.
    9900012    2    1    2    0    0  0.31654649682E+02 -0.16408114669E+01  0.34654875416E+01  0.59301973081E+02  0.50000052987E+02 0.  0.
         12    1    1    2    0    0 -0.31654649682E+02  0.16408114669E+01 -0.34654875416E+01  0.31886026919E+02  0.00000000000E+00 0. -1.
         11    1    3    3    0    0  0.96053363908E+01 -0.29628065969E+01 -0.15739014874E+02  0.18675044835E+02  0.51100000000E-03 0. -1.
        -11    1    3    3    0    0  0.97361856746E+01  0.14690946967E+02  0.96506166787E+01  0.20093572027E+02  0.51100000000E-03 0.  1.
        -12    1    3    3    0    0  0.12313127617E+02 -0.13368951837E+02  0.95538857373E+01  0.20533356219E+02  0.00000000000E+00 0.  1.
</event>
<event>
 7    1  0.6164995E-012  0.5930192E+02  0.7816164E-02  0.1266605E+00
        -11   -1    0    0    0    0  0.00000000000E+00  0.00000000000E+00  0.45593999997E+02  0.45594000000E+02  0.51100000000E-03 0.  1.
         11   -1    0    0    0    0 -0.00000000000E+00 -0.00000000000E+00 -0.45593999997E+02  0.45594000000E+02  0.51100000000E-03 0. -1.
    9900012    2    1    2    0    0 -0.16347780564E+02  0.23072907696E+02  0.14734752914E+02  0.59301922437E+02  0.49999960624E+02 0.  0.
         12    1    1    2    0    0  0.16347780564E+02 -0.23072907696E+02 -0.14734752914E+02  0.31886077563E+02  0.00000000000E+00 0. -1.
         11    1    3    3    0    0  0.14989172107E+01  0.30030928777E+02  0.91325507390E+01  0.31424622819E+02  0.51100000000E-03 0. -1.
        -11    1    3    3    0    0 -0.66850971149E+01  0.67827579555E+01  0.93299558760E+00  0.95690548094E+01  0.51100000000E-03 0.  1.
        -12    1    3    3    0    0 -0.11161600660E+02 -0.13740779037E+02  0.46692065874E+01  0.18308244809E+02  0.00000000000E+00 0.  1.
</event>
<event>
 7    1  0.6164995E-012  0.5930193E+02  0.7816164E-02  0.1266605E+00
        -11   -1    0    0    0    0  0.00000000000E+00  0.00000000000E+00  0.45593999997E+02  0.45594000000E+02  0.51100000000E-03 0.  1.
         11   -1    0    0    0    0 -0.00000000000E+00 -0.00000000000E+00 -0.45593999997E+02  0.45594000000E+02  0.51100000000E-03 0. -1.
    9900012    2    1    2    0    0  0.17643242766E+02  0.24011074456E+02  0.11353662338E+02  0.59301931564E+02  0.49999977269E+02 0.  0.
         12    1    1    2    0    0 -0.17643242766E+02 -0.24011074456E+02 -0.11353662338E+02  0.31886068436E+02  0.00000000000E+00 0. -1.
         11    1    3    3    0    0  0.46976013715E+01  0.81226053282E+01 -0.55215384941E+01  0.10887220195E+02  0.51100000000E-03 0. -1.
        -11    1    3    3    0    0  0.14028566115E+02  0.24248084934E+02  0.24373609746E+02  0.37132777199E+02  0.51100000000E-03 0.  1.
         12    1    3    3    0    0 -0.10829247207E+01 -0.83596158066E+01 -0.74984089137E+01  0.11281934170E+02  0.00000000000E+00 0. -1.
</event>
<event>
 7    1  0.6164995E-012  0.5930193E+02  0.7816164E-02  0.1266605E+00
        -11   -1    0    0    0    0  0.00000000000E+00  0.00000000000E+00  0.45593999997E+02  0.45594000000E+02  0.51100000000E-03 0. -1.
         11   -1    0    0    0    0 -0.00000000000E+00 -0.00000000000E+00 -0.45593999997E+02  0.45594000000E+02  0.51100000000E-03 0.  1.
    9900012    2    1    2    0    0  0.25552778241E+01 -0.30026178461E+02 -0.10422118055E+02  0.59301931217E+02  0.49999976636E+02 0.  0.
         12    1    1    2    0    0 -0.25552778241E+01  0.30026178461E+02  0.10422118055E+02  0.31886068783E+02  0.00000000000E+00 0. -1.
         11    1    3    3    0    0  0.14807456641E+02 -0.31977428786E+01  0.27073960471E+01  0.15388837686E+02  0.51100000000E-03 0. -1.
        -11    1    3    3    0    0  0.40664629284E+01  0.48040833811E+01 -0.24176174835E+01  0.67424188863E+01  0.51100000000E-03 0.  1.
        -12    1    3    3    0    0 -0.16318641745E+02 -0.31632518963E+02 -0.10711896619E+02  0.37170674645E+02  0.00000000000E+00 0.  1.
</event>
<event>
 7    1  0.6164995E-012  0.5930193E+02  0.7816164E-02  0.1266605E+00
        -11   -1    0    0    0    0  0.00000000000E+00  0.00000000000E+00  0.45593999997E+02  0.45594000000E+02  0.51100000000E-03 0.  1.
         11   -1    0    0    0    0 -0.00000000000E+00 -0.00000000000E+00 -0.45593999997E+02  0.45594000000E+02  0.51100000000E-03 0. -1.
    9900012    2    1    2    0    0 -0.89536022643E+01  0.10421831539E+01  0.30585431609E+02  0.59301925203E+02  0.49999965669E+02 0.  0.
         12    1    1    2    0    0  0.89536022643E+01 -0.10421831539E+01 -0.30585431609E+02  0.31886074797E+02  0.00000000000E+00 0. -1.
         11    1    3    3    0    0 -0.55855200108E+01 -0.55548047570E+01 -0.10462677987E+02  0.13096622488E+02  0.51100000000E-03 0. -1.
        -11    1    3    3    0    0  0.67761222620E+01 -0.26053992801E+01  0.17786406974E+02  0.19210939894E+02  0.51100000000E-03 0.  1.
        -12    1    3    3    0    0 -0.10144204516E+02  0.92023871911E+01  0.23261702621E+02  0.26994362821E+02  0.00000000000E+00 0.  1.
</event>
<event>
 7    1  0.6164995E-012  0.5930196E+02  0.7816164E-02  0.1266605E+00
        -11   -1    0    0    0    0  0.00000000000E+00  0.00000000000E+00  0.45593999997E+02  0.45594000000E+02  0.51100000000E-03 0. -1.
         11   -1    0    0    0    0 -0.00000000000E+00 -0.00000000000E+00 -0.45593999997E+02  0.45594000000E+02  0.51100000000E-03 0.  1.
    9900012    2    1    2    0    0  0.14680479057E+01 -0.13263383337E+02 -0.28959408084E+02  0.59301955737E+02  0.50000021354E+02 0.  0.
         12    1    1    2    0    0 -0.14680479057E+01  0.13263383337E+02  0.28959408084E+02  0.31886044263E+02  0.00000000000E+00 0. -1.
         11    1    3    3    0    0  0.14715286449E+02  0.13492913077E+01 -0.15770331349E+02  0.21611654112E+02  0.51100000000E-03 0. -1.
        -11    1    3    3    0    0 -0.90299057066E+00  0.59002686415E+01 -0.12370785207E+02  0.13735533805E+02  0.51100000000E-03 0.  1.
        -12    1    3    3    0    0 -0.12344247973E+02 -0.20512943287E+02 -0.81829152763E+00  0.23954767820E+02  0.00000000000E+00 0.  1.
</event>
<event>
 7    1  0.6164995E-012  0.5930194E+02  0.7816164E-02  0.1266605E+00
        -11   -1    0    0    0    0  0.00000000000E+00  0.00000000000E+00  0.45593999997E+02  0.45594000000E+02  0.51100000000E-03 0.  1.
         11   -1    0    0    0    0 -0.00000000000E+00 -0.00000000000E+00 -0.45593999997E+02  0.45594000000E+02  0.51100000000E-03 0. -1.
    9900012    2    1    2    0    0  0.22709168142E+02 -0.17187770660E+02  0.14338585220E+02  0.59301940287E+02  0.49999993177E+02 0.  0.
         12    1    1    2    0    0 -0.22709168142E+02  0.17187770660E+02 -0.14338585220E+02  0.31886059713E+02  0.00000000000E+00 0. -1.
         11    1    3    3    0    0  0.99175006333E+01  0.35991733777E+01  0.16575907074E+00  0.10551698638E+02  0.51100000000E-03 0. -1.
        -11    1    3    3    0    0  0.10136832700E+02  0.92044849778E+01  0.12588820397E+02  0.18599901079E+02  0.51100000000E-03 0.  1.
         12    1    3    3    0    0  0.26548348086E+01 -0.29991429015E+02  0.15840057518E+01  0.30150340570E+02  0.00000000000E+00 0. -1.
</event>
<event>
 7    1  0.6164995E-012  0.5930194E+02  0.7816164E-02  0.1266605E+00
        -11   -1    0    0    0    0  0.00000000000E+00  0.00000000000E+00  0.45593999997E+02  0.45594000000E+02  0.51100000000E-03 0.  1.
         11   -1    0    0    0    0 -0.00000000000E+00 -0.00000000000E+00 -0.45593999997E+02  0.45594000000E+02  0.51100000000E-03 0. -1.
    9900012    2    1    2    0    0 -0.18077484527E+02 -0.59480439397E+01  0.25584094237E+02  0.59301944248E+02  0.50000000401E+02 0.  0.
         12    1    1    2    0    0  0.18077484527E+02  0.59480439397E+01 -0.25584094237E+02  0.31886055752E+02  0.00000000000E+00 0. -1.
         11    1    3    3    0    0 -0.47490332812E+01  0.69994739490E+01 -0.89695689778E+00  0.85059088054E+01  0.51100000000E-03 0. -1.
        -11    1    3    3    0    0  0.13972412551E+02 -0.38234413306E+01  0.10300289447E+02  0.17774784923E+02  0.51100000000E-03 0.  1.
         12    1    3    3    0    0 -0.27300863796E+02 -0.91240765581E+01  0.16180761687E+02  0.33021250519E+02  0.00000000000E+00 0. -1.
</event>
<event>
 7    1  0.6164995E-012  0.5930199E+02  0.7816164E-02  0.1266605E+00
        -11   -1    0    0    0    0  0.00000000000E+00  0.00000000000E+00  0.45593999997E+02  0.45594000000E+02  0.51100000000E-03 0.  1.
         11   -1    0    0    0    0 -0.00000000000E+00 -0.00000000000E+00 -0.45593999997E+02  0.45594000000E+02  0.51100000000E-03 0. -1.
    9900012    2    1    2    0    0  0.30996854360E+02 -0.63491191932E+01  0.39498700517E+01  0.59301987892E+02  0.50000079998E+02 0.  0.
         12    1    1    2    0    0 -0.30996854360E+02  0.63491191932E+01 -0.39498700517E+01  0.31886012108E+02  0.00000000000E+00 0. -1.
         11    1    3    3    0    0  0.84631712407E+01 -0.31069536848E+00 -0.10405395776E+02  0.13416186514E+02  0.51100000000E-03 0. -1.
        -11    1    3    3    0    0 -0.10001837266E+02  0.10323918531E+01  0.53728246915E+01  0.11400431004E+02  0.51100000000E-03 0.  1.
         12    1    3    3    0    0  0.32535520385E+02 -0.70708156778E+01  0.89824411362E+01  0.34485370374E+02  0.00000000000E+00 0. -1.
</event>
<event>
 7    1  0.6164995E-012  0.5930191E+02  0.7816164E-02  0.1266605E+00
        -11   -1    0    0    0    0  0.00000000000E+00  0.00000000000E+00  0.45593999997E+02  0.45594000000E+02  0.51100000000E-03 0.  1.
         11   -1    0    0    0    0 -0.00000000000E+00 -0.00000000000E+00 -0.45593999997E+02  0.45594000000E+02  0.51100000000E-03 0. -1.
    9900012    2    1    2    0    0 -0.18457741555E+02  0.16034597103E+01  0.25951178378E+02  0.59301906392E+02  0.49999931362E+02 0.  0.
         12    1    1    2    0    0  0.18457741555E+02 -0.16034597103E+01 -0.25951178378E+02  0.31886093608E+02  0.00000000000E+00 0. -1.
         11    1    3    3    0    0 -0.55401115080E+01 -0.44260887767E+01 -0.13007161849E+02  0.14814498203E+02  0.51100000000E-03 0. -1.
        -11    1    3    3    0    0  0.25937807276E+01 -0.26474238175E+01  0.67372786678E+01  0.76894392150E+01  0.51100000000E-03 0.  1.
        -12    1    3    3    0    0 -0.15511410774E+02  0.86769723045E+01  0.32221061560E+02  0.36797968974E+02  0.00000000000E+00 0.  1.
</event>
<event>
 7    1  0.6164995E-012  0.5930193E+02  0.7816164E-02  0.1266605E+00
        -11   -1    0    0    0    0  0.00000000000E+00  0.00000000000E+00  0.45593999997E+02  0.45594000000E+02  0.51100000000E-03 0.  1.
         11   -1    0    0    0    0 -0.00000000000E+00 -0.00000000000E+00 -0.45593999997E+02  0.45594000000E+02  0.51100000000E-03 0. -1.
    9900012    2    1    2    0    0 -0.19258993186E+01 -0.14740605830E+02  0.28208627390E+02  0.59301933958E+02  0.49999981635E+02 0.  0.
         12    1    1    2    0    0  0.19258993186E+01  0.14740605830E+02 -0.28208627390E+02  0.31886066042E+02  0.00000000000E+00 0. -1.
         11    1    3    3    0    0  0.37635109921E+01 -0.25444021984E+01  0.71263424768E+01  0.84511984294E+01  0.51100000000E-03 0. -1.
        -11    1    3    3    0    0 -0.46105116301E+01 -0.16265681045E+02  0.33616465366E+02  0.37628392755E+02  0.51100000000E-03 0.  1.
         12    1    3    3    0    0 -0.10788986807E+01  0.40694774133E+01 -0.12534180453E+02  0.13222342773E+02  0.00000000000E+00 0. -1.
</event>
<event>
 7    1  0.6164995E-012  0.5930194E+02  0.7816164E-02  0.1266605E+00
        -11   -1    0    0    0    0  0.00000000000E+00  0.00000000000E+00  0.45593999997E+02  0.45594000000E+02  0.51100000000E-03 0.  1.
         11   -1    0    0    0    0 -0.00000000000E+00 -0.00000000000E+00 -0.45593999997E+02  0.45594000000E+02  0.51100000000E-03 0. -1.
    9900012    2    1    2    0    0 -0.17519135612E+02  0.31665087657E+01  0.26453238217E+02  0.59301941879E+02  0.49999996081E+02 0.  0.
         12    1    1    2    0    0  0.17519135612E+02 -0.31665087657E+01 -0.26453238217E+02  0.31886058121E+02  0.00000000000E+00 0. -1.
         11    1    3    3    0    0  0.46859710801E+01 -0.36391455406E+01  0.10683778242E+02  0.12220671954E+02  0.51100000000E-03 0. -1.
        -11    1    3    3    0    0  0.53267858157E+01  0.88072177471E+01 -0.60103940669E+01  0.11919168120E+02  0.51100000000E-03 0.  1.
        -12    1    3    3    0    0 -0.27531892507E+02 -0.20015634408E+01  0.21779854042E+02  0.35162101805E+02  0.00000000000E+00 0.  1.
</event>
<event>
 7    1  0.6164995E-012  0.5930198E+02  0.7816164E-02  0.1266605E+00
        -11   -1    0    0    0    0  0.00000000000E+00  0.00000000000E+00  0.45593999997E+02  0.45594000000E+02  0.51100000000E-03 0. -1.
         11   -1    0    0    0    0 -0.00000000000E+00 -0.00000000000E+00 -0.45593999997E+02  0.45594000000E+02  0.51100000000E-03 0.  1.
    9900012    2    1    2    0    0 -0.88392000592E+01  0.27072862521E+02 -0.14340398716E+02  0.59301978327E+02  0.50000062554E+02 0.  0.
         12    1    1    2    0    0  0.88392000592E+01 -0.27072862521E+02  0.14340398716E+02  0.31886021673E+02  0.00000000000E+00 0. -1.
         11    1    3    3    0    0 -0.24684926651E+01 -0.35125536849E+00  0.15319971760E+01  0.29264059834E+01  0.51100000000E-03 0. -1.
        -11    1    3    3    0    0 -0.32799623170E+01  0.37328524756E+02 -0.71151270310E-01  0.37472416203E+02  0.51100000000E-03 0.  1.
        -12    1    3    3    0    0 -0.30907450772E+01 -0.99044068665E+01 -0.15801244621E+02  0.18903156141E+02  0.00000000000E+00 0.  1.
</event>
<event>
 7    1  0.6164995E-012  0.5930194E+02  0.7816164E-02  0.1266605E+00
        -11   -1    0    0    0    0  0.00000000000E+00  0.00000000000E+00  0.45593999997E+02  0.45594000000E+02  0.51100000000E-03 0. -1.
         11   -1    0    0    0    0 -0.00000000000E+00 -0.00000000000E+00 -0.45593999997E+02  0.45594000000E+02  0.51100000000E-03 0.  1.
    9900012    2    1    2    0    0 -0.28210373117E+02  0.14835201257E+01 -0.14788339290E+02  0.59301937804E+02  0.49999988650E+02 0.  0.
         12    1    1    2    0    0  0.28210373117E+02 -0.14835201257E+01  0.14788339290E+02  0.31886062196E+02  0.00000000000E+00 0. -1.
         11    1    3    3    0    0 -0.96882408453E+00  0.79420471746E+01  0.11292674377E+02  0.13839769806E+02  0.51100000000E-03 0. -1.
        -11    1    3    3    0    0  0.45532802436E+01 -0.20278574024E+01 -0.21832662148E+01  0.54416190832E+01  0.51100000000E-03 0.  1.
         12    1    3    3    0    0 -0.31794829277E+02 -0.44306696466E+01 -0.23897747452E+02  0.40020548916E+02  0.00000000000E+00 0. -1.
</event>
<event>
 7    1  0.6164995E-012  0.5930194E+02  0.7816164E-02  0.1266605E+00
        -11   -1    0    0    0    0  0.00000000000E+00  0.00000000000E+00  0.45593999997E+02  0.45594000000E+02  0.51100000000E-03 0.  1.
         11   -1    0    0    0    0 -0.00000000000E+00 -0.00000000000E+00 -0.45593999997E+02  0.45594000000E+02  0.51100000000E-03 0. -1.
    9900012    2    1    2    0    0 -0.23931973376E+02 -0.20768355981E+02 -0.35576889996E+01  0.59301935476E+02  0.49999984403E+02 0.  0.
         12    1    1    2    0    0  0.23931973376E+02  0.20768355981E+02  0.35576889996E+01  0.31886064524E+02  0.00000000000E+00 0. -1.
         11    1    3    3    0    0 -0.23752710479E+01  0.77237749326E+01 -0.14265219272E+02  0.16394971574E+02  0.51100000000E-03 0. -1.
        -11    1    3    3    0    0  0.38910281243E+01 -0.99716612915E+00  0.32023096301E+00  0.40295146462E+01  0.51100000000E-03 0.  1.
        -12    1    3    3    0    0 -0.25447730452E+02 -0.27494964785E+02  0.10387299309E+02  0.38877449256E+02  0.00000000000E+00 0.  1.
</event>
<event>
 7    1  0.6164995E-012  0.5930195E+02  0.7816164E-02  0.1266605E+00
        -11   -1    0    0    0    0  0.00000000000E+00  0.00000000000E+00  0.45593999997E+02  0.45594000000E+02  0.51100000000E-03 0. -1.
         11   -1    0    0    0    0 -0.00000000000E+00 -0.00000000000E+00 -0.45593999997E+02  0.45594000000E+02  0.51100000000E-03 0.  1.
    9900012    2    1    2    0    0  0.19455551376E+02  0.24615934944E+02 -0.56795603608E+01  0.59301950724E+02  0.50000012213E+02 0.  0.
         12    1    1    2    0    0 -0.19455551376E+02 -0.24615934944E+02  0.56795603608E+01  0.31886049276E+02  0.00000000000E+00 0. -1.
         11    1    3    3    0    0  0.43960761468E+01  0.12246304346E+02  0.20561506683E+02  0.24332550482E+02  0.51100000000E-03 0. -1.
        -11    1    3    3    0    0  0.64534014605E+01 -0.11976780816E+01 -0.11083664821E+02  0.12881321723E+02  0.51100000000E-03 0.  1.
        -12    1    3    3    0    0  0.86060737689E+01  0.13567308680E+02 -0.15157402223E+02  0.22088078519E+02  0.00000000000E+00 0.  1.
</event>
<event>
 7    1  0.6164995E-012  0.5930194E+02  0.7816164E-02  0.1266605E+00
        -11   -1    0    0    0    0  0.00000000000E+00  0.00000000000E+00  0.45593999997E+02  0.45594000000E+02  0.51100000000E-03 0.  1.
         11   -1    0    0    0    0 -0.00000000000E+00 -0.00000000000E+00 -0.45593999997E+02  0.45594000000E+02  0.51100000000E-03 0. -1.
    9900012    2    1    2    0    0  0.51004673577E+01 -0.29892808515E+02  0.98552546032E+01  0.59301940170E+02  0.49999992964E+02 0.  0.
         12    1    1    2    0    0 -0.51004673577E+01  0.29892808515E+02 -0.98552546032E+01  0.31886059830E+02  0.00000000000E+00 0. -1.
         11    1    3    3    0    0  0.55627803430E+01  0.80835169297E+01 -0.50874449373E+01  0.11053047876E+02  0.51100000000E-03 0. -1.
        -11    1    3    3    0    0 -0.56388642581E+01  0.79557217679E+00 -0.13870356416E+01  0.58611938496E+01  0.51100000000E-03 0.  1.
        -12    1    3    3    0    0  0.51765512728E+01 -0.38771897622E+02  0.16329735182E+02  0.42387698444E+02  0.00000000000E+00 0.  1.
</event>
<event>
 7    1  0.6164995E-012  0.5930197E+02  0.7816164E-02  0.1266605E+00
        -11   -1    0    0    0    0  0.00000000000E+00  0.00000000000E+00  0.45593999997E+02  0.45594000000E+02  0.51100000000E-03 0. -1.
         11   -1    0    0    0    0 -0.00000000000E+00 -0.00000000000E+00 -0.45593999997E+02  0.45594000000E+02  0.51100000000E-03 0.  1.
    9900012    2    1    2    0    0 -0.31556389785E+02 -0.44518190151E+01  0.10460541127E+01  0.59301973938E+02  0.50000054550E+02 0.  0.
         12    1    1    2    0    0  0.31556389785E+02  0.44518190151E+01 -0.10460541127E+01  0.31886026062E+02  0.00000000000E+00 0. -1.
         11    1    3    3    0    0 -0.84142262874E+00 -0.73013830517E+01  0.99058147693E+01  0.12334640368E+02  0.51100000000E-03 0. -1.
        -11    1    3    3    0    0 -0.23043926201E+02  0.14077179133E+01  0.11040594565E+02  0.25590993202E+02  0.51100000000E-03 0.  1.
        -12    1    3    3    0    0 -0.76710409553E+01  0.14418461233E+01 -0.19900355221E+02  0.21376340368E+02  0.00000000000E+00 0.  1.
</event>
<event>
 7    1  0.6164995E-012  0.5930206E+02  0.7816164E-02  0.1266604E+00
        -11   -1    0    0    0    0  0.00000000000E+00  0.00000000000E+00  0.45593999997E+02  0.45594000000E+02  0.51100000000E-03 0.  1.
         11   -1    0    0    0    0 -0.00000000000E+00 -0.00000000000E+00 -0.45593999997E+02  0.45594000000E+02  0.51100000000E-03 0. -1.
    9900012    2    1    2    0    0  0.10741930311E+02  0.17824958850E+02  0.24157704141E+02  0.59302064320E+02  0.50000219384E+02 0.  0.
         12    1    1    2    0    0 -0.10741930311E+02 -0.17824958850E+02 -0.24157704141E+02  0.31885935680E+02  0.00000000000E+00 0. -1.
         11    1    3    3    0    0 -0.65224289036E+00 -0.15360317322E+02  0.52353305253E+01  0.16241103872E+02  0.51100000000E-03 0. -1.
        -11    1    3    3    0    0  0.23552458405E+01  0.20431805466E+02  0.30650923783E+01  0.20794245577E+02  0.51100000000E-03 0.  1.
        -12    1    3    3    0    0  0.90389273605E+01  0.12753470707E+02  0.15857281238E+02  0.22266714871E+02  0.00000000000E+00 0.  1.
</event>
<event>
 7    1  0.6164995E-012  0.5930183E+02  0.7816164E-02  0.1266605E+00
        -11   -1    0    0    0    0  0.00000000000E+00  0.00000000000E+00  0.45593999997E+02  0.45594000000E+02  0.51100000000E-03 0.  1.
         11   -1    0    0    0    0 -0.00000000000E+00 -0.00000000000E+00 -0.45593999997E+02  0.45594000000E+02  0.51100000000E-03 0. -1.
    9900012    2    1    2    0    0  0.20345125357E+00 -0.97859114865E+01  0.30346702584E+02  0.59301830369E+02  0.49999792713E+02 0.  0.
         12    1    1    2    0    0 -0.20345125357E+00  0.97859114865E+01 -0.30346702584E+02  0.31886169631E+02  0.00000000000E+00 0. -1.
         11    1    3    3    0    0  0.85661974057E+01  0.14279124068E+01  0.17874362316E+00  0.86862317134E+01  0.51100000000E-03 0. -1.
        -11    1    3    3    0    0 -0.81281395425E+01 -0.21442441296E+02  0.32828135520E+02  0.40044118458E+02  0.51100000000E-03 0.  1.
         12    1    3    3    0    0 -0.23460660967E+00  0.10228617403E+02 -0.26601765592E+01  0.10571480197E+02  0.00000000000E+00 0. -1.
</event>
<event>
 7    1  0.6164995E-012  0.5930194E+02  0.7816164E-02  0.1266605E+00
        -11   -1    0    0    0    0  0.00000000000E+00  0.00000000000E+00  0.45593999997E+02  0.45594000000E+02  0.51100000000E-03 0.  1.
         11   -1    0    0    0    0 -0.00000000000E+00 -0.00000000000E+00 -0.45593999997E+02  0.45594000000E+02  0.51100000000E-03 0. -1.
    9900012    2    1    2    0    0 -0.15702264424E+02 -0.26741217986E+02  0.74207071961E+01  0.59301941248E+02  0.49999994931E+02 0.  0.
         12    1    1    2    0    0  0.15702264424E+02  0.26741217986E+02 -0.74207071961E+01  0.31886058752E+02  0.00000000000E+00 0. -1.
         11    1    3    3    0    0  0.30941974035E+01  0.17970922069E+01 -0.27928075255E+01  0.45390937540E+01  0.51100000000E-03 0.  1.
        -11    1    3    3    0    0  0.81862922022E+01 -0.19314441644E+02 -0.61820569096E+01  0.21869633375E+02  0.51100000000E-03 0. -1.
        -12    1    3    3    0    0 -0.26982754029E+02 -0.92238685492E+01  0.16395571631E+02  0.32893214120E+02  0.00000000000E+00 0.  1.
</event>
<event>
 7    1  0.6164995E-012  0.5930195E+02  0.7816164E-02  0.1266605E+00
        -11   -1    0    0    0    0  0.00000000000E+00  0.00000000000E+00  0.45593999997E+02  0.45594000000E+02  0.51100000000E-03 0.  1.
         11   -1    0    0    0    0 -0.00000000000E+00 -0.00000000000E+00 -0.45593999997E+02  0.45594000000E+02  0.51100000000E-03 0. -1.
    9900012    2    1    2    0    0 -0.58963413725E+01  0.14464116288E+02  0.27798247441E+02  0.59301951917E+02  0.50000014388E+02 0.  0.
         12    1    1    2    0    0  0.58963413725E+01 -0.14464116288E+02 -0.27798247441E+02  0.31886048083E+02  0.00000000000E+00 0. -1.
         11    1    3    3    0    0  0.43321827098E+01  0.17353840874E+02  0.18842604538E+02  0.25980133683E+02  0.51100000000E-03 0. -1.
        -11    1    3    3    0    0  0.34572667925E+01  0.26353096493E+01  0.16276440421E+02  0.16846960072E+02  0.51100000000E-03 0.  1.
         12    1    3    3    0    0 -0.13685790875E+02 -0.55250342355E+01 -0.73207975180E+01  0.16474858162E+02  0.00000000000E+00 0. -1.
</event>
<event>
 7    1  0.6164995E-012  0.5930194E+02  0.7816164E-02  0.1266605E+00
        -11   -1    0    0    0    0  0.00000000000E+00  0.00000000000E+00  0.45593999997E+02  0.45594000000E+02  0.51100000000E-03 0.  1.
         11   -1    0    0    0    0 -0.00000000000E+00 -0.00000000000E+00 -0.45593999997E+02  0.45594000000E+02  0.51100000000E-03 0. -1.
    9900012    2    1    2    0    0  0.45633638259E+01 -0.31495590627E+02 -0.19810511074E+01  0.59301935930E+02  0.49999985232E+02 0.  0.
         12    1    1    2    0    0 -0.45633638259E+01  0.31495590627E+02  0.19810511074E+01  0.31886064070E+02  0.00000000000E+00 0. -1.
         11    1    3    3    0    0 -0.11976438808E+02  0.47580680815E+01 -0.19573432205E+01  0.13034780057E+02  0.51100000000E-03 0. -1.
        -11    1    3    3    0    0  0.62116262762E+01 -0.77939244399E+01 -0.10263771449E+02  0.14306451824E+02  0.51100000000E-03 0.  1.
        -12    1    3    3    0    0  0.10328176358E+02 -0.28459734269E+02  0.10240063562E+02  0.31960704049E+02  0.00000000000E+00 0.  1.
</event>
<event>
 7    1  0.6164995E-012  0.5930194E+02  0.7816164E-02  0.1266605E+00
        -11   -1    0    0    0    0  0.00000000000E+00  0.00000000000E+00  0.45593999997E+02  0.45594000000E+02  0.51100000000E-03 0. -1.
         11   -1    0    0    0    0 -0.00000000000E+00 -0.00000000000E+00 -0.45593999997E+02  0.45594000000E+02  0.51100000000E-03 0.  1.
    9900012    2    1    2    0    0 -0.24767137202E+02  0.72858849416E+01 -0.18714309387E+02  0.59301943794E+02  0.49999999573E+02 0.  0.
         12    1    1    2    0    0  0.24767137202E+02 -0.72858849416E+01  0.18714309387E+02  0.31886056206E+02  0.00000000000E+00 0. -1.
         11    1    3    3    0    0  0.15405251483E+01 -0.77698330609E+01 -0.68799710105E+01  0.10491783685E+02  0.51100000000E-03 0. -1.
        -11    1    3    3    0    0 -0.26225561019E+02  0.16187087465E-01 -0.18767752264E+02  0.32249168022E+02  0.51100000000E-03 0.  1.
        -12    1    3    3    0    0 -0.82101330920E-01  0.15039530915E+02  0.69334138872E+01  0.16560992087E+02  0.00000000000E+00 0.  1.
</event>
<event>
 7    1  0.6164995E-012  0.5930193E+02  0.7816164E-02  0.1266605E+00
        -11   -1    0    0    0    0  0.00000000000E+00  0.00000000000E+00  0.45593999997E+02  0.45594000000E+02  0.51100000000E-03 0. -1.
         11   -1    0    0    0    0 -0.00000000000E+00 -0.00000000000E+00 -0.45593999997E+02  0.45594000000E+02  0.51100000000E-03 0.  1.
    9900012    2    1    2    0    0  0.22827706605E+02  0.76823939021E+01 -0.20894927017E+02  0.59301931884E+02  0.49999977852E+02 0.  0.
         12    1    1    2    0    0 -0.22827706605E+02 -0.76823939021E+01  0.20894927017E+02  0.31886068116E+02  0.00000000000E+00 0. -1.
         11    1    3    3    0    0  0.23776210310E+01  0.24127626956E+02 -0.90697783516E+01  0.25885446565E+02  0.51100000000E-03 0. -1.
        -11    1    3    3    0    0  0.35432065993E+01  0.21328653522E+01  0.21606100276E+01  0.46660115268E+01  0.51100000000E-03 0.  1.
        -12    1    3    3    0    0  0.16906878974E+02 -0.18578098406E+02 -0.13985758693E+02  0.28750473791E+02  0.00000000000E+00 0.  1.
</event>
<event>
 7    1  0.6164995E-012  0.5930199E+02  0.7816164E-02  0.1266605E+00
        -11   -1    0    0    0    0  0.00000000000E+00  0.00000000000E+00  0.45593999997E+02  0.45594000000E+02  0.51100000000E-03 0.  1.
         11   -1    0    0    0    0 -0.00000000000E+00 -0.00000000000E+00 -0.45593999997E+02  0.45594000000E+02  0.51100000000E-03 0. -1.
    9900012    2    1    2    0    0  0.15653273845E+02 -0.91289975198E+01  0.26236506321E+02  0.59301986738E+02  0.50000077894E+02 0.  0.
         12    1    1    2    0    0 -0.15653273845E+02  0.91289975198E+01 -0.26236506321E+02  0.31886013262E+02  0.00000000000E+00 0. -1.
         11    1    3    3    0    0  0.18038296154E+01  0.10065806307E+02  0.12435870515E+01  0.10301493431E+02  0.51100000000E-03 0. -1.
        -11    1    3    3    0    0  0.23214825518E+02 -0.48147179292E+01  0.20292992644E+02  0.31207614187E+02  0.51100000000E-03 0.  1.
        -12    1    3    3    0    0 -0.93653812877E+01 -0.14380085898E+02  0.46999266256E+01  0.17792879120E+02  0.00000000000E+00 0.  1.
</event>
<event>
 7    1  0.6164995E-012  0.5930194E+02  0.7816164E-02  0.1266605E+00
        -11   -1    0    0    0    0  0.00000000000E+00  0.00000000000E+00  0.45593999997E+02  0.45594000000E+02  0.51100000000E-03 0. -1.
         11   -1    0    0    0    0 -0.00000000000E+00 -0.00000000000E+00 -0.45593999997E+02  0.45594000000E+02  0.51100000000E-03 0.  1.
    9900012    2    1    2    0    0  0.23919773481E+02 -0.19151365825E+02  0.88198980273E+01  0.59301937566E+02  0.49999988215E+02 0.  0.
         12    1    1    2    0    0 -0.23919773481E+02  0.19151365825E+02 -0.88198980273E+01  0.31886062434E+02  0.00000000000E+00 0. -1.
         11    1    3    3    0    0  0.20725249727E+02 -0.56775036187E+01 -0.41158024675E+01  0.21879439065E+02  0.51100000000E-03 0. -1.
        -11    1    3    3    0    0  0.14378031264E+02 -0.17963832463E+02  0.74863822312E+01  0.24196548906E+02  0.51100000000E-03 0.  1.
         12    1    3    3    0    0 -0.11183507510E+02  0.44899702571E+01  0.54493182635E+01  0.13225949594E+02  0.00000000000E+00 0. -1.
</event>
<event>
 7    1  0.6164995E-012  0.5930194E+02  0.7816164E-02  0.1266605E+00
        -11   -1    0    0    0    0  0.00000000000E+00  0.00000000000E+00  0.45593999997E+02  0.45594000000E+02  0.51100000000E-03 0. -1.
         11   -1    0    0    0    0 -0.00000000000E+00 -0.00000000000E+00 -0.45593999997E+02  0.45594000000E+02  0.51100000000E-03 0.  1.
    9900012    2    1    2    0    0 -0.16490855719E+02  0.23677818676E+02  0.13569566746E+02  0.59301944093E+02  0.50000000119E+02 0.  0.
         12    1    1    2    0    0  0.16490855719E+02 -0.23677818676E+02 -0.13569566746E+02  0.31886055907E+02  0.00000000000E+00 0. -1.
         11    1    3    3    0    0 -0.16725822655E+02 -0.55560151849E+01  0.50193403766E+00  0.17631630278E+02  0.51100000000E-03 0. -1.
        -11    1    3    3    0    0 -0.11144950784E+02  0.11832807135E+02 -0.14381004034E+01  0.16318498268E+02  0.51100000000E-03 0.  1.
         12    1    3    3    0    0  0.11379917720E+02  0.17401026726E+02  0.14505733112E+02  0.25351815548E+02  0.00000000000E+00 0. -1.
</event>
<event>
 7    1  0.6164995E-012  0.5930194E+02  0.7816164E-02  0.1266605E+00
        -11   -1    0    0    0    0  0.00000000000E+00  0.00000000000E+00  0.45593999997E+02  0.45594000000E+02  0.51100000000E-03 0.  1.
         11   -1    0    0    0    0 -0.00000000000E+00 -0.00000000000E+00 -0.45593999997E+02  0.45594000000E+02  0.51100000000E-03 0. -1.
    9900012    2    1    2    0    0  0.26408169398E+02 -0.93410371862E+01  0.15233997252E+02  0.59301936290E+02  0.49999985888E+02 0.  0.
         12    1    1    2    0    0 -0.26408169398E+02  0.93410371862E+01 -0.15233997252E+02  0.31886063710E+02  0.00000000000E+00 0. -1.
         11    1    3    3    0    0  0.16119611299E+02 -0.10336339676E+02  0.83117226502E+00  0.19166967259E+02  0.51100000000E-03 0.  1.
        -11    1    3    3    0    0 -0.76096072946E+01  0.99553920302E+00 -0.82480342974E+01  0.11266201290E+02  0.51100000000E-03 0. -1.
         12    1    3    3    0    0  0.17898165394E+02 -0.23671273336E-03  0.22650859284E+02  0.28868767740E+02  0.00000000000E+00 0. -1.
</event>
<event>
 7    1  0.6164995E-012  0.5930197E+02  0.7816164E-02  0.1266605E+00
        -11   -1    0    0    0    0  0.00000000000E+00  0.00000000000E+00  0.45593999997E+02  0.45594000000E+02  0.51100000000E-03 0. -1.
         11   -1    0    0    0    0 -0.00000000000E+00 -0.00000000000E+00 -0.45593999997E+02  0.45594000000E+02  0.51100000000E-03 0.  1.
    9900012    2    1    2    0    0  0.20842454937E+01 -0.25303365005E+02 -0.19290273209E+02  0.59301968570E+02  0.50000044760E+02 0.  0.
         12    1    1    2    0    0 -0.20842454937E+01  0.25303365005E+02  0.19290273209E+02  0.31886031430E+02  0.00000000000E+00 0. -1.
         11    1    3    3    0    0 -0.83586806078E+01 -0.94351218897E+01 -0.21265691533E+02  0.24720815181E+02  0.51100000000E-03 0. -1.
        -11    1    3    3    0    0 -0.61041792028E+01  0.24782594223E+01 -0.56983439653E+01  0.87105624223E+01  0.51100000000E-03 0.  1.
         12    1    3    3    0    0  0.16547105304E+02 -0.18346502538E+02  0.76737622892E+01  0.25870590967E+02  0.00000000000E+00 0. -1.
</event>
<event>
 7    1  0.6164995E-012  0.5930197E+02  0.7816164E-02  0.1266605E+00
        -11   -1    0    0    0    0  0.00000000000E+00  0.00000000000E+00  0.45593999997E+02  0.45594000000E+02  0.51100000000E-03 0.  1.
         11   -1    0    0    0    0 -0.00000000000E+00 -0.00000000000E+00 -0.45593999997E+02  0.45594000000E+02  0.51100000000E-03 0. -1.
    9900012    2    1    2    0    0 -0.15615592787E+02  0.22698891098E+02  0.16050925185E+02  0.59301974935E+02  0.50000056367E+02 0.  0.
         12    1    1    2    0    0  0.15615592787E+02 -0.22698891098E+02 -0.16050925185E+02  0.31886025065E+02  0.00000000000E+00 0. -1.
         11    1    3    3    0    0 -0.88749333239E+01 -0.61482967633E+01 -0.78857991358E+01  0.13369810128E+02  0.51100000000E-03 0. -1.
        -11    1    3    3    0    0 -0.10847770237E+02  0.10946223976E+02 -0.43267939156E+00  0.15416911174E+02  0.51100000000E-03 0.  1.
         12    1    3    3    0    0  0.41071107736E+01  0.17900963885E+02  0.24369403713E+02  0.30515253632E+02  0.00000000000E+00 0. -1.
</event>
<event>
 7    1  0.6164995E-012  0.5930198E+02  0.7816164E-02  0.1266605E+00
        -11   -1    0    0    0    0  0.00000000000E+00  0.00000000000E+00  0.45593999997E+02  0.45594000000E+02  0.51100000000E-03 0.  1.
         11   -1    0    0    0    0 -0.00000000000E+00 -0.00000000000E+00 -0.45593999997E+02  0.45594000000E+02  0.51100000000E-03 0. -1.
    9900012    2    1    2    0    0 -0.10064700259E+02  0.21942679720E+02  0.20831194140E+02  0.59301983725E+02  0.50000072398E+02 0.  0.
         12    1    1    2    0    0  0.10064700259E+02 -0.21942679720E+02 -0.20831194140E+02  0.31886016275E+02  0.00000000000E+00 0. -1.
         11    1    3    3    0    0  0.59560138555E+01  0.55699369026E+01  0.11111771355E+02  0.13782951826E+02  0.51100000000E-03 0. -1.
        -11    1    3    3    0    0 -0.32557611899E+01  0.26718990880E+02  0.10411533904E+01  0.26936749158E+02  0.51100000000E-03 0.  1.
         12    1    3    3    0    0 -0.12764952924E+02 -0.10346248063E+02  0.86782693948E+01  0.18582282740E+02  0.00000000000E+00 0. -1.
</event>
<event>
 7    1  0.6164995E-012  0.5930195E+02  0.7816164E-02  0.1266605E+00
        -11   -1    0    0    0    0  0.00000000000E+00  0.00000000000E+00  0.45593999997E+02  0.45594000000E+02  0.51100000000E-03 0. -1.
         11   -1    0    0    0    0 -0.00000000000E+00 -0.00000000000E+00 -0.45593999997E+02  0.45594000000E+02  0.51100000000E-03 0.  1.
    9900012    2    1    2    0    0 -0.13780917473E+02  0.19460766275E+02  0.21168025630E+02  0.59301946317E+02  0.50000004176E+02 0.  0.
         12    1    1    2    0    0  0.13780917473E+02 -0.19460766275E+02 -0.21168025630E+02  0.31886053683E+02  0.00000000000E+00 0. -1.
         11    1    3    3    0    0 -0.73239749283E+01  0.84423761385E+01 -0.44200351805E+01  0.12018778427E+02  0.51100000000E-03 0. -1.
        -11    1    3    3    0    0 -0.20494298065E+02  0.13275895047E+02  0.10586713634E+02  0.26614735548E+02  0.51100000000E-03 0.  1.
         12    1    3    3    0    0  0.14037355520E+02 -0.22575049104E+01  0.15001347176E+02  0.20668432343E+02  0.00000000000E+00 0. -1.
</event>
<event>
 7    1  0.6164995E-012  0.5930194E+02  0.7816164E-02  0.1266605E+00
        -11   -1    0    0    0    0  0.00000000000E+00  0.00000000000E+00  0.45593999997E+02  0.45594000000E+02  0.51100000000E-03 0.  1.
         11   -1    0    0    0    0 -0.00000000000E+00 -0.00000000000E+00 -0.45593999997E+02  0.45594000000E+02  0.51100000000E-03 0. -1.
    9900012    2    1    2    0    0 -0.86070241965E+01 -0.55515325425E+01  0.30196361210E+02  0.59301943339E+02  0.49999998744E+02 0.  0.
         12    1    1    2    0    0  0.86070241965E+01  0.55515325425E+01 -0.30196361210E+02  0.31886056661E+02  0.00000000000E+00 0. -1.
         11    1    3    3    0    0 -0.78485236471E+01  0.12050005383E+02 -0.12523668228E+00  0.14381155644E+02  0.51100000000E-03 0. -1.
        -11    1    3    3    0    0  0.10553255111E+02 -0.28236927952E+01  0.21139780234E+01  0.11127144188E+02  0.51100000000E-03 0.  1.
        -12    1    3    3    0    0 -0.11311755661E+02 -0.14777845130E+02  0.28207619868E+02  0.33793643507E+02  0.00000000000E+00 0.  1.
</event>
<event>
 7    1  0.6164995E-012  0.5930190E+02  0.7816164E-02  0.1266605E+00
        -11   -1    0    0    0    0  0.00000000000E+00  0.00000000000E+00  0.45593999997E+02  0.45594000000E+02  0.51100000000E-03 0.  1.
         11   -1    0    0    0    0 -0.00000000000E+00 -0.00000000000E+00 -0.45593999997E+02  0.45594000000E+02  0.51100000000E-03 0. -1.
    9900012    2    1    2    0    0 -0.14706792083E+02  0.27874964914E+00  0.28290558703E+02  0.59301903555E+02  0.49999926188E+02 0.  0.
         12    1    1    2    0    0  0.14706792083E+02 -0.27874964914E+00 -0.28290558703E+02  0.31886096445E+02  0.00000000000E+00 0. -1.
         11    1    3    3    0    0  0.10964640500E+02 -0.40812244944E+01  0.44361171812E+00  0.11707968495E+02  0.51100000000E-03 0. -1.
        -11    1    3    3    0    0  0.46763332806E+01  0.15200259341E+01 -0.16413615809E+01  0.51838827044E+01  0.51100000000E-03 0.  1.
        -12    1    3    3    0    0 -0.30347765863E+02  0.28399482094E+01  0.29488308566E+02  0.42410052356E+02  0.00000000000E+00 0.  1.
</event>
<event>
 7    1  0.6164995E-012  0.5930193E+02  0.7816164E-02  0.1266605E+00
        -11   -1    0    0    0    0  0.00000000000E+00  0.00000000000E+00  0.45593999997E+02  0.45594000000E+02  0.51100000000E-03 0. -1.
         11   -1    0    0    0    0 -0.00000000000E+00 -0.00000000000E+00 -0.45593999997E+02  0.45594000000E+02  0.51100000000E-03 0.  1.
    9900012    2    1    2    0    0 -0.31007656227E+02  0.73525338166E+01  0.10894991757E+01  0.59301929269E+02  0.49999973084E+02 0.  0.
         12    1    1    2    0    0  0.31007656227E+02 -0.73525338166E+01 -0.10894991757E+01  0.31886070731E+02  0.00000000000E+00 0. -1.
         11    1    3    3    0    0 -0.94621518937E+01  0.48439813063E+00  0.12601753418E+02  0.15766139334E+02  0.51100000000E-03 0. -1.
        -11    1    3    3    0    0 -0.48121217789E+01 -0.11540132425E+02 -0.13717976819E+02  0.18561089965E+02  0.51100000000E-03 0.  1.
        -12    1    3    3    0    0 -0.16733382554E+02  0.18408268111E+02  0.22057225764E+01  0.24974699971E+02  0.00000000000E+00 0.  1.
</event>
<event>
 7    1  0.6164995E-012  0.5930194E+02  0.7816164E-02  0.1266605E+00
        -11   -1    0    0    0    0  0.00000000000E+00  0.00000000000E+00  0.45593999997E+02  0.45594000000E+02  0.51100000000E-03 0.  1.
         11   -1    0    0    0    0 -0.00000000000E+00 -0.00000000000E+00 -0.45593999997E+02  0.45594000000E+02  0.51100000000E-03 0. -1.
    9900012    2    1    2    0    0 -0.26414314366E+00 -0.12486606454E+02  0.29338300044E+02  0.59301937813E+02  0.49999988665E+02 0.  0.
         12    1    1    2    0    0  0.26414314366E+00  0.12486606454E+02 -0.29338300044E+02  0.31886062187E+02  0.00000000000E+00 0. -1.
         11    1    3    3    0    0 -0.11249390005E+02  0.91701891664E+01  0.14087182623E+02  0.20225969924E+02  0.51100000000E-03 0. -1.
        -11    1    3    3    0    0 -0.47284051287E+01  0.25126154826E+01 -0.17188158315E+01  0.56236447032E+01  0.51100000000E-03 0.  1.
        -12    1    3    3    0    0  0.15713651990E+02 -0.24169411103E+02  0.16969933253E+02  0.33452323186E+02  0.00000000000E+00 0.  1.
</event>
<event>
 7    1  0.6164995E-012  0.5930195E+02  0.7816164E-02  0.1266605E+00
        -11   -1    0    0    0    0  0.00000000000E+00  0.00000000000E+00  0.45593999997E+02  0.45594000000E+02  0.51100000000E-03 0. -1.
         11   -1    0    0    0    0 -0.00000000000E+00 -0.00000000000E+00 -0.45593999997E+02  0.45594000000E+02  0.51100000000E-03 0.  1.
    9900012    2    1    2    0    0  0.27671578611E+02  0.44467881386E+01 -0.15206254246E+02  0.59301947316E+02  0.50000005997E+02 0.  0.
         12    1    1    2    0    0 -0.27671578611E+02 -0.44467881386E+01  0.15206254246E+02  0.31886052684E+02  0.00000000000E+00 0. -1.
         11    1    3    3    0    0  0.20998689112E+02  0.65367453627E+01  0.10732343864E+02  0.24471558786E+02  0.51100000000E-03 0. -1.
        -11    1    3    3    0    0  0.23064119742E+00 -0.11089153541E+02 -0.77204569554E+01  0.13513991915E+02  0.51100000000E-03 0.  1.
        -12    1    3    3    0    0  0.64422483020E+01  0.89991963167E+01 -0.18218141155E+02  0.21316396615E+02  0.00000000000E+00 0.  1.
</event>
<event>
 7    1  0.6164995E-012  0.5930195E+02  0.7816164E-02  0.1266605E+00
        -11   -1    0    0    0    0  0.00000000000E+00  0.00000000000E+00  0.45593999997E+02  0.45594000000E+02  0.51100000000E-03 0.  1.
         11   -1    0    0    0    0 -0.00000000000E+00 -0.00000000000E+00 -0.45593999997E+02  0.45594000000E+02  0.51100000000E-03 0. -1.
    9900012    2    1    2    0    0  0.60834631322E+01 -0.30739249666E+02  0.59000185761E+01  0.59301949556E+02  0.50000010082E+02 0.  0.
         12    1    1    2    0    0 -0.60834631322E+01  0.30739249666E+02 -0.59000185761E+01  0.31886050444E+02  0.00000000000E+00 0. -1.
         11    1    3    3    0    0 -0.66504383747E+01 -0.29891000223E+02 -0.98826346317E+01  0.32177114420E+02  0.51100000000E-03 0. -1.
        -11    1    3    3    0    0 -0.33879110306E+01 -0.85501175441E+00 -0.12133820973E+01  0.36988217890E+01  0.51100000000E-03 0.  1.
        -12    1    3    3    0    0  0.16121812537E+02  0.67623106417E-02  0.16996035305E+02  0.23426013347E+02  0.00000000000E+00 0.  1.
</event>
<event>
 7    1  0.6164995E-012  0.5930190E+02  0.7816164E-02  0.1266605E+00
        -11   -1    0    0    0    0  0.00000000000E+00  0.00000000000E+00  0.45593999997E+02  0.45594000000E+02  0.51100000000E-03 0.  1.
         11   -1    0    0    0    0 -0.00000000000E+00 -0.00000000000E+00 -0.45593999997E+02  0.45594000000E+02  0.51100000000E-03 0. -1.
    9900012    2    1    2    0    0 -0.30908434199E+02  0.74524794157E+01  0.24192362882E+01  0.59301898666E+02  0.49999917271E+02 0.  0.
         12    1    1    2    0    0  0.30908434199E+02 -0.74524794157E+01 -0.24192362882E+01  0.31886101334E+02  0.00000000000E+00 0. -1.
         11    1    3    3    0    0 -0.18960306059E+01  0.98215236300E+01 -0.71235240389E+01  0.12280140613E+02  0.51100000000E-03 0. -1.
        -11    1    3    3    0    0  0.34452357315E+00  0.11136413385E+02  0.96001926477E+01  0.14707212472E+02  0.51100000000E-03 0.  1.
         12    1    3    3    0    0 -0.29356927166E+02 -0.13505457599E+02 -0.57432320610E-01  0.32314545581E+02  0.00000000000E+00 0. -1.
</event>
<event>
 7    1  0.6164995E-012  0.5930192E+02  0.7816164E-02  0.1266605E+00
        -11   -1    0    0    0    0  0.00000000000E+00  0.00000000000E+00  0.45593999997E+02  0.45594000000E+02  0.51100000000E-03 0.  1.
         11   -1    0    0    0    0 -0.00000000000E+00 -0.00000000000E+00 -0.45593999997E+02  0.45594000000E+02  0.51100000000E-03 0. -1.
    9900012    2    1    2    0    0 -0.28878110379E+01  0.79311242117E+01  0.30748655301E+02  0.59301921742E+02  0.49999959356E+02 0.  0.
         12    1    1    2    0    0  0.28878110379E+01 -0.79311242117E+01 -0.30748655301E+02  0.31886078258E+02  0.00000000000E+00 0. -1.
         11    1    3    3    0    0 -0.67861926973E+01  0.15889570004E+02  0.10502204997E+02  0.20219474679E+02  0.51100000000E-03 0. -1.
        -11    1    3    3    0    0 -0.92461374575E+01  0.61086130211E+01  0.15840745226E+02  0.19332237855E+02  0.51100000000E-03 0.  1.
         12    1    3    3    0    0  0.13144519117E+02 -0.14067058814E+02  0.44057050781E+01  0.19750209207E+02  0.00000000000E+00 0. -1.
</event>
<event>
 7    1  0.6164995E-012  0.5930187E+02  0.7816164E-02  0.1266605E+00
        -11   -1    0    0    0    0  0.00000000000E+00  0.00000000000E+00  0.45593999997E+02  0.45594000000E+02  0.51100000000E-03 0. -1.
         11   -1    0    0    0    0 -0.00000000000E+00 -0.00000000000E+00 -0.45593999997E+02  0.45594000000E+02  0.51100000000E-03 0.  1.
    9900012    2    1    2    0    0  0.96990835308E+01  0.30313406215E+02  0.19366747517E+01  0.59301866230E+02  0.49999858116E+02 0.  0.
         12    1    1    2    0    0 -0.96990835308E+01 -0.30313406215E+02 -0.19366747517E+01  0.31886133770E+02  0.00000000000E+00 0. -1.
         11    1    3    3    0    0 -0.76459760350E+01  0.12090313843E+02 -0.17070379910E+01  0.14406617136E+02  0.51100000000E-03 0. -1.
        -11    1    3    3    0    0  0.17191986577E+02  0.28513222447E+02 -0.16228085394E+01  0.33334693108E+02  0.51100000000E-03 0.  1.
         12    1    3    3    0    0  0.15307298907E+00 -0.10290130075E+02  0.52665212821E+01  0.11560555986E+02  0.00000000000E+00 0. -1.
</event>
<event>
 7    1  0.6164995E-012  0.5930194E+02  0.7816164E-02  0.1266605E+00
        -11   -1    0    0    0    0  0.00000000000E+00  0.00000000000E+00  0.45593999997E+02  0.45594000000E+02  0.51100000000E-03 0.  1.
         11   -1    0    0    0    0 -0.00000000000E+00 -0.00000000000E+00 -0.45593999997E+02  0.45594000000E+02  0.51100000000E-03 0. -1.
    9900012    2    1    2    0    0 -0.27802593130E+02 -0.15253091756E+02 -0.33286054091E+01  0.59301943379E+02  0.49999998817E+02 0.  0.
         12    1    1    2    0    0  0.27802593130E+02  0.15253091756E+02  0.33286054091E+01  0.31886056621E+02  0.00000000000E+00 0. -1.
         11    1    3    3    0    0 -0.16039760457E+02 -0.19937979658E+02  0.33167175365E+01  0.25803053382E+02  0.51100000000E-03 0. -1.
        -11    1    3    3    0    0 -0.16744432866E+02 -0.77179448157E+01 -0.79317371191E+01  0.20071252033E+02  0.51100000000E-03 0.  1.
         12    1    3    3    0    0  0.49816001923E+01  0.12402832717E+02  0.12864141734E+01  0.13427637965E+02  0.00000000000E+00 0. -1.
</event>
<event>
 7    1  0.6164995E-012  0.5930204E+02  0.7816164E-02  0.1266604E+00
        -11   -1    0    0    0    0  0.00000000000E+00  0.00000000000E+00  0.45593999997E+02  0.45594000000E+02  0.51100000000E-03 0. -1.
         11   -1    0    0    0    0 -0.00000000000E+00 -0.00000000000E+00 -0.45593999997E+02  0.45594000000E+02  0.51100000000E-03 0.  1.
    9900012    2    1    2    0    0 -0.95072528418E+01  0.29081641891E+02 -0.89768959175E+01  0.59302040520E+02  0.50000175978E+02 0.  0.
         12    1    1    2    0    0  0.95072528418E+01 -0.29081641891E+02  0.89768959175E+01  0.31885959480E+02  0.00000000000E+00 0. -1.
         11    1    3    3    0    0  0.31462567331E+01  0.20543539992E+02 -0.51843667390E+01  0.21419935237E+02  0.51100000000E-03 0. -1.
        -11    1    3    3    0    0  0.71359750565E+01  0.14151002260E+01  0.10267077402E+02  0.12583224042E+02  0.51100000000E-03 0.  1.
        -12    1    3    3    0    0 -0.19789484631E+02  0.71230016730E+01 -0.14059606580E+02  0.25298881240E+02  0.00000000000E+00 0.  1.
</event>
<event>
 7    1  0.6164995E-012  0.5930181E+02  0.7816164E-02  0.1266605E+00
        -11   -1    0    0    0    0  0.00000000000E+00  0.00000000000E+00  0.45593999997E+02  0.45594000000E+02  0.51100000000E-03 0.  1.
         11   -1    0    0    0    0 -0.00000000000E+00 -0.00000000000E+00 -0.45593999997E+02  0.45594000000E+02  0.51100000000E-03 0. -1.
    9900012    2    1    2    0    0 -0.13930519599E+02 -0.47042413838E+00  0.28678361824E+02  0.59301810010E+02  0.49999755583E+02 0.  0.
         12    1    1    2    0    0  0.13930519599E+02  0.47042413838E+00 -0.28678361824E+02  0.31886189990E+02  0.00000000000E+00 0. -1.
         11    1    3    3    0    0 -0.51350867538E+01 -0.31690353111E+01 -0.63315258416E+01  0.87464347318E+01  0.51100000000E-03 0. -1.
        -11    1    3    3    0    0 -0.65536697689E+01  0.18800374821E+02  0.22485632052E+02  0.30033453513E+02  0.51100000000E-03 0.  1.
         12    1    3    3    0    0 -0.22417630765E+01 -0.16101763648E+02  0.12524255613E+02  0.20521921765E+02  0.00000000000E+00 0. -1.
</event>
<event>
 7    1  0.6164995E-012  0.5930196E+02  0.7816164E-02  0.1266605E+00
        -11   -1    0    0    0    0  0.00000000000E+00  0.00000000000E+00  0.45593999997E+02  0.45594000000E+02  0.51100000000E-03 0.  1.
         11   -1    0    0    0    0 -0.00000000000E+00 -0.00000000000E+00 -0.45593999997E+02  0.45594000000E+02  0.51100000000E-03 0. -1.
    9900012    2    1    2    0    0 -0.17215975772E+01  0.28240267394E+02  0.14705207632E+02  0.59301957094E+02  0.50000023830E+02 0.  0.
         12    1    1    2    0    0  0.17215975772E+01 -0.28240267394E+02 -0.14705207632E+02  0.31886042906E+02  0.00000000000E+00 0. -1.
         11    1    3    3    0    0 -0.10430990271E+02  0.46451296904E+01 -0.16924460641E+01  0.11543273444E+02  0.51100000000E-03 0. -1.
        -11    1    3    3    0    0 -0.66157145571E+01  0.19797454805E+02 -0.47109447953E+01  0.21398595677E+02  0.51100000000E-03 0.  1.
         12    1    3    3    0    0  0.15325107251E+02  0.37976828988E+01  0.21108598491E+02  0.26360087972E+02  0.00000000000E+00 0. -1.
</event>
<event>
 7    1  0.6164995E-012  0.5930195E+02  0.7816164E-02  0.1266605E+00
        -11   -1    0    0    0    0  0.00000000000E+00  0.00000000000E+00  0.45593999997E+02  0.45594000000E+02  0.51100000000E-03 0. -1.
         11   -1    0    0    0    0 -0.00000000000E+00 -0.00000000000E+00 -0.45593999997E+02  0.45594000000E+02  0.51100000000E-03 0.  1.
    9900012    2    1    2    0    0 -0.26148649089E+02 -0.17333758343E+02 -0.57016614847E+01  0.59301953347E+02  0.50000016996E+02 0.  0.
         12    1    1    2    0    0  0.26148649089E+02  0.17333758343E+02  0.57016614847E+01  0.31886046653E+02  0.00000000000E+00 0. -1.
         11    1    3    3    0    0 -0.20743812097E+01 -0.12425509826E+02  0.14830110995E+02  0.19458379794E+02  0.51100000000E-03 0.  1.
        -11    1    3    3    0    0 -0.13441070032E+02 -0.28469840645E+01  0.28888621515E+01  0.14039701089E+02  0.51100000000E-03 0. -1.
        -12    1    3    3    0    0 -0.10633197847E+02 -0.20612644522E+01 -0.23420634631E+02  0.25803872464E+02  0.00000000000E+00 0.  1.
</event>
<event>
 7    1  0.6164995E-012  0.5930197E+02  0.7816164E-02  0.1266605E+00
        -11   -1    0    0    0    0  0.00000000000E+00  0.00000000000E+00  0.45593999997E+02  0.45594000000E+02  0.51100000000E-03 0.  1.
         11   -1    0    0    0    0 -0.00000000000E+00 -0.00000000000E+00 -0.45593999997E+02  0.45594000000E+02  0.51100000000E-03 0. -1.
    9900012    2    1    2    0    0  0.14562697480E+02  0.25365551645E+02  0.12697858167E+02  0.59301969043E+02  0.50000045623E+02 0.  0.
         12    1    1    2    0    0 -0.14562697480E+02 -0.25365551645E+02 -0.12697858167E+02  0.31886030957E+02  0.00000000000E+00 0. -1.
         11    1    3    3    0    0  0.17409010737E+02  0.71991327995E+01 -0.85272703449E+01  0.20678866209E+02  0.51100000000E-03 0. -1.
        -11    1    3    3    0    0  0.10912326436E+02  0.50170252183E+01  0.32446072459E+01  0.12440935927E+02  0.51100000000E-03 0.  1.
        -12    1    3    3    0    0 -0.13758639693E+02  0.13149393627E+02  0.17980521266E+02  0.26182166907E+02  0.00000000000E+00 0.  1.
</event>
<event>
 7    1  0.6164995E-012  0.5930193E+02  0.7816164E-02  0.1266605E+00
        -11   -1    0    0    0    0  0.00000000000E+00  0.00000000000E+00  0.45593999997E+02  0.45594000000E+02  0.51100000000E-03 0.  1.
         11   -1    0    0    0    0 -0.00000000000E+00 -0.00000000000E+00 -0.45593999997E+02  0.45594000000E+02  0.51100000000E-03 0. -1.
    9900012    2    1    2    0    0  0.99495092639E+01 -0.45831351212E+01  0.29945343093E+02  0.59301930392E+02  0.49999975131E+02 0.  0.
         12    1    1    2    0    0 -0.99495092639E+01  0.45831351212E+01 -0.29945343093E+02  0.31886069608E+02  0.00000000000E+00 0. -1.
         11    1    3    3    0    0 -0.24769465478E+00 -0.20489787245E+02  0.96543725166E+01  0.22651702870E+02  0.51100000000E-03 0. -1.
        -11    1    3    3    0    0  0.64916160679E+01 -0.77778047234E+00 -0.34537614794E+01  0.73942200572E+01  0.51100000000E-03 0.  1.
        -12    1    3    3    0    0  0.37055878507E+01  0.16684432596E+02  0.23744732055E+02  0.29256007464E+02  0.00000000000E+00 0.  1.
</event>
<event>
 7    1  0.6164995E-012  0.5930198E+02  0.7816164E-02  0.1266605E+00
        -11   -1    0    0    0    0  0.00000000000E+00  0.00000000000E+00  0.45593999997E+02  0.45594000000E+02  0.51100000000E-03 0.  1.
         11   -1    0    0    0    0 -0.00000000000E+00 -0.00000000000E+00 -0.45593999997E+02  0.45594000000E+02  0.51100000000E-03 0. -1.
    9900012    2    1    2    0    0 -0.30699190162E+02 -0.28375426451E+01  0.81379623805E+01  0.59301978665E+02  0.50000063170E+02 0.  0.
         12    1    1    2    0    0  0.30699190162E+02  0.28375426451E+01 -0.81379623805E+01  0.31886021335E+02  0.00000000000E+00 0. -1.
         11    1    3    3    0    0 -0.43390018675E+01 -0.55449372121E+01 -0.43517856587E+01  0.82771555847E+01  0.51100000000E-03 0. -1.
        -11    1    3    3    0    0  0.91025149851E+01 -0.48857072162E+01  0.10459936458E+02  0.14701570835E+02  0.51100000000E-03 0.  1.
         12    1    3    3    0    0 -0.35462703280E+02  0.75931017831E+01  0.20298115810E+01  0.36323252245E+02  0.00000000000E+00 0. -1.
</event>
<event>
 7    1  0.6164995E-012  0.5930199E+02  0.7816164E-02  0.1266605E+00
        -11   -1    0    0    0    0  0.00000000000E+00  0.00000000000E+00  0.45593999997E+02  0.45594000000E+02  0.51100000000E-03 0.  1.
         11   -1    0    0    0    0 -0.00000000000E+00 -0.00000000000E+00 -0.45593999997E+02  0.45594000000E+02  0.51100000000E-03 0. -1.
    9900012    2    1    2    0    0  0.30767699911E+02  0.42738224463E+01  0.71972903634E+01  0.59301985751E+02  0.50000076093E+02 0.  0.
         12    1    1    2    0    0 -0.30767699911E+02 -0.42738224463E+01 -0.71972903634E+01  0.31886014249E+02  0.00000000000E+00 0. -1.
         11    1    3    3    0    0  0.16836201179E+02  0.60208448644E+01 -0.83044544223E+01  0.19714771278E+02  0.51100000000E-03 0. -1.
        -11    1    3    3    0    0  0.63630195539E+01  0.13494327189E+02 -0.21443805142E+01  0.15072599383E+02  0.51100000000E-03 0.  1.
         12    1    3    3    0    0  0.75684791786E+01 -0.15241349607E+02  0.17646125300E+02  0.24514615090E+02  0.00000000000E+00 0. -1.
</event>
<event>
 7    1  0.6164995E-012  0.5930196E+02  0.7816164E-02  0.1266605E+00
        -11   -1    0    0    0    0  0.00000000000E+00  0.00000000000E+00  0.45593999997E+02  0.45594000000E+02  0.51100000000E-03 0.  1.
         11   -1    0    0    0    0 -0.00000000000E+00 -0.00000000000E+00 -0.45593999997E+02  0.45594000000E+02  0.51100000000E-03 0. -1.
    9900012    2    1    2    0    0 -0.10328597858E+02  0.30031259736E+02 -0.28570685410E+01  0.59301963311E+02  0.50000035169E+02 0.  0.
         12    1    1    2    0    0  0.10328597858E+02 -0.30031259736E+02  0.28570685410E+01  0.31886036689E+02  0.00000000000E+00 0. -1.
         11    1    3    3    0    0 -0.26669141113E+01 -0.76761952061E+01 -0.62639314839E+01  0.10260274929E+02  0.51100000000E-03 0. -1.
        -11    1    3    3    0    0 -0.10154515707E+02 -0.70880236382E+00 -0.12840533736E+01  0.10259891976E+02  0.51100000000E-03 0.  1.
         12    1    3    3    0    0  0.24928319607E+01  0.38416257306E+02  0.46909163166E+01  0.38781796406E+02  0.00000000000E+00 0. -1.
</event>
<event>
 7    1  0.6164995E-012  0.5930198E+02  0.7816164E-02  0.1266605E+00
        -11   -1    0    0    0    0  0.00000000000E+00  0.00000000000E+00  0.45593999997E+02  0.45594000000E+02  0.51100000000E-03 0.  1.
         11   -1    0    0    0    0 -0.00000000000E+00 -0.00000000000E+00 -0.45593999997E+02  0.45594000000E+02  0.51100000000E-03 0. -1.
    9900012    2    1    2    0    0 -0.29753822894E+02  0.10246170389E+02  0.51423892000E+01  0.59301981887E+02  0.50000069046E+02 0.  0.
         12    1    1    2    0    0  0.29753822894E+02 -0.10246170389E+02 -0.51423892000E+01  0.31886018113E+02  0.00000000000E+00 0. -1.
         11    1    3    3    0    0  0.42611616701E+01 -0.42367204163E+01 -0.59486922995E+01  0.84554266007E+01  0.51100000000E-03 0. -1.
        -11    1    3    3    0    0 -0.21973429051E+02 -0.55986709355E+01  0.14887160855E+02  0.27125712139E+02  0.51100000000E-03 0.  1.
        -12    1    3    3    0    0 -0.12041555513E+02  0.20081561741E+02 -0.37960793552E+01  0.23720843147E+02  0.00000000000E+00 0.  1.
</event>
<event>
 7    1  0.6164995E-012  0.5930194E+02  0.7816164E-02  0.1266605E+00
        -11   -1    0    0    0    0  0.00000000000E+00  0.00000000000E+00  0.45593999997E+02  0.45594000000E+02  0.51100000000E-03 0. -1.
         11   -1    0    0    0    0 -0.00000000000E+00 -0.00000000000E+00 -0.45593999997E+02  0.45594000000E+02  0.51100000000E-03 0.  1.
    9900012    2    1    2    0    0  0.19834435467E+01  0.11819345531E+01 -0.31802351685E+02  0.59301943638E+02  0.49999999290E+02 0.  0.
         12    1    1    2    0    0 -0.19834435467E+01 -0.11819345531E+01  0.31802351685E+02  0.31886056362E+02  0.00000000000E+00 0. -1.
         11    1    3    3    0    0  0.12528079016E+02  0.77678352444E+01  0.48124915751E+01  0.15506518101E+02  0.51100000000E-03 0. -1.
        -11    1    3    3    0    0  0.43828830764E+01 -0.36503647794E+01 -0.21031531754E+01  0.60793158023E+01  0.51100000000E-03 0.  1.
        -12    1    3    3    0    0 -0.14927518545E+02 -0.29355359119E+01 -0.34511690085E+02  0.37716109735E+02  0.00000000000E+00 0.  1.
</event>
<event>
 7    1  0.6164995E-012  0.5930196E+02  0.7816164E-02  0.1266605E+00
        -11   -1    0    0    0    0  0.00000000000E+00  0.00000000000E+00  0.45593999997E+02  0.45594000000E+02  0.51100000000E-03 0. -1.
         11   -1    0    0    0    0 -0.00000000000E+00 -0.00000000000E+00 -0.45593999997E+02  0.45594000000E+02  0.51100000000E-03 0.  1.
    9900012    2    1    2    0    0 -0.30947326459E+02 -0.61042162673E+01 -0.46606034241E+01  0.59301957670E+02  0.50000024881E+02 0.  0.
         12    1    1    2    0    0  0.30947326459E+02  0.61042162673E+01  0.46606034241E+01  0.31886042330E+02  0.00000000000E+00 0. -1.
         11    1    3    3    0    0 -0.25030296178E+02  0.48608335343E+00 -0.87137627099E+01  0.26508143364E+02  0.51100000000E-03 0. -1.
        -11    1    3    3    0    0 -0.17052098592E+02  0.92957850933E+00 -0.34235858746E+01  0.17417207673E+02  0.51100000000E-03 0.  1.
         12    1    3    3    0    0  0.11135068311E+02 -0.75198781300E+01  0.74767451604E+01  0.15376606634E+02  0.00000000000E+00 0. -1.
</event>
<event>
 7    1  0.6164995E-012  0.5930194E+02  0.7816164E-02  0.1266605E+00
        -11   -1    0    0    0    0  0.00000000000E+00  0.00000000000E+00  0.45593999997E+02  0.45594000000E+02  0.51100000000E-03 0. -1.
         11   -1    0    0    0    0 -0.00000000000E+00 -0.00000000000E+00 -0.45593999997E+02  0.45594000000E+02  0.51100000000E-03 0.  1.
    9900012    2    1    2    0    0 -0.97222378109E+01 -0.26767653942E+02 -0.14341953499E+02  0.59301939789E+02  0.49999992269E+02 0.  0.
         12    1    1    2    0    0  0.97222378109E+01  0.26767653942E+02  0.14341953499E+02  0.31886060211E+02  0.00000000000E+00 0. -1.
         11    1    3    3    0    0  0.71257266337E+01 -0.93622656338E+01  0.18400465812E+00  0.11766981594E+02  0.51100000000E-03 0. -1.
        -11    1    3    3    0    0 -0.18405883208E+02 -0.24422307445E+02 -0.21607488220E+02  0.37444748431E+02  0.51100000000E-03 0.  1.
         12    1    3    3    0    0  0.15579187638E+01  0.70169191369E+01  0.70815300629E+01  0.10090209764E+02  0.00000000000E+00 0. -1.
</event>
<event>
 7    1  0.6164995E-012  0.5930194E+02  0.7816164E-02  0.1266605E+00
        -11   -1    0    0    0    0  0.00000000000E+00  0.00000000000E+00  0.45593999997E+02  0.45594000000E+02  0.51100000000E-03 0. -1.
         11   -1    0    0    0    0 -0.00000000000E+00 -0.00000000000E+00 -0.45593999997E+02  0.45594000000E+02  0.51100000000E-03 0.  1.
    9900012    2    1    2    0    0  0.94504685217E+01  0.21923527960E+02 -0.21136893068E+02  0.59301942200E+02  0.49999996666E+02 0.  0.
         12    1    1    2    0    0 -0.94504685217E+01 -0.21923527960E+02  0.21136893068E+02  0.31886057800E+02  0.00000000000E+00 0. -1.
         11    1    3    3    0    0 -0.20563674628E+01  0.16688994063E+02 -0.24808992701E+02  0.29970607085E+02  0.51100000000E-03 0. -1.
        -11    1    3    3    0    0  0.13405707202E+02  0.12478882524E+02 -0.38517743881E+01  0.18715545967E+02  0.51100000000E-03 0.  1.
        -12    1    3    3    0    0 -0.18988712176E+01 -0.72443486275E+01  0.75238740212E+01  0.10615789148E+02  0.00000000000E+00 0.  1.
</event>
<event>
 7    1  0.6164995E-012  0.5930190E+02  0.7816164E-02  0.1266605E+00
        -11   -1    0    0    0    0  0.00000000000E+00  0.00000000000E+00  0.45593999997E+02  0.45594000000E+02  0.51100000000E-03 0. -1.
         11   -1    0    0    0    0 -0.00000000000E+00 -0.00000000000E+00 -0.45593999997E+02  0.45594000000E+02  0.51100000000E-03 0.  1.
    9900012    2    1    2    0    0  0.28737870671E+02  0.11805991295E+02 -0.71747375645E+01  0.59301898008E+02  0.49999916070E+02 0.  0.
         12    1    1    2    0    0 -0.28737870671E+02 -0.11805991295E+02  0.71747375645E+01  0.31886101992E+02  0.00000000000E+00 0. -1.
         11    1    3    3    0    0  0.44599064325E+01  0.43576341257E+01 -0.60153029250E+01  0.86639257903E+01  0.51100000000E-03 0. -1.
        -11    1    3    3    0    0  0.28851493889E+02 -0.54588289276E+01  0.11930359634E+02  0.31694494698E+02  0.51100000000E-03 0.  1.
         12    1    3    3    0    0 -0.45735296503E+01  0.12907186097E+02 -0.13089794274E+02  0.18943477520E+02  0.00000000000E+00 0. -1.
</event>
<event>
 7    1  0.6164995E-012  0.5930196E+02  0.7816164E-02  0.1266605E+00
        -11   -1    0    0    0    0  0.00000000000E+00  0.00000000000E+00  0.45593999997E+02  0.45594000000E+02  0.51100000000E-03 0. -1.
         11   -1    0    0    0    0 -0.00000000000E+00 -0.00000000000E+00 -0.45593999997E+02  0.45594000000E+02  0.51100000000E-03 0.  1.
    9900012    2    1    2    0    0 -0.23385297092E+02 -0.99921316553E+01 -0.19235507405E+02  0.59301959791E+02  0.50000028748E+02 0.  0.
         12    1    1    2    0    0  0.23385297092E+02  0.99921316553E+01  0.19235507405E+02  0.31886040209E+02  0.00000000000E+00 0. -1.
         11    1    3    3    0    0  0.54624583463E+01  0.65461552725E+01 -0.95608288367E-01  0.85264143250E+01  0.51100000000E-03 0. -1.
        -11    1    3    3    0    0 -0.10026260304E+02 -0.24443496512E+02 -0.84912306585E+01  0.27750881351E+02  0.51100000000E-03 0.  1.
         12    1    3    3    0    0 -0.18821495134E+02  0.79052095839E+01 -0.10648668458E+02  0.23024664114E+02  0.00000000000E+00 0. -1.
</event>
<event>
 7    1  0.6164995E-012  0.5930192E+02  0.7816164E-02  0.1266605E+00
        -11   -1    0    0    0    0  0.00000000000E+00  0.00000000000E+00  0.45593999997E+02  0.45594000000E+02  0.51100000000E-03 0. -1.
         11   -1    0    0    0    0 -0.00000000000E+00 -0.00000000000E+00 -0.45593999997E+02  0.45594000000E+02  0.51100000000E-03 0.  1.
    9900012    2    1    2    0    0  0.38847117709E+01 -0.26863555868E+01 -0.31534339195E+02  0.59301920900E+02  0.49999957821E+02 0.  0.
         12    1    1    2    0    0 -0.38847117709E+01  0.26863555868E+01  0.31534339195E+02  0.31886079100E+02  0.00000000000E+00 0. -1.
         11    1    3    3    0    0 -0.84465601128E+01  0.27855708582E+01  0.28453667011E+01  0.93380883841E+01  0.51100000000E-03 0. -1.
        -11    1    3    3    0    0  0.66020568573E+01  0.11214954288E+02 -0.28560796115E+02  0.31386006904E+02  0.51100000000E-03 0.  1.
        -12    1    3    3    0    0  0.57292150264E+01 -0.16686880733E+02 -0.58189097816E+01  0.18577825612E+02  0.00000000000E+00 0.  1.
</event>
<event>
 7    1  0.6164995E-012  0.5930196E+02  0.7816164E-02  0.1266605E+00
        -11   -1    0    0    0    0  0.00000000000E+00  0.00000000000E+00  0.45593999997E+02  0.45594000000E+02  0.51100000000E-03 0.  1.
         11   -1    0    0    0    0 -0.00000000000E+00 -0.00000000000E+00 -0.45593999997E+02  0.45594000000E+02  0.51100000000E-03 0. -1.
    9900012    2    1    2    0    0 -0.21968992842E+02 -0.13026814411E+02  0.19088872286E+02  0.59301959397E+02  0.50000028030E+02 0.  0.
         12    1    1    2    0    0  0.21968992842E+02  0.13026814411E+02 -0.19088872286E+02  0.31886040603E+02  0.00000000000E+00 0. -1.
         11    1    3    3    0    0 -0.11067762835E+01  0.51667935833E+00  0.11348974089E+02  0.11414513762E+02  0.51100000000E-03 0. -1.
        -11    1    3    3    0    0 -0.11540905770E+02 -0.14940504997E+02  0.23120168842E+02  0.29848842576E+02  0.51100000000E-03 0.  1.
        -12    1    3    3    0    0 -0.93213107887E+01  0.13970112283E+01 -0.15380270645E+02  0.18038603059E+02  0.00000000000E+00 0.  1.
</event>
<event>
 7    1  0.6164995E-012  0.5930194E+02  0.7816164E-02  0.1266605E+00
        -11   -1    0    0    0    0  0.00000000000E+00  0.00000000000E+00  0.45593999997E+02  0.45594000000E+02  0.51100000000E-03 0.  1.
         11   -1    0    0    0    0 -0.00000000000E+00 -0.00000000000E+00 -0.45593999997E+02  0.45594000000E+02  0.51100000000E-03 0. -1.
    9900012    2    1    2    0    0  0.15685576343E+02  0.27759968090E+02 -0.26062879689E+00  0.59301936259E+02  0.49999985831E+02 0.  0.
         12    1    1    2    0    0 -0.15685576343E+02 -0.27759968090E+02  0.26062879689E+00  0.31886063741E+02  0.00000000000E+00 0. -1.
         11    1    3    3    0    0  0.20036458274E+02  0.98634500690E+01 -0.34444877527E+01  0.22596721080E+02  0.51100000000E-03 0. -1.
        -11    1    3    3    0    0  0.13386859116E+02  0.55097628427E+01  0.41170143365E+01  0.15050424940E+02  0.51100000000E-03 0.  1.
        -12    1    3    3    0    0 -0.17737741047E+02  0.12386755178E+02 -0.93315538073E+00  0.21654790238E+02  0.00000000000E+00 0.  1.
</event>
<event>
 7    1  0.6164995E-012  0.5930193E+02  0.7816164E-02  0.1266605E+00
        -11   -1    0    0    0    0  0.00000000000E+00  0.00000000000E+00  0.45593999997E+02  0.45594000000E+02  0.51100000000E-03 0.  1.
         11   -1    0    0    0    0 -0.00000000000E+00 -0.00000000000E+00 -0.45593999997E+02  0.45594000000E+02  0.51100000000E-03 0. -1.
    9900012    2    1    2    0    0 -0.14068026603E+02 -0.24815859010E+02  0.14247289724E+02  0.59301929446E+02  0.49999973406E+02 0.  0.
         12    1    1    2    0    0  0.14068026603E+02  0.24815859010E+02 -0.14247289724E+02  0.31886070554E+02  0.00000000000E+00 0. -1.
         11    1    3    3    0    0  0.45855660321E+00 -0.45074473877E+00  0.16800539518E+02  0.16812839538E+02  0.51100000000E-03 0. -1.
        -11    1    3    3    0    0 -0.98236315960E+01 -0.68297802429E+01  0.13652517520E+02  0.18153260610E+02  0.51100000000E-03 0.  1.
        -12    1    3    3    0    0 -0.47029516107E+01 -0.17535334028E+02 -0.16205767314E+02  0.24335829297E+02  0.00000000000E+00 0.  1.
</event>
<event>
 7    1  0.6164995E-012  0.5930194E+02  0.7816164E-02  0.1266605E+00
        -11   -1    0    0    0    0  0.00000000000E+00  0.00000000000E+00  0.45593999997E+02  0.45594000000E+02  0.51100000000E-03 0. -1.
         11   -1    0    0    0    0 -0.00000000000E+00 -0.00000000000E+00 -0.45593999997E+02  0.45594000000E+02  0.51100000000E-03 0.  1.
    9900012    2    1    2    0    0  0.87329109043E+01 -0.30566205460E+02 -0.24828020896E+01  0.59301937914E+02  0.49999988851E+02 0.  0.
         12    1    1    2    0    0 -0.87329109043E+01  0.30566205460E+02  0.24828020896E+01  0.31886062086E+02  0.00000000000E+00 0. -1.
         11    1    3    3    0    0  0.79133924068E+01  0.17312061075E+01  0.10468222112E+02  0.13236409196E+02  0.51100000000E-03 0. -1.
        -11    1    3    3    0    0 -0.80123649044E+01  0.24260353375E+01 -0.27725181757E+01  0.88187581958E+01  0.51100000000E-03 0.  1.
        -12    1    3    3    0    0  0.88318834019E+01 -0.34723446905E+02 -0.10178506026E+02  0.37246770522E+02  0.00000000000E+00 0.  1.
</event>
<event>
 7    1  0.6164995E-012  0.5930194E+02  0.7816164E-02  0.1266605E+00
        -11   -1    0    0    0    0  0.00000000000E+00  0.00000000000E+00  0.45593999997E+02  0.45594000000E+02  0.51100000000E-03 0.  1.
         11   -1    0    0    0    0 -0.00000000000E+00 -0.00000000000E+00 -0.45593999997E+02  0.45594000000E+02  0.51100000000E-03 0. -1.
    9900012    2    1    2    0    0 -0.10891653686E+02 -0.28057604565E+02  0.10529166092E+02  0.59301942976E+02  0.49999998082E+02 0.  0.
         12    1    1    2    0    0  0.10891653686E+02  0.28057604565E+02 -0.10529166092E+02  0.31886057024E+02  0.00000000000E+00 0. -1.
         11    1    3    3    0    0  0.38114365132E+00 -0.13558884123E+02  0.13163183636E+02  0.18901270138E+02  0.51100000000E-03 0. -1.
        -11    1    3    3    0    0 -0.12141341242E+02 -0.24763093431E+02 -0.80933160749E+01  0.28742385579E+02  0.51100000000E-03 0.  1.
         12    1    3    3    0    0  0.86854390439E+00  0.10264372989E+02  0.54592985310E+01  0.11658287259E+02  0.00000000000E+00 0. -1.
</event>
<event>
 7    1  0.6164995E-012  0.5930196E+02  0.7816164E-02  0.1266605E+00
        -11   -1    0    0    0    0  0.00000000000E+00  0.00000000000E+00  0.45593999997E+02  0.45594000000E+02  0.51100000000E-03 0.  1.
         11   -1    0    0    0    0 -0.00000000000E+00 -0.00000000000E+00 -0.45593999997E+02  0.45594000000E+02  0.51100000000E-03 0. -1.
    9900012    2    1    2    0    0 -0.11217679094E+02 -0.29814545154E+02  0.14056694911E+01  0.59301963342E+02  0.50000035225E+02 0.  0.
         12    1    1    2    0    0  0.11217679094E+02  0.29814545154E+02 -0.14056694911E+01  0.31886036658E+02  0.00000000000E+00 0. -1.
         11    1    3    3    0    0 -0.74983340635E+01  0.25429375593E+01  0.13196850486E+01  0.80270239844E+01  0.51100000000E-03 0. -1.
        -11    1    3    3    0    0 -0.16268260979E+01 -0.12507382985E+02  0.19634543956E+02  0.23336591630E+02  0.51100000000E-03 0.  1.
         12    1    3    3    0    0 -0.20925189331E+01 -0.19850099729E+02 -0.19548559513E+02  0.27938347728E+02  0.00000000000E+00 0. -1.
</event>
<event>
 7    1  0.6164995E-012  0.5930165E+02  0.7816164E-02  0.1266606E+00
        -11   -1    0    0    0    0  0.00000000000E+00  0.00000000000E+00  0.45593999997E+02  0.45594000000E+02  0.51100000000E-03 0. -1.
         11   -1    0    0    0    0 -0.00000000000E+00 -0.00000000000E+00 -0.45593999997E+02  0.45594000000E+02  0.51100000000E-03 0.  1.
    9900012    2    1    2    0    0  0.21545563091E+02 -0.20636299260E+02 -0.11254819123E+02  0.59301653556E+02  0.49999470247E+02 0.  0.
         12    1    1    2    0    0 -0.21545563091E+02  0.20636299260E+02  0.11254819123E+02  0.31886346444E+02  0.00000000000E+00 0. -1.
         11    1    3    3    0    0 -0.52054870772E+01 -0.28637523844E+01  0.51588757505E+01  0.78684288584E+01  0.51100000000E-03 0. -1.
        -11    1    3    3    0    0 -0.43399466843E+01 -0.16781979294E+02 -0.31558737376E+01  0.17619009778E+02  0.51100000000E-03 0.  1.
        -12    1    3    3    0    0  0.31090996852E+02 -0.99056758227E+00 -0.13257821136E+02  0.33814214920E+02  0.00000000000E+00 0.  1.
</event>
<event>
 7    1  0.6164995E-012  0.5930191E+02  0.7816164E-02  0.1266605E+00
        -11   -1    0    0    0    0  0.00000000000E+00  0.00000000000E+00  0.45593999997E+02  0.45594000000E+02  0.51100000000E-03 0.  1.
         11   -1    0    0    0    0 -0.00000000000E+00 -0.00000000000E+00 -0.45593999997E+02  0.45594000000E+02  0.51100000000E-03 0. -1.
    9900012    2    1    2    0    0  0.11605566275E+02 -0.14456820794E+02  0.25942896700E+02  0.59301910161E+02  0.49999938235E+02 0.  0.
         12    1    1    2    0    0 -0.11605566275E+02  0.14456820794E+02 -0.25942896700E+02  0.31886089839E+02  0.00000000000E+00 0. -1.
         11    1    3    3    0    0  0.17972560902E+02 -0.79157641382E+01  0.12357195279E+02  0.23202856347E+02  0.51100000000E-03 0. -1.
        -11    1    3    3    0    0  0.10224916970E+02  0.11433547093E+01  0.14513650082E+02  0.17790509436E+02  0.51100000000E-03 0.  1.
        -12    1    3    3    0    0 -0.16591911597E+02 -0.76844113655E+01 -0.92794866047E+00  0.18308544377E+02  0.00000000000E+00 0.  1.
</event>
<event>
 7    1  0.6164995E-012  0.5930231E+02  0.7816164E-02  0.1266603E+00
        -11   -1    0    0    0    0  0.00000000000E+00  0.00000000000E+00  0.45593999997E+02  0.45594000000E+02  0.51100000000E-03 0.  1.
         11   -1    0    0    0    0 -0.00000000000E+00 -0.00000000000E+00 -0.45593999997E+02  0.45594000000E+02  0.51100000000E-03 0. -1.
    9900012    2    1    2    0    0  0.29883292863E+02 -0.61755409700E+01  0.92492490465E+01  0.59302311885E+02  0.50000670880E+02 0.  0.
         12    1    1    2    0    0 -0.29883292863E+02  0.61755409700E+01 -0.92492490465E+01  0.31885688115E+02  0.00000000000E+00 0. -1.
         11    1    3    3    0    0  0.20799020385E+02 -0.11735492098E+02  0.13938449528E+02  0.27651426714E+02  0.51100000000E-03 0. -1.
        -11    1    3    3    0    0  0.12550661028E+02 -0.75547644546E+01  0.44315437310E+01  0.15304644338E+02  0.51100000000E-03 0.  1.
         12    1    3    3    0    0 -0.34663885504E+01  0.13114715583E+02 -0.91207442128E+01  0.16346240834E+02  0.00000000000E+00 0. -1.
</event>
<event>
 7    1  0.6164995E-012  0.5930194E+02  0.7816164E-02  0.1266605E+00
        -11   -1    0    0    0    0  0.00000000000E+00  0.00000000000E+00  0.45593999997E+02  0.45594000000E+02  0.51100000000E-03 0.  1.
         11   -1    0    0    0    0 -0.00000000000E+00 -0.00000000000E+00 -0.45593999997E+02  0.45594000000E+02  0.51100000000E-03 0. -1.
    9900012    2    1    2    0    0  0.30441632229E+02  0.49269193943E+01  0.81088439025E+01  0.59301939458E+02  0.49999991666E+02 0.  0.
         12    1    1    2    0    0 -0.30441632229E+02 -0.49269193943E+01 -0.81088439025E+01  0.31886060542E+02  0.00000000000E+00 0. -1.
         11    1    3    3    0    0  0.13019890954E+02 -0.16825409110E+02  0.14399992949E+02  0.25689915324E+02  0.51100000000E-03 0.  1.
        -11    1    3    3    0    0 -0.26466663063E+01  0.46648448917E+01 -0.48239721750E+01  0.72136210191E+01  0.51100000000E-03 0. -1.
        -12    1    3    3    0    0  0.20068407581E+02  0.17087483612E+02 -0.14671768714E+01  0.26398403115E+02  0.00000000000E+00 0.  1.
</event>
<event>
 7    1  0.6164995E-012  0.5930192E+02  0.7816164E-02  0.1266605E+00
        -11   -1    0    0    0    0  0.00000000000E+00  0.00000000000E+00  0.45593999997E+02  0.45594000000E+02  0.51100000000E-03 0. -1.
         11   -1    0    0    0    0 -0.00000000000E+00 -0.00000000000E+00 -0.45593999997E+02  0.45594000000E+02  0.51100000000E-03 0.  1.
    9900012    2    1    2    0    0 -0.52106127221E+01  0.25621814952E+02 -0.18250874287E+02  0.59301916851E+02  0.49999950435E+02 0.  0.
         12    1    1    2    0    0  0.52106127221E+01 -0.25621814952E+02  0.18250874287E+02  0.31886083149E+02  0.00000000000E+00 0. -1.
         11    1    3    3    0    0 -0.15367533742E+02  0.15799550121E+02  0.91358252874E+01  0.23858964380E+02  0.51100000000E-03 0. -1.
        -11    1    3    3    0    0  0.30681627095E+01  0.33975699270E+00 -0.22374454597E+02  0.22586395817E+02  0.51100000000E-03 0.  1.
        -12    1    3    3    0    0  0.70887583100E+01  0.94825078379E+01 -0.50122449775E+01  0.12856556654E+02  0.00000000000E+00 0.  1.
</event>
<event>
 7    1  0.6164995E-012  0.5930191E+02  0.7816164E-02  0.1266605E+00
        -11   -1    0    0    0    0  0.00000000000E+00  0.00000000000E+00  0.45593999997E+02  0.45594000000E+02  0.51100000000E-03 0.  1.
         11   -1    0    0    0    0 -0.00000000000E+00 -0.00000000000E+00 -0.45593999997E+02  0.45594000000E+02  0.51100000000E-03 0. -1.
    9900012    2    1    2    0    0 -0.30426512168E+02  0.82848970806E+00  0.95007166470E+01  0.59301911267E+02  0.49999940252E+02 0.  0.
         12    1    1    2    0    0  0.30426512168E+02 -0.82848970806E+00 -0.95007166470E+01  0.31886088733E+02  0.00000000000E+00 0. -1.
         11    1    3    3    0    0 -0.26785308737E+02  0.33552947754E+01  0.10277323154E+02  0.28884842714E+02  0.51100000000E-03 0.  1.
        -11    1    3    3    0    0  0.15520839361E+01  0.54050215301E+01  0.12729086678E+02  0.13915921464E+02  0.51100000000E-03 0. -1.
         12    1    3    3    0    0 -0.51932873675E+01 -0.79318265975E+01 -0.13505693184E+02  0.16501147089E+02  0.00000000000E+00 0. -1.
</event>
<event>
 7    1  0.6164995E-012  0.5930190E+02  0.7816164E-02  0.1266605E+00
        -11   -1    0    0    0    0  0.00000000000E+00  0.00000000000E+00  0.45593999997E+02  0.45594000000E+02  0.51100000000E-03 0. -1.
         11   -1    0    0    0    0 -0.00000000000E+00 -0.00000000000E+00 -0.45593999997E+02  0.45594000000E+02  0.51100000000E-03 0.  1.
    9900012    2    1    2    0    0 -0.29651445749E+02 -0.30966858524E+01  0.11310417141E+02  0.59301902180E+02  0.49999923680E+02 0.  0.
         12    1    1    2    0    0  0.29651445749E+02  0.30966858524E+01 -0.11310417141E+02  0.31886097820E+02  0.00000000000E+00 0. -1.
         11    1    3    3    0    0 -0.26893721140E+02  0.17188650146E+02  0.40092753252E+01  0.32168248623E+02  0.51100000000E-03 0. -1.
        -11    1    3    3    0    0 -0.79785847979E+01 -0.41884176554E+01  0.95981846415E+00  0.90621139685E+01  0.51100000000E-03 0.  1.
         12    1    3    3    0    0  0.52208601886E+01 -0.16096918343E+02  0.63413233520E+01  0.18071539589E+02  0.00000000000E+00 0. -1.
</event>
<event>
 7    1  0.6164995E-012  0.5930192E+02  0.7816164E-02  0.1266605E+00
        -11   -1    0    0    0    0  0.00000000000E+00  0.00000000000E+00  0.45593999997E+02  0.45594000000E+02  0.51100000000E-03 0.  1.
         11   -1    0    0    0    0 -0.00000000000E+00 -0.00000000000E+00 -0.45593999997E+02  0.45594000000E+02  0.51100000000E-03 0. -1.
    9900012    2    1    2    0    0  0.29373233110E+02 -0.36299062886E+01  0.11864197787E+02  0.59301917893E+02  0.49999952337E+02 0.  0.
         12    1    1    2    0    0 -0.29373233110E+02  0.36299062886E+01 -0.11864197787E+02  0.31886082107E+02  0.00000000000E+00 0. -1.
         11    1    3    3    0    0  0.19059110156E+01  0.99011590205E+01  0.16604567691E+01  0.10218735915E+02  0.51100000000E-03 0. -1.
        -11    1    3    3    0    0  0.28149648728E+01  0.71207745498E+01  0.14735247665E+02  0.16605932116E+02  0.51100000000E-03 0.  1.
         12    1    3    3    0    0  0.24652357222E+02 -0.20651839859E+02 -0.45315066472E+01  0.32477249862E+02  0.00000000000E+00 0. -1.
</event>
<event>
 7    1  0.6164995E-012  0.5930194E+02  0.7816164E-02  0.1266605E+00
        -11   -1    0    0    0    0  0.00000000000E+00  0.00000000000E+00  0.45593999997E+02  0.45594000000E+02  0.51100000000E-03 0.  1.
         11   -1    0    0    0    0 -0.00000000000E+00 -0.00000000000E+00 -0.45593999997E+02  0.45594000000E+02  0.51100000000E-03 0. -1.
    9900012    2    1    2    0    0  0.20876530087E+02  0.23479596203E+02  0.54405720770E+01  0.59301940807E+02  0.49999994126E+02 0.  0.
         12    1    1    2    0    0 -0.20876530087E+02 -0.23479596203E+02 -0.54405720770E+01  0.31886059193E+02  0.00000000000E+00 0. -1.
         11    1    3    3    0    0  0.29968807044E+02  0.22009601966E+01  0.40578709093E+01  0.30322268022E+02  0.51100000000E-03 0. -1.
        -11    1    3    3    0    0 -0.41311128647E+01 -0.18963099453E+01  0.26214529036E+01  0.52472945883E+01  0.51100000000E-03 0.  1.
         12    1    3    3    0    0 -0.49611640919E+01  0.23174945952E+02 -0.12387517359E+01  0.23732378197E+02  0.00000000000E+00 0. -1.
</event>
<event>
 7    1  0.6164995E-012  0.5930192E+02  0.7816164E-02  0.1266605E+00
        -11   -1    0    0    0    0  0.00000000000E+00  0.00000000000E+00  0.45593999997E+02  0.45594000000E+02  0.51100000000E-03 0. -1.
         11   -1    0    0    0    0 -0.00000000000E+00 -0.00000000000E+00 -0.45593999997E+02  0.45594000000E+02  0.51100000000E-03 0.  1.
    9900012    2    1    2    0    0 -0.72005647809E+01 -0.26133890510E+02 -0.16789687693E+02  0.59301921859E+02  0.49999959570E+02 0.  0.
         12    1    1    2    0    0  0.72005647809E+01  0.26133890510E+02  0.16789687693E+02  0.31886078141E+02  0.00000000000E+00 0. -1.
         11    1    3    3    0    0  0.13519932386E+02 -0.12931950615E+02 -0.11304039959E+02  0.21858756554E+02  0.51100000000E-03 0. -1.
        -11    1    3    3    0    0 -0.63458160362E+00  0.78662346539E+01 -0.18749231896E+01  0.81114535485E+01  0.51100000000E-03 0.  1.
         12    1    3    3    0    0 -0.20085915563E+02 -0.21068174549E+02 -0.36107245452E+01  0.29331711757E+02  0.00000000000E+00 0. -1.
</event>
<event>
 7    1  0.6164995E-012  0.5930195E+02  0.7816164E-02  0.1266605E+00
        -11   -1    0    0    0    0  0.00000000000E+00  0.00000000000E+00  0.45593999997E+02  0.45594000000E+02  0.51100000000E-03 0.  1.
         11   -1    0    0    0    0 -0.00000000000E+00 -0.00000000000E+00 -0.45593999997E+02  0.45594000000E+02  0.51100000000E-03 0. -1.
    9900012    2    1    2    0    0  0.14161676636E+02  0.11711927292E+01  0.28544622557E+02  0.59301948905E+02  0.50000008894E+02 0.  0.
         12    1    1    2    0    0 -0.14161676636E+02 -0.11711927292E+01 -0.28544622557E+02  0.31886051095E+02  0.00000000000E+00 0. -1.
         11    1    3    3    0    0 -0.15300693295E+02  0.65265890428E+01 -0.12577489067E+00  0.16635005243E+02  0.51100000000E-03 0. -1.
        -11    1    3    3    0    0 -0.94151092827E-01 -0.31695269868E+00  0.35110908872E+01  0.35266248625E+01  0.51100000000E-03 0.  1.
        -12    1    3    3    0    0  0.29556521024E+02 -0.50384436149E+01  0.25159306560E+02  0.39140318799E+02  0.00000000000E+00 0.  1.
</event>
<event>
 7    1  0.6164995E-012  0.5930195E+02  0.7816164E-02  0.1266605E+00
        -11   -1    0    0    0    0  0.00000000000E+00  0.00000000000E+00  0.45593999997E+02  0.45594000000E+02  0.51100000000E-03 0. -1.
         11   -1    0    0    0    0 -0.00000000000E+00 -0.00000000000E+00 -0.45593999997E+02  0.45594000000E+02  0.51100000000E-03 0.  1.
    9900012    2    1    2    0    0 -0.27797510703E+02 -0.79226697488E+01 -0.13462913583E+02  0.59301947573E+02  0.50000006465E+02 0.  0.
         12    1    1    2    0    0  0.27797510703E+02  0.79226697488E+01  0.13462913583E+02  0.31886052427E+02  0.00000000000E+00 0. -1.
         11    1    3    3    0    0  0.38511761999E+01  0.12696216594E+02 -0.19255395400E+01  0.13406460260E+02  0.51100000000E-03 0. -1.
        -11    1    3    3    0    0 -0.72774370575E+01 -0.63536150031E+01  0.71622878946E+01  0.12026133289E+02  0.51100000000E-03 0.  1.
        -12    1    3    3    0    0 -0.24371249845E+02 -0.14265271340E+02 -0.18699661938E+02  0.33869354024E+02  0.00000000000E+00 0.  1.
</event>
<event>
 7    1  0.6164995E-012  0.5930195E+02  0.7816164E-02  0.1266605E+00
        -11   -1    0    0    0    0  0.00000000000E+00  0.00000000000E+00  0.45593999997E+02  0.45594000000E+02  0.51100000000E-03 0.  1.
         11   -1    0    0    0    0 -0.00000000000E+00 -0.00000000000E+00 -0.45593999997E+02  0.45594000000E+02  0.51100000000E-03 0. -1.
    9900012    2    1    2    0    0 -0.26644243811E+02 -0.14902021850E+02 -0.92051128640E+01  0.59301951541E+02  0.50000013703E+02 0.  0.
         12    1    1    2    0    0  0.26644243811E+02  0.14902021850E+02  0.92051128640E+01  0.31886048459E+02  0.00000000000E+00 0. -1.
         11    1    3    3    0    0 -0.14000258784E+02  0.48088834962E+01 -0.16272582797E+02  0.21998398979E+02  0.51100000000E-03 0. -1.
        -11    1    3    3    0    0 -0.10137383024E+02  0.15993900155E+01  0.11478734105E+02  0.15397594615E+02  0.51100000000E-03 0.  1.
        -12    1    3    3    0    0 -0.25066020021E+01 -0.21310295362E+02 -0.44112641724E+01  0.21905957948E+02  0.00000000000E+00 0.  1.
</event>
<event>
 7    1  0.6164995E-012  0.5930195E+02  0.7816164E-02  0.1266605E+00
        -11   -1    0    0    0    0  0.00000000000E+00  0.00000000000E+00  0.45593999997E+02  0.45594000000E+02  0.51100000000E-03 0.  1.
         11   -1    0    0    0    0 -0.00000000000E+00 -0.00000000000E+00 -0.45593999997E+02  0.45594000000E+02  0.51100000000E-03 0. -1.
    9900012    2    1    2    0    0 -0.10649205734E+02 -0.29873772222E+02  0.32972748856E+01  0.59301954914E+02  0.50000019854E+02 0.  0.
         12    1    1    2    0    0  0.10649205734E+02  0.29873772222E+02 -0.32972748856E+01  0.31886045086E+02  0.00000000000E+00 0. -1.
         11    1    3    3    0    0  0.53223392307E+01 -0.14638355400E+02  0.14437713378E+02  0.21238086344E+02  0.51100000000E-03 0. -1.
        -11    1    3    3    0    0 -0.73547897118E+01 -0.81636636344E+01  0.95522792263E+01  0.14559683181E+02  0.51100000000E-03 0.  1.
         12    1    3    3    0    0 -0.86167552532E+01 -0.70717531877E+01 -0.20692717719E+02  0.23504185390E+02  0.00000000000E+00 0. -1.
</event>
<event>
 7    1  0.6164995E-012  0.5930193E+02  0.7816164E-02  0.1266605E+00
        -11   -1    0    0    0    0  0.00000000000E+00  0.00000000000E+00  0.45593999997E+02  0.45594000000E+02  0.51100000000E-03 0. -1.
         11   -1    0    0    0    0 -0.00000000000E+00 -0.00000000000E+00 -0.45593999997E+02  0.45594000000E+02  0.51100000000E-03 0.  1.
    9900012    2    1    2    0    0 -0.93837222616E+00  0.48903981184E+01 -0.31494837378E+02  0.59301932232E+02  0.49999978488E+02 0.  0.
         12    1    1    2    0    0  0.93837222616E+00 -0.48903981184E+01  0.31494837378E+02  0.31886067768E+02  0.00000000000E+00 0. -1.
         11    1    3    3    0    0 -0.11710566446E+02 -0.77728044141E+01 -0.24469479554E+02  0.28218952583E+02  0.51100000000E-03 0. -1.
        -11    1    3    3    0    0 -0.28686000588E+01  0.60859155719E+01 -0.13131334419E+02  0.14754632443E+02  0.51100000000E-03 0.  1.
         12    1    3    3    0    0  0.13640794278E+02  0.65772869606E+01  0.61059765956E+01  0.16328347206E+02  0.00000000000E+00 0. -1.
</event>
<event>
 7    1  0.6164995E-012  0.5930195E+02  0.7816164E-02  0.1266605E+00
        -11   -1    0    0    0    0  0.00000000000E+00  0.00000000000E+00  0.45593999997E+02  0.45594000000E+02  0.51100000000E-03 0.  1.
         11   -1    0    0    0    0 -0.00000000000E+00 -0.00000000000E+00 -0.45593999997E+02  0.45594000000E+02  0.51100000000E-03 0. -1.
    9900012    2    1    2    0    0  0.83615124073E+01  0.16655522721E+02  0.25872745975E+02  0.59301948015E+02  0.50000007273E+02 0.  0.
         12    1    1    2    0    0 -0.83615124073E+01 -0.16655522721E+02 -0.25872745975E+02  0.31886051985E+02  0.00000000000E+00 0. -1.
         11    1    3    3    0    0  0.37545287200E+01  0.15148456240E+02 -0.80219055983E+01  0.17547740084E+02  0.51100000000E-03 0. -1.
        -11    1    3    3    0    0 -0.17425993051E+01 -0.10570819789E+02  0.13973414994E+02  0.17607816735E+02  0.51100000000E-03 0.  1.
         12    1    3    3    0    0  0.63495829925E+01  0.12077886270E+02  0.19921236580E+02  0.24146391196E+02  0.00000000000E+00 0. -1.
</event>
<event>
 7    1  0.6164995E-012  0.5930193E+02  0.7816164E-02  0.1266605E+00
        -11   -1    0    0    0    0  0.00000000000E+00  0.00000000000E+00  0.45593999997E+02  0.45594000000E+02  0.51100000000E-03 0. -1.
         11   -1    0    0    0    0 -0.00000000000E+00 -0.00000000000E+00 -0.45593999997E+02  0.45594000000E+02  0.51100000000E-03 0.  1.
    9900012    2    1    2    0    0  0.25072780939E+02 -0.14469395926E+02 -0.13368374358E+02  0.59301934149E+02  0.49999981984E+02 0.  0.
         12    1    1    2    0    0 -0.25072780939E+02  0.14469395926E+02  0.13368374358E+02  0.31886065851E+02  0.00000000000E+00 0. -1.
         11    1    3    3    0    0  0.14626606462E+01 -0.21945856424E+02 -0.62216218996E+01  0.22857571386E+02  0.51100000000E-03 0. -1.
        -11    1    3    3    0    0  0.80177419279E+01 -0.67539874589E+01 -0.10765511338E+02  0.15026535424E+02  0.51100000000E-03 0.  1.
         12    1    3    3    0    0  0.15592378364E+02  0.14230447957E+02  0.36187588790E+01  0.21417827339E+02  0.00000000000E+00 0. -1.
</event>
<event>
 7    1  0.6164995E-012  0.5930193E+02  0.7816164E-02  0.1266605E+00
        -11   -1    0    0    0    0  0.00000000000E+00  0.00000000000E+00  0.45593999997E+02  0.45594000000E+02  0.51100000000E-03 0.  1.
         11   -1    0    0    0    0 -0.00000000000E+00 -0.00000000000E+00 -0.45593999997E+02  0.45594000000E+02  0.51100000000E-03 0. -1.
    9900012    2    1    2    0    0 -0.88644733894E+01 -0.15865329467E+02  0.26199886764E+02  0.59301927272E+02  0.49999969442E+02 0.  0.
         12    1    1    2    0    0  0.88644733894E+01  0.15865329467E+02 -0.26199886764E+02  0.31886072728E+02  0.00000000000E+00 0. -1.
         11    1    3    3    0    0 -0.19438070225E+01  0.84367565965E+01 -0.13173860505E+01  0.87574399156E+01  0.51100000000E-03 0. -1.
        -11    1    3    3    0    0  0.21587054509E+01  0.70522700039E+01  0.12722666019E+02  0.14705806755E+02  0.51100000000E-03 0.  1.
        -12    1    3    3    0    0 -0.90793718177E+01 -0.31354356068E+02  0.14794606796E+02  0.35838680602E+02  0.00000000000E+00 0.  1.
</event>
<event>
 7    1  0.6164995E-012  0.5930189E+02  0.7816164E-02  0.1266605E+00
        -11   -1    0    0    0    0  0.00000000000E+00  0.00000000000E+00  0.45593999997E+02  0.45594000000E+02  0.51100000000E-03 0.  1.
         11   -1    0    0    0    0 -0.00000000000E+00 -0.00000000000E+00 -0.45593999997E+02  0.45594000000E+02  0.51100000000E-03 0. -1.
    9900012    2    1    2    0    0  0.28859371793E+02  0.57532489315E+01  0.12278465519E+02  0.59301891284E+02  0.49999903808E+02 0.  0.
         12    1    1    2    0    0 -0.28859371793E+02 -0.57532489315E+01 -0.12278465519E+02  0.31886108716E+02  0.00000000000E+00 0. -1.
         11    1    3    3    0    0 -0.47460002284E+00 -0.82311974330E+01 -0.95580504591E+01  0.12622764563E+02  0.51100000000E-03 0. -1.
        -11    1    3    3    0    0  0.70031376404E+01 -0.71654643572E+01  0.24241194030E+01  0.10308451455E+02  0.51100000000E-03 0.  1.
        -12    1    3    3    0    0  0.22330834175E+02  0.21149910722E+02  0.19412396575E+02  0.36370675266E+02  0.00000000000E+00 0.  1.
</event>
<event>
 7    1  0.6164995E-012  0.5930193E+02  0.7816164E-02  0.1266605E+00
        -11   -1    0    0    0    0  0.00000000000E+00  0.00000000000E+00  0.45593999997E+02  0.45594000000E+02  0.51100000000E-03 0.  1.
         11   -1    0    0    0    0 -0.00000000000E+00 -0.00000000000E+00 -0.45593999997E+02  0.45594000000E+02  0.51100000000E-03 0. -1.
    9900012    2    1    2    0    0 -0.18104855794E+02 -0.24300431265E+02 -0.99209329604E+01  0.59301926649E+02  0.49999968304E+02 0.  0.
         12    1    1    2    0    0  0.18104855794E+02  0.24300431265E+02  0.99209329604E+01  0.31886073351E+02  0.00000000000E+00 0. -1.
         11    1    3    3    0    0 -0.26729208340E+01  0.11505962545E+02 -0.66164995003E+01  0.13539192951E+02  0.51100000000E-03 0. -1.
        -11    1    3    3    0    0 -0.11389031798E+02 -0.11058829800E+02 -0.11251701621E+02  0.19457866057E+02  0.51100000000E-03 0.  1.
        -12    1    3    3    0    0 -0.40429031620E+01 -0.24747564009E+02  0.79472681606E+01  0.26304867641E+02  0.00000000000E+00 0.  1.
</event>
<event>
 7    1  0.6164995E-012  0.5930220E+02  0.7816164E-02  0.1266604E+00
        -11   -1    0    0    0    0  0.00000000000E+00  0.00000000000E+00  0.45593999997E+02  0.45594000000E+02  0.51100000000E-03 0.  1.
         11   -1    0    0    0    0 -0.00000000000E+00 -0.00000000000E+00 -0.45593999997E+02  0.45594000000E+02  0.51100000000E-03 0. -1.
    9900012    2    1    2    0    0 -0.16167098432E+02 -0.24234747090E+02  0.12961710879E+02  0.59302203991E+02  0.50000474108E+02 0.  0.
         12    1    1    2    0    0  0.16167098432E+02  0.24234747090E+02 -0.12961710879E+02  0.31885796009E+02  0.00000000000E+00 0. -1.
         11    1    3    3    0    0  0.13619290762E+01 -0.12157960981E+02 -0.60012332915E+01  0.13626652829E+02  0.51100000000E-03 0.  1.
        -11    1    3    3    0    0 -0.14740209464E+02 -0.23775926866E+02  0.72750800144E+01  0.28904934922E+02  0.51100000000E-03 0. -1.
         12    1    3    3    0    0 -0.27888180449E+01  0.11699140757E+02  0.11687864156E+02  0.16770616240E+02  0.00000000000E+00 0. -1.
</event>
<event>
 7    1  0.6164995E-012  0.5930190E+02  0.7816164E-02  0.1266605E+00
        -11   -1    0    0    0    0  0.00000000000E+00  0.00000000000E+00  0.45593999997E+02  0.45594000000E+02  0.51100000000E-03 0.  1.
         11   -1    0    0    0    0 -0.00000000000E+00 -0.00000000000E+00 -0.45593999997E+02  0.45594000000E+02  0.51100000000E-03 0. -1.
    9900012    2    1    2    0    0 -0.48453842027E+01  0.12593264816E+02  0.28890398856E+02  0.59301902515E+02  0.49999924290E+02 0.  0.
         12    1    1    2    0    0  0.48453842027E+01 -0.12593264816E+02 -0.28890398856E+02  0.31886097485E+02  0.00000000000E+00 0. -1.
         11    1    3    3    0    0 -0.98246186822E+00  0.13047105861E+02  0.20558609828E+02  0.24369009848E+02  0.51100000000E-03 0.  1.
        -11    1    3    3    0    0  0.49959215257E+01  0.13581380956E+02 -0.30745181571E+01  0.14794113786E+02  0.51100000000E-03 0. -1.
         12    1    3    3    0    0 -0.88588438602E+01 -0.14035222001E+02  0.11406307185E+02  0.20138778880E+02  0.00000000000E+00 0. -1.
</event>
<event>
 7    1  0.6164995E-012  0.5930195E+02  0.7816164E-02  0.1266605E+00
        -11   -1    0    0    0    0  0.00000000000E+00  0.00000000000E+00  0.45593999997E+02  0.45594000000E+02  0.51100000000E-03 0. -1.
         11   -1    0    0    0    0 -0.00000000000E+00 -0.00000000000E+00 -0.45593999997E+02  0.45594000000E+02  0.51100000000E-03 0.  1.
    9900012    2    1    2    0    0  0.12298007393E+02  0.19640033737E+02 -0.21903152829E+02  0.59301952662E+02  0.50000015746E+02 0.  0.
         12    1    1    2    0    0 -0.12298007393E+02 -0.19640033737E+02  0.21903152829E+02  0.31886047338E+02  0.00000000000E+00 0. -1.
         11    1    3    3    0    0 -0.38019938408E+00  0.80816554882E+01 -0.93605704558E+01  0.12372468894E+02  0.51100000000E-03 0. -1.
        -11    1    3    3    0    0  0.27565038244E+02  0.11702298707E+02 -0.11236013119E+02  0.31984732600E+02  0.51100000000E-03 0.  1.
         12    1    3    3    0    0 -0.14886831468E+02 -0.14392045815E+00 -0.13065692544E+01  0.14944751168E+02  0.00000000000E+00 0. -1.
</event>
<event>
 7    1  0.6164995E-012  0.5930212E+02  0.7816164E-02  0.1266604E+00
        -11   -1    0    0    0    0  0.00000000000E+00  0.00000000000E+00  0.45593999997E+02  0.45594000000E+02  0.51100000000E-03 0.  1.
         11   -1    0    0    0    0 -0.00000000000E+00 -0.00000000000E+00 -0.45593999997E+02  0.45594000000E+02  0.51100000000E-03 0. -1.
    9900012    2    1    2    0    0  0.11289052062E+02 -0.21478559760E+02  0.20686662162E+02  0.59302121978E+02  0.50000324538E+02 0.  0.
         12    1    1    2    0    0 -0.11289052062E+02  0.21478559760E+02 -0.20686662162E+02  0.31885878022E+02  0.00000000000E+00 0. -1.
         11    1    3    3    0    0  0.20301483648E+02 -0.11363155030E+01  0.26067420135E+02  0.33059822201E+02  0.51100000000E-03 0. -1.
        -11    1    3    3    0    0  0.24843793431E+01 -0.47191817043E+01  0.16929095187E+01  0.55954230919E+01  0.51100000000E-03 0.  1.
        -12    1    3    3    0    0 -0.11496810929E+02 -0.15623062553E+02 -0.70736674915E+01  0.20646876685E+02  0.00000000000E+00 0.  1.
</event>
<event>
 7    1  0.6164995E-012  0.5930196E+02  0.7816164E-02  0.1266605E+00
        -11   -1    0    0    0    0  0.00000000000E+00  0.00000000000E+00  0.45593999997E+02  0.45594000000E+02  0.51100000000E-03 0.  1.
         11   -1    0    0    0    0 -0.00000000000E+00 -0.00000000000E+00 -0.45593999997E+02  0.45594000000E+02  0.51100000000E-03 0. -1.
    9900012    2    1    2    0    0  0.26577529453E+02  0.72704259089E+01 -0.16046664201E+02  0.59301959219E+02  0.50000027704E+02 0.  0.
         12    1    1    2    0    0 -0.26577529453E+02 -0.72704259089E+01  0.16046664201E+02  0.31886040781E+02  0.00000000000E+00 0. -1.
         11    1    3    3    0    0  0.66190972990E+01 -0.64888703682E+01 -0.77233870649E+01  0.12065181131E+02  0.51100000000E-03 0. -1.
        -11    1    3    3    0    0  0.38861852887E+01 -0.47797136869E+01  0.13220260376E+02  0.14585039722E+02  0.51100000000E-03 0.  1.
        -12    1    3    3    0    0  0.16072246866E+02  0.18539009964E+02 -0.21543537512E+02  0.32651738365E+02  0.00000000000E+00 0.  1.
</event>
<event>
 7    1  0.6164995E-012  0.5930191E+02  0.7816164E-02  0.1266605E+00
        -11   -1    0    0    0    0  0.00000000000E+00  0.00000000000E+00  0.45593999997E+02  0.45594000000E+02  0.51100000000E-03 0.  1.
         11   -1    0    0    0    0 -0.00000000000E+00 -0.00000000000E+00 -0.45593999997E+02  0.45594000000E+02  0.51100000000E-03 0. -1.
    9900012    2    1    2    0    0  0.11699960280E+02  0.52761105053E+01  0.29188971522E+02  0.59301914146E+02  0.49999945502E+02 0.  0.
         12    1    1    2    0    0 -0.11699960280E+02 -0.52761105053E+01 -0.29188971522E+02  0.31886085854E+02  0.00000000000E+00 0. -1.
         11    1    3    3    0    0 -0.20454818961E+01 -0.27460111173E+01  0.64275910130E+00  0.34839220381E+01  0.51100000000E-03 0. -1.
        -11    1    3    3    0    0  0.86303366752E+01  0.25287327321E+02  0.26605784604E+02  0.37706755480E+02  0.51100000000E-03 0.  1.
         12    1    3    3    0    0  0.51151055012E+01 -0.17265205698E+02  0.19404278162E+01  0.18111236628E+02  0.00000000000E+00 0. -1.
</event>
<event>
 7    1  0.6164995E-012  0.5930189E+02  0.7816164E-02  0.1266605E+00
        -11   -1    0    0    0    0  0.00000000000E+00  0.00000000000E+00  0.45593999997E+02  0.45594000000E+02  0.51100000000E-03 0.  1.
         11   -1    0    0    0    0 -0.00000000000E+00 -0.00000000000E+00 -0.45593999997E+02  0.45594000000E+02  0.51100000000E-03 0. -1.
    9900012    2    1    2    0    0  0.67472860795E+01 -0.25592511609E+01  0.31058791842E+02  0.59301887245E+02  0.49999896442E+02 0.  0.
         12    1    1    2    0    0 -0.67472860795E+01  0.25592511609E+01 -0.31058791842E+02  0.31886112755E+02  0.00000000000E+00 0. -1.
         11    1    3    3    0    0 -0.92762649089E+01 -0.83554292956E+01  0.11672529276E+01  0.12538930139E+02  0.51100000000E-03 0. -1.
        -11    1    3    3    0    0  0.82009229437E+01  0.14694395794E+02  0.26222388334E+01  0.17031046405E+02  0.51100000000E-03 0.  1.
        -12    1    3    3    0    0  0.78226280447E+01 -0.88982176595E+01  0.27269300081E+02  0.29731910701E+02  0.00000000000E+00 0.  1.
</event>
<event>
 7    1  0.6164995E-012  0.5930194E+02  0.7816164E-02  0.1266605E+00
        -11   -1    0    0    0    0  0.00000000000E+00  0.00000000000E+00  0.45593999997E+02  0.45594000000E+02  0.51100000000E-03 0. -1.
         11   -1    0    0    0    0 -0.00000000000E+00 -0.00000000000E+00 -0.45593999997E+02  0.45594000000E+02  0.51100000000E-03 0.  1.
    9900012    2    1    2    0    0  0.50484238784E+01  0.14036424153E+02 -0.28181786283E+02  0.59301939335E+02  0.49999991442E+02 0.  0.
         12    1    1    2    0    0 -0.50484238784E+01 -0.14036424153E+02  0.28181786283E+02  0.31886060665E+02  0.00000000000E+00 0. -1.
         11    1    3    3    0    0 -0.10864911389E+02 -0.12955442924E+01 -0.12518119454E+02  0.16626125509E+02  0.51100000000E-03 0. -1.
        -11    1    3    3    0    0 -0.93311388917E+01  0.30993515415E+01  0.12619854720E+01  0.99130590932E+01  0.51100000000E-03 0.  1.
        -12    1    3    3    0    0  0.25244474159E+02  0.12232616904E+02 -0.16925652300E+02  0.32762754733E+02  0.00000000000E+00 0.  1.
</event>
<event>
 7    1  0.6164995E-012  0.5930191E+02  0.7816164E-02  0.1266605E+00
        -11   -1    0    0    0    0  0.00000000000E+00  0.00000000000E+00  0.45593999997E+02  0.45594000000E+02  0.51100000000E-03 0. -1.
         11   -1    0    0    0    0 -0.00000000000E+00 -0.00000000000E+00 -0.45593999997E+02  0.45594000000E+02  0.51100000000E-03 0.  1.
    9900012    2    1    2    0    0  0.13105264861E+02  0.23000631898E+02 -0.17774859154E+02  0.59301911298E+02  0.49999940309E+02 0.  0.
         12    1    1    2    0    0 -0.13105264861E+02 -0.23000631898E+02  0.17774859154E+02  0.31886088702E+02  0.00000000000E+00 0. -1.
         11    1    3    3    0    0  0.28880312907E+01 -0.70339730759E+01 -0.13977087123E+02  0.15911519936E+02  0.51100000000E-03 0. -1.
        -11    1    3    3    0    0  0.59493284154E+01 -0.46001385987E+01  0.25100188011E+01  0.79281762320E+01  0.51100000000E-03 0.  1.
        -12    1    3    3    0    0  0.42679051544E+01  0.34634743572E+02 -0.63077908318E+01  0.35462215130E+02  0.00000000000E+00 0.  1.
</event>
<event>
 7    1  0.6164995E-012  0.5930193E+02  0.7816164E-02  0.1266605E+00
        -11   -1    0    0    0    0  0.00000000000E+00  0.00000000000E+00  0.45593999997E+02  0.45594000000E+02  0.51100000000E-03 0.  1.
         11   -1    0    0    0    0 -0.00000000000E+00 -0.00000000000E+00 -0.45593999997E+02  0.45594000000E+02  0.51100000000E-03 0. -1.
    9900012    2    1    2    0    0  0.26893480958E+02 -0.16978799202E+02 -0.22764974273E+01  0.59301931240E+02  0.49999976679E+02 0.  0.
         12    1    1    2    0    0 -0.26893480958E+02  0.16978799202E+02  0.22764974273E+01  0.31886068760E+02  0.00000000000E+00 0. -1.
         11    1    3    3    0    0  0.79071448964E+01 -0.17494913713E+02  0.12167734529E+02  0.22729907832E+02  0.51100000000E-03 0.  1.
        -11    1    3    3    0    0  0.25853768128E+02 -0.13810694618E+01 -0.83713894590E+01  0.27210381126E+02  0.51100000000E-03 0. -1.
        -12    1    3    3    0    0 -0.68674320667E+01  0.18971839721E+01 -0.60728424976E+01  0.93616422820E+01  0.00000000000E+00 0.  1.
</event>
<event>
 7    1  0.6164995E-012  0.5930193E+02  0.7816164E-02  0.1266605E+00
        -11   -1    0    0    0    0  0.00000000000E+00  0.00000000000E+00  0.45593999997E+02  0.45594000000E+02  0.51100000000E-03 0.  1.
         11   -1    0    0    0    0 -0.00000000000E+00 -0.00000000000E+00 -0.45593999997E+02  0.45594000000E+02  0.51100000000E-03 0. -1.
    9900012    2    1    2    0    0  0.40901367272E+01 -0.31503947557E+02 -0.27374460782E+01  0.59301928728E+02  0.49999972097E+02 0.  0.
         12    1    1    2    0    0 -0.40901367272E+01  0.31503947557E+02  0.27374460782E+01  0.31886071272E+02  0.00000000000E+00 0. -1.
         11    1    3    3    0    0  0.17931288562E+01 -0.14482545515E+02 -0.77751391312E+01  0.16535181416E+02  0.51100000000E-03 0. -1.
        -11    1    3    3    0    0 -0.12983702602E+02 -0.16714172369E+02  0.13687617833E+02  0.25204979140E+02  0.51100000000E-03 0.  1.
         12    1    3    3    0    0  0.15280710473E+02 -0.30722967328E+00 -0.86499247800E+01  0.17561768172E+02  0.00000000000E+00 0. -1.
</event>
<event>
 7    1  0.6164995E-012  0.5930194E+02  0.7816164E-02  0.1266605E+00
        -11   -1    0    0    0    0  0.00000000000E+00  0.00000000000E+00  0.45593999997E+02  0.45594000000E+02  0.51100000000E-03 0. -1.
         11   -1    0    0    0    0 -0.00000000000E+00 -0.00000000000E+00 -0.45593999997E+02  0.45594000000E+02  0.51100000000E-03 0.  1.
    9900012    2    1    2    0    0  0.57140607983E+01  0.20132035624E+02 -0.24057667335E+02  0.59301941811E+02  0.49999995958E+02 0.  0.
         12    1    1    2    0    0 -0.57140607983E+01 -0.20132035624E+02  0.24057667335E+02  0.31886058189E+02  0.00000000000E+00 0. -1.
         11    1    3    3    0    0  0.59535692972E+01  0.24347775129E+02 -0.17700355677E+02  0.30684877912E+02  0.51100000000E-03 0. -1.
        -11    1    3    3    0    0  0.11304881288E+02  0.52761371827E+01 -0.55370118892E+01  0.13649046319E+02  0.51100000000E-03 0.  1.
        -12    1    3    3    0    0 -0.11544389787E+02 -0.94918766868E+01 -0.82029976908E+00  0.14968017581E+02  0.00000000000E+00 0.  1.
</event>
<event>
 7    1  0.6164995E-012  0.5930195E+02  0.7816164E-02  0.1266605E+00
        -11   -1    0    0    0    0  0.00000000000E+00  0.00000000000E+00  0.45593999997E+02  0.45594000000E+02  0.51100000000E-03 0.  1.
         11   -1    0    0    0    0 -0.00000000000E+00 -0.00000000000E+00 -0.45593999997E+02  0.45594000000E+02  0.51100000000E-03 0. -1.
    9900012    2    1    2    0    0  0.13755966086E+02  0.10627221814E+02  0.26731178050E+02  0.59301947777E+02  0.50000006838E+02 0.  0.
         12    1    1    2    0    0 -0.13755966086E+02 -0.10627221814E+02 -0.26731178050E+02  0.31886052223E+02  0.00000000000E+00 0. -1.
         11    1    3    3    0    0 -0.91330241666E+01  0.41973944047E+01  0.18771927050E+01  0.10225170068E+02  0.51100000000E-03 0. -1.
        -11    1    3    3    0    0  0.52786681779E+01 -0.41849891710E+01  0.27529223431E+02  0.28341429305E+02  0.51100000000E-03 0.  1.
         12    1    3    3    0    0  0.17610322075E+02  0.10614816580E+02 -0.26752380859E+01  0.20735348404E+02  0.00000000000E+00 0. -1.
</event>
<event>
 7    1  0.6164995E-012  0.5930189E+02  0.7816164E-02  0.1266605E+00
        -11   -1    0    0    0    0  0.00000000000E+00  0.00000000000E+00  0.45593999997E+02  0.45594000000E+02  0.51100000000E-03 0.  1.
         11   -1    0    0    0    0 -0.00000000000E+00 -0.00000000000E+00 -0.45593999997E+02  0.45594000000E+02  0.51100000000E-03 0. -1.
    9900012    2    1    2    0    0  0.10308244224E+01 -0.23525829556E+02  0.21498766225E+02  0.59301886965E+02  0.49999895931E+02 0.  0.
         12    1    1    2    0    0 -0.10308244224E+01  0.23525829556E+02 -0.21498766225E+02  0.31886113035E+02  0.00000000000E+00 0. -1.
         11    1    3    3    0    0 -0.15620363530E+00  0.73344720535E+00  0.17705856056E+02  0.17721729129E+02  0.51100000000E-03 0. -1.
        -11    1    3    3    0    0  0.62273069298E+01  0.71957206834E+01  0.15870821230E+01  0.96476203116E+01  0.51100000000E-03 0.  1.
        -12    1    3    3    0    0 -0.50402788721E+01 -0.31454997445E+02  0.22058280456E+01  0.31932537525E+02  0.00000000000E+00 0.  1.
</event>
<event>
 7    1  0.6164995E-012  0.5930196E+02  0.7816164E-02  0.1266605E+00
        -11   -1    0    0    0    0  0.00000000000E+00  0.00000000000E+00  0.45593999997E+02  0.45594000000E+02  0.51100000000E-03 0. -1.
         11   -1    0    0    0    0 -0.00000000000E+00 -0.00000000000E+00 -0.45593999997E+02  0.45594000000E+02  0.51100000000E-03 0.  1.
    9900012    2    1    2    0    0  0.14476733710E+02  0.27290579814E+02 -0.78973412195E+01  0.59301959734E+02  0.50000028644E+02 0.  0.
         12    1    1    2    0    0 -0.14476733710E+02 -0.27290579814E+02  0.78973412195E+01  0.31886040266E+02  0.00000000000E+00 0. -1.
         11    1    3    3    0    0 -0.34196034753E+01  0.79727737407E+01  0.75188635934E+01  0.11480074871E+02  0.51100000000E-03 0. -1.
        -11    1    3    3    0    0  0.23012676289E+02  0.22320917798E+02 -0.82422988455E+00  0.32070017095E+02  0.51100000000E-03 0.  1.
        -12    1    3    3    0    0 -0.51163391037E+01 -0.30031117243E+01 -0.14591974928E+02  0.15751867767E+02  0.00000000000E+00 0.  1.
</event>
<event>
 7    1  0.6164995E-012  0.5930194E+02  0.7816164E-02  0.1266605E+00
        -11   -1    0    0    0    0  0.00000000000E+00  0.00000000000E+00  0.45593999997E+02  0.45594000000E+02  0.51100000000E-03 0.  1.
         11   -1    0    0    0    0 -0.00000000000E+00 -0.00000000000E+00 -0.45593999997E+02  0.45594000000E+02  0.51100000000E-03 0. -1.
    9900012    2    1    2    0    0  0.30475386792E+01  0.27393295889E+02  0.16032485181E+02  0.59301941405E+02  0.49999995217E+02 0.  0.
         12    1    1    2    0    0 -0.30475386792E+01 -0.27393295889E+02 -0.16032485181E+02  0.31886058595E+02  0.00000000000E+00 0. -1.
         11    1    3    3    0    0 -0.11311814955E+02  0.29155436117E+01  0.52439589714E+01  0.12804556146E+02  0.51100000000E-03 0. -1.
        -11    1    3    3    0    0  0.17615084695E+01  0.28617221727E+02 -0.10935045559E+01  0.28692229679E+02  0.51100000000E-03 0.  1.
        -12    1    3    3    0    0  0.12597845165E+02 -0.41394694500E+01  0.11882030765E+02  0.17805155580E+02  0.00000000000E+00 0.  1.
</event>
<event>
 7    1  0.6164995E-012  0.5930195E+02  0.7816164E-02  0.1266605E+00
        -11   -1    0    0    0    0  0.00000000000E+00  0.00000000000E+00  0.45593999997E+02  0.45594000000E+02  0.51100000000E-03 0. -1.
         11   -1    0    0    0    0 -0.00000000000E+00 -0.00000000000E+00 -0.45593999997E+02  0.45594000000E+02  0.51100000000E-03 0.  1.
    9900012    2    1    2    0    0  0.56881517406E+01 -0.61572690909E+00 -0.31368548227E+02  0.59301952773E+02  0.50000015950E+02 0.  0.
         12    1    1    2    0    0 -0.56881517406E+01  0.61572690909E+00  0.31368548227E+02  0.31886047227E+02  0.00000000000E+00 0. -1.
         11    1    3    3    0    0 -0.41344436105E+01  0.53396889813E+01 -0.17057559380E+02  0.18345741594E+02  0.51100000000E-03 0. -1.
        -11    1    3    3    0    0  0.53376466332E+01  0.14627160280E+02 -0.14638639598E+00  0.15571310757E+02  0.51100000000E-03 0.  1.
        -12    1    3    3    0    0  0.44849487179E+01 -0.20582576171E+02 -0.14164602452E+02  0.25384900422E+02  0.00000000000E+00 0.  1.
</event>
<event>
 7    1  0.6164995E-012  0.5930196E+02  0.7816164E-02  0.1266605E+00
        -11   -1    0    0    0    0  0.00000000000E+00  0.00000000000E+00  0.45593999997E+02  0.45594000000E+02  0.51100000000E-03 0.  1.
         11   -1    0    0    0    0 -0.00000000000E+00 -0.00000000000E+00 -0.45593999997E+02  0.45594000000E+02  0.51100000000E-03 0. -1.
    9900012    2    1    2    0    0  0.16716589599E+02 -0.26875962124E+01  0.27019475899E+02  0.59301958868E+02  0.50000027064E+02 0.  0.
         12    1    1    2    0    0 -0.16716589599E+02  0.26875962124E+01 -0.27019475899E+02  0.31886041132E+02  0.00000000000E+00 0. -1.
         11    1    3    3    0    0  0.19700316739E+02  0.20821283627E+01 -0.74761399126E+01  0.21173814167E+02  0.51100000000E-03 0. -1.
        -11    1    3    3    0    0 -0.63198568492E+01  0.18972638228E+00  0.50779115875E+01  0.81093632947E+01  0.51100000000E-03 0.  1.
        -12    1    3    3    0    0  0.33361297088E+01 -0.49594509574E+01  0.29417704224E+02  0.30018781406E+02  0.00000000000E+00 0.  1.
</event>
<event>
 7    1  0.6164995E-012  0.5930194E+02  0.7816164E-02  0.1266605E+00
        -11   -1    0    0    0    0  0.00000000000E+00  0.00000000000E+00  0.45593999997E+02  0.45594000000E+02  0.51100000000E-03 0.  1.
         11   -1    0    0    0    0 -0.00000000000E+00 -0.00000000000E+00 -0.45593999997E+02  0.45594000000E+02  0.51100000000E-03 0. -1.
    9900012    2    1    2    0    0 -0.53369017089E+01 -0.53424073657E+01  0.30978977506E+02  0.59301939039E+02  0.49999990901E+02 0.  0.
         12    1    1    2    0    0  0.53369017089E+01  0.53424073657E+01 -0.30978977506E+02  0.31886060961E+02  0.00000000000E+00 0. -1.
         11    1    3    3    0    0 -0.47397459962E+01  0.20153548483E+02  0.44188693876E+01  0.21169721668E+02  0.51100000000E-03 0. -1.
        -11    1    3    3    0    0 -0.16394591172E+01 -0.10429884995E+01  0.55354798514E+01  0.58666164570E+01  0.51100000000E-03 0.  1.
        -12    1    3    3    0    0  0.10423034046E+01 -0.24452967349E+02  0.21024628267E+02  0.32265600914E+02  0.00000000000E+00 0.  1.
</event>
<event>
 7    1  0.6164995E-012  0.5930195E+02  0.7816164E-02  0.1266605E+00
        -11   -1    0    0    0    0  0.00000000000E+00  0.00000000000E+00  0.45593999997E+02  0.45594000000E+02  0.51100000000E-03 0.  1.
         11   -1    0    0    0    0 -0.00000000000E+00 -0.00000000000E+00 -0.45593999997E+02  0.45594000000E+02  0.51100000000E-03 0. -1.
    9900012    2    1    2    0    0  0.28321493497E+02 -0.13556948255E+02  0.55517861205E+01  0.59301950244E+02  0.50000011337E+02 0.  0.
         12    1    1    2    0    0 -0.28321493497E+02  0.13556948255E+02 -0.55517861205E+01  0.31886049756E+02  0.00000000000E+00 0. -1.
         11    1    3    3    0    0 -0.14278306020E+01 -0.98121651363E+00 -0.14616548173E+02  0.14718864319E+02  0.51100000000E-03 0. -1.
        -11    1    3    3    0    0  0.79476613906E+01 -0.14763504441E+02  0.13937515917E+02  0.21803227631E+02  0.51100000000E-03 0.  1.
        -12    1    3    3    0    0  0.21801662709E+02  0.21877726992E+01  0.62308183772E+01  0.22779858294E+02  0.00000000000E+00 0.  1.
</event>
<event>
 7    1  0.6164995E-012  0.5930203E+02  0.7816164E-02  0.1266604E+00
        -11   -1    0    0    0    0  0.00000000000E+00  0.00000000000E+00  0.45593999997E+02  0.45594000000E+02  0.51100000000E-03 0.  1.
         11   -1    0    0    0    0 -0.00000000000E+00 -0.00000000000E+00 -0.45593999997E+02  0.45594000000E+02  0.51100000000E-03 0. -1.
    9900012    2    1    2    0    0  0.24940727483E+02 -0.70164657809E+01  0.18586136376E+02  0.59302029028E+02  0.50000155020E+02 0.  0.
         12    1    1    2    0    0 -0.24940727483E+02  0.70164657809E+01 -0.18586136376E+02  0.31885970972E+02  0.00000000000E+00 0. -1.
         11    1    3    3    0    0  0.66122318453E+01 -0.12161292518E+02  0.19281795866E+00  0.13843981534E+02  0.51100000000E-03 0.  1.
        -11    1    3    3    0    0  0.15050378991E+02  0.12225631919E+02 -0.56367497475E+01  0.20192893095E+02  0.51100000000E-03 0. -1.
         12    1    3    3    0    0  0.32781166465E+01 -0.70808051817E+01  0.24030068165E+02  0.25265154399E+02  0.00000000000E+00 0. -1.
</event>
<event>
 7    1  0.6164995E-012  0.5930199E+02  0.7816164E-02  0.1266605E+00
        -11   -1    0    0    0    0  0.00000000000E+00  0.00000000000E+00  0.45593999997E+02  0.45594000000E+02  0.51100000000E-03 0.  1.
         11   -1    0    0    0    0 -0.00000000000E+00 -0.00000000000E+00 -0.45593999997E+02  0.45594000000E+02  0.51100000000E-03 0. -1.
    9900012    2    1    2    0    0  0.66832096603E+01 -0.19044228451E+02  0.24685412626E+02  0.59301991702E+02  0.50000086946E+02 0.  0.
         12    1    1    2    0    0 -0.66832096603E+01  0.19044228451E+02 -0.24685412626E+02  0.31886008298E+02  0.00000000000E+00 0. -1.
         11    1    3    3    0    0 -0.10656940003E+02  0.46923186342E+01  0.70930200588E+01  0.13634484156E+02  0.51100000000E-03 0.  1.
        -11    1    3    3    0    0 -0.65674694918E+01 -0.15474092622E+02  0.60801737669E+01  0.17875897497E+02  0.51100000000E-03 0. -1.
        -12    1    3    3    0    0  0.23907619155E+02 -0.82624544632E+01  0.11512218800E+02  0.27791610049E+02  0.00000000000E+00 0.  1.
</event>
<event>
 7    1  0.6164995E-012  0.5930187E+02  0.7816164E-02  0.1266605E+00
        -11   -1    0    0    0    0  0.00000000000E+00  0.00000000000E+00  0.45593999997E+02  0.45594000000E+02  0.51100000000E-03 0. -1.
         11   -1    0    0    0    0 -0.00000000000E+00 -0.00000000000E+00 -0.45593999997E+02  0.45594000000E+02  0.51100000000E-03 0.  1.
    9900012    2    1    2    0    0 -0.13082729798E+02 -0.42076617862E+01 -0.28772606252E+02  0.59301872810E+02  0.49999870116E+02 0.  0.
         12    1    1    2    0    0  0.13082729798E+02  0.42076617862E+01  0.28772606252E+02  0.31886127190E+02  0.00000000000E+00 0. -1.
         11    1    3    3    0    0 -0.41254979867E+00  0.67354343774E+01 -0.20352195983E+01  0.70482900525E+01  0.51100000000E-03 0. -1.
        -11    1    3    3    0    0 -0.34982693995E+00 -0.11818383368E+02 -0.35297976067E+02  0.37225578289E+02  0.51100000000E-03 0.  1.
        -12    1    3    3    0    0 -0.12320353059E+02  0.87528720425E+00  0.85605894133E+01  0.15028004468E+02  0.00000000000E+00 0.  1.
</event>
<event>
 7    1  0.6164995E-012  0.5930190E+02  0.7816164E-02  0.1266605E+00
        -11   -1    0    0    0    0  0.00000000000E+00  0.00000000000E+00  0.45593999997E+02  0.45594000000E+02  0.51100000000E-03 0.  1.
         11   -1    0    0    0    0 -0.00000000000E+00 -0.00000000000E+00 -0.45593999997E+02  0.45594000000E+02  0.51100000000E-03 0. -1.
    9900012    2    1    2    0    0 -0.10581227335E+02  0.29354757980E+02 -0.65619730178E+01  0.59301895223E+02  0.49999910991E+02 0.  0.
         12    1    1    2    0    0  0.10581227335E+02 -0.29354757980E+02  0.65619730178E+01  0.31886104777E+02  0.00000000000E+00 0. -1.
         11    1    3    3    0    0 -0.18781007290E+01  0.88008012222E+01  0.85635946218E+01  0.12422419958E+02  0.51100000000E-03 0.  1.
        -11    1    3    3    0    0 -0.21727732027E+02  0.81023848884E+01  0.25227584213E+00  0.23190658103E+02  0.51100000000E-03 0. -1.
        -12    1    3    3    0    0  0.13024605420E+02  0.12451571869E+02 -0.15377843482E+02  0.23688817162E+02  0.00000000000E+00 0.  1.
</event>
<event>
 7    1  0.6164995E-012  0.5930197E+02  0.7816164E-02  0.1266605E+00
        -11   -1    0    0    0    0  0.00000000000E+00  0.00000000000E+00  0.45593999997E+02  0.45594000000E+02  0.51100000000E-03 0.  1.
         11   -1    0    0    0    0 -0.00000000000E+00 -0.00000000000E+00 -0.45593999997E+02  0.45594000000E+02  0.51100000000E-03 0. -1.
    9900012    2    1    2    0    0  0.27422372122E+01  0.15916605987E+02  0.27492925754E+02  0.59301965791E+02  0.50000039691E+02 0.  0.
         12    1    1    2    0    0 -0.27422372122E+01 -0.15916605987E+02 -0.27492925754E+02  0.31886034209E+02  0.00000000000E+00 0. -1.
         11    1    3    3    0    0  0.29741932715E+01 -0.11233685266E+02  0.49772732838E+00  0.11631390417E+02  0.51100000000E-03 0. -1.
        -11    1    3    3    0    0  0.45737335024E+01 -0.41579955215E+01  0.99149630975E+01  0.11683940191E+02  0.51100000000E-03 0.  1.
         12    1    3    3    0    0 -0.48056895617E+01  0.31308286775E+02  0.17080235328E+02  0.35986635183E+02  0.00000000000E+00 0. -1.
</event>
<event>
 7    1  0.6164995E-012  0.5930192E+02  0.7816164E-02  0.1266605E+00
        -11   -1    0    0    0    0  0.00000000000E+00  0.00000000000E+00  0.45593999997E+02  0.45594000000E+02  0.51100000000E-03 0.  1.
         11   -1    0    0    0    0 -0.00000000000E+00 -0.00000000000E+00 -0.45593999997E+02  0.45594000000E+02  0.51100000000E-03 0. -1.
    9900012    2    1    2    0    0  0.39977547298E+01  0.35878392887E+01  0.31430358921E+02  0.59301920035E+02  0.49999956243E+02 0.  0.
         12    1    1    2    0    0 -0.39977547298E+01 -0.35878392887E+01 -0.31430358921E+02  0.31886079965E+02  0.00000000000E+00 0. -1.
         11    1    3    3    0    0 -0.22416791539E+01  0.74302724410E+01  0.12820891437E+02  0.14986972058E+02  0.51100000000E-03 0. -1.
        -11    1    3    3    0    0 -0.14788146534E+02 -0.81499203605E+01  0.16623406381E+01  0.16966845801E+02  0.51100000000E-03 0.  1.
        -12    1    3    3    0    0  0.21027580417E+02  0.43074872082E+01  0.16947126846E+02  0.27348102176E+02  0.00000000000E+00 0.  1.
</event>
<event>
 7    1  0.6164995E-012  0.5930194E+02  0.7816164E-02  0.1266605E+00
        -11   -1    0    0    0    0  0.00000000000E+00  0.00000000000E+00  0.45593999997E+02  0.45594000000E+02  0.51100000000E-03 0.  1.
         11   -1    0    0    0    0 -0.00000000000E+00 -0.00000000000E+00 -0.45593999997E+02  0.45594000000E+02  0.51100000000E-03 0. -1.
    9900012    2    1    2    0    0 -0.34140881650E+01  0.83014842832E+01  0.30596576349E+02  0.59301935276E+02  0.49999984040E+02 0.  0.
         12    1    1    2    0    0  0.34140881650E+01 -0.83014842832E+01 -0.30596576349E+02  0.31886064724E+02  0.00000000000E+00 0. -1.
         11    1    3    3    0    0  0.25997220655E+01  0.12544853290E+02  0.12559444810E+02  0.17940779054E+02  0.51100000000E-03 0. -1.
        -11    1    3    3    0    0  0.41828274568E+01 -0.12238126175E+02  0.23872394553E+02  0.27150672178E+02  0.51100000000E-03 0.  1.
        -12    1    3    3    0    0 -0.10196637687E+02  0.79947571681E+01 -0.58352630143E+01  0.14210484043E+02  0.00000000000E+00 0.  1.
</event>
<event>
 7    1  0.6164995E-012  0.5930195E+02  0.7816164E-02  0.1266605E+00
        -11   -1    0    0    0    0  0.00000000000E+00  0.00000000000E+00  0.45593999997E+02  0.45594000000E+02  0.51100000000E-03 0. -1.
         11   -1    0    0    0    0 -0.00000000000E+00 -0.00000000000E+00 -0.45593999997E+02  0.45594000000E+02  0.51100000000E-03 0.  1.
    9900012    2    1    2    0    0  0.41776315812E+00 -0.31883317021E+02  0.75690796387E-02  0.59301945249E+02  0.50000002227E+02 0.  0.
         12    1    1    2    0    0 -0.41776315812E+00  0.31883317021E+02 -0.75690796387E-02  0.31886054751E+02  0.00000000000E+00 0. -1.
         11    1    3    3    0    0  0.15939960864E+02 -0.99716201087E+01 -0.56418573108E+01  0.19630234693E+02  0.51100000000E-03 0. -1.
        -11    1    3    3    0    0  0.24893911574E+01 -0.12266383874E+02 -0.82227658905E+01  0.14975817868E+02  0.51100000000E-03 0.  1.
         12    1    3    3    0    0 -0.18011588863E+02 -0.96453130381E+01  0.13872192281E+02  0.24695892688E+02  0.00000000000E+00 0. -1.
</event>
<event>
 7    1  0.6164995E-012  0.5930198E+02  0.7816164E-02  0.1266605E+00
        -11   -1    0    0    0    0  0.00000000000E+00  0.00000000000E+00  0.45593999997E+02  0.45594000000E+02  0.51100000000E-03 0. -1.
         11   -1    0    0    0    0 -0.00000000000E+00 -0.00000000000E+00 -0.45593999997E+02  0.45594000000E+02  0.51100000000E-03 0.  1.
    9900012    2    1    2    0    0 -0.28282903388E+02 -0.10338163866E+02 -0.10484174278E+02  0.59301981646E+02  0.50000068607E+02 0.  0.
         12    1    1    2    0    0  0.28282903388E+02  0.10338163866E+02  0.10484174278E+02  0.31886018354E+02  0.00000000000E+00 0. -1.
         11    1    3    3    0    0  0.79770961551E+01  0.76653726932E+01 -0.69237235578E+01  0.13051051673E+02  0.51100000000E-03 0. -1.
        -11    1    3    3    0    0 -0.49830831264E+01 -0.13613795235E+02 -0.30745296308E+00  0.14500381572E+02  0.51100000000E-03 0.  1.
        -12    1    3    3    0    0 -0.31276916416E+02 -0.43897413242E+01 -0.32529977569E+01  0.31750548402E+02  0.00000000000E+00 0.  1.
</event>
<event>
 7    1  0.6164995E-012  0.5930195E+02  0.7816164E-02  0.1266605E+00
        -11   -1    0    0    0    0  0.00000000000E+00  0.00000000000E+00  0.45593999997E+02  0.45594000000E+02  0.51100000000E-03 0.  1.
         11   -1    0    0    0    0 -0.00000000000E+00 -0.00000000000E+00 -0.45593999997E+02  0.45594000000E+02  0.51100000000E-03 0. -1.
    9900012    2    1    2    0    0  0.25739031160E+02 -0.15543947089E+02 -0.10611714111E+02  0.59301945171E+02  0.50000002085E+02 0.  0.
         12    1    1    2    0    0 -0.25739031160E+02  0.15543947089E+02  0.10611714111E+02  0.31886054829E+02  0.00000000000E+00 0. -1.
         11    1    3    3    0    0  0.32029543394E+02 -0.16802867897E+02 -0.20659940494E+02  0.41654065361E+02  0.51100000000E-03 0. -1.
        -11    1    3    3    0    0 -0.20928683600E+01 -0.57905764932E+01  0.55591247197E+01  0.82954651471E+01  0.51100000000E-03 0.  1.
        -12    1    3    3    0    0 -0.41976438736E+01  0.70494973009E+01  0.44891016640E+01  0.93524146633E+01  0.00000000000E+00 0.  1.
</event>
<event>
 7    1  0.6164995E-012  0.5930195E+02  0.7816164E-02  0.1266605E+00
        -11   -1    0    0    0    0  0.00000000000E+00  0.00000000000E+00  0.45593999997E+02  0.45594000000E+02  0.51100000000E-03 0. -1.
         11   -1    0    0    0    0 -0.00000000000E+00 -0.00000000000E+00 -0.45593999997E+02  0.45594000000E+02  0.51100000000E-03 0.  1.
    9900012    2    1    2    0    0 -0.17704678289E+02  0.23712660624E+02 -0.11873261586E+02  0.59301949008E+02  0.50000009083E+02 0.  0.
         12    1    1    2    0    0  0.17704678289E+02 -0.23712660624E+02  0.11873261586E+02  0.31886050992E+02  0.00000000000E+00 0. -1.
         11    1    3    3    0    0  0.39266710461E+01  0.47551377832E+01  0.90999526928E+01  0.10992689394E+02  0.51100000000E-03 0. -1.
        -11    1    3    3    0    0 -0.54671042572E+01  0.17343650206E+02  0.39027240071E+01  0.18598996918E+02  0.51100000000E-03 0.  1.
        -12    1    3    3    0    0 -0.16164245078E+02  0.16138726345E+01 -0.24875938286E+02  0.29710262695E+02  0.00000000000E+00 0.  1.
</event>
<event>
 7    1  0.6164995E-012  0.5930193E+02  0.7816164E-02  0.1266605E+00
        -11   -1    0    0    0    0  0.00000000000E+00  0.00000000000E+00  0.45593999997E+02  0.45594000000E+02  0.51100000000E-03 0.  1.
         11   -1    0    0    0    0 -0.00000000000E+00 -0.00000000000E+00 -0.45593999997E+02  0.45594000000E+02  0.51100000000E-03 0. -1.
    9900012    2    1    2    0    0  0.20889344926E+02 -0.91146384861E+01  0.22299772691E+02  0.59301933635E+02  0.49999981045E+02 0.  0.
         12    1    1    2    0    0 -0.20889344926E+02  0.91146384861E+01 -0.22299772691E+02  0.31886066365E+02  0.00000000000E+00 0. -1.
         11    1    3    3    0    0  0.39059404675E+01 -0.45298685013E+01  0.43273604221E+01  0.73825556590E+01  0.51100000000E-03 0. -1.
        -11    1    3    3    0    0  0.23720197289E+02  0.71635318865E+00 -0.76240091332E+01  0.24925618083E+02  0.51100000000E-03 0.  1.
         12    1    3    3    0    0 -0.67367928297E+01 -0.53011231735E+01  0.25596421402E+02  0.26993759892E+02  0.00000000000E+00 0. -1.
</event>
<event>
 7    1  0.6164995E-012  0.5930196E+02  0.7816164E-02  0.1266605E+00
        -11   -1    0    0    0    0  0.00000000000E+00  0.00000000000E+00  0.45593999997E+02  0.45594000000E+02  0.51100000000E-03 0.  1.
         11   -1    0    0    0    0 -0.00000000000E+00 -0.00000000000E+00 -0.45593999997E+02  0.45594000000E+02  0.51100000000E-03 0. -1.
    9900012    2    1    2    0    0  0.31845802930E+02 -0.15407072328E+01 -0.43658458908E+00  0.59301959965E+02  0.50000029065E+02 0.  0.
         12    1    1    2    0    0 -0.31845802930E+02  0.15407072328E+01  0.43658458908E+00  0.31886040035E+02  0.00000000000E+00 0. -1.
         11    1    3    3    0    0  0.10159813581E+02 -0.15089829226E+02 -0.99943250770E+01  0.20755994124E+02  0.51100000000E-03 0. -1.
        -11    1    3    3    0    0 -0.59008294708E+01 -0.11884491544E+01  0.22568795889E+01  0.64285072587E+01  0.51100000000E-03 0.  1.
        -12    1    3    3    0    0  0.27586818820E+02  0.14737571147E+02  0.73008608990E+01  0.32117458582E+02  0.00000000000E+00 0.  1.
</event>
<event>
 7    1  0.6164995E-012  0.5930190E+02  0.7816164E-02  0.1266605E+00
        -11   -1    0    0    0    0  0.00000000000E+00  0.00000000000E+00  0.45593999997E+02  0.45594000000E+02  0.51100000000E-03 0.  1.
         11   -1    0    0    0    0 -0.00000000000E+00 -0.00000000000E+00 -0.45593999997E+02  0.45594000000E+02  0.51100000000E-03 0. -1.
    9900012    2    1    2    0    0  0.24219842547E+02  0.20382120947E+02  0.38329616908E+01  0.59301902361E+02  0.49999924010E+02 0.  0.
         12    1    1    2    0    0 -0.24219842547E+02 -0.20382120947E+02 -0.38329616908E+01  0.31886097639E+02  0.00000000000E+00 0. -1.
         11    1    3    3    0    0  0.16902762228E+01  0.12751659305E+02 -0.99930620275E+01  0.16288742667E+02  0.51100000000E-03 0. -1.
        -11    1    3    3    0    0 -0.58570509950E+01  0.86233510807E+01  0.98323973219E+01  0.14329803473E+02  0.51100000000E-03 0.  1.
         12    1    3    3    0    0  0.28386617319E+02 -0.99288943856E+00  0.39936263964E+01  0.28683356221E+02  0.00000000000E+00 0. -1.
</event>
<event>
 7    1  0.6164995E-012  0.5930194E+02  0.7816164E-02  0.1266605E+00
        -11   -1    0    0    0    0  0.00000000000E+00  0.00000000000E+00  0.45593999997E+02  0.45594000000E+02  0.51100000000E-03 0.  1.
         11   -1    0    0    0    0 -0.00000000000E+00 -0.00000000000E+00 -0.45593999997E+02  0.45594000000E+02  0.51100000000E-03 0. -1.
    9900012    2    1    2    0    0  0.99680756600E+01  0.29752908622E+02  0.56677052222E+01  0.59301937428E+02  0.49999987964E+02 0.  0.
         12    1    1    2    0    0 -0.99680756600E+01 -0.29752908622E+02 -0.56677052222E+01  0.31886062572E+02  0.00000000000E+00 0. -1.
         11    1    3    3    0    0  0.12116761671E+02 -0.42025950269E+01  0.79323244566E-01  0.12825131999E+02  0.51100000000E-03 0. -1.
        -11    1    3    3    0    0  0.54298281816E+00  0.26736548231E+02 -0.10428302965E+02  0.28703437854E+02  0.51100000000E-03 0.  1.
         12    1    3    3    0    0 -0.26916688293E+01  0.72189554178E+01  0.16016684943E+02  0.17773367575E+02  0.00000000000E+00 0. -1.
</event>
<event>
 7    1  0.6164995E-012  0.5930193E+02  0.7816164E-02  0.1266605E+00
        -11   -1    0    0    0    0  0.00000000000E+00  0.00000000000E+00  0.45593999997E+02  0.45594000000E+02  0.51100000000E-03 0.  1.
         11   -1    0    0    0    0 -0.00000000000E+00 -0.00000000000E+00 -0.45593999997E+02  0.45594000000E+02  0.51100000000E-03 0. -1.
    9900012    2    1    2    0    0 -0.11301004268E+02  0.57573816024E+01  0.29255107198E+02  0.59301930353E+02  0.49999975060E+02 0.  0.
         12    1    1    2    0    0  0.11301004268E+02 -0.57573816024E+01 -0.29255107198E+02  0.31886069647E+02  0.00000000000E+00 0. -1.
         11    1    3    3    0    0 -0.45317049526E+01  0.48837596716E+01 -0.34592480362E+01  0.75069205101E+01  0.51100000000E-03 0. -1.
        -11    1    3    3    0    0  0.83570045474E+01  0.16259115930E+02  0.11881768285E+02  0.21803091379E+02  0.51100000000E-03 0.  1.
        -12    1    3    3    0    0 -0.15126303863E+02 -0.15385493999E+02  0.20832586949E+02  0.29991918464E+02  0.00000000000E+00 0.  1.
</event>
<event>
 7    1  0.6164995E-012  0.5930195E+02  0.7816164E-02  0.1266605E+00
        -11   -1    0    0    0    0  0.00000000000E+00  0.00000000000E+00  0.45593999997E+02  0.45594000000E+02  0.51100000000E-03 0. -1.
         11   -1    0    0    0    0 -0.00000000000E+00 -0.00000000000E+00 -0.45593999997E+02  0.45594000000E+02  0.51100000000E-03 0.  1.
    9900012    2    1    2    0    0 -0.30352897836E+02  0.60312724806E+00  0.97497656001E+01  0.59301951345E+02  0.50000013346E+02 0.  0.
         12    1    1    2    0    0  0.30352897836E+02 -0.60312724806E+00 -0.97497656001E+01  0.31886048655E+02  0.00000000000E+00 0. -1.
         11    1    3    3    0    0 -0.26874656759E+01  0.12948186571E+01  0.11437695524E+02  0.11820317520E+02  0.51100000000E-03 0. -1.
        -11    1    3    3    0    0  0.95089261979E+01  0.27131428888E+01  0.15597174819E+01  0.10010671339E+02  0.51100000000E-03 0.  1.
        -12    1    3    3    0    0 -0.37174358358E+02 -0.34048342978E+01 -0.32476474062E+01  0.37470962486E+02  0.00000000000E+00 0.  1.
</event>
<event>
 7    1  0.6164995E-012  0.5930194E+02  0.7816164E-02  0.1266605E+00
        -11   -1    0    0    0    0  0.00000000000E+00  0.00000000000E+00  0.45593999997E+02  0.45594000000E+02  0.51100000000E-03 0.  1.
         11   -1    0    0    0    0 -0.00000000000E+00 -0.00000000000E+00 -0.45593999997E+02  0.45594000000E+02  0.51100000000E-03 0. -1.
    9900012    2    1    2    0    0 -0.95776660956E+01  0.69140618804E+01  0.29617306144E+02  0.59301940934E+02  0.49999994358E+02 0.  0.
         12    1    1    2    0    0  0.95776660956E+01 -0.69140618804E+01 -0.29617306144E+02  0.31886059066E+02  0.00000000000E+00 0. -1.
         11    1    3    3    0    0 -0.42402310705E+01 -0.26062497205E+01  0.80265588721E-01  0.49778047332E+01  0.51100000000E-03 0. -1.
        -11    1    3    3    0    0  0.13318522820E+01 -0.27046037168E+01  0.37939955755E+02  0.38059544857E+02  0.51100000000E-03 0.  1.
         12    1    3    3    0    0 -0.66692873071E+01  0.12224915318E+02 -0.84029152004E+01  0.16264591344E+02  0.00000000000E+00 0. -1.
</event>
<event>
 7    1  0.6164995E-012  0.5930195E+02  0.7816164E-02  0.1266605E+00
        -11   -1    0    0    0    0  0.00000000000E+00  0.00000000000E+00  0.45593999997E+02  0.45594000000E+02  0.51100000000E-03 0.  1.
         11   -1    0    0    0    0 -0.00000000000E+00 -0.00000000000E+00 -0.45593999997E+02  0.45594000000E+02  0.51100000000E-03 0. -1.
    9900012    2    1    2    0    0  0.10652452990E+02  0.34263187867E+01  0.29858092565E+02  0.59301951220E+02  0.50000013118E+02 0.  0.
         12    1    1    2    0    0 -0.10652452990E+02 -0.34263187867E+01 -0.29858092565E+02  0.31886048780E+02  0.00000000000E+00 0. -1.
         11    1    3    3    0    0  0.15483629728E+02  0.18031271663E+01 -0.88272151611E+01  0.17914066677E+02  0.51100000000E-03 0. -1.
        -11    1    3    3    0    0  0.42100073486E+01 -0.94367815172E+00  0.60815995044E+01  0.74565771720E+01  0.51100000000E-03 0.  1.
        -12    1    3    3    0    0 -0.90411840867E+01  0.25668697721E+01  0.32603708222E+02  0.33931307372E+02  0.00000000000E+00 0.  1.
</event>
<event>
 7    1  0.6164995E-012  0.5930212E+02  0.7816164E-02  0.1266604E+00
        -11   -1    0    0    0    0  0.00000000000E+00  0.00000000000E+00  0.45593999997E+02  0.45594000000E+02  0.51100000000E-03 0.  1.
         11   -1    0    0    0    0 -0.00000000000E+00 -0.00000000000E+00 -0.45593999997E+02  0.45594000000E+02  0.51100000000E-03 0. -1.
    9900012    2    1    2    0    0  0.12607998021E+02  0.19082813382E+02  0.22216972597E+02  0.59302121432E+02  0.50000323542E+02 0.  0.
         12    1    1    2    0    0 -0.12607998021E+02 -0.19082813382E+02 -0.22216972597E+02  0.31885878568E+02  0.00000000000E+00 0. -1.
         11    1    3    3    0    0  0.15877067119E+02 -0.36320840925E-01  0.79456483076E+01  0.17754320792E+02  0.51100000000E-03 0. -1.
        -11    1    3    3    0    0  0.33280063008E+01  0.27495642947E+01  0.21899487550E+02  0.22320915863E+02  0.51100000000E-03 0.  1.
         12    1    3    3    0    0 -0.65970753991E+01  0.16369569929E+02 -0.76281632609E+01  0.19226884776E+02  0.00000000000E+00 0. -1.
</event>
<event>
 7    1  0.6164995E-012  0.5930195E+02  0.7816164E-02  0.1266605E+00
        -11   -1    0    0    0    0  0.00000000000E+00  0.00000000000E+00  0.45593999997E+02  0.45594000000E+02  0.51100000000E-03 0. -1.
         11   -1    0    0    0    0 -0.00000000000E+00 -0.00000000000E+00 -0.45593999997E+02  0.45594000000E+02  0.51100000000E-03 0.  1.
    9900012    2    1    2    0    0  0.14407614105E+02 -0.24685181216E+02 -0.14134460794E+02  0.59301945089E+02  0.50000001935E+02 0.  0.
         12    1    1    2    0    0 -0.14407614105E+02  0.24685181216E+02  0.14134460794E+02  0.31886054911E+02  0.00000000000E+00 0. -1.
         11    1    3    3    0    0  0.15081094528E+02 -0.18207340939E+00 -0.69603343667E+01  0.16610804245E+02  0.51100000000E-03 0. -1.
        -11    1    3    3    0    0  0.61128608030E+01 -0.18106577956E+01 -0.16149309069E+02  0.17362192619E+02  0.51100000000E-03 0.  1.
         12    1    3    3    0    0 -0.67863412265E+01 -0.22692450011E+02  0.89751826416E+01  0.25328948225E+02  0.00000000000E+00 0. -1.
</event>
<event>
 7    1  0.6164995E-012  0.5930192E+02  0.7816164E-02  0.1266605E+00
        -11   -1    0    0    0    0  0.00000000000E+00  0.00000000000E+00  0.45593999997E+02  0.45594000000E+02  0.51100000000E-03 0.  1.
         11   -1    0    0    0    0 -0.00000000000E+00 -0.00000000000E+00 -0.45593999997E+02  0.45594000000E+02  0.51100000000E-03 0. -1.
    9900012    2    1    2    0    0 -0.37008920179E+01  0.11417522300E+02  0.29540911130E+02  0.59301923923E+02  0.49999963334E+02 0.  0.
         12    1    1    2    0    0  0.37008920179E+01 -0.11417522300E+02 -0.29540911130E+02  0.31886076077E+02  0.00000000000E+00 0. -1.
         11    1    3    3    0    0 -0.11439665434E+02 -0.96984983433E+01  0.24326798459E+02  0.28578312387E+02  0.51100000000E-03 0. -1.
        -11    1    3    3    0    0  0.21515331414E+01  0.15456040063E+01  0.95533213999E+01  0.99138255297E+01  0.51100000000E-03 0.  1.
        -12    1    3    3    0    0  0.55872402751E+01  0.19570416637E+02 -0.43392087294E+01  0.20809786006E+02  0.00000000000E+00 0.  1.
</event>
<event>
 7    1  0.6164995E-012  0.5930194E+02  0.7816164E-02  0.1266605E+00
        -11   -1    0    0    0    0  0.00000000000E+00  0.00000000000E+00  0.45593999997E+02  0.45594000000E+02  0.51100000000E-03 0.  1.
         11   -1    0    0    0    0 -0.00000000000E+00 -0.00000000000E+00 -0.45593999997E+02  0.45594000000E+02  0.51100000000E-03 0. -1.
    9900012    2    1    2    0    0 -0.73043676553E+01 -0.29953736545E+02  0.81326785145E+01  0.59301943805E+02  0.49999999594E+02 0.  0.
         12    1    1    2    0    0  0.73043676553E+01  0.29953736545E+02 -0.81326785145E+01  0.31886056195E+02  0.00000000000E+00 0. -1.
         11    1    3    3    0    0 -0.97574730120E+01 -0.32586157874E+02  0.54880237077E+00  0.34020099190E+02  0.51100000000E-03 0. -1.
        -11    1    3    3    0    0 -0.10693048046E+02  0.21028492319E+01  0.25294492529E+01  0.11187554031E+02  0.51100000000E-03 0.  1.
         12    1    3    3    0    0  0.13146153403E+02  0.52957209775E+00  0.50544268908E+01  0.14094290585E+02  0.00000000000E+00 0. -1.
</event>
<event>
 7    1  0.6164995E-012  0.5930193E+02  0.7816164E-02  0.1266605E+00
        -11   -1    0    0    0    0  0.00000000000E+00  0.00000000000E+00  0.45593999997E+02  0.45594000000E+02  0.51100000000E-03 0. -1.
         11   -1    0    0    0    0 -0.00000000000E+00 -0.00000000000E+00 -0.45593999997E+02  0.45594000000E+02  0.51100000000E-03 0.  1.
    9900012    2    1    2    0    0  0.27462880065E+02  0.14433558682E+02  0.73609996934E+01  0.59301926015E+02  0.49999967149E+02 0.  0.
         12    1    1    2    0    0 -0.27462880065E+02 -0.14433558682E+02 -0.73609996934E+01  0.31886073985E+02  0.00000000000E+00 0. -1.
         11    1    3    3    0    0  0.12275956373E+02  0.14121920215E+02  0.14103309478E+02  0.23431412120E+02  0.51100000000E-03 0. -1.
        -11    1    3    3    0    0  0.18141030902E+02  0.98449566876E+01  0.41967695644E+01  0.21062598353E+02  0.51100000000E-03 0.  1.
         12    1    3    3    0    0 -0.29541072096E+01 -0.95333182207E+01 -0.10939079349E+02  0.14807915542E+02  0.00000000000E+00 0. -1.
</event>
<event>
 7    1  0.6164995E-012  0.5930205E+02  0.7816164E-02  0.1266604E+00
        -11   -1    0    0    0    0  0.00000000000E+00  0.00000000000E+00  0.45593999997E+02  0.45594000000E+02  0.51100000000E-03 0. -1.
         11   -1    0    0    0    0 -0.00000000000E+00 -0.00000000000E+00 -0.45593999997E+02  0.45594000000E+02  0.51100000000E-03 0.  1.
    9900012    2    1    2    0    0  0.26093810740E+02  0.91800670755E+01 -0.15860420398E+02  0.59302054418E+02  0.50000201326E+02 0.  0.
         12    1    1    2    0    0 -0.26093810740E+02 -0.91800670755E+01  0.15860420398E+02  0.31885945582E+02  0.00000000000E+00 0. -1.
         11    1    3    3    0    0  0.33248230708E+02  0.85877173731E+01 -0.24359372092E+02  0.42101932781E+02  0.51100000000E-03 0.  1.
        -11    1    3    3    0    0 -0.49223183700E+01  0.59448717122E+01  0.10952687032E+01  0.77955327979E+01  0.51100000000E-03 0. -1.
        -12    1    3    3    0    0 -0.22321015987E+01 -0.53525220099E+01  0.74036829907E+01  0.94045888395E+01  0.00000000000E+00 0.  1.
</event>
<event>
 7    1  0.6164995E-012  0.5930192E+02  0.7816164E-02  0.1266605E+00
        -11   -1    0    0    0    0  0.00000000000E+00  0.00000000000E+00  0.45593999997E+02  0.45594000000E+02  0.51100000000E-03 0.  1.
         11   -1    0    0    0    0 -0.00000000000E+00 -0.00000000000E+00 -0.45593999997E+02  0.45594000000E+02  0.51100000000E-03 0. -1.
    9900012    2    1    2    0    0  0.44275224429E+01 -0.25302651523E+02  0.18891669482E+02  0.59301916752E+02  0.49999950256E+02 0.  0.
         12    1    1    2    0    0 -0.44275224429E+01  0.25302651523E+02 -0.18891669482E+02  0.31886083248E+02  0.00000000000E+00 0. -1.
         11    1    3    3    0    0 -0.83539866979E+01  0.76153852092E+01 -0.49406868806E+00  0.11314914483E+02  0.51100000000E-03 0. -1.
        -11    1    3    3    0    0  0.13096493820E+02 -0.23808092373E+02  0.68287322868E+00  0.27181054595E+02  0.51100000000E-03 0.  1.
         12    1    3    3    0    0 -0.31498467879E+00 -0.91099443596E+01  0.18702864942E+02  0.20805947674E+02  0.00000000000E+00 0. -1.
</event>
<event>
 7    1  0.6164995E-012  0.5930195E+02  0.7816164E-02  0.1266605E+00
        -11   -1    0    0    0    0  0.00000000000E+00  0.00000000000E+00  0.45593999997E+02  0.45594000000E+02  0.51100000000E-03 0.  1.
         11   -1    0    0    0    0 -0.00000000000E+00 -0.00000000000E+00 -0.45593999997E+02  0.45594000000E+02  0.51100000000E-03 0. -1.
    9900012    2    1    2    0    0  0.28213243599E+02  0.14604732348E+02 -0.27267326495E+01  0.59301946744E+02  0.50000004953E+02 0.  0.
         12    1    1    2    0    0 -0.28213243599E+02 -0.14604732348E+02  0.27267326495E+01  0.31886053256E+02  0.00000000000E+00 0. -1.
         11    1    3    3    0    0  0.64120764597E+01 -0.10202120694E+02  0.53597554443E+01  0.13188061642E+02  0.51100000000E-03 0. -1.
        -11    1    3    3    0    0  0.20781614763E+02  0.20967720083E+02  0.71442473071E+01  0.30373690383E+02  0.51100000000E-03 0.  1.
         12    1    3    3    0    0  0.10195523760E+01  0.38391329590E+01 -0.15230735401E+02  0.15740194719E+02  0.00000000000E+00 0. -1.
</event>
<event>
 7    1  0.6164995E-012  0.5930195E+02  0.7816164E-02  0.1266605E+00
        -11   -1    0    0    0    0  0.00000000000E+00  0.00000000000E+00  0.45593999997E+02  0.45594000000E+02  0.51100000000E-03 0.  1.
         11   -1    0    0    0    0 -0.00000000000E+00 -0.00000000000E+00 -0.45593999997E+02  0.45594000000E+02  0.51100000000E-03 0. -1.
    9900012    2    1    2    0    0 -0.11132963382E+02 -0.47663127234E+01  0.29496772704E+02  0.59301949592E+02  0.50000010149E+02 0.  0.
         12    1    1    2    0    0  0.11132963382E+02  0.47663127234E+01 -0.29496772704E+02  0.31886050408E+02  0.00000000000E+00 0. -1.
         11    1    3    3    0    0 -0.16911161187E+02 -0.15112299741E+02  0.30185207673E+02  0.37756002684E+02  0.51100000000E-03 0. -1.
        -11    1    3    3    0    0 -0.55988651438E+01 -0.11388692714E-01  0.19643056983E+01  0.59334574860E+01  0.51100000000E-03 0.  1.
         12    1    3    3    0    0  0.11377062948E+02  0.10357375710E+02 -0.26527406671E+01  0.15612489423E+02  0.00000000000E+00 0. -1.
</event>
<event>
 7    1  0.6164995E-012  0.5930185E+02  0.7816164E-02  0.1266605E+00
        -11   -1    0    0    0    0  0.00000000000E+00  0.00000000000E+00  0.45593999997E+02  0.45594000000E+02  0.51100000000E-03 0. -1.
         11   -1    0    0    0    0 -0.00000000000E+00 -0.00000000000E+00 -0.45593999997E+02  0.45594000000E+02  0.51100000000E-03 0.  1.
    9900012    2    1    2    0    0  0.19109993606E+02  0.10572436737E+01 -0.25503274252E+02  0.59301849128E+02  0.49999826926E+02 0.  0.
         12    1    1    2    0    0 -0.19109993606E+02 -0.10572436737E+01  0.25503274252E+02  0.31886150872E+02  0.00000000000E+00 0. -1.
         11    1    3    3    0    0  0.13116788554E+02  0.70977420537E+01  0.11976304583E+02  0.19127466010E+02  0.51100000000E-03 0. -1.
        -11    1    3    3    0    0  0.65059709091E+01 -0.67367125211E+01 -0.15036184446E+02  0.17714338712E+02  0.51100000000E-03 0.  1.
        -12    1    3    3    0    0 -0.51276585716E+00  0.69621414111E+00 -0.22443394390E+02  0.22460044405E+02  0.00000000000E+00 0.  1.
</event>
<event>
 7    1  0.6164995E-012  0.5930195E+02  0.7816164E-02  0.1266605E+00
        -11   -1    0    0    0    0  0.00000000000E+00  0.00000000000E+00  0.45593999997E+02  0.45594000000E+02  0.51100000000E-03 0. -1.
         11   -1    0    0    0    0 -0.00000000000E+00 -0.00000000000E+00 -0.45593999997E+02  0.45594000000E+02  0.51100000000E-03 0.  1.
    9900012    2    1    2    0    0 -0.25453190807E+02 -0.59360094116E+01 -0.18265239067E+02  0.59301951512E+02  0.50000013650E+02 0.  0.
         12    1    1    2    0    0  0.25453190807E+02  0.59360094116E+01  0.18265239067E+02  0.31886048488E+02  0.00000000000E+00 0. -1.
         11    1    3    3    0    0 -0.70669378667E+01 -0.14800349973E+01 -0.15886891011E+02  0.17450656740E+02  0.51100000000E-03 0. -1.
        -11    1    3    3    0    0 -0.29701943149E+02 -0.58990046480E+01 -0.47183985969E+00  0.30285744432E+02  0.51100000000E-03 0.  1.
         12    1    3    3    0    0  0.11315690209E+02  0.14430302337E+01 -0.19065081964E+01  0.11565550340E+02  0.00000000000E+00 0. -1.
</event>
<event>
 7    1  0.6164995E-012  0.5930197E+02  0.7816164E-02  0.1266605E+00
        -11   -1    0    0    0    0  0.00000000000E+00  0.00000000000E+00  0.45593999997E+02  0.45594000000E+02  0.51100000000E-03 0.  1.
         11   -1    0    0    0    0 -0.00000000000E+00 -0.00000000000E+00 -0.45593999997E+02  0.45594000000E+02  0.51100000000E-03 0. -1.
    9900012    2    1    2    0    0 -0.16129543583E+02 -0.16300938691E+02  0.22154818933E+02  0.59301972019E+02  0.50000051050E+02 0.  0.
         12    1    1    2    0    0  0.16129543583E+02  0.16300938691E+02 -0.22154818933E+02  0.31886027981E+02  0.00000000000E+00 0. -1.
         11    1    3    3    0    0  0.19142719215E+01 -0.73570430686E+00 -0.62533608377E+01  0.65810500564E+01  0.51100000000E-03 0. -1.
        -11    1    3    3    0    0 -0.19663777680E+02 -0.66843817008E+01 -0.21286823498E+01  0.20877653129E+02  0.51100000000E-03 0.  1.
        -12    1    3    3    0    0  0.16199621754E+01 -0.88808526836E+01  0.30536862121E+02  0.31843268834E+02  0.00000000000E+00 0.  1.
</event>
<event>
 7    1  0.6164995E-012  0.5930195E+02  0.7816164E-02  0.1266605E+00
        -11   -1    0    0    0    0  0.00000000000E+00  0.00000000000E+00  0.45593999997E+02  0.45594000000E+02  0.51100000000E-03 0.  1.
         11   -1    0    0    0    0 -0.00000000000E+00 -0.00000000000E+00 -0.45593999997E+02  0.45594000000E+02  0.51100000000E-03 0. -1.
    9900012    2    1    2    0    0 -0.14797381971E+02  0.18463741074E+02  0.21373997368E+02  0.59301952720E+02  0.50000015852E+02 0.  0.
         12    1    1    2    0    0  0.14797381971E+02 -0.18463741074E+02 -0.21373997368E+02  0.31886047280E+02  0.00000000000E+00 0. -1.
         11    1    3    3    0    0  0.73410417400E+01  0.59160903476E+01 -0.91954909957E+01  0.13169968631E+02  0.51100000000E-03 0. -1.
        -11    1    3    3    0    0 -0.19428091920E+02  0.19057647169E+01  0.81244669171E+01  0.21144494739E+02  0.51100000000E-03 0.  1.
        -12    1    3    3    0    0 -0.27103317910E+01  0.10641886009E+02  0.22445021447E+02  0.24987489350E+02  0.00000000000E+00 0.  1.
</event>
<event>
 7    1  0.6164995E-012  0.5930206E+02  0.7816164E-02  0.1266604E+00
        -11   -1    0    0    0    0  0.00000000000E+00  0.00000000000E+00  0.45593999997E+02  0.45594000000E+02  0.51100000000E-03 0. -1.
         11   -1    0    0    0    0 -0.00000000000E+00 -0.00000000000E+00 -0.45593999997E+02  0.45594000000E+02  0.51100000000E-03 0.  1.
    9900012    2    1    2    0    0  0.12849343663E+02  0.94061930636E+01 -0.27624828306E+02  0.59302058906E+02  0.50000209510E+02 0.  0.
         12    1    1    2    0    0 -0.12849343663E+02 -0.94061930636E+01  0.27624828306E+02  0.31885941094E+02  0.00000000000E+00 0. -1.
         11    1    3    3    0    0  0.60766673439E+01 -0.11847490528E+02 -0.93433863429E+01  0.16266154629E+02  0.51100000000E-03 0. -1.
        -11    1    3    3    0    0  0.23558014404E+01  0.10895178003E+02 -0.26727981400E+02  0.28959276478E+02  0.51100000000E-03 0.  1.
         12    1    3    3    0    0  0.44168748787E+01  0.10358505588E+02  0.84465394370E+01  0.14076627798E+02  0.00000000000E+00 0. -1.
</event>
<event>
 7    1  0.6164995E-012  0.5930198E+02  0.7816164E-02  0.1266605E+00
        -11   -1    0    0    0    0  0.00000000000E+00  0.00000000000E+00  0.45593999997E+02  0.45594000000E+02  0.51100000000E-03 0.  1.
         11   -1    0    0    0    0 -0.00000000000E+00 -0.00000000000E+00 -0.45593999997E+02  0.45594000000E+02  0.51100000000E-03 0. -1.
    9900012    2    1    2    0    0 -0.16403199051E+02  0.18237157005E+02  0.20373010807E+02  0.59301977920E+02  0.50000061812E+02 0.  0.
         12    1    1    2    0    0  0.16403199051E+02 -0.18237157005E+02 -0.20373010807E+02  0.31886022080E+02  0.00000000000E+00 0. -1.
         11    1    3    3    0    0 -0.23347146789E+02  0.15772039626E+02  0.30522520359E+02  0.41538786049E+02  0.51100000000E-03 0.  1.
        -11    1    3    3    0    0  0.16797182931E+01  0.17949501306E+01  0.28253118470E+01  0.37450883580E+01  0.51100000000E-03 0. -1.
         12    1    3    3    0    0  0.52642294444E+01  0.67016724805E+00 -0.12974821399E+02  0.14018103513E+02  0.00000000000E+00 0. -1.
</event>
<event>
 7    1  0.6164995E-012  0.5930198E+02  0.7816164E-02  0.1266605E+00
        -11   -1    0    0    0    0  0.00000000000E+00  0.00000000000E+00  0.45593999997E+02  0.45594000000E+02  0.51100000000E-03 0. -1.
         11   -1    0    0    0    0 -0.00000000000E+00 -0.00000000000E+00 -0.45593999997E+02  0.45594000000E+02  0.51100000000E-03 0.  1.
    9900012    2    1    2    0    0 -0.27512945148E+02 -0.15653041595E+02 -0.38390470168E+01  0.59301982000E+02  0.50000069253E+02 0.  0.
         12    1    1    2    0    0  0.27512945148E+02  0.15653041595E+02  0.38390470168E+01  0.31886018000E+02  0.00000000000E+00 0. -1.
         11    1    3    3    0    0  0.47991454626E+01 -0.58101596675E+01  0.13209539850E+01  0.76507955289E+01  0.51100000000E-03 0. -1.
        -11    1    3    3    0    0 -0.59120583136E+01 -0.20328957804E+02 -0.89651222798E+01  0.22991136916E+02  0.51100000000E-03 0.  1.
         12    1    3    3    0    0 -0.26400032297E+02  0.10486075877E+02  0.38051212780E+01  0.28660049556E+02  0.00000000000E+00 0. -1.
</event>
<event>
 7    1  0.6164995E-012  0.5930164E+02  0.7816164E-02  0.1266606E+00
        -11   -1    0    0    0    0  0.00000000000E+00  0.00000000000E+00  0.45593999997E+02  0.45594000000E+02  0.51100000000E-03 0.  1.
         11   -1    0    0    0    0 -0.00000000000E+00 -0.00000000000E+00 -0.45593999997E+02  0.45594000000E+02  0.51100000000E-03 0. -1.
    9900012    2    1    2    0    0 -0.29474541586E+02  0.12160544122E+02 -0.33549550501E+00  0.59301639401E+02  0.49999444430E+02 0.  0.
         12    1    1    2    0    0  0.29474541586E+02 -0.12160544122E+02  0.33549550501E+00  0.31886360599E+02  0.00000000000E+00 0. -1.
         11    1    3    3    0    0 -0.17797332044E+02  0.51876848539E+00  0.24277930380E+01  0.17969650190E+02  0.51100000000E-03 0. -1.
        -11    1    3    3    0    0 -0.18712521295E+02  0.76467307429E+01  0.12704977334E+02  0.23875665302E+02  0.51100000000E-03 0.  1.
         12    1    3    3    0    0  0.70353117539E+01  0.39950448935E+01 -0.15468265877E+02  0.17456323909E+02  0.00000000000E+00 0. -1.
</event>
<event>
 7    1  0.6164995E-012  0.5930218E+02  0.7816164E-02  0.1266604E+00
        -11   -1    0    0    0    0  0.00000000000E+00  0.00000000000E+00  0.45593999997E+02  0.45594000000E+02  0.51100000000E-03 0.  1.
         11   -1    0    0    0    0 -0.00000000000E+00 -0.00000000000E+00 -0.45593999997E+02  0.45594000000E+02  0.51100000000E-03 0. -1.
    9900012    2    1    2    0    0  0.22549684864E+02  0.39604710858E+01  0.22193062025E+02  0.59302178375E+02  0.50000427391E+02 0.  0.
         12    1    1    2    0    0 -0.22549684864E+02 -0.39604710858E+01 -0.22193062025E+02  0.31885821625E+02  0.00000000000E+00 0. -1.
         11    1    3    3    0    0  0.23285024721E+02  0.16862152644E+02  0.13932356716E+02  0.31947380675E+02  0.51100000000E-03 0. -1.
        -11    1    3    3    0    0  0.75202130912E+01 -0.83769481332E+00  0.10101328933E+02  0.12621100745E+02  0.51100000000E-03 0.  1.
         12    1    3    3    0    0 -0.82555529484E+01 -0.12063986745E+02 -0.18406236245E+01  0.14733696956E+02  0.00000000000E+00 0. -1.
</event>
<event>
 7    1  0.6164995E-012  0.5930211E+02  0.7816164E-02  0.1266604E+00
        -11   -1    0    0    0    0  0.00000000000E+00  0.00000000000E+00  0.45593999997E+02  0.45594000000E+02  0.51100000000E-03 0.  1.
         11   -1    0    0    0    0 -0.00000000000E+00 -0.00000000000E+00 -0.45593999997E+02  0.45594000000E+02  0.51100000000E-03 0. -1.
    9900012    2    1    2    0    0 -0.16560879932E+02  0.26433062999E+02  0.66136638295E+01  0.59302107933E+02  0.50000298924E+02 0.  0.
         12    1    1    2    0    0  0.16560879932E+02 -0.26433062999E+02 -0.66136638295E+01  0.31885892067E+02  0.00000000000E+00 0. -1.
         11    1    3    3    0    0 -0.27202168828E+01 -0.29498053071E+01  0.13983941703E+02  0.14548249278E+02  0.51100000000E-03 0. -1.
        -11    1    3    3    0    0  0.29473848507E+01  0.21732563424E+02  0.50604474609E+01  0.22507765754E+02  0.51100000000E-03 0.  1.
        -12    1    3    3    0    0 -0.16788047900E+02  0.76503048818E+01 -0.12430725334E+02  0.22246092902E+02  0.00000000000E+00 0.  1.
</event>
<event>
 7    1  0.6164995E-012  0.5930195E+02  0.7816164E-02  0.1266605E+00
        -11   -1    0    0    0    0  0.00000000000E+00  0.00000000000E+00  0.45593999997E+02  0.45594000000E+02  0.51100000000E-03 0. -1.
         11   -1    0    0    0    0 -0.00000000000E+00 -0.00000000000E+00 -0.45593999997E+02  0.45594000000E+02  0.51100000000E-03 0.  1.
    9900012    2    1    2    0    0  0.56823902692E+01  0.21221040897E+02 -0.23110565168E+02  0.59301947276E+02  0.50000005925E+02 0.  0.
         12    1    1    2    0    0 -0.56823902692E+01 -0.21221040897E+02  0.23110565168E+02  0.31886052724E+02  0.00000000000E+00 0. -1.
         11    1    3    3    0    0  0.14447173180E+02 -0.16028540492E+01  0.35445070162E+01  0.14961733999E+02  0.51100000000E-03 0. -1.
        -11    1    3    3    0    0  0.80024421620E+00  0.19065977428E+02 -0.40486358197E+01  0.19507520046E+02  0.51100000000E-03 0.  1.
        -12    1    3    3    0    0 -0.95650271271E+01  0.37579175179E+01 -0.22606436364E+02  0.24832693231E+02  0.00000000000E+00 0.  1.
</event>
<event>
 7    1  0.6164995E-012  0.5930195E+02  0.7816164E-02  0.1266605E+00
        -11   -1    0    0    0    0  0.00000000000E+00  0.00000000000E+00  0.45593999997E+02  0.45594000000E+02  0.51100000000E-03 0. -1.
         11   -1    0    0    0    0 -0.00000000000E+00 -0.00000000000E+00 -0.45593999997E+02  0.45594000000E+02  0.51100000000E-03 0.  1.
    9900012    2    1    2    0    0  0.98260719366E+01 -0.26653722050E+02  0.14482673414E+02  0.59301946339E+02  0.50000004216E+02 0.  0.
         12    1    1    2    0    0 -0.98260719366E+01  0.26653722050E+02 -0.14482673414E+02  0.31886053661E+02  0.00000000000E+00 0. -1.
         11    1    3    3    0    0 -0.34612882513E+00 -0.79496013146E+01  0.65152394605E+00  0.79837616408E+01  0.51100000000E-03 0. -1.
        -11    1    3    3    0    0  0.83718927882E+01 -0.30310764980E+02 -0.21110228306E+01  0.31516463637E+02  0.51100000000E-03 0.  1.
        -12    1    3    3    0    0  0.18003079735E+01  0.11606644244E+02  0.15942172299E+02  0.19801721062E+02  0.00000000000E+00 0.  1.
</event>
<event>
 7    1  0.6164995E-012  0.5930194E+02  0.7816164E-02  0.1266605E+00
        -11   -1    0    0    0    0  0.00000000000E+00  0.00000000000E+00  0.45593999997E+02  0.45594000000E+02  0.51100000000E-03 0. -1.
         11   -1    0    0    0    0 -0.00000000000E+00 -0.00000000000E+00 -0.45593999997E+02  0.45594000000E+02  0.51100000000E-03 0.  1.
    9900012    2    1    2    0    0 -0.26174192726E+02  0.17776211286E+02 -0.39546108731E+01  0.59301937219E+02  0.49999987582E+02 0.  0.
         12    1    1    2    0    0  0.26174192726E+02 -0.17776211286E+02  0.39546108731E+01  0.31886062781E+02  0.00000000000E+00 0. -1.
         11    1    3    3    0    0 -0.33543971143E+00  0.62890082441E+00  0.11606037739E+02  0.11627903866E+02  0.51100000000E-03 0. -1.
        -11    1    3    3    0    0  0.39701744755E+01  0.11000530184E+02  0.29364536158E+01  0.12058055805E+02  0.51100000000E-03 0.  1.
        -12    1    3    3    0    0 -0.29808927490E+02  0.61467802772E+01 -0.18497102228E+02  0.35615977548E+02  0.00000000000E+00 0.  1.
</event>
<event>
 7    1  0.6164995E-012  0.5930195E+02  0.7816164E-02  0.1266605E+00
        -11   -1    0    0    0    0  0.00000000000E+00  0.00000000000E+00  0.45593999997E+02  0.45594000000E+02  0.51100000000E-03 0. -1.
         11   -1    0    0    0    0 -0.00000000000E+00 -0.00000000000E+00 -0.45593999997E+02  0.45594000000E+02  0.51100000000E-03 0.  1.
    9900012    2    1    2    0    0 -0.23739032237E+02  0.12023155142E+02 -0.17567648439E+02  0.59301950029E+02  0.50000010944E+02 0.  0.
         12    1    1    2    0    0  0.23739032237E+02 -0.12023155142E+02  0.17567648439E+02  0.31886049971E+02  0.00000000000E+00 0. -1.
         11    1    3    3    0    0 -0.16357490807E+02  0.14551143404E+02 -0.23846245520E+02  0.32372004966E+02  0.51100000000E-03 0. -1.
        -11    1    3    3    0    0 -0.61059167154E+01  0.10897634374E+02  0.13200900606E+01  0.12561181947E+02  0.51100000000E-03 0.  1.
         12    1    3    3    0    0 -0.12756247151E+01 -0.13425622636E+02  0.49585070210E+01  0.14368763115E+02  0.00000000000E+00 0. -1.
</event>
<event>
 7    1  0.6164995E-012  0.5930192E+02  0.7816164E-02  0.1266605E+00
        -11   -1    0    0    0    0  0.00000000000E+00  0.00000000000E+00  0.45593999997E+02  0.45594000000E+02  0.51100000000E-03 0.  1.
         11   -1    0    0    0    0 -0.00000000000E+00 -0.00000000000E+00 -0.45593999997E+02  0.45594000000E+02  0.51100000000E-03 0. -1.
    9900012    2    1    2    0    0 -0.10812483826E+02  0.10400145235E+01  0.29978832553E+02  0.59301924075E+02  0.49999963610E+02 0.  0.
         12    1    1    2    0    0  0.10812483826E+02 -0.10400145235E+01 -0.29978832553E+02  0.31886075925E+02  0.00000000000E+00 0. -1.
         11    1    3    3    0    0  0.80856795529E+01 -0.50724692363E+01 -0.32820279560E+01  0.10093555654E+02  0.51100000000E-03 0. -1.
        -11    1    3    3    0    0  0.20977909945E+01 -0.78815213498E+01  0.17894206502E+02  0.19665241733E+02  0.51100000000E-03 0.  1.
         12    1    3    3    0    0 -0.20995954373E+02  0.13994005110E+02  0.15366654007E+02  0.29543126687E+02  0.00000000000E+00 0. -1.
</event>
<event>
 7    1  0.6164995E-012  0.5930196E+02  0.7816164E-02  0.1266605E+00
        -11   -1    0    0    0    0  0.00000000000E+00  0.00000000000E+00  0.45593999997E+02  0.45594000000E+02  0.51100000000E-03 0. -1.
         11   -1    0    0    0    0 -0.00000000000E+00 -0.00000000000E+00 -0.45593999997E+02  0.45594000000E+02  0.51100000000E-03 0.  1.
    9900012    2    1    2    0    0  0.24941897092E+02  0.17107017676E+02 -0.10098090747E+02  0.59301957269E+02  0.50000024148E+02 0.  0.
         12    1    1    2    0    0 -0.24941897092E+02 -0.17107017676E+02  0.10098090747E+02  0.31886042731E+02  0.00000000000E+00 0. -1.
         11    1    3    3    0    0  0.16379749141E+02 -0.27665466778E+00  0.13093864150E+02  0.20971933587E+02  0.51100000000E-03 0. -1.
        -11    1    3    3    0    0 -0.74738599772E+01  0.10733535684E+02 -0.11330074790E+02  0.17304275953E+02  0.51100000000E-03 0.  1.
         12    1    3    3    0    0  0.16036007928E+02  0.66501366596E+01 -0.11861880108E+02  0.21025747729E+02  0.00000000000E+00 0. -1.
</event>
<event>
 7    1  0.6164995E-012  0.5930194E+02  0.7816164E-02  0.1266605E+00
        -11   -1    0    0    0    0  0.00000000000E+00  0.00000000000E+00  0.45593999997E+02  0.45594000000E+02  0.51100000000E-03 0. -1.
         11   -1    0    0    0    0 -0.00000000000E+00 -0.00000000000E+00 -0.45593999997E+02  0.45594000000E+02  0.51100000000E-03 0.  1.
    9900012    2    1    2    0    0  0.19538551550E+02  0.21472755109E+02  0.13186615556E+02  0.59301936611E+02  0.49999986473E+02 0.  0.
         12    1    1    2    0    0 -0.19538551550E+02 -0.21472755109E+02 -0.13186615556E+02  0.31886063389E+02  0.00000000000E+00 0. -1.
         11    1    3    3    0    0  0.57833992324E+01 -0.93360696944E+01 -0.65282932734E+01  0.12776091630E+02  0.51100000000E-03 0. -1.
        -11    1    3    3    0    0  0.12214153727E+02  0.55831168427E+01  0.16147861835E+02  0.21002623337E+02  0.51100000000E-03 0.  1.
        -12    1    3    3    0    0  0.15409985910E+01  0.25225707961E+02  0.35670469939E+01  0.25523221643E+02  0.00000000000E+00 0.  1.
</event>
<event>
 7    1  0.6164995E-012  0.5930191E+02  0.7816164E-02  0.1266605E+00
        -11   -1    0    0    0    0  0.00000000000E+00  0.00000000000E+00  0.45593999997E+02  0.45594000000E+02  0.51100000000E-03 0.  1.
         11   -1    0    0    0    0 -0.00000000000E+00 -0.00000000000E+00 -0.45593999997E+02  0.45594000000E+02  0.51100000000E-03 0. -1.
    9900012    2    1    2    0    0 -0.17168565421E+02  0.82859396714E+01  0.25559859611E+02  0.59301908077E+02  0.49999934434E+02 0.  0.
         12    1    1    2    0    0  0.17168565421E+02 -0.82859396714E+01 -0.25559859611E+02  0.31886091923E+02  0.00000000000E+00 0. -1.
         11    1    3    3    0    0 -0.24357933725E+01  0.88825412285E+01  0.13460325230E+02  0.16309904463E+02  0.51100000000E-03 0. -1.
        -11    1    3    3    0    0 -0.22769515935E+02  0.72832718803E+01  0.18332565909E+02  0.30126066425E+02  0.51100000000E-03 0.  1.
         12    1    3    3    0    0  0.80367438869E+01 -0.78798734374E+01 -0.62330315284E+01  0.12865937188E+02  0.00000000000E+00 0. -1.
</event>
<event>
 7    1  0.6164995E-012  0.5930195E+02  0.7816164E-02  0.1266605E+00
        -11   -1    0    0    0    0  0.00000000000E+00  0.00000000000E+00  0.45593999997E+02  0.45594000000E+02  0.51100000000E-03 0.  1.
         11   -1    0    0    0    0 -0.00000000000E+00 -0.00000000000E+00 -0.45593999997E+02  0.45594000000E+02  0.51100000000E-03 0. -1.
    9900012    2    1    2    0    0 -0.25549008963E+02  0.15875120133E+02  0.10580601112E+02  0.59301946338E+02  0.50000004214E+02 0.  0.
         12    1    1    2    0    0  0.25549008963E+02 -0.15875120133E+02 -0.10580601112E+02  0.31886053662E+02  0.00000000000E+00 0. -1.
         11    1    3    3    0    0  0.57451585138E+01  0.40617565172E+01 -0.57208144386E+01  0.90682098815E+01  0.51100000000E-03 0. -1.
        -11    1    3    3    0    0  0.47742754125E+01 -0.52533781982E+01  0.52499389902E+01  0.88291306407E+01  0.51100000000E-03 0.  1.
        -12    1    3    3    0    0 -0.36068442890E+02  0.17066741814E+02  0.11051476560E+02  0.41404605816E+02  0.00000000000E+00 0.  1.
</event>
<event>
 7    1  0.6164995E-012  0.5930194E+02  0.7816164E-02  0.1266605E+00
        -11   -1    0    0    0    0  0.00000000000E+00  0.00000000000E+00  0.45593999997E+02  0.45594000000E+02  0.51100000000E-03 0. -1.
         11   -1    0    0    0    0 -0.00000000000E+00 -0.00000000000E+00 -0.45593999997E+02  0.45594000000E+02  0.51100000000E-03 0.  1.
    9900012    2    1    2    0    0  0.53237851328E+01 -0.20505250548E+02  0.23830924163E+02  0.59301938239E+02  0.49999989443E+02 0.  0.
         12    1    1    2    0    0 -0.53237851328E+01  0.20505250548E+02 -0.23830924163E+02  0.31886061761E+02  0.00000000000E+00 0. -1.
         11    1    3    3    0    0  0.24927769746E+01 -0.12982326662E+02 -0.24346202527E+01  0.13441804888E+02  0.51100000000E-03 0. -1.
        -11    1    3    3    0    0 -0.89221830561E+01 -0.13997288250E+02  0.26495489308E+00  0.16601193637E+02  0.51100000000E-03 0.  1.
         12    1    3    3    0    0  0.11753191214E+02  0.64743643643E+01  0.26000589523E+02  0.29258939714E+02  0.00000000000E+00 0. -1.
</event>
<event>
 7    1  0.6164995E-012  0.5930192E+02  0.7816164E-02  0.1266605E+00
        -11   -1    0    0    0    0  0.00000000000E+00  0.00000000000E+00  0.45593999997E+02  0.45594000000E+02  0.51100000000E-03 0.  1.
         11   -1    0    0    0    0 -0.00000000000E+00 -0.00000000000E+00 -0.45593999997E+02  0.45594000000E+02  0.51100000000E-03 0. -1.
    9900012    2    1    2    0    0 -0.16191386009E+02  0.70342625106E+01  0.26553352613E+02  0.59301915811E+02  0.49999948539E+02 0.  0.
         12    1    1    2    0    0  0.16191386009E+02 -0.70342625106E+01 -0.26553352613E+02  0.31886084189E+02  0.00000000000E+00 0. -1.
         11    1    3    3    0    0 -0.89876205378E+01 -0.54500117994E+01  0.12810244783E+02  0.16570525737E+02  0.51100000000E-03 0. -1.
        -11    1    3    3    0    0  0.52179181644E+01 -0.10384430857E+02  0.11912690384E+02  0.16642573919E+02  0.51100000000E-03 0.  1.
         12    1    3    3    0    0 -0.12421683635E+02  0.22868705167E+02  0.18304174454E+01  0.26088816155E+02  0.00000000000E+00 0. -1.
</event>
<event>
 7    1  0.6164995E-012  0.5930194E+02  0.7816164E-02  0.1266605E+00
        -11   -1    0    0    0    0  0.00000000000E+00  0.00000000000E+00  0.45593999997E+02  0.45594000000E+02  0.51100000000E-03 0. -1.
         11   -1    0    0    0    0 -0.00000000000E+00 -0.00000000000E+00 -0.45593999997E+02  0.45594000000E+02  0.51100000000E-03 0.  1.
    9900012    2    1    2    0    0 -0.16555268099E+01 -0.17117264960E+02 -0.26851053362E+02  0.59301943559E+02  0.49999999145E+02 0.  0.
         12    1    1    2    0    0  0.16555268099E+01  0.17117264960E+02  0.26851053362E+02  0.31886056441E+02  0.00000000000E+00 0. -1.
         11    1    3    3    0    0 -0.29726369853E+00 -0.17694320596E+02  0.32330361094E+01  0.17989715668E+02  0.51100000000E-03 0. -1.
        -11    1    3    3    0    0 -0.75561574248E+01 -0.87038923529E+01 -0.27555697304E+02  0.29869210088E+02  0.51100000000E-03 0.  1.
         12    1    3    3    0    0  0.61978943135E+01  0.92809479887E+01 -0.25283921672E+01  0.11443017803E+02  0.00000000000E+00 0. -1.
</event>
<event>
 7    1  0.6164995E-012  0.5930195E+02  0.7816164E-02  0.1266605E+00
        -11   -1    0    0    0    0  0.00000000000E+00  0.00000000000E+00  0.45593999997E+02  0.45594000000E+02  0.51100000000E-03 0. -1.
         11   -1    0    0    0    0 -0.00000000000E+00 -0.00000000000E+00 -0.45593999997E+02  0.45594000000E+02  0.51100000000E-03 0.  1.
    9900012    2    1    2    0    0  0.27155239684E+02  0.74066013228E+01  0.14981840269E+02  0.59301947826E+02  0.50000006926E+02 0.  0.
         12    1    1    2    0    0 -0.27155239684E+02 -0.74066013228E+01 -0.14981840269E+02  0.31886052174E+02  0.00000000000E+00 0. -1.
         11    1    3    3    0    0  0.66142853324E+01  0.12040875086E+02 -0.11926665379E+02  0.18192767536E+02  0.51100000000E-03 0. -1.
        -11    1    3    3    0    0 -0.49623911834E+01  0.36955398317E+00  0.30993595733E+01  0.58624164326E+01  0.51100000000E-03 0.  1.
         12    1    3    3    0    0  0.25503345535E+02 -0.50038277461E+01  0.23809146075E+02  0.35246763857E+02  0.00000000000E+00 0. -1.
</event>
<event>
 7    1  0.6164995E-012  0.5930195E+02  0.7816164E-02  0.1266605E+00
        -11   -1    0    0    0    0  0.00000000000E+00  0.00000000000E+00  0.45593999997E+02  0.45594000000E+02  0.51100000000E-03 0.  1.
         11   -1    0    0    0    0 -0.00000000000E+00 -0.00000000000E+00 -0.45593999997E+02  0.45594000000E+02  0.51100000000E-03 0. -1.
    9900012    2    1    2    0    0 -0.16334021103E+02  0.10413941490E+02  0.25327250200E+02  0.59301952495E+02  0.50000015443E+02 0.  0.
         12    1    1    2    0    0  0.16334021103E+02 -0.10413941490E+02 -0.25327250200E+02  0.31886047505E+02  0.00000000000E+00 0. -1.
         11    1    3    3    0    0  0.72443462137E+01 -0.86969619438E+01  0.11043545085E+01  0.11372655726E+02  0.51100000000E-03 0. -1.
        -11    1    3    3    0    0  0.98148501200E+00  0.98205283389E+01  0.18628851557E+02  0.21081750409E+02  0.51100000000E-03 0.  1.
         12    1    3    3    0    0 -0.24559852329E+02  0.92903750954E+01  0.55940441343E+01  0.26847546361E+02  0.00000000000E+00 0. -1.
</event>
<event>
 7    1  0.6164995E-012  0.5930188E+02  0.7816164E-02  0.1266605E+00
        -11   -1    0    0    0    0  0.00000000000E+00  0.00000000000E+00  0.45593999997E+02  0.45594000000E+02  0.51100000000E-03 0.  1.
         11   -1    0    0    0    0 -0.00000000000E+00 -0.00000000000E+00 -0.45593999997E+02  0.45594000000E+02  0.51100000000E-03 0. -1.
    9900012    2    1    2    0    0 -0.22459820150E+02 -0.91039904765E+01  0.20721931329E+02  0.59301880735E+02  0.49999884570E+02 0.  0.
         12    1    1    2    0    0  0.22459820150E+02  0.91039904765E+01 -0.20721931329E+02  0.31886119265E+02  0.00000000000E+00 0. -1.
         11    1    3    3    0    0 -0.21189966243E+02 -0.18017643684E+02  0.30712396664E+01  0.27983614252E+02  0.51100000000E-03 0. -1.
        -11    1    3    3    0    0 -0.56621038745E+01  0.33647569822E+01 -0.45576903791E+01  0.80095912310E+01  0.51100000000E-03 0.  1.
         12    1    3    3    0    0  0.43922499675E+01  0.55488962250E+01  0.22208382042E+02  0.23308675252E+02  0.00000000000E+00 0. -1.
</event>
<event>
 7    1  0.6164995E-012  0.5930194E+02  0.7816164E-02  0.1266605E+00
        -11   -1    0    0    0    0  0.00000000000E+00  0.00000000000E+00  0.45593999997E+02  0.45594000000E+02  0.51100000000E-03 0. -1.
         11   -1    0    0    0    0 -0.00000000000E+00 -0.00000000000E+00 -0.45593999997E+02  0.45594000000E+02  0.51100000000E-03 0.  1.
    9900012    2    1    2    0    0  0.43771426810E+01  0.26831094005E+02 -0.16662939727E+02  0.59301944366E+02  0.50000000616E+02 0.  0.
         12    1    1    2    0    0 -0.43771426810E+01 -0.26831094005E+02  0.16662939727E+02  0.31886055634E+02  0.00000000000E+00 0. -1.
         11    1    3    3    0    0  0.19933613416E+02  0.10014894609E+02  0.29368064247E+01  0.22500486441E+02  0.51100000000E-03 0. -1.
        -11    1    3    3    0    0 -0.18052346532E+01 -0.37144148605E+01 -0.90219014672E+01  0.99222203288E+01  0.51100000000E-03 0.  1.
         12    1    3    3    0    0 -0.13751236082E+02  0.20530614257E+02 -0.10577844685E+02  0.26879237596E+02  0.00000000000E+00 0. -1.
</event>
<event>
 7    1  0.6164995E-012  0.5930196E+02  0.7816164E-02  0.1266605E+00
        -11   -1    0    0    0    0  0.00000000000E+00  0.00000000000E+00  0.45593999997E+02  0.45594000000E+02  0.51100000000E-03 0. -1.
         11   -1    0    0    0    0 -0.00000000000E+00 -0.00000000000E+00 -0.45593999997E+02  0.45594000000E+02  0.51100000000E-03 0.  1.
    9900012    2    1    2    0    0 -0.75675364866E+01 -0.29322050253E+02 -0.99834588778E+01  0.59301957745E+02  0.50000025017E+02 0.  0.
         12    1    1    2    0    0  0.75675364866E+01  0.29322050253E+02  0.99834588778E+01  0.31886042255E+02  0.00000000000E+00 0. -1.
         11    1    3    3    0    0  0.26015435353E+01  0.56124083875E+00  0.62494310584E+01  0.67925259558E+01  0.51100000000E-03 0. -1.
        -11    1    3    3    0    0 -0.23449280537E+02 -0.21202031799E+02 -0.28291595684E+01  0.31739550316E+02  0.51100000000E-03 0.  1.
        -12    1    3    3    0    0  0.13280200515E+02 -0.86812592928E+01 -0.13403730368E+02  0.20769881473E+02  0.00000000000E+00 0.  1.
</event>
<event>
 7    1  0.6164995E-012  0.5930195E+02  0.7816164E-02  0.1266605E+00
        -11   -1    0    0    0    0  0.00000000000E+00  0.00000000000E+00  0.45593999997E+02  0.45594000000E+02  0.51100000000E-03 0.  1.
         11   -1    0    0    0    0 -0.00000000000E+00 -0.00000000000E+00 -0.45593999997E+02  0.45594000000E+02  0.51100000000E-03 0. -1.
    9900012    2    1    2    0    0 -0.95972795587E+01  0.87841495960E+01  0.29111016061E+02  0.59301947953E+02  0.50000007158E+02 0.  0.
         12    1    1    2    0    0  0.95972795587E+01 -0.87841495960E+01 -0.29111016061E+02  0.31886052047E+02  0.00000000000E+00 0. -1.
         11    1    3    3    0    0  0.52603793086E+00 -0.63084102835E+01  0.25971911981E+02  0.26732245855E+02  0.51100000000E-03 0.  1.
        -11    1    3    3    0    0 -0.48924209846E+01  0.78005203362E+01  0.15057944904E+02  0.17650087977E+02  0.51100000000E-03 0. -1.
        -12    1    3    3    0    0 -0.52308965049E+01  0.72920395433E+01 -0.11918840824E+02  0.14919614121E+02  0.00000000000E+00 0.  1.
</event>
<event>
 7    1  0.6164995E-012  0.5930194E+02  0.7816164E-02  0.1266605E+00
        -11   -1    0    0    0    0  0.00000000000E+00  0.00000000000E+00  0.45593999997E+02  0.45594000000E+02  0.51100000000E-03 0.  1.
         11   -1    0    0    0    0 -0.00000000000E+00 -0.00000000000E+00 -0.45593999997E+02  0.45594000000E+02  0.51100000000E-03 0. -1.
    9900012    2    1    2    0    0  0.22141308565E+02 -0.10841117126E+02  0.20222599716E+02  0.59301938707E+02  0.49999990296E+02 0.  0.
         12    1    1    2    0    0 -0.22141308565E+02  0.10841117126E+02 -0.20222599716E+02  0.31886061293E+02  0.00000000000E+00 0. -1.
         11    1    3    3    0    0 -0.12523134632E+02 -0.18517835776E+01  0.37618115809E+01  0.13206408674E+02  0.51100000000E-03 0. -1.
        -11    1    3    3    0    0  0.10843081342E+02 -0.14660881121E+02  0.98796414032E+01  0.20739362641E+02  0.51100000000E-03 0.  1.
        -12    1    3    3    0    0  0.23821361855E+02  0.56715475721E+01  0.65811467315E+01  0.25356167392E+02  0.00000000000E+00 0.  1.
</event>
<event>
 7    1  0.6164995E-012  0.5930194E+02  0.7816164E-02  0.1266605E+00
        -11   -1    0    0    0    0  0.00000000000E+00  0.00000000000E+00  0.45593999997E+02  0.45594000000E+02  0.51100000000E-03 0.  1.
         11   -1    0    0    0    0 -0.00000000000E+00 -0.00000000000E+00 -0.45593999997E+02  0.45594000000E+02  0.51100000000E-03 0. -1.
    9900012    2    1    2    0    0 -0.99843036103E+01 -0.10715441279E+02  0.28323383910E+02  0.59301936014E+02  0.49999985385E+02 0.  0.
         12    1    1    2    0    0  0.99843036103E+01  0.10715441279E+02 -0.28323383910E+02  0.31886063986E+02  0.00000000000E+00 0. -1.
         11    1    3    3    0    0  0.31337675861E+01  0.39038537831E+01  0.62571913517E+01  0.80133025349E+01  0.51100000000E-03 0. -1.
        -11    1    3    3    0    0 -0.20126196138E+02  0.11611341044E+01  0.26657459370E+02  0.33422030814E+02  0.51100000000E-03 0.  1.
         12    1    3    3    0    0  0.70081249415E+01 -0.15780429166E+02 -0.45912668117E+01  0.17866602666E+02  0.00000000000E+00 0. -1.
</event>
<event>
 7    1  0.6164995E-012  0.5930192E+02  0.7816164E-02  0.1266605E+00
        -11   -1    0    0    0    0  0.00000000000E+00  0.00000000000E+00  0.45593999997E+02  0.45594000000E+02  0.51100000000E-03 0.  1.
         11   -1    0    0    0    0 -0.00000000000E+00 -0.00000000000E+00 -0.45593999997E+02  0.45594000000E+02  0.51100000000E-03 0. -1.
    9900012    2    1    2    0    0 -0.53336180265E+01 -0.20564506684E+02  0.23777633471E+02  0.59301917301E+02  0.49999951257E+02 0.  0.
         12    1    1    2    0    0  0.53336180265E+01  0.20564506684E+02 -0.23777633471E+02  0.31886082699E+02  0.00000000000E+00 0. -1.
         11    1    3    3    0    0  0.54940267167E+00 -0.15064514092E+02 -0.56791692432E+01  0.16108829618E+02  0.51100000000E-03 0. -1.
        -11    1    3    3    0    0  0.91827094222E+01  0.62584067416E+01  0.50822150397E+01  0.12219603809E+02  0.51100000000E-03 0.  1.
        -12    1    3    3    0    0 -0.15065730120E+02 -0.11758399333E+02  0.24374587675E+02  0.30973483873E+02  0.00000000000E+00 0.  1.
</event>
<event>
 7    1  0.6164995E-012  0.5930208E+02  0.7816164E-02  0.1266604E+00
        -11   -1    0    0    0    0  0.00000000000E+00  0.00000000000E+00  0.45593999997E+02  0.45594000000E+02  0.51100000000E-03 0. -1.
         11   -1    0    0    0    0 -0.00000000000E+00 -0.00000000000E+00 -0.45593999997E+02  0.45594000000E+02  0.51100000000E-03 0.  1.
    9900012    2    1    2    0    0 -0.99607708827E+01 -0.10332452596E+02  0.28473416176E+02  0.59302078938E+02  0.50000246043E+02 0.  0.
         12    1    1    2    0    0  0.99607708827E+01  0.10332452596E+02 -0.28473416176E+02  0.31885921062E+02  0.00000000000E+00 0. -1.
         11    1    3    3    0    0 -0.15007112373E+02 -0.12333611722E+01  0.16975833288E+01  0.15153098395E+02  0.51100000000E-03 0. -1.
        -11    1    3    3    0    0  0.13172078998E+02 -0.18306912201E+02  0.14668684014E+02  0.26903847131E+02  0.51100000000E-03 0.  1.
         12    1    3    3    0    0 -0.81257375083E+01  0.92078207770E+01  0.12107148833E+02  0.17245133412E+02  0.00000000000E+00 0. -1.
</event>
<event>
 7    1  0.6164995E-012  0.5930191E+02  0.7816164E-02  0.1266605E+00
        -11   -1    0    0    0    0  0.00000000000E+00  0.00000000000E+00  0.45593999997E+02  0.45594000000E+02  0.51100000000E-03 0.  1.
         11   -1    0    0    0    0 -0.00000000000E+00 -0.00000000000E+00 -0.45593999997E+02  0.45594000000E+02  0.51100000000E-03 0. -1.
    9900012    2    1    2    0    0 -0.12826435016E+02  0.60175441361E+01  0.28565617419E+02  0.59301909441E+02  0.49999936921E+02 0.  0.
         12    1    1    2    0    0  0.12826435016E+02 -0.60175441361E+01 -0.28565617419E+02  0.31886090559E+02  0.00000000000E+00 0. -1.
         11    1    3    3    0    0  0.19603258329E+01  0.57227979961E+01  0.69929838738E+01  0.92463570121E+01  0.51100000000E-03 0. -1.
        -11    1    3    3    0    0  0.14123170236E+02 -0.58800170760E+01  0.10171969490E+02  0.18371377246E+02  0.51100000000E-03 0.  1.
        -12    1    3    3    0    0 -0.28909931085E+02  0.61747632160E+01  0.11400664055E+02  0.31684175183E+02  0.00000000000E+00 0.  1.
</event>
<event>
 7    1  0.6164995E-012  0.5930193E+02  0.7816164E-02  0.1266605E+00
        -11   -1    0    0    0    0  0.00000000000E+00  0.00000000000E+00  0.45593999997E+02  0.45594000000E+02  0.51100000000E-03 0. -1.
         11   -1    0    0    0    0 -0.00000000000E+00 -0.00000000000E+00 -0.45593999997E+02  0.45594000000E+02  0.51100000000E-03 0.  1.
    9900012    2    1    2    0    0  0.11986805214E+02  0.29128840331E+02 -0.49546482757E+01  0.59301931290E+02  0.49999976769E+02 0.  0.
         12    1    1    2    0    0 -0.11986805214E+02 -0.29128840331E+02  0.49546482757E+01  0.31886068710E+02  0.00000000000E+00 0. -1.
         11    1    3    3    0    0 -0.76788307870E+01 -0.62263474477E+01 -0.67039711355E+01  0.11944667180E+02  0.51100000000E-03 0. -1.
        -11    1    3    3    0    0  0.46630301277E+01 -0.27191063148E+01 -0.29725960044E+01  0.61622817519E+01  0.51100000000E-03 0.  1.
        -12    1    3    3    0    0  0.15002605873E+02  0.38074294093E+02  0.47219188642E+01  0.41194982358E+02  0.00000000000E+00 0.  1.
</event>
<event>
 7    1  0.6164995E-012  0.5930194E+02  0.7816164E-02  0.1266605E+00
        -11   -1    0    0    0    0  0.00000000000E+00  0.00000000000E+00  0.45593999997E+02  0.45594000000E+02  0.51100000000E-03 0. -1.
         11   -1    0    0    0    0 -0.00000000000E+00 -0.00000000000E+00 -0.45593999997E+02  0.45594000000E+02  0.51100000000E-03 0.  1.
    9900012    2    1    2    0    0 -0.22939745179E+01 -0.53672609854E+01 -0.31347267287E+02  0.59301937591E+02  0.49999988261E+02 0.  0.
         12    1    1    2    0    0  0.22939745179E+01  0.53672609854E+01  0.31347267287E+02  0.31886062409E+02  0.00000000000E+00 0. -1.
         11    1    3    3    0    0  0.95576530179E+01  0.88976358880E+01 -0.12389573958E+02  0.18000505513E+02  0.51100000000E-03 0. -1.
        -11    1    3    3    0    0  0.75663944038E+01 -0.80424210650E+01  0.28925285478E+01  0.11414796648E+02  0.51100000000E-03 0.  1.
        -12    1    3    3    0    0 -0.19418021940E+02 -0.62224758084E+01 -0.21850221877E+02  0.29886635430E+02  0.00000000000E+00 0.  1.
</event>
<event>
 7    1  0.6164995E-012  0.5930195E+02  0.7816164E-02  0.1266605E+00
        -11   -1    0    0    0    0  0.00000000000E+00  0.00000000000E+00  0.45593999997E+02  0.45594000000E+02  0.51100000000E-03 0.  1.
         11   -1    0    0    0    0 -0.00000000000E+00 -0.00000000000E+00 -0.45593999997E+02  0.45594000000E+02  0.51100000000E-03 0. -1.
    9900012    2    1    2    0    0  0.18541872012E+02  0.13238445926E+02  0.22308361471E+02  0.59301945685E+02  0.50000003023E+02 0.  0.
         12    1    1    2    0    0 -0.18541872012E+02 -0.13238445926E+02 -0.22308361471E+02  0.31886054315E+02  0.00000000000E+00 0. -1.
         11    1    3    3    0    0  0.93694053892E+01  0.15563350555E+02 -0.56738558617E+01  0.19031454974E+02  0.51100000000E-03 0. -1.
        -11    1    3    3    0    0 -0.10879131678E+01 -0.33942071128E+01 -0.47571712779E+01  0.59443145790E+01  0.51100000000E-03 0.  1.
        -12    1    3    3    0    0  0.10260379791E+02  0.10693024835E+01  0.32739388611E+02  0.34326176132E+02  0.00000000000E+00 0.  1.
</event>
<event>
 7    1  0.6164995E-012  0.5930190E+02  0.7816164E-02  0.1266605E+00
        -11   -1    0    0    0    0  0.00000000000E+00  0.00000000000E+00  0.45593999997E+02  0.45594000000E+02  0.51100000000E-03 0. -1.
         11   -1    0    0    0    0 -0.00000000000E+00 -0.00000000000E+00 -0.45593999997E+02  0.45594000000E+02  0.51100000000E-03 0.  1.
    9900012    2    1    2    0    0 -0.25119355962E+02  0.11698233159E+02 -0.15776325334E+02  0.59301903593E+02  0.49999926257E+02 0.  0.
         12    1    1    2    0    0  0.25119355962E+02 -0.11698233159E+02  0.15776325334E+02  0.31886096407E+02  0.00000000000E+00 0. -1.
         11    1    3    3    0    0 -0.63696363994E+01  0.16871313173E+02  0.19969200823E+01  0.18143901623E+02  0.51100000000E-03 0. -1.
        -11    1    3    3    0    0 -0.44409165954E+01 -0.63956941011E+01  0.83067642587E+01  0.11385472144E+02  0.51100000000E-03 0.  1.
        -12    1    3    3    0    0 -0.14308802968E+02  0.12226140875E+01 -0.26080009675E+02  0.29772529825E+02  0.00000000000E+00 0.  1.
</event>
<event>
 7    1  0.6164995E-012  0.5930195E+02  0.7816164E-02  0.1266605E+00
        -11   -1    0    0    0    0  0.00000000000E+00  0.00000000000E+00  0.45593999997E+02  0.45594000000E+02  0.51100000000E-03 0.  1.
         11   -1    0    0    0    0 -0.00000000000E+00 -0.00000000000E+00 -0.45593999997E+02  0.45594000000E+02  0.51100000000E-03 0. -1.
    9900012    2    1    2    0    0  0.14069002381E+02 -0.97464362433E+01  0.26903356393E+02  0.59301946110E+02  0.50000003798E+02 0.  0.
         12    1    1    2    0    0 -0.14069002381E+02  0.97464362433E+01 -0.26903356393E+02  0.31886053890E+02  0.00000000000E+00 0. -1.
         11    1    3    3    0    0 -0.31244030926E+00 -0.15075784645E+02  0.16370270357E+02  0.22256743999E+02  0.51100000000E-03 0. -1.
        -11    1    3    3    0    0  0.66363257164E+01  0.63511205856E+01  0.21615339444E+02  0.23486175748E+02  0.51100000000E-03 0.  1.
         12    1    3    3    0    0  0.77451169737E+01 -0.10217721842E+01 -0.11082253408E+02  0.13559026364E+02  0.00000000000E+00 0. -1.
</event>
<event>
 7    1  0.6164995E-012  0.5930194E+02  0.7816164E-02  0.1266605E+00
        -11   -1    0    0    0    0  0.00000000000E+00  0.00000000000E+00  0.45593999997E+02  0.45594000000E+02  0.51100000000E-03 0.  1.
         11   -1    0    0    0    0 -0.00000000000E+00 -0.00000000000E+00 -0.45593999997E+02  0.45594000000E+02  0.51100000000E-03 0. -1.
    9900012    2    1    2    0    0  0.18359922560E+02 -0.26030281954E+02  0.14346882846E+01  0.59301942460E+02  0.49999997140E+02 0.  0.
         12    1    1    2    0    0 -0.18359922560E+02  0.26030281954E+02 -0.14346882846E+01  0.31886057540E+02  0.00000000000E+00 0. -1.
         11    1    3    3    0    0  0.26257844705E+01 -0.14191837555E+02 -0.10250723985E+02  0.17702551786E+02  0.51100000000E-03 0. -1.
        -11    1    3    3    0    0  0.21923609870E+02 -0.10644597451E+02 -0.39977406552E+01  0.24696843022E+02  0.51100000000E-03 0.  1.
        -12    1    3    3    0    0 -0.61894717809E+01 -0.11938469473E+01  0.15683152924E+02  0.16902547651E+02  0.00000000000E+00 0.  1.
</event>
<event>
 7    1  0.6164995E-012  0.5930194E+02  0.7816164E-02  0.1266605E+00
        -11   -1    0    0    0    0  0.00000000000E+00  0.00000000000E+00  0.45593999997E+02  0.45594000000E+02  0.51100000000E-03 0.  1.
         11   -1    0    0    0    0 -0.00000000000E+00 -0.00000000000E+00 -0.45593999997E+02  0.45594000000E+02  0.51100000000E-03 0. -1.
    9900012    2    1    2    0    0  0.16630212729E+02 -0.11307947544E+02  0.24744431374E+02  0.59301944473E+02  0.50000000812E+02 0.  0.
         12    1    1    2    0    0 -0.16630212729E+02  0.11307947544E+02 -0.24744431374E+02  0.31886055527E+02  0.00000000000E+00 0. -1.
         11    1    3    3    0    0  0.97398436420E+01 -0.10619090026E+02 -0.99930845749E+01  0.17535431752E+02  0.51100000000E-03 0. -1.
        -11    1    3    3    0    0 -0.12808461629E+01  0.26765945847E+01 -0.22589252527E+01  0.37292719158E+01  0.51100000000E-03 0.  1.
        -12    1    3    3    0    0  0.81712152498E+01 -0.33654521032E+01  0.36996441201E+02  0.38037240805E+02  0.00000000000E+00 0.  1.
</event>
<event>
 7    1  0.6164995E-012  0.5930197E+02  0.7816164E-02  0.1266605E+00
        -11   -1    0    0    0    0  0.00000000000E+00  0.00000000000E+00  0.45593999997E+02  0.45594000000E+02  0.51100000000E-03 0.  1.
         11   -1    0    0    0    0 -0.00000000000E+00 -0.00000000000E+00 -0.45593999997E+02  0.45594000000E+02  0.51100000000E-03 0. -1.
    9900012    2    1    2    0    0  0.18636215835E+02  0.13969620468E+02  0.21777515671E+02  0.59301968176E+02  0.50000044041E+02 0.  0.
         12    1    1    2    0    0 -0.18636215835E+02 -0.13969620468E+02 -0.21777515671E+02  0.31886031824E+02  0.00000000000E+00 0. -1.
         11    1    3    3    0    0  0.93859304454E+01  0.46862726911E+01  0.33256877017E+02  0.34872291454E+02  0.51100000000E-03 0.  1.
        -11    1    3    3    0    0 -0.49839503126E+00 -0.37467381815E+01  0.10143910748E+01  0.39134938510E+01  0.51100000000E-03 0. -1.
         12    1    3    3    0    0  0.97486804209E+01  0.13030085959E+02 -0.12493752421E+02  0.20516182871E+02  0.00000000000E+00 0. -1.
</event>
<event>
 7    1  0.6164995E-012  0.5930191E+02  0.7816164E-02  0.1266605E+00
        -11   -1    0    0    0    0  0.00000000000E+00  0.00000000000E+00  0.45593999997E+02  0.45594000000E+02  0.51100000000E-03 0. -1.
         11   -1    0    0    0    0 -0.00000000000E+00 -0.00000000000E+00 -0.45593999997E+02  0.45594000000E+02  0.51100000000E-03 0.  1.
    9900012    2    1    2    0    0  0.31494346289E+02  0.20850020502E+01  0.45256625116E+01  0.59301910511E+02  0.49999938874E+02 0.  0.
         12    1    1    2    0    0 -0.31494346289E+02 -0.20850020502E+01 -0.45256625116E+01  0.31886089489E+02  0.00000000000E+00 0. -1.
         11    1    3    3    0    0  0.40518490841E+01  0.59301856926E+01  0.87925184960E+01  0.11353103766E+02  0.51100000000E-03 0. -1.
        -11    1    3    3    0    0  0.29241632965E+02  0.66754290616E+01  0.86275242719E+01  0.31210072524E+02  0.51100000000E-03 0.  1.
        -12    1    3    3    0    0 -0.17991357599E+01 -0.10520612704E+02 -0.12894380256E+02  0.16738734222E+02  0.00000000000E+00 0.  1.
</event>
<event>
 7    1  0.6164995E-012  0.5930191E+02  0.7816164E-02  0.1266605E+00
        -11   -1    0    0    0    0  0.00000000000E+00  0.00000000000E+00  0.45593999997E+02  0.45594000000E+02  0.51100000000E-03 0.  1.
         11   -1    0    0    0    0 -0.00000000000E+00 -0.00000000000E+00 -0.45593999997E+02  0.45594000000E+02  0.51100000000E-03 0. -1.
    9900012    2    1    2    0    0  0.81084514731E+01  0.21707954650E+02  0.21902975745E+02  0.59301911704E+02  0.49999941049E+02 0.  0.
         12    1    1    2    0    0 -0.81084514731E+01 -0.21707954650E+02 -0.21902975745E+02  0.31886088296E+02  0.00000000000E+00 0. -1.
         11    1    3    3    0    0 -0.37323027770E+01  0.16009924966E+02  0.13569596984E+02  0.21316231938E+02  0.51100000000E-03 0. -1.
        -11    1    3    3    0    0 -0.77200670055E+01 -0.75565705876E+01  0.94186138215E+01  0.14332183372E+02  0.51100000000E-03 0.  1.
         12    1    3    3    0    0  0.19560821256E+02  0.13254600271E+02 -0.10852350610E+01  0.23653496394E+02  0.00000000000E+00 0. -1.
</event>
<event>
 7    1  0.6164995E-012  0.5930195E+02  0.7816164E-02  0.1266605E+00
        -11   -1    0    0    0    0  0.00000000000E+00  0.00000000000E+00  0.45593999997E+02  0.45594000000E+02  0.51100000000E-03 0.  1.
         11   -1    0    0    0    0 -0.00000000000E+00 -0.00000000000E+00 -0.45593999997E+02  0.45594000000E+02  0.51100000000E-03 0. -1.
    9900012    2    1    2    0    0 -0.74018242215E+01 -0.27383832616E+01  0.30893919775E+02  0.59301952522E+02  0.50000015491E+02 0.  0.
         12    1    1    2    0    0  0.74018242215E+01  0.27383832616E+01 -0.30893919775E+02  0.31886047478E+02  0.00000000000E+00 0. -1.
         11    1    3    3    0    0 -0.14965452886E+01 -0.73314731325E+01 -0.38631985896E+01  0.84210717666E+01  0.51100000000E-03 0. -1.
        -11    1    3    3    0    0  0.13739616796E+02  0.96361068473E+01  0.17560190916E+02  0.24289749487E+02  0.51100000000E-03 0.  1.
         12    1    3    3    0    0 -0.19644895729E+02 -0.50430169764E+01  0.17196927449E+02  0.26591131268E+02  0.00000000000E+00 0. -1.
</event>
<event>
 7    1  0.6164995E-012  0.5930194E+02  0.7816164E-02  0.1266605E+00
        -11   -1    0    0    0    0  0.00000000000E+00  0.00000000000E+00  0.45593999997E+02  0.45594000000E+02  0.51100000000E-03 0. -1.
         11   -1    0    0    0    0 -0.00000000000E+00 -0.00000000000E+00 -0.45593999997E+02  0.45594000000E+02  0.51100000000E-03 0.  1.
    9900012    2    1    2    0    0 -0.26737279271E+02 -0.14349178942E+02  0.97948908741E+01  0.59301938369E+02  0.49999989679E+02 0.  0.
         12    1    1    2    0    0  0.26737279271E+02  0.14349178942E+02 -0.97948908741E+01  0.31886061631E+02  0.00000000000E+00 0. -1.
         11    1    3    3    0    0 -0.16806057002E+02 -0.28634835601E+01 -0.89302778674E+00  0.17071631116E+02  0.51100000000E-03 0. -1.
        -11    1    3    3    0    0 -0.18964656919E+02  0.34653681086E+01  0.14776336518E+02  0.24290061946E+02  0.51100000000E-03 0.  1.
        -12    1    3    3    0    0  0.90334346506E+01 -0.14951063491E+02 -0.40884178573E+01  0.17940245307E+02  0.00000000000E+00 0.  1.
</event>
<event>
 7    1  0.6164995E-012  0.5930194E+02  0.7816164E-02  0.1266605E+00
        -11   -1    0    0    0    0  0.00000000000E+00  0.00000000000E+00  0.45593999997E+02  0.45594000000E+02  0.51100000000E-03 0.  1.
         11   -1    0    0    0    0 -0.00000000000E+00 -0.00000000000E+00 -0.45593999997E+02  0.45594000000E+02  0.51100000000E-03 0. -1.
    9900012    2    1    2    0    0  0.19345729725E+02  0.58530736145E+01  0.24661814616E+02  0.59301939887E+02  0.49999992449E+02 0.  0.
         12    1    1    2    0    0 -0.19345729725E+02 -0.58530736145E+01 -0.24661814616E+02  0.31886060113E+02  0.00000000000E+00 0. -1.
         11    1    3    3    0    0  0.26536718372E+02  0.32932138473E+01 -0.36605481746E+01  0.26989670109E+02  0.51100000000E-03 0. -1.
        -11    1    3    3    0    0  0.40740691173E+01  0.64911731278E+00  0.77751294966E+01  0.88018197782E+01  0.51100000000E-03 0.  1.
        -12    1    3    3    0    0 -0.11265057764E+02  0.19107424544E+01  0.20547233294E+02  0.23510450000E+02  0.00000000000E+00 0.  1.
</event>
<event>
 7    1  0.6164995E-012  0.5930194E+02  0.7816164E-02  0.1266605E+00
        -11   -1    0    0    0    0  0.00000000000E+00  0.00000000000E+00  0.45593999997E+02  0.45594000000E+02  0.51100000000E-03 0. -1.
         11   -1    0    0    0    0 -0.00000000000E+00 -0.00000000000E+00 -0.45593999997E+02  0.45594000000E+02  0.51100000000E-03 0.  1.
    9900012    2    1    2    0    0 -0.13891722079E+02  0.88494202818E+01 -0.27302536520E+02  0.59301942199E+02  0.49999996665E+02 0.  0.
         12    1    1    2    0    0  0.13891722079E+02 -0.88494202818E+01  0.27302536520E+02  0.31886057801E+02  0.00000000000E+00 0. -1.
         11    1    3    3    0    0 -0.14179234933E+00  0.98365868919E+01 -0.76444138183E+01  0.12458555680E+02  0.51100000000E-03 0. -1.
        -11    1    3    3    0    0  0.17341338688E+01  0.31227980279E+01 -0.28379243798E+02  0.28603156585E+02  0.51100000000E-03 0.  1.
         12    1    3    3    0    0 -0.15484063599E+02 -0.41099646380E+01  0.87211210966E+01  0.18240229934E+02  0.00000000000E+00 0. -1.
</event>
<event>
 7    1  0.6164995E-012  0.5930197E+02  0.7816164E-02  0.1266605E+00
        -11   -1    0    0    0    0  0.00000000000E+00  0.00000000000E+00  0.45593999997E+02  0.45594000000E+02  0.51100000000E-03 0. -1.
         11   -1    0    0    0    0 -0.00000000000E+00 -0.00000000000E+00 -0.45593999997E+02  0.45594000000E+02  0.51100000000E-03 0.  1.
    9900012    2    1    2    0    0  0.82920794411E+01  0.71536163553E+01 -0.29946386781E+02  0.59301970305E+02  0.50000047924E+02 0.  0.
         12    1    1    2    0    0 -0.82920794411E+01 -0.71536163553E+01  0.29946386781E+02  0.31886029695E+02  0.00000000000E+00 0. -1.
         11    1    3    3    0    0  0.50477838061E+01  0.82335427557E+01  0.40098088537E+01  0.10457050969E+02  0.51100000000E-03 0. -1.
        -11    1    3    3    0    0 -0.20496408648E+01  0.14210500360E+02 -0.41757366209E+01  0.14952462163E+02  0.51100000000E-03 0.  1.
         12    1    3    3    0    0  0.52939364998E+01 -0.15290426760E+02 -0.29780459014E+02  0.33892457174E+02  0.00000000000E+00 0. -1.
</event>
<event>
 7    1  0.6164995E-012  0.5930190E+02  0.7816164E-02  0.1266605E+00
        -11   -1    0    0    0    0  0.00000000000E+00  0.00000000000E+00  0.45593999997E+02  0.45594000000E+02  0.51100000000E-03 0.  1.
         11   -1    0    0    0    0 -0.00000000000E+00 -0.00000000000E+00 -0.45593999997E+02  0.45594000000E+02  0.51100000000E-03 0. -1.
    9900012    2    1    2    0    0  0.27409163209E+02  0.88802640311E+00  0.16268767256E+02  0.59301896339E+02  0.49999913026E+02 0.  0.
         12    1    1    2    0    0 -0.27409163209E+02 -0.88802640311E+00 -0.16268767256E+02  0.31886103661E+02  0.00000000000E+00 0. -1.
         11    1    3    3    0    0 -0.33779310391E+01  0.28123697804E+00  0.18186026559E+02  0.18499218216E+02  0.51100000000E-03 0. -1.
        -11    1    3    3    0    0  0.56300899437E+01 -0.26714539353E+01  0.10765767164E+02  0.12439305519E+02  0.51100000000E-03 0.  1.
         12    1    3    3    0    0  0.25157004304E+02  0.32782433604E+01 -0.12683026467E+02  0.28363372604E+02  0.00000000000E+00 0. -1.
</event>
<event>
 7    1  0.6164995E-012  0.5930198E+02  0.7816164E-02  0.1266605E+00
        -11   -1    0    0    0    0  0.00000000000E+00  0.00000000000E+00  0.45593999997E+02  0.45594000000E+02  0.51100000000E-03 0.  1.
         11   -1    0    0    0    0 -0.00000000000E+00 -0.00000000000E+00 -0.45593999997E+02  0.45594000000E+02  0.51100000000E-03 0. -1.
    9900012    2    1    2    0    0  0.19117144556E+01  0.26529751198E+02  0.17585097797E+02  0.59301984016E+02  0.50000072929E+02 0.  0.
         12    1    1    2    0    0 -0.19117144556E+01 -0.26529751198E+02 -0.17585097797E+02  0.31886015984E+02  0.00000000000E+00 0. -1.
         11    1    3    3    0    0  0.16334825276E+02  0.19587861107E+01  0.39644738191E+01  0.16922777927E+02  0.51100000000E-03 0.  1.
        -11    1    3    3    0    0 -0.56719445745E+01 -0.59005963448E+01  0.47291442216E+01  0.94526608851E+01  0.51100000000E-03 0. -1.
         12    1    3    3    0    0 -0.87511662462E+01  0.30471561432E+02  0.88914797567E+01  0.32926545204E+02  0.00000000000E+00 0. -1.
</event>
<event>
 7    1  0.6164995E-012  0.5930195E+02  0.7816164E-02  0.1266605E+00
        -11   -1    0    0    0    0  0.00000000000E+00  0.00000000000E+00  0.45593999997E+02  0.45594000000E+02  0.51100000000E-03 0. -1.
         11   -1    0    0    0    0 -0.00000000000E+00 -0.00000000000E+00 -0.45593999997E+02  0.45594000000E+02  0.51100000000E-03 0.  1.
    9900012    2    1    2    0    0  0.23217515552E+02  0.36604652641E+01 -0.21546878646E+02  0.59301952679E+02  0.50000015778E+02 0.  0.
         12    1    1    2    0    0 -0.23217515552E+02 -0.36604652641E+01  0.21546878646E+02  0.31886047321E+02  0.00000000000E+00 0. -1.
         11    1    3    3    0    0 -0.20323600614E+01  0.73112027673E+01  0.19129075404E+01  0.78258155385E+01  0.51100000000E-03 0. -1.
        -11    1    3    3    0    0 -0.77141409177E+01  0.64969199795E+01 -0.10691987763E+02  0.14698181585E+02  0.51100000000E-03 0.  1.
         12    1    3    3    0    0  0.32964016532E+02 -0.10147657483E+02 -0.12767798424E+02  0.36777955556E+02  0.00000000000E+00 0. -1.
</event>
<event>
 7    1  0.6164995E-012  0.5930189E+02  0.7816164E-02  0.1266605E+00
        -11   -1    0    0    0    0  0.00000000000E+00  0.00000000000E+00  0.45593999997E+02  0.45594000000E+02  0.51100000000E-03 0. -1.
         11   -1    0    0    0    0 -0.00000000000E+00 -0.00000000000E+00 -0.45593999997E+02  0.45594000000E+02  0.51100000000E-03 0.  1.
    9900012    2    1    2    0    0 -0.15455920197E+02  0.15008289181E+02 -0.23507224387E+02  0.59301893125E+02  0.49999907165E+02 0.  0.
         12    1    1    2    0    0  0.15455920197E+02 -0.15008289181E+02  0.23507224387E+02  0.31886106875E+02  0.00000000000E+00 0. -1.
         11    1    3    3    0    0 -0.10347423417E+02  0.40429576386E+01 -0.29748802781E+02  0.31755408123E+02  0.51100000000E-03 0. -1.
        -11    1    3    3    0    0 -0.18589218594E+01 -0.69639657720E+01 -0.20985636161E+01  0.75070886011E+01  0.51100000000E-03 0.  1.
         12    1    3    3    0    0 -0.32495749207E+01  0.17929297315E+02  0.83401420104E+01  0.20039396401E+02  0.00000000000E+00 0. -1.
</event>
<event>
 7    1  0.6164995E-012  0.5930195E+02  0.7816164E-02  0.1266605E+00
        -11   -1    0    0    0    0  0.00000000000E+00  0.00000000000E+00  0.45593999997E+02  0.45594000000E+02  0.51100000000E-03 0. -1.
         11   -1    0    0    0    0 -0.00000000000E+00 -0.00000000000E+00 -0.45593999997E+02  0.45594000000E+02  0.51100000000E-03 0.  1.
    9900012    2    1    2    0    0 -0.21475700136E+02  0.22085778089E+02  0.82300023494E+01  0.59301949306E+02  0.50000009627E+02 0.  0.
         12    1    1    2    0    0  0.21475700136E+02 -0.22085778089E+02 -0.82300023494E+01  0.31886050694E+02  0.00000000000E+00 0. -1.
         11    1    3    3    0    0 -0.48493075402E+01 -0.24647392567E+01 -0.65142531662E+01  0.84868261322E+01  0.51100000000E-03 0. -1.
        -11    1    3    3    0    0 -0.94423778010E+01 -0.74388431873E+01  0.13399912803E+02  0.18001459660E+02  0.51100000000E-03 0.  1.
         12    1    3    3    0    0 -0.71840147953E+01  0.31989360533E+02  0.13443427129E+01  0.32813663514E+02  0.00000000000E+00 0. -1.
</event>
<event>
 7    1  0.6164995E-012  0.5930200E+02  0.7816164E-02  0.1266605E+00
        -11   -1    0    0    0    0  0.00000000000E+00  0.00000000000E+00  0.45593999997E+02  0.45594000000E+02  0.51100000000E-03 0.  1.
         11   -1    0    0    0    0 -0.00000000000E+00 -0.00000000000E+00 -0.45593999997E+02  0.45594000000E+02  0.51100000000E-03 0. -1.
    9900012    2    1    2    0    0 -0.32729444768E+01  0.27337032781E+02  0.16083894639E+02  0.59301996902E+02  0.50000096430E+02 0.  0.
         12    1    1    2    0    0  0.32729444768E+01 -0.27337032781E+02 -0.16083894639E+02  0.31886003098E+02  0.00000000000E+00 0. -1.
         11    1    3    3    0    0 -0.43036476856E+01 -0.65702932217E+01 -0.57009648247E+01  0.97052118274E+01  0.51100000000E-03 0. -1.
        -11    1    3    3    0    0 -0.33676975410E+01  0.30267102452E+02  0.37549581831E+01  0.30684500790E+02  0.51100000000E-03 0.  1.
         12    1    3    3    0    0  0.43984007498E+01  0.36402235509E+01  0.18029901281E+02  0.18912284284E+02  0.00000000000E+00 0. -1.
</event>
<event>
 7    1  0.6164995E-012  0.5930194E+02  0.7816164E-02  0.1266605E+00
        -11   -1    0    0    0    0  0.00000000000E+00  0.00000000000E+00  0.45593999997E+02  0.45594000000E+02  0.51100000000E-03 0. -1.
         11   -1    0    0    0    0 -0.00000000000E+00 -0.00000000000E+00 -0.45593999997E+02  0.45594000000E+02  0.51100000000E-03 0.  1.
    9900012    2    1    2    0    0  0.31259362185E+02 -0.59997684622E+01  0.18909788277E+01  0.59301941185E+02  0.49999994816E+02 0.  0.
         12    1    1    2    0    0 -0.31259362185E+02  0.59997684622E+01 -0.18909788277E+01  0.31886058815E+02  0.00000000000E+00 0. -1.
         11    1    3    3    0    0  0.14626650850E+02  0.32203186525E+01 -0.15372264380E+02  0.21461963558E+02  0.51100000000E-03 0. -1.
        -11    1    3    3    0    0  0.51928727883E+01 -0.11846973142E+02 -0.40108887148E+01  0.13542670673E+02  0.51100000000E-03 0.  1.
         12    1    3    3    0    0  0.11439838546E+02  0.26268860274E+01  0.21274131923E+02  0.24297306954E+02  0.00000000000E+00 0. -1.
</event>
<event>
 7    1  0.6164995E-012  0.5930196E+02  0.7816164E-02  0.1266605E+00
        -11   -1    0    0    0    0  0.00000000000E+00  0.00000000000E+00  0.45593999997E+02  0.45594000000E+02  0.51100000000E-03 0. -1.
         11   -1    0    0    0    0 -0.00000000000E+00 -0.00000000000E+00 -0.45593999997E+02  0.45594000000E+02  0.51100000000E-03 0.  1.
    9900012    2    1    2    0    0 -0.26202787921E+02  0.17940875584E+02  0.28737849499E+01  0.59301956791E+02  0.50000023277E+02 0.  0.
         12    1    1    2    0    0  0.26202787921E+02 -0.17940875584E+02 -0.28737849499E+01  0.31886043209E+02  0.00000000000E+00 0. -1.
         11    1    3    3    0    0  0.55673592726E+01 -0.12864591142E+02  0.17144119946E+01  0.14122053791E+02  0.51100000000E-03 0.  1.
        -11    1    3    3    0    0 -0.13487723454E+02  0.84322494988E+01  0.31607032154E+01  0.16217631167E+02  0.51100000000E-03 0. -1.
        -12    1    3    3    0    0 -0.18282423740E+02  0.22373217228E+02 -0.20013302600E+01  0.28962271833E+02  0.00000000000E+00 0.  1.
</event>
<event>
 7    1  0.6164995E-012  0.5930194E+02  0.7816164E-02  0.1266605E+00
        -11   -1    0    0    0    0  0.00000000000E+00  0.00000000000E+00  0.45593999997E+02  0.45594000000E+02  0.51100000000E-03 0.  1.
         11   -1    0    0    0    0 -0.00000000000E+00 -0.00000000000E+00 -0.45593999997E+02  0.45594000000E+02  0.51100000000E-03 0. -1.
    9900012    2    1    2    0    0 -0.21005892858E+02  0.82129928736E+01  0.22539299188E+02  0.59301940435E+02  0.49999993448E+02 0.  0.
         12    1    1    2    0    0  0.21005892858E+02 -0.82129928736E+01 -0.22539299188E+02  0.31886059565E+02  0.00000000000E+00 0. -1.
         11    1    3    3    0    0 -0.65298938400E+01  0.18412098968E+01  0.22204406374E+02  0.23217778320E+02  0.51100000000E-03 0.  1.
        -11    1    3    3    0    0  0.86320721065E+01  0.40578158809E+01 -0.68856192513E+01  0.11763940297E+02  0.51100000000E-03 0. -1.
         12    1    3    3    0    0 -0.23108071124E+02  0.23139670960E+01  0.72205120655E+01  0.24320221818E+02  0.00000000000E+00 0. -1.
</event>
<event>
 7    1  0.6164995E-012  0.5930194E+02  0.7816164E-02  0.1266605E+00
        -11   -1    0    0    0    0  0.00000000000E+00  0.00000000000E+00  0.45593999997E+02  0.45594000000E+02  0.51100000000E-03 0.  1.
         11   -1    0    0    0    0 -0.00000000000E+00 -0.00000000000E+00 -0.45593999997E+02  0.45594000000E+02  0.51100000000E-03 0. -1.
    9900012    2    1    2    0    0  0.23829567179E+02  0.40913573859E+01  0.20787818433E+02  0.59301939214E+02  0.49999991222E+02 0.  0.
         12    1    1    2    0    0 -0.23829567179E+02 -0.40913573859E+01 -0.20787818433E+02  0.31886060786E+02  0.00000000000E+00 0. -1.
         11    1    3    3    0    0 -0.92463465656E+00 -0.27898919145E+01  0.83008121713E+01  0.88057895221E+01  0.51100000000E-03 0. -1.
        -11    1    3    3    0    0  0.27268946578E+01  0.20614049013E+02  0.13019306049E+02  0.24533187756E+02  0.51100000000E-03 0.  1.
         12    1    3    3    0    0  0.22027307178E+02 -0.13732799713E+02 -0.53229978649E+00  0.25962961937E+02  0.00000000000E+00 0. -1.
</event>
<event>
 7    1  0.6164995E-012  0.5930195E+02  0.7816164E-02  0.1266605E+00
        -11   -1    0    0    0    0  0.00000000000E+00  0.00000000000E+00  0.45593999997E+02  0.45594000000E+02  0.51100000000E-03 0.  1.
         11   -1    0    0    0    0 -0.00000000000E+00 -0.00000000000E+00 -0.45593999997E+02  0.45594000000E+02  0.51100000000E-03 0. -1.
    9900012    2    1    2    0    0 -0.20667882819E+00  0.21070619251E+02  0.23931291108E+02  0.59301946531E+02  0.50000004565E+02 0.  0.
         12    1    1    2    0    0  0.20667882819E+00 -0.21070619251E+02 -0.23931291108E+02  0.31886053469E+02  0.00000000000E+00 0. -1.
         11    1    3    3    0    0  0.38696348592E+01  0.33211526304E+00 -0.52043446204E+01  0.64938107210E+01  0.51100000000E-03 0. -1.
        -11    1    3    3    0    0  0.72059296711E+01 -0.90302496508E+01  0.39309532501E+01  0.12203410380E+02  0.51100000000E-03 0.  1.
        -12    1    3    3    0    0 -0.11282243358E+02  0.29768753639E+02  0.25204682478E+02  0.40604725430E+02  0.00000000000E+00 0.  1.
</event>
<event>
 7    1  0.6164995E-012  0.5930194E+02  0.7816164E-02  0.1266605E+00
        -11   -1    0    0    0    0  0.00000000000E+00  0.00000000000E+00  0.45593999997E+02  0.45594000000E+02  0.51100000000E-03 0. -1.
         11   -1    0    0    0    0 -0.00000000000E+00 -0.00000000000E+00 -0.45593999997E+02  0.45594000000E+02  0.51100000000E-03 0.  1.
    9900012    2    1    2    0    0 -0.31843659433E+02  0.97358256906E+00  0.13245065786E+01  0.59301939930E+02  0.49999992527E+02 0.  0.
         12    1    1    2    0    0  0.31843659433E+02 -0.97358256906E+00 -0.13245065786E+01  0.31886060070E+02  0.00000000000E+00 0. -1.
         11    1    3    3    0    0  0.97076394692E+00 -0.77173640143E+01 -0.76082890685E+01  0.10880540096E+02  0.51100000000E-03 0. -1.
        -11    1    3    3    0    0 -0.15498504365E+02 -0.76349733029E+00 -0.12030365519E+02  0.19634567999E+02  0.51100000000E-03 0.  1.
        -12    1    3    3    0    0 -0.17315919015E+02  0.94544439137E+01  0.20963161166E+02  0.28786831835E+02  0.00000000000E+00 0.  1.
</event>
<event>
 7    1  0.6164995E-012  0.5930195E+02  0.7816164E-02  0.1266605E+00
        -11   -1    0    0    0    0  0.00000000000E+00  0.00000000000E+00  0.45593999997E+02  0.45594000000E+02  0.51100000000E-03 0.  1.
         11   -1    0    0    0    0 -0.00000000000E+00 -0.00000000000E+00 -0.45593999997E+02  0.45594000000E+02  0.51100000000E-03 0. -1.
    9900012    2    1    2    0    0 -0.25722318949E+02 -0.16606249620E+02 -0.89058860976E+01  0.59301952491E+02  0.50000015435E+02 0.  0.
         12    1    1    2    0    0  0.25722318949E+02  0.16606249620E+02  0.89058860976E+01  0.31886047509E+02  0.00000000000E+00 0. -1.
         11    1    3    3    0    0 -0.29549628440E+02 -0.25181775914E+02 -0.28902007730E+01  0.38931422269E+02  0.51100000000E-03 0. -1.
        -11    1    3    3    0    0 -0.57273417036E+01  0.47340723504E+01  0.15519788759E+01  0.75909500526E+01  0.51100000000E-03 0.  1.
         12    1    3    3    0    0  0.95546511947E+01  0.38414539434E+01 -0.75676642004E+01  0.12779580169E+02  0.00000000000E+00 0. -1.
</event>
<event>
 7    1  0.6164995E-012  0.5930194E+02  0.7816164E-02  0.1266605E+00
        -11   -1    0    0    0    0  0.00000000000E+00  0.00000000000E+00  0.45593999997E+02  0.45594000000E+02  0.51100000000E-03 0.  1.
         11   -1    0    0    0    0 -0.00000000000E+00 -0.00000000000E+00 -0.45593999997E+02  0.45594000000E+02  0.51100000000E-03 0. -1.
    9900012    2    1    2    0    0 -0.18107063188E+02  0.24019788298E+02  0.10578501712E+02  0.59301942457E+02  0.49999997135E+02 0.  0.
         12    1    1    2    0    0  0.18107063188E+02 -0.24019788298E+02 -0.10578501712E+02  0.31886057543E+02  0.00000000000E+00 0. -1.
         11    1    3    3    0    0  0.38003829716E+01  0.59942541258E+01 -0.14131293117E+02  0.15813520755E+02  0.51100000000E-03 0. -1.
        -11    1    3    3    0    0  0.28576723925E+01 -0.37607755008E+00  0.77770476000E+01  0.82939854992E+01  0.51100000000E-03 0.  1.
        -12    1    3    3    0    0 -0.24765118552E+02  0.18401611722E+02  0.16932747229E+02  0.35194436202E+02  0.00000000000E+00 0.  1.
</event>
<event>
 7    1  0.6164995E-012  0.5930192E+02  0.7816164E-02  0.1266605E+00
        -11   -1    0    0    0    0  0.00000000000E+00  0.00000000000E+00  0.45593999997E+02  0.45594000000E+02  0.51100000000E-03 0. -1.
         11   -1    0    0    0    0 -0.00000000000E+00 -0.00000000000E+00 -0.45593999997E+02  0.45594000000E+02  0.51100000000E-03 0.  1.
    9900012    2    1    2    0    0 -0.12513590017E+02  0.17411764153E+01 -0.29276276485E+02  0.59301921607E+02  0.49999959111E+02 0.  0.
         12    1    1    2    0    0  0.12513590017E+02 -0.17411764153E+01  0.29276276485E+02  0.31886078393E+02  0.00000000000E+00 0. -1.
         11    1    3    3    0    0  0.14233073099E+02  0.68187600250E+00 -0.79245281240E+01  0.16304707019E+02  0.51100000000E-03 0. -1.
        -11    1    3    3    0    0  0.21749026422E+01 -0.68056941117E+01 -0.59595229715E+01  0.93039555112E+01  0.51100000000E-03 0.  1.
         12    1    3    3    0    0 -0.28921565759E+02  0.78649945245E+01 -0.15392225389E+02  0.33693259077E+02  0.00000000000E+00 0. -1.
</event>
<event>
 7    1  0.6164995E-012  0.5930196E+02  0.7816164E-02  0.1266605E+00
        -11   -1    0    0    0    0  0.00000000000E+00  0.00000000000E+00  0.45593999997E+02  0.45594000000E+02  0.51100000000E-03 0.  1.
         11   -1    0    0    0    0 -0.00000000000E+00 -0.00000000000E+00 -0.45593999997E+02  0.45594000000E+02  0.51100000000E-03 0. -1.
    9900012    2    1    2    0    0  0.28702005517E+01 -0.25670661685E+02  0.18694888912E+02  0.59301956125E+02  0.50000022063E+02 0.  0.
         12    1    1    2    0    0 -0.28702005517E+01  0.25670661685E+02 -0.18694888912E+02  0.31886043875E+02  0.00000000000E+00 0. -1.
         11    1    3    3    0    0 -0.50329048480E+01 -0.19181272965E+02 -0.13799282715E+02  0.24159295675E+02  0.51100000000E-03 0.  1.
        -11    1    3    3    0    0  0.50037510422E+01  0.73671555223E+00  0.17907549644E+02  0.18608079128E+02  0.51100000000E-03 0. -1.
        -12    1    3    3    0    0  0.28993543575E+01 -0.72261042722E+01  0.14586621983E+02  0.16534581322E+02  0.00000000000E+00 0.  1.
</event>
<event>
 7    1  0.6164995E-012  0.5930204E+02  0.7816164E-02  0.1266604E+00
        -11   -1    0    0    0    0  0.00000000000E+00  0.00000000000E+00  0.45593999997E+02  0.45594000000E+02  0.51100000000E-03 0.  1.
         11   -1    0    0    0    0 -0.00000000000E+00 -0.00000000000E+00 -0.45593999997E+02  0.45594000000E+02  0.51100000000E-03 0. -1.
    9900012    2    1    2    0    0 -0.47644776856E+01 -0.28576391388E+02  0.13319316032E+02  0.59302038012E+02  0.50000171404E+02 0.  0.
         12    1    1    2    0    0  0.47644776856E+01  0.28576391388E+02 -0.13319316032E+02  0.31885961988E+02  0.00000000000E+00 0. -1.
         11    1    3    3    0    0  0.54744171661E+01 -0.10465697635E+02 -0.57075038035E+01  0.13117761632E+02  0.51100000000E-03 0. -1.
        -11    1    3    3    0    0  0.12111466105E+02 -0.23369985238E+01 -0.85824451332E+00  0.12364698024E+02  0.51100000000E-03 0.  1.
        -12    1    3    3    0    0 -0.22350360956E+02 -0.15773695229E+02  0.19885064349E+02  0.33819578357E+02  0.00000000000E+00 0.  1.
</event>
<event>
 7    1  0.6164995E-012  0.5930190E+02  0.7816164E-02  0.1266605E+00
        -11   -1    0    0    0    0  0.00000000000E+00  0.00000000000E+00  0.45593999997E+02  0.45594000000E+02  0.51100000000E-03 0. -1.
         11   -1    0    0    0    0 -0.00000000000E+00 -0.00000000000E+00 -0.45593999997E+02  0.45594000000E+02  0.51100000000E-03 0.  1.
    9900012    2    1    2    0    0  0.15114308629E+02  0.27913346431E+02 -0.30209119424E+01  0.59301903605E+02  0.49999926279E+02 0.  0.
         12    1    1    2    0    0 -0.15114308629E+02 -0.27913346431E+02  0.30209119424E+01  0.31886096395E+02  0.00000000000E+00 0. -1.
         11    1    3    3    0    0 -0.11531228372E+02 -0.37027738302E+01 -0.20237359425E+01  0.12279058157E+02  0.51100000000E-03 0. -1.
        -11    1    3    3    0    0  0.41807238719E+01 -0.34103384340E+01  0.11400729542E+00  0.53964672010E+01  0.51100000000E-03 0.  1.
        -12    1    3    3    0    0  0.22464813129E+02  0.35026458696E+02 -0.11111832954E+01  0.41626378247E+02  0.00000000000E+00 0.  1.
</event>
<event>
 7    1  0.6164995E-012  0.5930192E+02  0.7816164E-02  0.1266605E+00
        -11   -1    0    0    0    0  0.00000000000E+00  0.00000000000E+00  0.45593999997E+02  0.45594000000E+02  0.51100000000E-03 0.  1.
         11   -1    0    0    0    0 -0.00000000000E+00 -0.00000000000E+00 -0.45593999997E+02  0.45594000000E+02  0.51100000000E-03 0. -1.
    9900012    2    1    2    0    0 -0.22629415316E+02  0.55680478514E+01  0.21763005249E+02  0.59301921661E+02  0.49999959208E+02 0.  0.
         12    1    1    2    0    0  0.22629415316E+02 -0.55680478514E+01 -0.21763005249E+02  0.31886078339E+02  0.00000000000E+00 0. -1.
         11    1    3    3    0    0  0.82209782346E+01  0.89784274871E+01  0.14917152630E+01  0.12264658901E+02  0.51100000000E-03 0. -1.
        -11    1    3    3    0    0 -0.13686930553E+02 -0.55793800537E+01 -0.56916873279E+01  0.15838461246E+02  0.51100000000E-03 0.  1.
         12    1    3    3    0    0 -0.17163462997E+02  0.21690004180E+01  0.25962977314E+02  0.31198801513E+02  0.00000000000E+00 0. -1.
</event>
<event>
 7    1  0.6164995E-012  0.5930195E+02  0.7816164E-02  0.1266605E+00
        -11   -1    0    0    0    0  0.00000000000E+00  0.00000000000E+00  0.45593999997E+02  0.45594000000E+02  0.51100000000E-03 0. -1.
         11   -1    0    0    0    0 -0.00000000000E+00 -0.00000000000E+00 -0.45593999997E+02  0.45594000000E+02  0.51100000000E-03 0.  1.
    9900012    2    1    2    0    0 -0.20858586202E+02 -0.19803973370E+02 -0.13763803541E+02  0.59301948700E+02  0.50000008521E+02 0.  0.
         12    1    1    2    0    0  0.20858586202E+02  0.19803973370E+02  0.13763803541E+02  0.31886051300E+02  0.00000000000E+00 0. -1.
         11    1    3    3    0    0 -0.44169217680E+01  0.30692127398E+01 -0.16297515922E+02  0.17162117883E+02  0.51100000000E-03 0. -1.
        -11    1    3    3    0    0  0.88717582417E+01 -0.42425412284E+01 -0.28790289940E+01  0.10246758443E+02  0.51100000000E-03 0.  1.
         12    1    3    3    0    0 -0.25313422676E+02 -0.18630644881E+02  0.54127413750E+01  0.31893072374E+02  0.00000000000E+00 0. -1.
</event>
<event>
 7    1  0.6164995E-012  0.5930195E+02  0.7816164E-02  0.1266605E+00
        -11   -1    0    0    0    0  0.00000000000E+00  0.00000000000E+00  0.45593999997E+02  0.45594000000E+02  0.51100000000E-03 0. -1.
         11   -1    0    0    0    0 -0.00000000000E+00 -0.00000000000E+00 -0.45593999997E+02  0.45594000000E+02  0.51100000000E-03 0.  1.
    9900012    2    1    2    0    0  0.30281126756E+02  0.75008980021E+01 -0.65962293989E+01  0.59301947395E+02  0.50000006141E+02 0.  0.
         12    1    1    2    0    0 -0.30281126756E+02 -0.75008980021E+01  0.65962293989E+01  0.31886052605E+02  0.00000000000E+00 0. -1.
         11    1    3    3    0    0 -0.21133238071E+01  0.56053598409E+01  0.10936470942E+02  0.12469666931E+02  0.51100000000E-03 0. -1.
        -11    1    3    3    0    0  0.12238610517E+02  0.14477854080E+02 -0.36267634647E+01  0.19301431544E+02  0.51100000000E-03 0.  1.
        -12    1    3    3    0    0  0.20155840046E+02 -0.12582315919E+02 -0.13905936876E+02  0.27530848919E+02  0.00000000000E+00 0.  1.
</event>
<event>
 7    1  0.6164995E-012  0.5930196E+02  0.7816164E-02  0.1266605E+00
        -11   -1    0    0    0    0  0.00000000000E+00  0.00000000000E+00  0.45593999997E+02  0.45594000000E+02  0.51100000000E-03 0.  1.
         11   -1    0    0    0    0 -0.00000000000E+00 -0.00000000000E+00 -0.45593999997E+02  0.45594000000E+02  0.51100000000E-03 0. -1.
    9900012    2    1    2    0    0  0.11912676464E+02 -0.29202647912E+02  0.46918304239E+01  0.59301956370E+02  0.50000022510E+02 0.  0.
         12    1    1    2    0    0 -0.11912676464E+02  0.29202647912E+02 -0.46918304239E+01  0.31886043630E+02  0.00000000000E+00 0. -1.
         11    1    3    3    0    0 -0.70452054414E+01 -0.15633820654E+02  0.31812195752E+01  0.17440511064E+02  0.51100000000E-03 0. -1.
        -11    1    3    3    0    0  0.91029077978E+01 -0.19958690413E+02  0.12943530847E+02  0.25470517160E+02  0.51100000000E-03 0.  1.
         12    1    3    3    0    0  0.98549741072E+01  0.63898631539E+01 -0.11432919999E+02  0.16390928146E+02  0.00000000000E+00 0. -1.
</event>
<event>
 7    1  0.6164995E-012  0.5930195E+02  0.7816164E-02  0.1266605E+00
        -11   -1    0    0    0    0  0.00000000000E+00  0.00000000000E+00  0.45593999997E+02  0.45594000000E+02  0.51100000000E-03 0. -1.
         11   -1    0    0    0    0 -0.00000000000E+00 -0.00000000000E+00 -0.45593999997E+02  0.45594000000E+02  0.51100000000E-03 0.  1.
    9900012    2    1    2    0    0  0.10039495660E+02  0.27608645403E+02  0.12397246552E+02  0.59301945114E+02  0.50000001981E+02 0.  0.
         12    1    1    2    0    0 -0.10039495660E+02 -0.27608645403E+02 -0.12397246552E+02  0.31886054886E+02  0.00000000000E+00 0. -1.
         11    1    3    3    0    0 -0.15044287255E+01 -0.79304259602E+00  0.32953328631E+01  0.37082935818E+01  0.51100000000E-03 0. -1.
        -11    1    3    3    0    0 -0.50789185445E+01  0.35528187778E+02  0.10664137410E+02  0.37440237277E+02  0.51100000000E-03 0.  1.
         12    1    3    3    0    0  0.16622842930E+02 -0.71264997788E+01 -0.15622237212E+01  0.18153414256E+02  0.00000000000E+00 0. -1.
</event>
<event>
 7    1  0.6164995E-012  0.5930195E+02  0.7816164E-02  0.1266605E+00
        -11   -1    0    0    0    0  0.00000000000E+00  0.00000000000E+00  0.45593999997E+02  0.45594000000E+02  0.51100000000E-03 0.  1.
         11   -1    0    0    0    0 -0.00000000000E+00 -0.00000000000E+00 -0.45593999997E+02  0.45594000000E+02  0.51100000000E-03 0. -1.
    9900012    2    1    2    0    0  0.34866310312E+01 -0.60791426493E+01  0.31106393512E+02  0.59301948369E+02  0.50000007917E+02 0.  0.
         12    1    1    2    0    0 -0.34866310312E+01  0.60791426493E+01 -0.31106393512E+02  0.31886051631E+02  0.00000000000E+00 0. -1.
         11    1    3    3    0    0 -0.86475118372E+01  0.14155803339E+02  0.11823326749E+02  0.20370500358E+02  0.51100000000E-03 0. -1.
        -11    1    3    3    0    0 -0.58921111150E+01 -0.59219116903E+00  0.80681580473E+01  0.10008138604E+02  0.51100000000E-03 0.  1.
        -12    1    3    3    0    0  0.18026253984E+02 -0.19642754820E+02  0.11214908715E+02  0.28923309407E+02  0.00000000000E+00 0.  1.
</event>
<event>
 7    1  0.6164995E-012  0.5930195E+02  0.7816164E-02  0.1266605E+00
        -11   -1    0    0    0    0  0.00000000000E+00  0.00000000000E+00  0.45593999997E+02  0.45594000000E+02  0.51100000000E-03 0.  1.
         11   -1    0    0    0    0 -0.00000000000E+00 -0.00000000000E+00 -0.45593999997E+02  0.45594000000E+02  0.51100000000E-03 0. -1.
    9900012    2    1    2    0    0 -0.25538068166E+01 -0.13551836598E+02  0.28749710907E+02  0.59301951614E+02  0.50000013835E+02 0.  0.
         12    1    1    2    0    0  0.25538068166E+01  0.13551836598E+02 -0.28749710907E+02  0.31886048386E+02  0.00000000000E+00 0. -1.
         11    1    3    3    0    0  0.21585254216E+01 -0.59814096669E+01  0.65107583269E+01  0.91009047820E+01  0.51100000000E-03 0. -1.
        -11    1    3    3    0    0  0.14227870940E+02  0.11349423899E+02  0.99782615233E+01  0.20755901272E+02  0.51100000000E-03 0.  1.
         12    1    3    3    0    0 -0.18940203178E+02 -0.18919850830E+02  0.12260691057E+02  0.29445145560E+02  0.00000000000E+00 0. -1.
</event>
<event>
 7    1  0.6164995E-012  0.5930194E+02  0.7816164E-02  0.1266605E+00
        -11   -1    0    0    0    0  0.00000000000E+00  0.00000000000E+00  0.45593999997E+02  0.45594000000E+02  0.51100000000E-03 0. -1.
         11   -1    0    0    0    0 -0.00000000000E+00 -0.00000000000E+00 -0.45593999997E+02  0.45594000000E+02  0.51100000000E-03 0.  1.
    9900012    2    1    2    0    0 -0.26485494317E+02 -0.16270587556E+01 -0.17680266964E+02  0.59301943968E+02  0.49999999890E+02 0.  0.
         12    1    1    2    0    0  0.26485494317E+02  0.16270587556E+01  0.17680266964E+02  0.31886056032E+02  0.00000000000E+00 0. -1.
         11    1    3    3    0    0  0.64679275018E+00  0.10412143214E+02  0.13081379954E+01  0.10513909475E+02  0.51100000000E-03 0. -1.
        -11    1    3    3    0    0  0.45694937600E+01  0.34493462071E+01 -0.11313768362E+02  0.12679890271E+02  0.51100000000E-03 0.  1.
        -12    1    3    3    0    0 -0.31701780827E+02 -0.15488548177E+02 -0.76746365975E+01  0.36108144222E+02  0.00000000000E+00 0.  1.
</event>
<event>
 7    1  0.6164995E-012  0.5930194E+02  0.7816164E-02  0.1266605E+00
        -11   -1    0    0    0    0  0.00000000000E+00  0.00000000000E+00  0.45593999997E+02  0.45594000000E+02  0.51100000000E-03 0. -1.
         11   -1    0    0    0    0 -0.00000000000E+00 -0.00000000000E+00 -0.45593999997E+02  0.45594000000E+02  0.51100000000E-03 0.  1.
    9900012    2    1    2    0    0 -0.13404671513E+01  0.31060918180E+02  0.70811766953E+01  0.59301944212E+02  0.50000000336E+02 0.  0.
         12    1    1    2    0    0  0.13404671513E+01 -0.31060918180E+02 -0.70811766953E+01  0.31886055788E+02  0.00000000000E+00 0. -1.
         11    1    3    3    0    0 -0.15483078886E+02  0.21523971288E+01  0.20037257098E+01  0.15759868723E+02  0.51100000000E-03 0.  1.
        -11    1    3    3    0    0  0.11997193687E+02 -0.12600583033E+01  0.55843562365E+01  0.13293059773E+02  0.51100000000E-03 0. -1.
         12    1    3    3    0    0  0.21454180480E+01  0.30168579354E+02 -0.50690525095E+00  0.30249015716E+02  0.00000000000E+00 0. -1.
</event>
<event>
 7    1  0.6164995E-012  0.5930195E+02  0.7816164E-02  0.1266605E+00
        -11   -1    0    0    0    0  0.00000000000E+00  0.00000000000E+00  0.45593999997E+02  0.45594000000E+02  0.51100000000E-03 0.  1.
         11   -1    0    0    0    0 -0.00000000000E+00 -0.00000000000E+00 -0.45593999997E+02  0.45594000000E+02  0.51100000000E-03 0. -1.
    9900012    2    1    2    0    0  0.14800043466E+02 -0.27025031048E+02  0.82052806410E+01  0.59301949443E+02  0.50000009876E+02 0.  0.
         12    1    1    2    0    0 -0.14800043466E+02  0.27025031048E+02 -0.82052806410E+01  0.31886050557E+02  0.00000000000E+00 0. -1.
         11    1    3    3    0    0  0.57166854682E+01 -0.22304502216E+02  0.82822809569E+01  0.24469725988E+02  0.51100000000E-03 0. -1.
        -11    1    3    3    0    0 -0.77659401027E+01 -0.12993081039E+02  0.39296619764E+01  0.15638805072E+02  0.51100000000E-03 0.  1.
         12    1    3    3    0    0  0.16849298101E+02  0.82725522065E+01 -0.40066622922E+01  0.19193418383E+02  0.00000000000E+00 0. -1.
</event>
<event>
 7    1  0.6164995E-012  0.5930192E+02  0.7816164E-02  0.1266605E+00
        -11   -1    0    0    0    0  0.00000000000E+00  0.00000000000E+00  0.45593999997E+02  0.45594000000E+02  0.51100000000E-03 0. -1.
         11   -1    0    0    0    0 -0.00000000000E+00 -0.00000000000E+00 -0.45593999997E+02  0.45594000000E+02  0.51100000000E-03 0.  1.
    9900012    2    1    2    0    0  0.17235374491E+02  0.15388401705E+02 -0.21974100739E+02  0.59301919272E+02  0.49999954851E+02 0.  0.
         12    1    1    2    0    0 -0.17235374491E+02 -0.15388401705E+02  0.21974100739E+02  0.31886080728E+02  0.00000000000E+00 0. -1.
         11    1    3    3    0    0 -0.51898290177E+01 -0.64714202973E+01 -0.76941737649E+01  0.11314323492E+02  0.51100000000E-03 0. -1.
        -11    1    3    3    0    0 -0.32760426582E+01  0.19322367738E+02 -0.92701058035E+01  0.21679972610E+02  0.51100000000E-03 0.  1.
        -12    1    3    3    0    0  0.25701246167E+02  0.25374542645E+01 -0.50098211709E+01  0.26307623170E+02  0.00000000000E+00 0.  1.
</event>
<event>
 7    1  0.6164995E-012  0.5930194E+02  0.7816164E-02  0.1266605E+00
        -11   -1    0    0    0    0  0.00000000000E+00  0.00000000000E+00  0.45593999997E+02  0.45594000000E+02  0.51100000000E-03 0.  1.
         11   -1    0    0    0    0 -0.00000000000E+00 -0.00000000000E+00 -0.45593999997E+02  0.45594000000E+02  0.51100000000E-03 0. -1.
    9900012    2    1    2    0    0  0.69301555520E+01 -0.30435299123E+02 -0.65104883824E+01  0.59301938035E+02  0.49999989070E+02 0.  0.
         12    1    1    2    0    0 -0.69301555520E+01  0.30435299123E+02  0.65104883824E+01  0.31886061965E+02  0.00000000000E+00 0. -1.
         11    1    3    3    0    0 -0.44857164729E+01  0.20489625808E+01  0.14969539125E+02  0.15760932771E+02  0.51100000000E-03 0. -1.
        -11    1    3    3    0    0  0.10177140068E+02 -0.21700939954E+02 -0.61286382698E+01  0.24739951135E+02  0.51100000000E-03 0.  1.
        -12    1    3    3    0    0  0.12387319564E+01 -0.10783321750E+02 -0.15351389238E+02  0.18801054129E+02  0.00000000000E+00 0.  1.
</event>
<event>
 7    1  0.6164995E-012  0.5930194E+02  0.7816164E-02  0.1266605E+00
        -11   -1    0    0    0    0  0.00000000000E+00  0.00000000000E+00  0.45593999997E+02  0.45594000000E+02  0.51100000000E-03 0. -1.
         11   -1    0    0    0    0 -0.00000000000E+00 -0.00000000000E+00 -0.45593999997E+02  0.45594000000E+02  0.51100000000E-03 0.  1.
    9900012    2    1    2    0    0  0.25108142452E+02 -0.18723604048E+02  0.59773310243E+01  0.59301942669E+02  0.49999997521E+02 0.  0.
         12    1    1    2    0    0 -0.25108142452E+02  0.18723604048E+02 -0.59773310243E+01  0.31886057331E+02  0.00000000000E+00 0. -1.
         11    1    3    3    0    0 -0.14588564329E+01 -0.12062167872E+02 -0.93508500486E+01  0.15331749827E+02  0.51100000000E-03 0. -1.
        -11    1    3    3    0    0  0.11466840538E+02  0.54032688473E+01  0.20373011780E+02  0.23994652642E+02  0.51100000000E-03 0.  1.
         12    1    3    3    0    0  0.15100158347E+02 -0.12064705023E+02 -0.50448307068E+01  0.19975540200E+02  0.00000000000E+00 0. -1.
</event>
<event>
 7    1  0.6164995E-012  0.5930200E+02  0.7816164E-02  0.1266605E+00
        -11   -1    0    0    0    0  0.00000000000E+00  0.00000000000E+00  0.45593999997E+02  0.45594000000E+02  0.51100000000E-03 0.  1.
         11   -1    0    0    0    0 -0.00000000000E+00 -0.00000000000E+00 -0.45593999997E+02  0.45594000000E+02  0.51100000000E-03 0. -1.
    9900012    2    1    2    0    0 -0.16396509637E+02  0.24692809821E+02  0.11753164739E+02  0.59301995758E+02  0.50000094344E+02 0.  0.
         12    1    1    2    0    0  0.16396509637E+02 -0.24692809821E+02 -0.11753164739E+02  0.31886004242E+02  0.00000000000E+00 0. -1.
         11    1    3    3    0    0 -0.30430932933E+01  0.66850887853E+01  0.14101746503E+02  0.15900002628E+02  0.51100000000E-03 0. -1.
        -11    1    3    3    0    0  0.75572542736E+01  0.45159445944E+01  0.11841160014E+02  0.14755301369E+02  0.51100000000E-03 0.  1.
         12    1    3    3    0    0 -0.20910670617E+02  0.13491776441E+02 -0.14189741778E+02  0.28646691762E+02  0.00000000000E+00 0. -1.
</event>
<event>
 7    1  0.6164995E-012  0.5930193E+02  0.7816164E-02  0.1266605E+00
        -11   -1    0    0    0    0  0.00000000000E+00  0.00000000000E+00  0.45593999997E+02  0.45594000000E+02  0.51100000000E-03 0. -1.
         11   -1    0    0    0    0 -0.00000000000E+00 -0.00000000000E+00 -0.45593999997E+02  0.45594000000E+02  0.51100000000E-03 0.  1.
    9900012    2    1    2    0    0 -0.48894415695E+01  0.30560171680E+02  0.76740421497E+01  0.59301926945E+02  0.49999968845E+02 0.  0.
         12    1    1    2    0    0  0.48894415695E+01 -0.30560171680E+02 -0.76740421497E+01  0.31886073055E+02  0.00000000000E+00 0. -1.
         11    1    3    3    0    0  0.62786763256E+00  0.16084725337E+02  0.11927337869E+02  0.20034320448E+02  0.51100000000E-03 0. -1.
        -11    1    3    3    0    0 -0.63933459532E+01  0.25077050836E+02 -0.92920902510E+01  0.27496841502E+02  0.51100000000E-03 0.  1.
         12    1    3    3    0    0  0.87603675115E+00 -0.10601604493E+02  0.50387945321E+01  0.11770764994E+02  0.00000000000E+00 0. -1.
</event>
<event>
 7    1  0.6164995E-012  0.5930197E+02  0.7816164E-02  0.1266605E+00
        -11   -1    0    0    0    0  0.00000000000E+00  0.00000000000E+00  0.45593999997E+02  0.45594000000E+02  0.51100000000E-03 0. -1.
         11   -1    0    0    0    0 -0.00000000000E+00 -0.00000000000E+00 -0.45593999997E+02  0.45594000000E+02  0.51100000000E-03 0.  1.
    9900012    2    1    2    0    0 -0.56625930313E+01  0.15247084111E+01 -0.31342129520E+02  0.59301972050E+02  0.50000051106E+02 0.  0.
         12    1    1    2    0    0  0.56625930313E+01 -0.15247084111E+01  0.31342129520E+02  0.31886027950E+02  0.00000000000E+00 0. -1.
         11    1    3    3    0    0  0.47838420348E+01  0.64923625722E+01 -0.12520019915E+02  0.14892508698E+02  0.51100000000E-03 0. -1.
        -11    1    3    3    0    0 -0.15063573763E+02 -0.15980975651E+02 -0.22958882872E+02  0.31771262806E+02  0.51100000000E-03 0.  1.
         12    1    3    3    0    0  0.46171386971E+01  0.11013321490E+02  0.41367732666E+01  0.12638200547E+02  0.00000000000E+00 0. -1.
</event>
<event>
 7    1  0.6164995E-012  0.5930192E+02  0.7816164E-02  0.1266605E+00
        -11   -1    0    0    0    0  0.00000000000E+00  0.00000000000E+00  0.45593999997E+02  0.45594000000E+02  0.51100000000E-03 0. -1.
         11   -1    0    0    0    0 -0.00000000000E+00 -0.00000000000E+00 -0.45593999997E+02  0.45594000000E+02  0.51100000000E-03 0.  1.
    9900012    2    1    2    0    0  0.31239558233E+02  0.59522696231E+01  0.23200722441E+01  0.59301917653E+02  0.49999951898E+02 0.  0.
         12    1    1    2    0    0 -0.31239558233E+02 -0.59522696231E+01 -0.23200722441E+01  0.31886082347E+02  0.00000000000E+00 0. -1.
         11    1    3    3    0    0  0.15834238397E+02 -0.82343611419E+01  0.13626661576E+02  0.22454703628E+02  0.51100000000E-03 0. -1.
        -11    1    3    3    0    0  0.64089288994E+01  0.20132223422E+02  0.13039209587E+00  0.21128127980E+02  0.51100000000E-03 0.  1.
         12    1    3    3    0    0  0.89963909361E+01 -0.59455926573E+01 -0.11436981428E+02  0.15719086046E+02  0.00000000000E+00 0. -1.
</event>
<event>
 7    1  0.6164995E-012  0.5930194E+02  0.7816164E-02  0.1266605E+00
        -11   -1    0    0    0    0  0.00000000000E+00  0.00000000000E+00  0.45593999997E+02  0.45594000000E+02  0.51100000000E-03 0. -1.
         11   -1    0    0    0    0 -0.00000000000E+00 -0.00000000000E+00 -0.45593999997E+02  0.45594000000E+02  0.51100000000E-03 0.  1.
    9900012    2    1    2    0    0 -0.15778174334E+02 -0.27010992612E+02 -0.61786727570E+01  0.59301944988E+02  0.50000001751E+02 0.  0.
         12    1    1    2    0    0  0.15778174334E+02  0.27010992612E+02  0.61786727570E+01  0.31886055012E+02  0.00000000000E+00 0. -1.
         11    1    3    3    0    0  0.37747394363E+01  0.80648422409E+01 -0.53973326968E+01  0.10412566383E+02  0.51100000000E-03 0. -1.
        -11    1    3    3    0    0  0.32776166295E+00 -0.24162875630E+02 -0.73853730792E+01  0.25268472890E+02  0.51100000000E-03 0.  1.
        -12    1    3    3    0    0 -0.19880675433E+02 -0.10912959224E+02  0.66040330191E+01  0.23620905715E+02  0.00000000000E+00 0.  1.
</event>
<event>
 7    1  0.6164995E-012  0.5930196E+02  0.7816164E-02  0.1266605E+00
        -11   -1    0    0    0    0  0.00000000000E+00  0.00000000000E+00  0.45593999997E+02  0.45594000000E+02  0.51100000000E-03 0.  1.
         11   -1    0    0    0    0 -0.00000000000E+00 -0.00000000000E+00 -0.45593999997E+02  0.45594000000E+02  0.51100000000E-03 0. -1.
    9900012    2    1    2    0    0 -0.56386773259E+01 -0.31366186967E+02 -0.10427858669E+01  0.59301956514E+02  0.50000022772E+02 0.  0.
         12    1    1    2    0    0  0.56386773259E+01  0.31366186967E+02  0.10427858669E+01  0.31886043486E+02  0.00000000000E+00 0. -1.
         11    1    3    3    0    0  0.82663949961E+01 -0.11316163490E+02  0.12788081103E+02  0.18971659414E+02  0.51100000000E-03 0. -1.
        -11    1    3    3    0    0  0.55463923151E+01  0.20786608065E+01  0.27414172991E+01  0.65267654723E+01  0.51100000000E-03 0.  1.
        -12    1    3    3    0    0 -0.19451464637E+02 -0.22128684283E+02 -0.16572284268E+02  0.33803531628E+02  0.00000000000E+00 0.  1.
</event>
<event>
 7    1  0.6164995E-012  0.5930194E+02  0.7816164E-02  0.1266605E+00
        -11   -1    0    0    0    0  0.00000000000E+00  0.00000000000E+00  0.45593999997E+02  0.45594000000E+02  0.51100000000E-03 0.  1.
         11   -1    0    0    0    0 -0.00000000000E+00 -0.00000000000E+00 -0.45593999997E+02  0.45594000000E+02  0.51100000000E-03 0. -1.
    9900012    2    1    2    0    0  0.22378621389E+02  0.21924833470E+02 -0.59346035385E+01  0.59301944472E+02  0.50000000810E+02 0.  0.
         12    1    1    2    0    0 -0.22378621389E+02 -0.21924833470E+02  0.59346035385E+01  0.31886055528E+02  0.00000000000E+00 0. -1.
         11    1    3    3    0    0  0.20044236556E+01  0.13271807248E+02 -0.14604837431E+02  0.19835822607E+02  0.51100000000E-03 0. -1.
        -11    1    3    3    0    0  0.16499634946E+02  0.19378626481E+02  0.53342791633E+00  0.25456898146E+02  0.51100000000E-03 0.  1.
        -12    1    3    3    0    0  0.38745627882E+01 -0.10725600259E+02  0.81368059764E+01  0.14009223719E+02  0.00000000000E+00 0.  1.
</event>
<event>
 7    1  0.6164995E-012  0.5930192E+02  0.7816164E-02  0.1266605E+00
        -11   -1    0    0    0    0  0.00000000000E+00  0.00000000000E+00  0.45593999997E+02  0.45594000000E+02  0.51100000000E-03 0. -1.
         11   -1    0    0    0    0 -0.00000000000E+00 -0.00000000000E+00 -0.45593999997E+02  0.45594000000E+02  0.51100000000E-03 0.  1.
    9900012    2    1    2    0    0 -0.13064175930E+02  0.12902167288E+02 -0.26068828098E+02  0.59301915075E+02  0.49999947197E+02 0.  0.
         12    1    1    2    0    0  0.13064175930E+02 -0.12902167288E+02  0.26068828098E+02  0.31886084925E+02  0.00000000000E+00 0. -1.
         11    1    3    3    0    0 -0.17004146177E+02  0.15426014287E+02 -0.70774845837E+01  0.24024855718E+02  0.51100000000E-03 0. -1.
        -11    1    3    3    0    0  0.62024037110E+01  0.12328178841E+02 -0.48018347535E+01  0.14612030064E+02  0.51100000000E-03 0.  1.
        -12    1    3    3    0    0 -0.22624334644E+01 -0.14852025841E+02 -0.14189508761E+02  0.20665029292E+02  0.00000000000E+00 0.  1.
</event>
<event>
 7    1  0.6164995E-012  0.5930193E+02  0.7816164E-02  0.1266605E+00
        -11   -1    0    0    0    0  0.00000000000E+00  0.00000000000E+00  0.45593999997E+02  0.45594000000E+02  0.51100000000E-03 0.  1.
         11   -1    0    0    0    0 -0.00000000000E+00 -0.00000000000E+00 -0.45593999997E+02  0.45594000000E+02  0.51100000000E-03 0. -1.
    9900012    2    1    2    0    0 -0.26469950357E+02  0.10057576786E+02  0.14659750345E+02  0.59301930896E+02  0.49999976051E+02 0.  0.
         12    1    1    2    0    0  0.26469950357E+02 -0.10057576786E+02 -0.14659750345E+02  0.31886069104E+02  0.00000000000E+00 0. -1.
         11    1    3    3    0    0 -0.68867221237E+01 -0.11978366126E+02  0.11279595081E+02  0.17836408330E+02  0.51100000000E-03 0. -1.
        -11    1    3    3    0    0  0.37192601974E+01  0.15853888289E+02  0.56823822495E+01  0.17247264670E+02  0.51100000000E-03 0.  1.
        -12    1    3    3    0    0 -0.23302488431E+02  0.61820546234E+01 -0.23022269855E+01  0.24218257896E+02  0.00000000000E+00 0.  1.
</event>
<event>
 7    1  0.6164995E-012  0.5930193E+02  0.7816164E-02  0.1266605E+00
        -11   -1    0    0    0    0  0.00000000000E+00  0.00000000000E+00  0.45593999997E+02  0.45594000000E+02  0.51100000000E-03 0. -1.
         11   -1    0    0    0    0 -0.00000000000E+00 -0.00000000000E+00 -0.45593999997E+02  0.45594000000E+02  0.51100000000E-03 0.  1.
    9900012    2    1    2    0    0 -0.42959369089E+01  0.70896563218E+01 -0.30789654868E+02  0.59301934900E+02  0.49999983353E+02 0.  0.
         12    1    1    2    0    0  0.42959369089E+01 -0.70896563218E+01  0.30789654868E+02  0.31886065100E+02  0.00000000000E+00 0. -1.
         11    1    3    3    0    0  0.10821949341E+02  0.25159124442E+01 -0.26506367735E+02  0.28740771279E+02  0.51100000000E-03 0. -1.
        -11    1    3    3    0    0  0.77343682500E-01  0.11314009490E+02 -0.75741956310E+01  0.13615477681E+02  0.51100000000E-03 0.  1.
         12    1    3    3    0    0 -0.15195229932E+02 -0.67402656120E+01  0.32909084983E+01  0.16945685940E+02  0.00000000000E+00 0. -1.
</event>
<event>
 7    1  0.6164995E-012  0.5930197E+02  0.7816164E-02  0.1266605E+00
        -11   -1    0    0    0    0  0.00000000000E+00  0.00000000000E+00  0.45593999997E+02  0.45594000000E+02  0.51100000000E-03 0. -1.
         11   -1    0    0    0    0 -0.00000000000E+00 -0.00000000000E+00 -0.45593999997E+02  0.45594000000E+02  0.51100000000E-03 0.  1.
    9900012    2    1    2    0    0  0.10177663392E+02 -0.23207920626E+02 -0.19352694896E+02  0.59301965257E+02  0.50000038718E+02 0.  0.
         12    1    1    2    0    0 -0.10177663392E+02  0.23207920626E+02  0.19352694896E+02  0.31886034743E+02  0.00000000000E+00 0. -1.
         11    1    3    3    0    0  0.55824357045E+01 -0.47968441635E+01  0.42080088944E+01  0.84782451863E+01  0.51100000000E-03 0. -1.
        -11    1    3    3    0    0  0.20931340106E+02 -0.72359594812E+00 -0.10386253583E+02  0.23377742694E+02  0.51100000000E-03 0.  1.
         12    1    3    3    0    0 -0.16336112419E+02 -0.17687480514E+02 -0.13174450207E+02  0.27445977377E+02  0.00000000000E+00 0. -1.
</event>
<event>
 7    1  0.6164995E-012  0.5930196E+02  0.7816164E-02  0.1266605E+00
        -11   -1    0    0    0    0  0.00000000000E+00  0.00000000000E+00  0.45593999997E+02  0.45594000000E+02  0.51100000000E-03 0.  1.
         11   -1    0    0    0    0 -0.00000000000E+00 -0.00000000000E+00 -0.45593999997E+02  0.45594000000E+02  0.51100000000E-03 0. -1.
    9900012    2    1    2    0    0 -0.15975810746E+02 -0.41630373554E+01  0.27279335389E+02  0.59301959978E+02  0.50000029089E+02 0.  0.
         12    1    1    2    0    0  0.15975810746E+02  0.41630373554E+01 -0.27279335389E+02  0.31886040022E+02  0.00000000000E+00 0. -1.
         11    1    3    3    0    0 -0.12961675978E+02  0.15591986826E+02  0.16548043505E+02  0.26171603724E+02  0.51100000000E-03 0. -1.
        -11    1    3    3    0    0  0.51589334928E+01  0.13847459836E+01  0.89153024579E+01  0.10393013730E+02  0.51100000000E-03 0.  1.
         12    1    3    3    0    0 -0.81730682607E+01 -0.21139770165E+02  0.18159894261E+01  0.22737342524E+02  0.00000000000E+00 0. -1.
</event>
<event>
 7    1  0.6164995E-012  0.5930182E+02  0.7816164E-02  0.1266605E+00
        -11   -1    0    0    0    0  0.00000000000E+00  0.00000000000E+00  0.45593999997E+02  0.45594000000E+02  0.51100000000E-03 0. -1.
         11   -1    0    0    0    0 -0.00000000000E+00 -0.00000000000E+00 -0.45593999997E+02  0.45594000000E+02  0.51100000000E-03 0.  1.
    9900012    2    1    2    0    0 -0.31323071555E+02  0.28007169702E+00 -0.59594730545E+01  0.59301818496E+02  0.49999771060E+02 0.  0.
         12    1    1    2    0    0  0.31323071555E+02 -0.28007169702E+00  0.59594730545E+01  0.31886181504E+02  0.00000000000E+00 0. -1.
         11    1    3    3    0    0 -0.31951978135E+01 -0.43484909359E+01  0.13283186858E+02  0.14337423613E+02  0.51100000000E-03 0. -1.
        -11    1    3    3    0    0 -0.11087689055E+02 -0.10815629773E+02 -0.84302892672E+00  0.15512104757E+02  0.51100000000E-03 0.  1.
        -12    1    3    3    0    0 -0.17040184687E+02  0.15444192406E+02 -0.18399630986E+02  0.29452290126E+02  0.00000000000E+00 0.  1.
</event>
<event>
 7    1  0.6164995E-012  0.5930194E+02  0.7816164E-02  0.1266605E+00
        -11   -1    0    0    0    0  0.00000000000E+00  0.00000000000E+00  0.45593999997E+02  0.45594000000E+02  0.51100000000E-03 0.  1.
         11   -1    0    0    0    0 -0.00000000000E+00 -0.00000000000E+00 -0.45593999997E+02  0.45594000000E+02  0.51100000000E-03 0. -1.
    9900012    2    1    2    0    0 -0.26235947158E+01  0.80764266307E+01  0.30734491559E+02  0.59301938974E+02  0.49999990784E+02 0.  0.
         12    1    1    2    0    0  0.26235947158E+01 -0.80764266307E+01 -0.30734491559E+02  0.31886061026E+02  0.00000000000E+00 0. -1.
         11    1    3    3    0    0  0.13052068790E+02  0.16836230126E+01  0.11000324591E+02  0.17152207657E+02  0.51100000000E-03 0. -1.
        -11    1    3    3    0    0  0.62766862362E+01  0.12692977947E+02  0.99348499151E+01  0.17297679682E+02  0.51100000000E-03 0.  1.
        -12    1    3    3    0    0 -0.21952349742E+02 -0.63001743291E+01  0.97993170532E+01  0.24852051635E+02  0.00000000000E+00 0.  1.
</event>
<event>
 7    1  0.6164995E-012  0.5930193E+02  0.7816164E-02  0.1266605E+00
        -11   -1    0    0    0    0  0.00000000000E+00  0.00000000000E+00  0.45593999997E+02  0.45594000000E+02  0.51100000000E-03 0. -1.
         11   -1    0    0    0    0 -0.00000000000E+00 -0.00000000000E+00 -0.45593999997E+02  0.45594000000E+02  0.51100000000E-03 0.  1.
    9900012    2    1    2    0    0  0.24131290878E+02  0.19212255229E+02 -0.80803059280E+01  0.59301932599E+02  0.49999979156E+02 0.  0.
         12    1    1    2    0    0 -0.24131290878E+02 -0.19212255229E+02  0.80803059280E+01  0.31886067401E+02  0.00000000000E+00 0. -1.
         11    1    3    3    0    0  0.20134914649E+02 -0.72901574138E+01  0.10975853973E+02  0.24063053708E+02  0.51100000000E-03 0. -1.
        -11    1    3    3    0    0  0.59161318327E+01  0.82771526170E+01 -0.23524179734E+01  0.10442496918E+02  0.51100000000E-03 0.  1.
        -12    1    3    3    0    0 -0.19197556035E+01  0.18225260025E+02 -0.16703741927E+02  0.24796381973E+02  0.00000000000E+00 0.  1.
</event>
<event>
 7    1  0.6164995E-012  0.5930195E+02  0.7816164E-02  0.1266605E+00
        -11   -1    0    0    0    0  0.00000000000E+00  0.00000000000E+00  0.45593999997E+02  0.45594000000E+02  0.51100000000E-03 0.  1.
         11   -1    0    0    0    0 -0.00000000000E+00 -0.00000000000E+00 -0.45593999997E+02  0.45594000000E+02  0.51100000000E-03 0. -1.
    9900012    2    1    2    0    0 -0.16954122474E+02 -0.25304507709E+02  0.94318382007E+01  0.59301953662E+02  0.50000017570E+02 0.  0.
         12    1    1    2    0    0  0.16954122474E+02  0.25304507709E+02 -0.94318382007E+01  0.31886046338E+02  0.00000000000E+00 0. -1.
         11    1    3    3    0    0 -0.17986184134E+01 -0.24739555255E+02 -0.51069000216E+01  0.25325107118E+02  0.51100000000E-03 0. -1.
        -11    1    3    3    0    0 -0.16573390448E+02  0.53155143189E-01 -0.25932882910E+01  0.16775137580E+02  0.51100000000E-03 0.  1.
        -12    1    3    3    0    0  0.14178863874E+01 -0.61810759641E+00  0.17132026513E+02  0.17201708963E+02  0.00000000000E+00 0.  1.
</event>
<event>
 7    1  0.6164995E-012  0.5930193E+02  0.7816164E-02  0.1266605E+00
        -11   -1    0    0    0    0  0.00000000000E+00  0.00000000000E+00  0.45593999997E+02  0.45594000000E+02  0.51100000000E-03 0.  1.
         11   -1    0    0    0    0 -0.00000000000E+00 -0.00000000000E+00 -0.45593999997E+02  0.45594000000E+02  0.51100000000E-03 0. -1.
    9900012    2    1    2    0    0  0.86483501455E+01  0.43751983626E+01  0.30377383604E+02  0.59301925366E+02  0.49999965965E+02 0.  0.
         12    1    1    2    0    0 -0.86483501455E+01 -0.43751983626E+01 -0.30377383604E+02  0.31886074634E+02  0.00000000000E+00 0. -1.
         11    1    3    3    0    0  0.74613491983E+01 -0.11085585505E+01 -0.76233411131E+01  0.10724549590E+02  0.51100000000E-03 0. -1.
        -11    1    3    3    0    0  0.11819352530E+02 -0.66596514852E+01  0.12804629769E+02  0.18654934894E+02  0.51100000000E-03 0.  1.
         12    1    3    3    0    0 -0.10632351583E+02  0.12143408398E+02  0.25196094948E+02  0.29922440882E+02  0.00000000000E+00 0. -1.
</event>
<event>
 7    1  0.6164995E-012  0.5930196E+02  0.7816164E-02  0.1266605E+00
        -11   -1    0    0    0    0  0.00000000000E+00  0.00000000000E+00  0.45593999997E+02  0.45594000000E+02  0.51100000000E-03 0. -1.
         11   -1    0    0    0    0 -0.00000000000E+00 -0.00000000000E+00 -0.45593999997E+02  0.45594000000E+02  0.51100000000E-03 0.  1.
    9900012    2    1    2    0    0 -0.31557957046E+02  0.56600904765E+00 -0.45271103694E+01  0.59301956855E+02  0.50000023394E+02 0.  0.
         12    1    1    2    0    0  0.31557957046E+02 -0.56600904765E+00  0.45271103694E+01  0.31886043145E+02  0.00000000000E+00 0. -1.
         11    1    3    3    0    0  0.26908976224E+01 -0.26282012955E+01  0.74023856343E+01  0.83032334306E+01  0.51100000000E-03 0. -1.
        -11    1    3    3    0    0 -0.13459702471E+02 -0.73314038170E+01  0.10561345832E+02  0.18613304343E+02  0.51100000000E-03 0.  1.
        -12    1    3    3    0    0 -0.20789152198E+02  0.10525614160E+02 -0.22490841836E+02  0.32385419081E+02  0.00000000000E+00 0.  1.
</event>
<event>
 7    1  0.6164995E-012  0.5930195E+02  0.7816164E-02  0.1266605E+00
        -11   -1    0    0    0    0  0.00000000000E+00  0.00000000000E+00  0.45593999997E+02  0.45594000000E+02  0.51100000000E-03 0.  1.
         11   -1    0    0    0    0 -0.00000000000E+00 -0.00000000000E+00 -0.45593999997E+02  0.45594000000E+02  0.51100000000E-03 0. -1.
    9900012    2    1    2    0    0 -0.12935127211E+02  0.36397226848E+01  0.28916350523E+02  0.59301946234E+02  0.50000004023E+02 0.  0.
         12    1    1    2    0    0  0.12935127211E+02 -0.36397226848E+01 -0.28916350523E+02  0.31886053766E+02  0.00000000000E+00 0. -1.
         11    1    3    3    0    0 -0.89204278510E+01  0.12712285558E+01  0.67233539943E+01  0.11242488349E+02  0.51100000000E-03 0. -1.
        -11    1    3    3    0    0 -0.13914636777E+02  0.18720529495E+02  0.14428594598E+02  0.27427352835E+02  0.51100000000E-03 0.  1.
        -12    1    3    3    0    0  0.98999374162E+01 -0.16352035366E+02  0.77644019310E+01  0.20632105050E+02  0.00000000000E+00 0.  1.
</event>
<event>
 7    1  0.6164995E-012  0.5930194E+02  0.7816164E-02  0.1266605E+00
        -11   -1    0    0    0    0  0.00000000000E+00  0.00000000000E+00  0.45593999997E+02  0.45594000000E+02  0.51100000000E-03 0.  1.
         11   -1    0    0    0    0 -0.00000000000E+00 -0.00000000000E+00 -0.45593999997E+02  0.45594000000E+02  0.51100000000E-03 0. -1.
    9900012    2    1    2    0    0  0.14848431114E+02 -0.29204955199E+01  0.28066275558E+02  0.59301936832E+02  0.49999986877E+02 0.  0.
         12    1    1    2    0    0 -0.14848431114E+02  0.29204955199E+01 -0.28066275558E+02  0.31886063168E+02  0.00000000000E+00 0. -1.
         11    1    3    3    0    0  0.98538408428E+01 -0.27178098027E+01 -0.45910836482E+01  0.11205477179E+02  0.51100000000E-03 0. -1.
        -11    1    3    3    0    0 -0.43903730364E+01  0.40258923359E+01 -0.57827330702E+01  0.83019989473E+01  0.51100000000E-03 0.  1.
        -12    1    3    3    0    0  0.93849633075E+01 -0.42285780532E+01  0.38440092277E+02  0.39794460706E+02  0.00000000000E+00 0.  1.
</event>
<event>
 7    1  0.6164995E-012  0.5930195E+02  0.7816164E-02  0.1266605E+00
        -11   -1    0    0    0    0  0.00000000000E+00  0.00000000000E+00  0.45593999997E+02  0.45594000000E+02  0.51100000000E-03 0.  1.
         11   -1    0    0    0    0 -0.00000000000E+00 -0.00000000000E+00 -0.45593999997E+02  0.45594000000E+02  0.51100000000E-03 0. -1.
    9900012    2    1    2    0    0 -0.27044865518E+02  0.13403805155E+02  0.10277803737E+02  0.59301953002E+02  0.50000016367E+02 0.  0.
         12    1    1    2    0    0  0.27044865518E+02 -0.13403805155E+02 -0.10277803737E+02  0.31886046998E+02  0.00000000000E+00 0. -1.
         11    1    3    3    0    0 -0.11281443951E+02  0.15547594339E+02 -0.75866441254E+01  0.20653228239E+02  0.51100000000E-03 0. -1.
        -11    1    3    3    0    0 -0.16609388671E+02 -0.92371270766E+01 -0.42894435045E+00  0.19010005318E+02  0.51100000000E-03 0.  1.
         12    1    3    3    0    0  0.84596710468E+00  0.70933378919E+01  0.18293392213E+02  0.19638719445E+02  0.00000000000E+00 0. -1.
</event>
<event>
 7    1  0.6164995E-012  0.5930194E+02  0.7816164E-02  0.1266605E+00
        -11   -1    0    0    0    0  0.00000000000E+00  0.00000000000E+00  0.45593999997E+02  0.45594000000E+02  0.51100000000E-03 0.  1.
         11   -1    0    0    0    0 -0.00000000000E+00 -0.00000000000E+00 -0.45593999997E+02  0.45594000000E+02  0.51100000000E-03 0. -1.
    9900012    2    1    2    0    0  0.13836202465E+02  0.65501982318E+01  0.27970973196E+02  0.59301938201E+02  0.49999989373E+02 0.  0.
         12    1    1    2    0    0 -0.13836202465E+02 -0.65501982318E+01 -0.27970973196E+02  0.31886061799E+02  0.00000000000E+00 0. -1.
         11    1    3    3    0    0 -0.10491326936E+02 -0.13049735653E+01 -0.31741969475E+01  0.11038406742E+02  0.51100000000E-03 0. -1.
        -11    1    3    3    0    0  0.51476034946E+01 -0.77407861221E+01  0.18015668884E+02  0.20272688946E+02  0.51100000000E-03 0.  1.
        -12    1    3    3    0    0  0.19179925907E+02  0.15595957919E+02  0.13129501260E+02  0.27990842512E+02  0.00000000000E+00 0.  1.
</event>
<event>
 7    1  0.6164995E-012  0.5930188E+02  0.7816164E-02  0.1266605E+00
        -11   -1    0    0    0    0  0.00000000000E+00  0.00000000000E+00  0.45593999997E+02  0.45594000000E+02  0.51100000000E-03 0.  1.
         11   -1    0    0    0    0 -0.00000000000E+00 -0.00000000000E+00 -0.45593999997E+02  0.45594000000E+02  0.51100000000E-03 0. -1.
    9900012    2    1    2    0    0 -0.27643669250E+02 -0.14929774904E+01  0.15821607409E+02  0.59301879314E+02  0.49999881977E+02 0.  0.
         12    1    1    2    0    0  0.27643669250E+02  0.14929774904E+01 -0.15821607409E+02  0.31886120686E+02  0.00000000000E+00 0. -1.
         11    1    3    3    0    0 -0.41580399619E+01 -0.47227445865E+01 -0.14596743582E+02  0.15895236274E+02  0.51100000000E-03 0. -1.
        -11    1    3    3    0    0 -0.10984310560E+01  0.79175037149E+01  0.64004473289E+01  0.10240075299E+02  0.51100000000E-03 0.  1.
        -12    1    3    3    0    0 -0.22387198233E+02 -0.46877366188E+01  0.24017903663E+02  0.33166567740E+02  0.00000000000E+00 0.  1.
</event>
<event>
 7    1  0.6164995E-012  0.5930192E+02  0.7816164E-02  0.1266605E+00
        -11   -1    0    0    0    0  0.00000000000E+00  0.00000000000E+00  0.45593999997E+02  0.45594000000E+02  0.51100000000E-03 0.  1.
         11   -1    0    0    0    0 -0.00000000000E+00 -0.00000000000E+00 -0.45593999997E+02  0.45594000000E+02  0.51100000000E-03 0. -1.
    9900012    2    1    2    0    0 -0.31470934390E+02  0.89338789246E+00 -0.50501780041E+01  0.59301919163E+02  0.49999954652E+02 0.  0.
         12    1    1    2    0    0  0.31470934390E+02 -0.89338789246E+00  0.50501780041E+01  0.31886080837E+02  0.00000000000E+00 0. -1.
         11    1    3    3    0    0  0.88125442980E+00 -0.68707288500E+01  0.24123074712E+01  0.73350359165E+01  0.51100000000E-03 0.  1.
        -11    1    3    3    0    0  0.36478836582E+01 -0.86454387558E+01  0.48087177812E+01  0.10543928747E+02  0.51100000000E-03 0. -1.
        -12    1    3    3    0    0 -0.36000072478E+02  0.16409555498E+02 -0.12271203257E+02  0.41422954499E+02  0.00000000000E+00 0.  1.
</event>
<event>
 7    1  0.6164995E-012  0.5930195E+02  0.7816164E-02  0.1266605E+00
        -11   -1    0    0    0    0  0.00000000000E+00  0.00000000000E+00  0.45593999997E+02  0.45594000000E+02  0.51100000000E-03 0. -1.
         11   -1    0    0    0    0 -0.00000000000E+00 -0.00000000000E+00 -0.45593999997E+02  0.45594000000E+02  0.51100000000E-03 0.  1.
    9900012    2    1    2    0    0  0.20310105488E+02  0.17870358689E+02 -0.16878099751E+02  0.59301947316E+02  0.50000005996E+02 0.  0.
         12    1    1    2    0    0 -0.20310105488E+02 -0.17870358689E+02  0.16878099751E+02  0.31886052684E+02  0.00000000000E+00 0. -1.
         11    1    3    3    0    0  0.40304316401E+01  0.23978986288E+01 -0.27356477949E+00  0.46977797937E+01  0.51100000000E-03 0. -1.
        -11    1    3    3    0    0  0.19792908724E+02  0.30532712180E+02 -0.96305742100E+01  0.37639788903E+02  0.51100000000E-03 0.  1.
        -12    1    3    3    0    0 -0.35132348763E+01 -0.15060252120E+02 -0.69739607612E+01  0.16964378619E+02  0.00000000000E+00 0.  1.
</event>
<event>
 7    1  0.6164995E-012  0.5930204E+02  0.7816164E-02  0.1266604E+00
        -11   -1    0    0    0    0  0.00000000000E+00  0.00000000000E+00  0.45593999997E+02  0.45594000000E+02  0.51100000000E-03 0. -1.
         11   -1    0    0    0    0 -0.00000000000E+00 -0.00000000000E+00 -0.45593999997E+02  0.45594000000E+02  0.51100000000E-03 0.  1.
    9900012    2    1    2    0    0  0.66099610512E+01  0.10410013486E+02 -0.29405003309E+02  0.59302044071E+02  0.50000182455E+02 0.  0.
         12    1    1    2    0    0 -0.66099610512E+01 -0.10410013486E+02  0.29405003309E+02  0.31885955929E+02  0.00000000000E+00 0. -1.
         11    1    3    3    0    0  0.19258226900E+01  0.13169571736E+02 -0.22796600653E+02  0.26397564553E+02  0.51100000000E-03 0. -1.
        -11    1    3    3    0    0  0.12948585859E+02 -0.12397799944E+02 -0.88814412648E+01  0.20006281973E+02  0.51100000000E-03 0.  1.
         12    1    3    3    0    0 -0.82644474980E+01  0.96382416944E+01  0.22730386084E+01  0.12898197546E+02  0.00000000000E+00 0. -1.
</event>
<event>
 7    1  0.6164995E-012  0.5930195E+02  0.7816164E-02  0.1266605E+00
        -11   -1    0    0    0    0  0.00000000000E+00  0.00000000000E+00  0.45593999997E+02  0.45594000000E+02  0.51100000000E-03 0.  1.
         11   -1    0    0    0    0 -0.00000000000E+00 -0.00000000000E+00 -0.45593999997E+02  0.45594000000E+02  0.51100000000E-03 0. -1.
    9900012    2    1    2    0    0 -0.36329674562E-01 -0.16212963232E+02  0.27456487524E+02  0.59301949700E+02  0.50000010344E+02 0.  0.
         12    1    1    2    0    0  0.36329674562E-01  0.16212963232E+02 -0.27456487524E+02  0.31886050300E+02  0.00000000000E+00 0. -1.
         11    1    3    3    0    0 -0.17124677698E+02 -0.11945129528E+02  0.12773961823E+01  0.20918232406E+02  0.51100000000E-03 0. -1.
        -11    1    3    3    0    0  0.28540397819E+01 -0.35353107436E+01 -0.33162633251E+01  0.56250838068E+01  0.51100000000E-03 0.  1.
        -12    1    3    3    0    0  0.14234308242E+02 -0.73252295995E+00  0.29495354667E+02  0.32758633487E+02  0.00000000000E+00 0.  1.
</event>
<event>
 7    1  0.6164995E-012  0.5930197E+02  0.7816164E-02  0.1266605E+00
        -11   -1    0    0    0    0  0.00000000000E+00  0.00000000000E+00  0.45593999997E+02  0.45594000000E+02  0.51100000000E-03 0.  1.
         11   -1    0    0    0    0 -0.00000000000E+00 -0.00000000000E+00 -0.45593999997E+02  0.45594000000E+02  0.51100000000E-03 0. -1.
    9900012    2    1    2    0    0  0.59792287382E+01  0.26413823702E+02  0.16830863479E+02  0.59301965058E+02  0.50000038355E+02 0.  0.
         12    1    1    2    0    0 -0.59792287382E+01 -0.26413823702E+02 -0.16830863479E+02  0.31886034942E+02  0.00000000000E+00 0. -1.
         11    1    3    3    0    0  0.10505765805E+02  0.93664886869E+01 -0.85932840992E+01  0.16490808268E+02  0.51100000000E-03 0. -1.
        -11    1    3    3    0    0  0.87567347315E+01 -0.36879404707E+01  0.45768000157E+01  0.10546487885E+02  0.51100000000E-03 0.  1.
        -12    1    3    3    0    0 -0.13283271798E+02  0.20735275486E+02  0.20847347562E+02  0.32264668905E+02  0.00000000000E+00 0.  1.
</event>
<event>
 7    1  0.6164995E-012  0.5930196E+02  0.7816164E-02  0.1266605E+00
        -11   -1    0    0    0    0  0.00000000000E+00  0.00000000000E+00  0.45593999997E+02  0.45594000000E+02  0.51100000000E-03 0. -1.
         11   -1    0    0    0    0 -0.00000000000E+00 -0.00000000000E+00 -0.45593999997E+02  0.45594000000E+02  0.51100000000E-03 0.  1.
    9900012    2    1    2    0    0 -0.63976059937E+01  0.27081031833E+02  0.15569463261E+02  0.59301955501E+02  0.50000020924E+02 0.  0.
         12    1    1    2    0    0  0.63976059937E+01 -0.27081031833E+02 -0.15569463261E+02  0.31886044499E+02  0.00000000000E+00 0. -1.
         11    1    3    3    0    0 -0.42733025242E+01 -0.29437785599E+01 -0.54560522174E+01  0.75296382870E+01  0.51100000000E-03 0. -1.
        -11    1    3    3    0    0  0.69548496827E+01  0.20264166812E+02 -0.54705714602E+01  0.22111841693E+02  0.51100000000E-03 0.  1.
         12    1    3    3    0    0 -0.90791531522E+01  0.97606435813E+01  0.26496086938E+02  0.29660475521E+02  0.00000000000E+00 0. -1.
</event>
<event>
 7    1  0.6164995E-012  0.5930195E+02  0.7816164E-02  0.1266605E+00
        -11   -1    0    0    0    0  0.00000000000E+00  0.00000000000E+00  0.45593999997E+02  0.45594000000E+02  0.51100000000E-03 0.  1.
         11   -1    0    0    0    0 -0.00000000000E+00 -0.00000000000E+00 -0.45593999997E+02  0.45594000000E+02  0.51100000000E-03 0. -1.
    9900012    2    1    2    0    0  0.72619819303E+01  0.18929259927E+02  0.24610303872E+02  0.59301947883E+02  0.50000007031E+02 0.  0.
         12    1    1    2    0    0 -0.72619819303E+01 -0.18929259927E+02 -0.24610303872E+02  0.31886052117E+02  0.00000000000E+00 0. -1.
         11    1    3    3    0    0  0.54306840035E+01  0.18852530417E+02  0.15817548840E+02  0.25201291305E+02  0.51100000000E-03 0. -1.
        -11    1    3    3    0    0  0.12892069482E+02  0.11298095610E+02  0.36505571742E+01  0.17526522413E+02  0.51100000000E-03 0.  1.
        -12    1    3    3    0    0 -0.11060771555E+02 -0.11221366100E+02  0.51421978578E+01  0.16574134166E+02  0.00000000000E+00 0.  1.
</event>
<event>
 7    1  0.6164995E-012  0.5930190E+02  0.7816164E-02  0.1266605E+00
        -11   -1    0    0    0    0  0.00000000000E+00  0.00000000000E+00  0.45593999997E+02  0.45594000000E+02  0.51100000000E-03 0.  1.
         11   -1    0    0    0    0 -0.00000000000E+00 -0.00000000000E+00 -0.45593999997E+02  0.45594000000E+02  0.51100000000E-03 0. -1.
    9900012    2    1    2    0    0 -0.42851699390E+01  0.28060758955E+01  0.31471999673E+02  0.59301897906E+02  0.49999915886E+02 0.  0.
         12    1    1    2    0    0  0.42851699390E+01 -0.28060758955E+01 -0.31471999673E+02  0.31886102094E+02  0.00000000000E+00 0. -1.
         11    1    3    3    0    0  0.11382232987E+02  0.10212660391E+02 -0.64273884365E+00  0.15305775822E+02  0.51100000000E-03 0.  1.
        -11    1    3    3    0    0  0.40650855660E+01  0.51954252654E+01  0.82626238783E+01  0.10572999478E+02  0.51100000000E-03 0. -1.
        -12    1    3    3    0    0 -0.19732488492E+02 -0.12602009761E+02  0.23852114638E+02  0.33423122607E+02  0.00000000000E+00 0.  1.
</event>
<event>
 7    1  0.6164995E-012  0.5930198E+02  0.7816164E-02  0.1266605E+00
        -11   -1    0    0    0    0  0.00000000000E+00  0.00000000000E+00  0.45593999997E+02  0.45594000000E+02  0.51100000000E-03 0.  1.
         11   -1    0    0    0    0 -0.00000000000E+00 -0.00000000000E+00 -0.45593999997E+02  0.45594000000E+02  0.51100000000E-03 0. -1.
    9900012    2    1    2    0    0  0.24280960806E+02 -0.82284873505E+01  0.18959034520E+02  0.59301983446E+02  0.50000071890E+02 0.  0.
         12    1    1    2    0    0 -0.24280960806E+02  0.82284873505E+01 -0.18959034520E+02  0.31886016554E+02  0.00000000000E+00 0. -1.
         11    1    3    3    0    0  0.18715466139E+01  0.85899605427E+01 -0.17245225893E+01  0.89590226741E+01  0.51100000000E-03 0. -1.
        -11    1    3    3    0    0  0.76600932610E+01 -0.14263638408E+02 -0.79468438261E+01  0.18035540925E+02  0.51100000000E-03 0.  1.
         12    1    3    3    0    0  0.14749320931E+02 -0.25548094850E+01  0.28630400935E+02  0.32307419847E+02  0.00000000000E+00 0. -1.
</event>
<event>
 7    1  0.6164995E-012  0.5930199E+02  0.7816164E-02  0.1266605E+00
        -11   -1    0    0    0    0  0.00000000000E+00  0.00000000000E+00  0.45593999997E+02  0.45594000000E+02  0.51100000000E-03 0. -1.
         11   -1    0    0    0    0 -0.00000000000E+00 -0.00000000000E+00 -0.45593999997E+02  0.45594000000E+02  0.51100000000E-03 0.  1.
    9900012    2    1    2    0    0 -0.27951951027E+02  0.88672303936E+00 -0.15317303786E+02  0.59301989914E+02  0.50000083686E+02 0.  0.
         12    1    1    2    0    0  0.27951951027E+02 -0.88672303936E+00  0.15317303786E+02  0.31886010086E+02  0.00000000000E+00 0. -1.
         11    1    3    3    0    0 -0.19814255566E+02  0.18054226861E+00  0.14295007872E+02  0.24433267679E+02  0.51100000000E-03 0. -1.
        -11    1    3    3    0    0 -0.78523153657E+01 -0.66602425340E+01 -0.12226349919E+02  0.15984408647E+02  0.51100000000E-03 0.  1.
        -12    1    3    3    0    0 -0.28538009447E+00  0.73664233047E+01 -0.17385961739E+02  0.18884313588E+02  0.00000000000E+00 0.  1.
</event>
<event>
 7    1  0.6164995E-012  0.5930193E+02  0.7816164E-02  0.1266605E+00
        -11   -1    0    0    0    0  0.00000000000E+00  0.00000000000E+00  0.45593999997E+02  0.45594000000E+02  0.51100000000E-03 0. -1.
         11   -1    0    0    0    0 -0.00000000000E+00 -0.00000000000E+00 -0.45593999997E+02  0.45594000000E+02  0.51100000000E-03 0.  1.
    9900012    2    1    2    0    0 -0.94240087291E+01 -0.29833068713E+02  0.61561062490E+01  0.59301928221E+02  0.49999971172E+02 0.  0.
         12    1    1    2    0    0  0.94240087291E+01  0.29833068713E+02 -0.61561062490E+01  0.31886071779E+02  0.00000000000E+00 0. -1.
         11    1    3    3    0    0 -0.13508850714E+02  0.35292731993E+01 -0.86713949908E+01  0.16435872605E+02  0.51100000000E-03 0. -1.
        -11    1    3    3    0    0  0.49875204218E+01 -0.67078959178E+01 -0.49034641700E+01  0.96909849205E+01  0.51100000000E-03 0.  1.
        -12    1    3    3    0    0 -0.90267843711E+00 -0.26654445995E+02  0.19730965410E+02  0.33175070696E+02  0.00000000000E+00 0.  1.
</event>
<event>
 7    1  0.6164995E-012  0.5930192E+02  0.7816164E-02  0.1266605E+00
        -11   -1    0    0    0    0  0.00000000000E+00  0.00000000000E+00  0.45593999997E+02  0.45594000000E+02  0.51100000000E-03 0.  1.
         11   -1    0    0    0    0 -0.00000000000E+00 -0.00000000000E+00 -0.45593999997E+02  0.45594000000E+02  0.51100000000E-03 0. -1.
    9900012    2    1    2    0    0 -0.29574318491E+02  0.10738142597E+02  0.51743584572E+01  0.59301921438E+02  0.49999958801E+02 0.  0.
         12    1    1    2    0    0  0.29574318491E+02 -0.10738142597E+02 -0.51743584572E+01  0.31886078562E+02  0.00000000000E+00 0. -1.
         11    1    3    3    0    0 -0.37236353589E+01 -0.96103944268E+01  0.36602054141E+01  0.10937195493E+02  0.51100000000E-03 0.  1.
        -11    1    3    3    0    0  0.54937398378E+01  0.12639421480E+02  0.72627380880E+01  0.15578302782E+02  0.51100000000E-03 0. -1.
        -12    1    3    3    0    0 -0.31344422970E+02  0.77091155435E+01 -0.57485850449E+01  0.32786423163E+02  0.00000000000E+00 0.  1.
</event>
<event>
 7    1  0.6164995E-012  0.5930195E+02  0.7816164E-02  0.1266605E+00
        -11   -1    0    0    0    0  0.00000000000E+00  0.00000000000E+00  0.45593999997E+02  0.45594000000E+02  0.51100000000E-03 0.  1.
         11   -1    0    0    0    0 -0.00000000000E+00 -0.00000000000E+00 -0.45593999997E+02  0.45594000000E+02  0.51100000000E-03 0. -1.
    9900012    2    1    2    0    0 -0.26728750754E+02 -0.51045356124E+01  0.16620403237E+02  0.59301949688E+02  0.50000010323E+02 0.  0.
         12    1    1    2    0    0  0.26728750754E+02  0.51045356124E+01 -0.16620403237E+02  0.31886050312E+02  0.00000000000E+00 0. -1.
         11    1    3    3    0    0  0.19326231284E+01 -0.15843409520E+02 -0.37696647115E+01  0.16399970417E+02  0.51100000000E-03 0. -1.
        -11    1    3    3    0    0 -0.15057625533E+02 -0.41551258126E+01  0.22654914190E+01  0.15783840117E+02  0.51100000000E-03 0.  1.
         12    1    3    3    0    0 -0.13603748350E+02  0.14893999720E+02  0.18124576530E+02  0.27118139155E+02  0.00000000000E+00 0. -1.
</event>
<event>
 7    1  0.6164995E-012  0.5930195E+02  0.7816164E-02  0.1266605E+00
        -11   -1    0    0    0    0  0.00000000000E+00  0.00000000000E+00  0.45593999997E+02  0.45594000000E+02  0.51100000000E-03 0.  1.
         11   -1    0    0    0    0 -0.00000000000E+00 -0.00000000000E+00 -0.45593999997E+02  0.45594000000E+02  0.51100000000E-03 0. -1.
    9900012    2    1    2    0    0  0.25200325006E+02 -0.10506707887E+02 -0.16470364625E+02  0.59301949729E+02  0.50000010398E+02 0.  0.
         12    1    1    2    0    0 -0.25200325006E+02  0.10506707887E+02  0.16470364625E+02  0.31886050271E+02  0.00000000000E+00 0. -1.
         11    1    3    3    0    0  0.20351228849E+01 -0.11768532760E+02 -0.19824001180E+02  0.23143705656E+02  0.51100000000E-03 0. -1.
        -11    1    3    3    0    0  0.17075599264E+01  0.11010819468E+02 -0.33851353832E+01  0.11645301545E+02  0.51100000000E-03 0.  1.
        -12    1    3    3    0    0  0.21457642194E+02 -0.97489945947E+01  0.67387719382E+01  0.24512942528E+02  0.00000000000E+00 0.  1.
</event>
<event>
 7    1  0.6164995E-012  0.5930195E+02  0.7816164E-02  0.1266605E+00
        -11   -1    0    0    0    0  0.00000000000E+00  0.00000000000E+00  0.45593999997E+02  0.45594000000E+02  0.51100000000E-03 0. -1.
         11   -1    0    0    0    0 -0.00000000000E+00 -0.00000000000E+00 -0.45593999997E+02  0.45594000000E+02  0.51100000000E-03 0.  1.
    9900012    2    1    2    0    0 -0.30157099325E+02  0.50507608966E+01  0.90420714671E+01  0.59301954749E+02  0.50000019554E+02 0.  0.
         12    1    1    2    0    0  0.30157099325E+02 -0.50507608966E+01 -0.90420714671E+01  0.31886045251E+02  0.00000000000E+00 0. -1.
         11    1    3    3    0    0 -0.73280904890E+01 -0.16685927598E+02  0.21027391544E+01  0.18345097499E+02  0.51100000000E-03 0. -1.
        -11    1    3    3    0    0 -0.10113358682E+02 -0.39654859859E+01  0.56686900161E+01  0.12253128159E+02  0.51100000000E-03 0.  1.
        -12    1    3    3    0    0 -0.12715650154E+02  0.25702174481E+02  0.12706422966E+01  0.28703729091E+02  0.00000000000E+00 0.  1.
</event>
<event>
 7    1  0.6164995E-012  0.5930193E+02  0.7816164E-02  0.1266605E+00
        -11   -1    0    0    0    0  0.00000000000E+00  0.00000000000E+00  0.45593999997E+02  0.45594000000E+02  0.51100000000E-03 0.  1.
         11   -1    0    0    0    0 -0.00000000000E+00 -0.00000000000E+00 -0.45593999997E+02  0.45594000000E+02  0.51100000000E-03 0. -1.
    9900012    2    1    2    0    0 -0.28811417647E+01 -0.10165091415E+02  0.30084732085E+02  0.59301934611E+02  0.49999982826E+02 0.  0.
         12    1    1    2    0    0  0.28811417647E+01  0.10165091415E+02 -0.30084732085E+02  0.31886065389E+02  0.00000000000E+00 0. -1.
         11    1    3    3    0    0 -0.46438800754E+01  0.14891391828E+02  0.31586288694E+01  0.15915279115E+02  0.51100000000E-03 0. -1.
        -11    1    3    3    0    0 -0.31365530675E+01  0.24344019803E+01 -0.78399712074E+00  0.40470890642E+01  0.51100000000E-03 0.  1.
        -12    1    3    3    0    0  0.48992913782E+01 -0.27490885223E+02  0.27710100337E+02  0.39339566432E+02  0.00000000000E+00 0.  1.
</event>
<event>
 7    1  0.6164995E-012  0.5930195E+02  0.7816164E-02  0.1266605E+00
        -11   -1    0    0    0    0  0.00000000000E+00  0.00000000000E+00  0.45593999997E+02  0.45594000000E+02  0.51100000000E-03 0.  1.
         11   -1    0    0    0    0 -0.00000000000E+00 -0.00000000000E+00 -0.45593999997E+02  0.45594000000E+02  0.51100000000E-03 0. -1.
    9900012    2    1    2    0    0  0.10737248633E+02  0.26497288130E+02  0.14118264887E+02  0.59301949917E+02  0.50000010741E+02 0.  0.
         12    1    1    2    0    0 -0.10737248633E+02 -0.26497288130E+02 -0.14118264887E+02  0.31886050083E+02  0.00000000000E+00 0. -1.
         11    1    3    3    0    0 -0.85836472075E+01  0.21162992421E+02  0.13739210055E+02  0.26651775566E+02  0.51100000000E-03 0. -1.
        -11    1    3    3    0    0 -0.41524094996E+01 -0.23531807948E+01 -0.54775977954E+01  0.72652627189E+01  0.51100000000E-03 0.  1.
        -12    1    3    3    0    0  0.23473305341E+02  0.76874765030E+01  0.58566526277E+01  0.25384911633E+02  0.00000000000E+00 0.  1.
</event>
<event>
 7    1  0.6164995E-012  0.5930206E+02  0.7816164E-02  0.1266604E+00
        -11   -1    0    0    0    0  0.00000000000E+00  0.00000000000E+00  0.45593999997E+02  0.45594000000E+02  0.51100000000E-03 0.  1.
         11   -1    0    0    0    0 -0.00000000000E+00 -0.00000000000E+00 -0.45593999997E+02  0.45594000000E+02  0.51100000000E-03 0. -1.
    9900012    2    1    2    0    0  0.17342054258E+02  0.22062986477E+02 -0.15139049114E+02  0.59302062249E+02  0.50000215607E+02 0.  0.
         12    1    1    2    0    0 -0.17342054258E+02 -0.22062986477E+02  0.15139049114E+02  0.31885937751E+02  0.00000000000E+00 0. -1.
         11    1    3    3    0    0 -0.36126532975E+01 -0.41933708545E+01 -0.78403934438E+01  0.95972596394E+01  0.51100000000E-03 0. -1.
        -11    1    3    3    0    0  0.26280642243E+02  0.67156689516E+01  0.24341438544E+01  0.27234122397E+02  0.51100000000E-03 0.  1.
         12    1    3    3    0    0 -0.53259346866E+01  0.19540688380E+02 -0.97327995244E+01  0.22470680213E+02  0.00000000000E+00 0. -1.
</event>
<event>
 7    1  0.6164995E-012  0.5930195E+02  0.7816164E-02  0.1266605E+00
        -11   -1    0    0    0    0  0.00000000000E+00  0.00000000000E+00  0.45593999997E+02  0.45594000000E+02  0.51100000000E-03 0.  1.
         11   -1    0    0    0    0 -0.00000000000E+00 -0.00000000000E+00 -0.45593999997E+02  0.45594000000E+02  0.51100000000E-03 0. -1.
    9900012    2    1    2    0    0  0.96491106612E+01  0.83618394260E+01  0.29218055818E+02  0.59301945354E+02  0.50000002418E+02 0.  0.
         12    1    1    2    0    0 -0.96491106612E+01 -0.83618394260E+01 -0.29218055818E+02  0.31886054646E+02  0.00000000000E+00 0. -1.
         11    1    3    3    0    0 -0.14915215440E+02  0.10083547962E+02  0.93062415112E+01  0.20266912010E+02  0.51100000000E-03 0. -1.
        -11    1    3    3    0    0  0.66531942068E+01  0.56038555449E+01  0.17488717747E+02  0.19532624985E+02  0.51100000000E-03 0.  1.
         12    1    3    3    0    0  0.17911131894E+02 -0.73255640808E+01  0.24230965598E+01  0.19502408358E+02  0.00000000000E+00 0. -1.
</event>
<event>
 7    1  0.6164995E-012  0.5930192E+02  0.7816164E-02  0.1266605E+00
        -11   -1    0    0    0    0  0.00000000000E+00  0.00000000000E+00  0.45593999997E+02  0.45594000000E+02  0.51100000000E-03 0.  1.
         11   -1    0    0    0    0 -0.00000000000E+00 -0.00000000000E+00 -0.45593999997E+02  0.45594000000E+02  0.51100000000E-03 0. -1.
    9900012    2    1    2    0    0  0.64748287897E+01 -0.29762616958E+02  0.94332143418E+01  0.59301916690E+02  0.49999950142E+02 0.  0.
         12    1    1    2    0    0 -0.64748287897E+01  0.29762616958E+02 -0.94332143418E+01  0.31886083310E+02  0.00000000000E+00 0. -1.
         11    1    3    3    0    0  0.14307174744E+02 -0.13290672305E+02 -0.48990776251E+01  0.20133012226E+02  0.51100000000E-03 0. -1.
        -11    1    3    3    0    0 -0.54032452248E+01  0.50351115985E+01  0.15835328790E+02  0.17472980453E+02  0.51100000000E-03 0.  1.
         12    1    3    3    0    0 -0.24291007291E+01 -0.21507056252E+02 -0.15030368229E+01  0.21695924010E+02  0.00000000000E+00 0. -1.
</event>
<event>
 7    1  0.6164995E-012  0.5930192E+02  0.7816164E-02  0.1266605E+00
        -11   -1    0    0    0    0  0.00000000000E+00  0.00000000000E+00  0.45593999997E+02  0.45594000000E+02  0.51100000000E-03 0.  1.
         11   -1    0    0    0    0 -0.00000000000E+00 -0.00000000000E+00 -0.45593999997E+02  0.45594000000E+02  0.51100000000E-03 0. -1.
    9900012    2    1    2    0    0 -0.14991857937E+02  0.16656606693E+02  0.22683114049E+02  0.59301921315E+02  0.49999958578E+02 0.  0.
         12    1    1    2    0    0  0.14991857937E+02 -0.16656606693E+02 -0.22683114049E+02  0.31886078685E+02  0.00000000000E+00 0. -1.
         11    1    3    3    0    0 -0.38570793704E+01  0.13271638639E+02  0.45528411832E+01  0.14551351021E+02  0.51100000000E-03 0. -1.
        -11    1    3    3    0    0 -0.15586289460E+02 -0.13331431309E+01 -0.81797560251E+01  0.17652707969E+02  0.51100000000E-03 0.  1.
        -12    1    3    3    0    0  0.44515108932E+01  0.47181111850E+01  0.26310028891E+02  0.27097862326E+02  0.00000000000E+00 0.  1.
</event>
<event>
 7    1  0.6164995E-012  0.5930206E+02  0.7816164E-02  0.1266604E+00
        -11   -1    0    0    0    0  0.00000000000E+00  0.00000000000E+00  0.45593999997E+02  0.45594000000E+02  0.51100000000E-03 0.  1.
         11   -1    0    0    0    0 -0.00000000000E+00 -0.00000000000E+00 -0.45593999997E+02  0.45594000000E+02  0.51100000000E-03 0. -1.
    9900012    2    1    2    0    0 -0.19554329818E+01  0.30583169324E+02  0.88067827505E+01  0.59302056600E+02  0.50000205305E+02 0.  0.
         12    1    1    2    0    0  0.19554329818E+01 -0.30583169324E+02 -0.88067827505E+01  0.31885943400E+02  0.00000000000E+00 0. -1.
         11    1    3    3    0    0  0.51739359095E+01 -0.57708635146E+01 -0.32308276274E+00  0.77573746353E+01  0.51100000000E-03 0. -1.
        -11    1    3    3    0    0  0.71734028743E+01  0.14532652815E+02 -0.10132573737E+02  0.19113470575E+02  0.51100000000E-03 0.  1.
        -12    1    3    3    0    0 -0.14302771766E+02  0.21821380024E+02  0.19262439250E+02  0.32431211390E+02  0.00000000000E+00 0.  1.
</event>
<event>
 7    1  0.6164995E-012  0.5930194E+02  0.7816164E-02  0.1266605E+00
        -11   -1    0    0    0    0  0.00000000000E+00  0.00000000000E+00  0.45593999997E+02  0.45594000000E+02  0.51100000000E-03 0.  1.
         11   -1    0    0    0    0 -0.00000000000E+00 -0.00000000000E+00 -0.45593999997E+02  0.45594000000E+02  0.51100000000E-03 0. -1.
    9900012    2    1    2    0    0  0.91057821308E+01 -0.85888338360E+01  0.29326399585E+02  0.59301936469E+02  0.49999986215E+02 0.  0.
         12    1    1    2    0    0 -0.91057821308E+01  0.85888338360E+01 -0.29326399585E+02  0.31886063531E+02  0.00000000000E+00 0. -1.
         11    1    3    3    0    0  0.17394929821E+02 -0.53269024789E+01  0.68237235985E+01  0.19429942808E+02  0.51100000000E-03 0. -1.
        -11    1    3    3    0    0  0.88085374442E+01  0.68745344339E+01  0.14824776715E+02  0.18564039444E+02  0.51100000000E-03 0.  1.
        -12    1    3    3    0    0 -0.17097685135E+02 -0.10136465791E+02  0.76778992716E+01  0.21307954217E+02  0.00000000000E+00 0.  1.
</event>
<event>
 7    1  0.6164995E-012  0.5930195E+02  0.7816164E-02  0.1266605E+00
        -11   -1    0    0    0    0  0.00000000000E+00  0.00000000000E+00  0.45593999997E+02  0.45594000000E+02  0.51100000000E-03 0.  1.
         11   -1    0    0    0    0 -0.00000000000E+00 -0.00000000000E+00 -0.45593999997E+02  0.45594000000E+02  0.51100000000E-03 0. -1.
    9900012    2    1    2    0    0  0.20463263742E+02 -0.30524314709E+01  0.24262266162E+02  0.59301951951E+02  0.50000014450E+02 0.  0.
         12    1    1    2    0    0 -0.20463263742E+02  0.30524314709E+01 -0.24262266162E+02  0.31886048049E+02  0.00000000000E+00 0. -1.
         11    1    3    3    0    0 -0.64756087546E+01 -0.92660975260E+00  0.56447643048E+01  0.86403401955E+01  0.51100000000E-03 0. -1.
        -11    1    3    3    0    0  0.23057472642E+02 -0.99181703854E+01  0.28174838745E+02  0.37733787075E+02  0.51100000000E-03 0.  1.
         12    1    3    3    0    0  0.38813998545E+01  0.77923486671E+01 -0.95573368877E+01  0.12927824680E+02  0.00000000000E+00 0. -1.
</event>
<event>
 7    1  0.6164995E-012  0.5930195E+02  0.7816164E-02  0.1266605E+00
        -11   -1    0    0    0    0  0.00000000000E+00  0.00000000000E+00  0.45593999997E+02  0.45594000000E+02  0.51100000000E-03 0.  1.
         11   -1    0    0    0    0 -0.00000000000E+00 -0.00000000000E+00 -0.45593999997E+02  0.45594000000E+02  0.51100000000E-03 0. -1.
    9900012    2    1    2    0    0 -0.54755510203E+01  0.18701095661E+02  0.25239008342E+02  0.59301950072E+02  0.50000011024E+02 0.  0.
         12    1    1    2    0    0  0.54755510203E+01 -0.18701095661E+02 -0.25239008342E+02  0.31886049928E+02  0.00000000000E+00 0. -1.
         11    1    3    3    0    0  0.60510774425E+01  0.25256049917E+02  0.55099118801E+01  0.26548874266E+02  0.51100000000E-03 0. -1.
        -11    1    3    3    0    0 -0.11292203726E+02  0.62748842208E+01  0.12728547803E+02  0.18135709702E+02  0.51100000000E-03 0.  1.
        -12    1    3    3    0    0 -0.23442473705E+00 -0.12829838476E+02  0.70005486594E+01  0.14617366104E+02  0.00000000000E+00 0.  1.
</event>
<event>
 7    1  0.6164995E-012  0.5930193E+02  0.7816164E-02  0.1266605E+00
        -11   -1    0    0    0    0  0.00000000000E+00  0.00000000000E+00  0.45593999997E+02  0.45594000000E+02  0.51100000000E-03 0.  1.
         11   -1    0    0    0    0 -0.00000000000E+00 -0.00000000000E+00 -0.45593999997E+02  0.45594000000E+02  0.51100000000E-03 0. -1.
    9900012    2    1    2    0    0  0.93903299915E+00 -0.31200370667E+02 -0.65097348881E+01  0.59301928416E+02  0.49999971528E+02 0.  0.
         12    1    1    2    0    0 -0.93903299915E+00  0.31200370667E+02  0.65097348881E+01  0.31886071584E+02  0.00000000000E+00 0. -1.
         11    1    3    3    0    0  0.16065196933E+02 -0.33027928430E+02  0.79625240498E+01  0.37581064360E+02  0.51100000000E-03 0.  1.
        -11    1    3    3    0    0 -0.15384482565E+01  0.20411134488E+01 -0.16870207338E+01  0.30625163454E+01  0.51100000000E-03 0. -1.
        -12    1    3    3    0    0 -0.13587715678E+02 -0.21355568557E+00 -0.12785238204E+02  0.18658347711E+02  0.00000000000E+00 0.  1.
</event>
<event>
 7    1  0.6164995E-012  0.5930186E+02  0.7816164E-02  0.1266605E+00
        -11   -1    0    0    0    0  0.00000000000E+00  0.00000000000E+00  0.45593999997E+02  0.45594000000E+02  0.51100000000E-03 0.  1.
         11   -1    0    0    0    0 -0.00000000000E+00 -0.00000000000E+00 -0.45593999997E+02  0.45594000000E+02  0.51100000000E-03 0. -1.
    9900012    2    1    2    0    0 -0.27693130747E+02 -0.15708501745E+02  0.17490665124E+01  0.59301862709E+02  0.49999851695E+02 0.  0.
         12    1    1    2    0    0  0.27693130747E+02  0.15708501745E+02 -0.17490665124E+01  0.31886137291E+02  0.00000000000E+00 0. -1.
         11    1    3    3    0    0  0.89528044683E+01 -0.55295602709E+01 -0.37941489444E+01  0.11185897868E+02  0.51100000000E-03 0. -1.
        -11    1    3    3    0    0 -0.65752837595E+01 -0.10356527960E+02 -0.85027749607E+01  0.14926125090E+02  0.51100000000E-03 0.  1.
        -12    1    3    3    0    0 -0.30070651456E+02  0.17758648524E+00  0.14045990418E+02  0.33189839752E+02  0.00000000000E+00 0.  1.
</event>
<event>
 7    1  0.6164995E-012  0.5930194E+02  0.7816164E-02  0.1266605E+00
        -11   -1    0    0    0    0  0.00000000000E+00  0.00000000000E+00  0.45593999997E+02  0.45594000000E+02  0.51100000000E-03 0.  1.
         11   -1    0    0    0    0 -0.00000000000E+00 -0.00000000000E+00 -0.45593999997E+02  0.45594000000E+02  0.51100000000E-03 0. -1.
    9900012    2    1    2    0    0  0.13551621066E+01 -0.31325054380E+02 -0.57987560467E+01  0.59301936149E+02  0.49999985631E+02 0.  0.
         12    1    1    2    0    0 -0.13551621066E+01  0.31325054380E+02  0.57987560467E+01  0.31886063851E+02  0.00000000000E+00 0. -1.
         11    1    3    3    0    0  0.59167968291E+01 -0.13974896316E+02  0.86016035482E+01  0.17444018907E+02  0.51100000000E-03 0. -1.
        -11    1    3    3    0    0  0.80915606480E+01 -0.12811597491E+02  0.69162935073E+01  0.16656695354E+02  0.51100000000E-03 0.  1.
        -12    1    3    3    0    0 -0.12653195371E+02 -0.45385605732E+01 -0.21316653102E+02  0.25201221888E+02  0.00000000000E+00 0.  1.
</event>
<event>
 7    1  0.6164995E-012  0.5930203E+02  0.7816164E-02  0.1266604E+00
        -11   -1    0    0    0    0  0.00000000000E+00  0.00000000000E+00  0.45593999997E+02  0.45594000000E+02  0.51100000000E-03 0.  1.
         11   -1    0    0    0    0 -0.00000000000E+00 -0.00000000000E+00 -0.45593999997E+02  0.45594000000E+02  0.51100000000E-03 0. -1.
    9900012    2    1    2    0    0 -0.13659163977E+02  0.16206333801E+02  0.23822196154E+02  0.59302030587E+02  0.50000157863E+02 0.  0.
         12    1    1    2    0    0  0.13659163977E+02 -0.16206333801E+02 -0.23822196154E+02  0.31885969413E+02  0.00000000000E+00 0. -1.
         11    1    3    3    0    0 -0.62877088729E+01 -0.66635976684E+01 -0.19201190303E+01  0.93608586203E+01  0.51100000000E-03 0. -1.
        -11    1    3    3    0    0 -0.56673915775E+01 -0.73660266400E+01  0.15311051128E+02  0.17911056994E+02  0.51100000000E-03 0.  1.
        -12    1    3    3    0    0 -0.17040635262E+01  0.30235958110E+02  0.10431264056E+02  0.32030114972E+02  0.00000000000E+00 0.  1.
</event>
<event>
 7    1  0.6164995E-012  0.5930195E+02  0.7816164E-02  0.1266605E+00
        -11   -1    0    0    0    0  0.00000000000E+00  0.00000000000E+00  0.45593999997E+02  0.45594000000E+02  0.51100000000E-03 0.  1.
         11   -1    0    0    0    0 -0.00000000000E+00 -0.00000000000E+00 -0.45593999997E+02  0.45594000000E+02  0.51100000000E-03 0. -1.
    9900012    2    1    2    0    0  0.67995601732E+01  0.30604105787E+02  0.58202027844E+01  0.59301951797E+02  0.50000014169E+02 0.  0.
         12    1    1    2    0    0 -0.67995601732E+01 -0.30604105787E+02 -0.58202027844E+01  0.31886048203E+02  0.00000000000E+00 0. -1.
         11    1    3    3    0    0  0.28329849782E+00  0.16005998631E+02  0.62514475375E+01  0.17185832735E+02  0.51100000000E-03 0. -1.
        -11    1    3    3    0    0 -0.20276619678E+01  0.25801665851E+02 -0.66395809543E+01  0.26719307799E+02  0.51100000000E-03 0.  1.
         12    1    3    3    0    0  0.85439236432E+01 -0.11203558695E+02  0.62083362012E+01  0.15396811262E+02  0.00000000000E+00 0. -1.
</event>
<event>
 7    1  0.6164995E-012  0.5930200E+02  0.7816164E-02  0.1266605E+00
        -11   -1    0    0    0    0  0.00000000000E+00  0.00000000000E+00  0.45593999997E+02  0.45594000000E+02  0.51100000000E-03 0.  1.
         11   -1    0    0    0    0 -0.00000000000E+00 -0.00000000000E+00 -0.45593999997E+02  0.45594000000E+02  0.51100000000E-03 0. -1.
    9900012    2    1    2    0    0 -0.21179858495E+02 -0.10482159236E+02  0.21406888170E+02  0.59302001047E+02  0.50000103989E+02 0.  0.
         12    1    1    2    0    0  0.21179858495E+02  0.10482159236E+02 -0.21406888170E+02  0.31885998953E+02  0.00000000000E+00 0. -1.
         11    1    3    3    0    0 -0.66933910619E+01 -0.10160775699E+02 -0.33783963658E+01  0.12627605037E+02  0.51100000000E-03 0. -1.
        -11    1    3    3    0    0 -0.10644548726E+02 -0.98707045133E+01 -0.48475338312E+01  0.15304764280E+02  0.51100000000E-03 0.  1.
        -12    1    3    3    0    0 -0.38419187070E+01  0.95493209763E+01  0.29632818367E+02  0.31369631729E+02  0.00000000000E+00 0.  1.
</event>
<event>
 7    1  0.6164995E-012  0.5930196E+02  0.7816164E-02  0.1266605E+00
        -11   -1    0    0    0    0  0.00000000000E+00  0.00000000000E+00  0.45593999997E+02  0.45594000000E+02  0.51100000000E-03 0.  1.
         11   -1    0    0    0    0 -0.00000000000E+00 -0.00000000000E+00 -0.45593999997E+02  0.45594000000E+02  0.51100000000E-03 0. -1.
    9900012    2    1    2    0    0  0.18706160579E+02  0.23814368290E+02  0.99837356486E+01  0.59301959823E+02  0.50000028807E+02 0.  0.
         12    1    1    2    0    0 -0.18706160579E+02 -0.23814368290E+02 -0.99837356486E+01  0.31886040177E+02  0.00000000000E+00 0. -1.
         11    1    3    3    0    0  0.65064179673E+01  0.86779828312E+01  0.48744187761E+01  0.11891207653E+02  0.51100000000E-03 0. -1.
        -11    1    3    3    0    0  0.19323182031E+01 -0.15890331878E+01  0.21619761305E+02  0.21764029021E+02  0.51100000000E-03 0.  1.
         12    1    3    3    0    0  0.10267424408E+02  0.16725418647E+02 -0.16510444432E+02  0.25646723148E+02  0.00000000000E+00 0. -1.
</event>
<event>
 7    1  0.6164995E-012  0.5930194E+02  0.7816164E-02  0.1266605E+00
        -11   -1    0    0    0    0  0.00000000000E+00  0.00000000000E+00  0.45593999997E+02  0.45594000000E+02  0.51100000000E-03 0.  1.
         11   -1    0    0    0    0 -0.00000000000E+00 -0.00000000000E+00 -0.45593999997E+02  0.45594000000E+02  0.51100000000E-03 0. -1.
    9900012    2    1    2    0    0  0.72842146714E+01 -0.27081946736E+02 -0.15173300493E+02  0.59301942385E+02  0.49999997003E+02 0.  0.
         12    1    1    2    0    0 -0.72842146714E+01  0.27081946736E+02  0.15173300493E+02  0.31886057615E+02  0.00000000000E+00 0. -1.
         11    1    3    3    0    0 -0.60085580518E+01 -0.45631183083E+01  0.10904325655E+02  0.13260057949E+02  0.51100000000E-03 0.  1.
        -11    1    3    3    0    0  0.70495075706E+01 -0.71951775711E+01  0.46867294994E+01  0.11109976189E+02  0.51100000000E-03 0. -1.
         12    1    3    3    0    0  0.62432651526E+01 -0.15323650857E+02 -0.30764355647E+02  0.34931908246E+02  0.00000000000E+00 0. -1.
</event>
<event>
 7    1  0.6164995E-012  0.5930193E+02  0.7816164E-02  0.1266605E+00
        -11   -1    0    0    0    0  0.00000000000E+00  0.00000000000E+00  0.45593999997E+02  0.45594000000E+02  0.51100000000E-03 0.  1.
         11   -1    0    0    0    0 -0.00000000000E+00 -0.00000000000E+00 -0.45593999997E+02  0.45594000000E+02  0.51100000000E-03 0. -1.
    9900012    2    1    2    0    0 -0.31085791832E+02 -0.69324088847E+01  0.15286090650E+01  0.59301931060E+02  0.49999976349E+02 0.  0.
         12    1    1    2    0    0  0.31085791832E+02  0.69324088847E+01 -0.15286090650E+01  0.31886068940E+02  0.00000000000E+00 0. -1.
         11    1    3    3    0    0  0.11327625694E+01  0.23121456250E+01 -0.34254892031E+01  0.42852240282E+01  0.51100000000E-03 0. -1.
        -11    1    3    3    0    0 -0.10936106244E+02  0.17463040351E+02  0.28603815900E+01  0.20802355184E+02  0.51100000000E-03 0.  1.
         12    1    3    3    0    0 -0.21282448158E+02 -0.26707594861E+02  0.20937166781E+01  0.34214351848E+02  0.00000000000E+00 0. -1.
</event>
<event>
 7    1  0.6164995E-012  0.5930193E+02  0.7816164E-02  0.1266605E+00
        -11   -1    0    0    0    0  0.00000000000E+00  0.00000000000E+00  0.45593999997E+02  0.45594000000E+02  0.51100000000E-03 0.  1.
         11   -1    0    0    0    0 -0.00000000000E+00 -0.00000000000E+00 -0.45593999997E+02  0.45594000000E+02  0.51100000000E-03 0. -1.
    9900012    2    1    2    0    0  0.20424458066E+02  0.11602379693E+02  0.21562643011E+02  0.59301932894E+02  0.49999979695E+02 0.  0.
         12    1    1    2    0    0 -0.20424458066E+02 -0.11602379693E+02 -0.21562643011E+02  0.31886067106E+02  0.00000000000E+00 0. -1.
         11    1    3    3    0    0 -0.52199774366E+01 -0.28264281839E+01  0.14481245641E+02  0.15650665682E+02  0.51100000000E-03 0. -1.
        -11    1    3    3    0    0  0.61430534337E+00 -0.87861685700E+01  0.28183073954E+01  0.92475394582E+01  0.51100000000E-03 0.  1.
        -12    1    3    3    0    0  0.25030130160E+02  0.23214976447E+02  0.42630899755E+01  0.34403727754E+02  0.00000000000E+00 0.  1.
</event>
<event>
 7    1  0.6164995E-012  0.5930197E+02  0.7816164E-02  0.1266605E+00
        -11   -1    0    0    0    0  0.00000000000E+00  0.00000000000E+00  0.45593999997E+02  0.45594000000E+02  0.51100000000E-03 0.  1.
         11   -1    0    0    0    0 -0.00000000000E+00 -0.00000000000E+00 -0.45593999997E+02  0.45594000000E+02  0.51100000000E-03 0. -1.
    9900012    2    1    2    0    0 -0.23673261566E+02 -0.20289333993E+02  0.66811926669E+01  0.59301972927E+02  0.50000052705E+02 0.  0.
         12    1    1    2    0    0  0.23673261566E+02  0.20289333993E+02 -0.66811926669E+01  0.31886027073E+02  0.00000000000E+00 0. -1.
         11    1    3    3    0    0  0.66713724633E+01  0.39438389873E-01 -0.93611802617E+01  0.11495236495E+02  0.51100000000E-03 0. -1.
        -11    1    3    3    0    0  0.34649345320E+01  0.22923481681E+01  0.28640213083E+01  0.50461123403E+01  0.51100000000E-03 0.  1.
         12    1    3    3    0    0 -0.33809568561E+02 -0.22621120551E+02  0.13178351620E+02  0.42760624091E+02  0.00000000000E+00 0. -1.
</event>
<event>
 7    1  0.6164995E-012  0.5930207E+02  0.7816164E-02  0.1266604E+00
        -11   -1    0    0    0    0  0.00000000000E+00  0.00000000000E+00  0.45593999997E+02  0.45594000000E+02  0.51100000000E-03 0.  1.
         11   -1    0    0    0    0 -0.00000000000E+00 -0.00000000000E+00 -0.45593999997E+02  0.45594000000E+02  0.51100000000E-03 0. -1.
    9900012    2    1    2    0    0 -0.31825250640E+02 -0.13955647181E+01  0.13850722279E+01  0.59302068866E+02  0.50000227675E+02 0.  0.
         12    1    1    2    0    0  0.31825250640E+02  0.13955647181E+01 -0.13850722279E+01  0.31885931134E+02  0.00000000000E+00 0. -1.
         11    1    3    3    0    0 -0.45947755660E+01  0.13107768218E+02  0.19112946505E+01  0.14020648974E+02  0.51100000000E-03 0. -1.
        -11    1    3    3    0    0 -0.85613390593E+01  0.72522335982E+01 -0.10060260444E+02  0.15069846021E+02  0.51100000000E-03 0.  1.
         12    1    3    3    0    0 -0.18669136015E+02 -0.21755566534E+02  0.95340380209E+01  0.30211573871E+02  0.00000000000E+00 0. -1.
</event>
<event>
 7    1  0.6164995E-012  0.5930194E+02  0.7816164E-02  0.1266605E+00
        -11   -1    0    0    0    0  0.00000000000E+00  0.00000000000E+00  0.45593999997E+02  0.45594000000E+02  0.51100000000E-03 0.  1.
         11   -1    0    0    0    0 -0.00000000000E+00 -0.00000000000E+00 -0.45593999997E+02  0.45594000000E+02  0.51100000000E-03 0. -1.
    9900012    2    1    2    0    0 -0.13695491581E+02  0.23837807553E+02  0.16152805558E+02  0.59301942138E+02  0.49999996554E+02 0.  0.
         12    1    1    2    0    0  0.13695491581E+02 -0.23837807553E+02 -0.16152805558E+02  0.31886057862E+02  0.00000000000E+00 0. -1.
         11    1    3    3    0    0 -0.13060382981E+02  0.11451829430E+02  0.13960862907E+01  0.17426045395E+02  0.51100000000E-03 0. -1.
        -11    1    3    3    0    0 -0.12725004954E+01  0.16153634766E+02  0.25645755626E+02  0.30335852643E+02  0.51100000000E-03 0.  1.
         12    1    3    3    0    0  0.63739189549E+00 -0.37676566423E+01 -0.10889036360E+02  0.11540044101E+02  0.00000000000E+00 0. -1.
</event>
<event>
 7    1  0.6164995E-012  0.5930197E+02  0.7816164E-02  0.1266605E+00
        -11   -1    0    0    0    0  0.00000000000E+00  0.00000000000E+00  0.45593999997E+02  0.45594000000E+02  0.51100000000E-03 0. -1.
         11   -1    0    0    0    0 -0.00000000000E+00 -0.00000000000E+00 -0.45593999997E+02  0.45594000000E+02  0.51100000000E-03 0.  1.
    9900012    2    1    2    0    0  0.30577098369E+02 -0.70001026870E+01  0.57235094435E+01  0.59301969475E+02  0.50000046410E+02 0.  0.
         12    1    1    2    0    0 -0.30577098369E+02  0.70001026870E+01 -0.57235094435E+01  0.31886030525E+02  0.00000000000E+00 0. -1.
         11    1    3    3    0    0  0.22306666500E+02  0.62321414562E+01  0.10898270538E+01  0.23186519375E+02  0.51100000000E-03 0. -1.
        -11    1    3    3    0    0  0.16041586729E+02 -0.17417397292E+02  0.10089414244E+02  0.25738968769E+02  0.51100000000E-03 0.  1.
         12    1    3    3    0    0 -0.77711548604E+01  0.41851531490E+01 -0.54557318548E+01  0.10376481331E+02  0.00000000000E+00 0. -1.
</event>
<event>
 7    1  0.6164995E-012  0.5930195E+02  0.7816164E-02  0.1266605E+00
        -11   -1    0    0    0    0  0.00000000000E+00  0.00000000000E+00  0.45593999997E+02  0.45594000000E+02  0.51100000000E-03 0.  1.
         11   -1    0    0    0    0 -0.00000000000E+00 -0.00000000000E+00 -0.45593999997E+02  0.45594000000E+02  0.51100000000E-03 0. -1.
    9900012    2    1    2    0    0 -0.78645357248E+01 -0.17294260740E+02  0.25608157544E+02  0.59301951178E+02  0.50000013040E+02 0.  0.
         12    1    1    2    0    0  0.78645357248E+01  0.17294260740E+02 -0.25608157544E+02  0.31886048822E+02  0.00000000000E+00 0. -1.
         11    1    3    3    0    0  0.17004075052E+01  0.22128213637E+01  0.15769145688E+02  0.16014178720E+02  0.51100000000E-03 0. -1.
        -11    1    3    3    0    0 -0.19322637810E+02 -0.22259006379E+02  0.13615926327E+02  0.32468771873E+02  0.51100000000E-03 0.  1.
         12    1    3    3    0    0  0.97576945800E+01  0.27519242759E+01 -0.37769144712E+01  0.10819000585E+02  0.00000000000E+00 0. -1.
</event>
<event>
 7    1  0.6164995E-012  0.5930197E+02  0.7816164E-02  0.1266605E+00
        -11   -1    0    0    0    0  0.00000000000E+00  0.00000000000E+00  0.45593999997E+02  0.45594000000E+02  0.51100000000E-03 0. -1.
         11   -1    0    0    0    0 -0.00000000000E+00 -0.00000000000E+00 -0.45593999997E+02  0.45594000000E+02  0.51100000000E-03 0.  1.
    9900012    2    1    2    0    0  0.24812703269E+01  0.19666447458E+02 -0.24975843138E+02  0.59301974872E+02  0.50000056252E+02 0.  0.
         12    1    1    2    0    0 -0.24812703269E+01 -0.19666447458E+02  0.24975843138E+02  0.31886025128E+02  0.00000000000E+00 0. -1.
         11    1    3    3    0    0  0.11464412263E+02  0.10117374700E+02  0.88064820197E+00  0.15315663906E+02  0.51100000000E-03 0. -1.
        -11    1    3    3    0    0  0.10662158952E+02 -0.14932299581E+01 -0.16239420543E+02  0.19484099904E+02  0.51100000000E-03 0.  1.
        -12    1    3    3    0    0 -0.19645300888E+02  0.11042302716E+02 -0.96170707964E+01  0.24502211062E+02  0.00000000000E+00 0.  1.
</event>
<event>
 7    1  0.6164995E-012  0.5930196E+02  0.7816164E-02  0.1266605E+00
        -11   -1    0    0    0    0  0.00000000000E+00  0.00000000000E+00  0.45593999997E+02  0.45594000000E+02  0.51100000000E-03 0.  1.
         11   -1    0    0    0    0 -0.00000000000E+00 -0.00000000000E+00 -0.45593999997E+02  0.45594000000E+02  0.51100000000E-03 0. -1.
    9900012    2    1    2    0    0  0.21516870321E+02  0.91707597032E+01  0.21671200192E+02  0.59301961367E+02  0.50000031622E+02 0.  0.
         12    1    1    2    0    0 -0.21516870321E+02 -0.91707597032E+01 -0.21671200192E+02  0.31886038633E+02  0.00000000000E+00 0. -1.
         11    1    3    3    0    0  0.28729349430E+02 -0.11289551601E+02  0.14695175551E+02  0.34187390640E+02  0.51100000000E-03 0. -1.
        -11    1    3    3    0    0 -0.18563850025E+01  0.13341451866E+01  0.45667769567E+01  0.51070109350E+01  0.51100000000E-03 0.  1.
        -12    1    3    3    0    0 -0.53560941064E+01  0.19126166117E+02  0.24092476844E+01  0.20007559792E+02  0.00000000000E+00 0.  1.
</event>
<event>
 7    1  0.6164995E-012  0.5930195E+02  0.7816164E-02  0.1266605E+00
        -11   -1    0    0    0    0  0.00000000000E+00  0.00000000000E+00  0.45593999997E+02  0.45594000000E+02  0.51100000000E-03 0.  1.
         11   -1    0    0    0    0 -0.00000000000E+00 -0.00000000000E+00 -0.45593999997E+02  0.45594000000E+02  0.51100000000E-03 0. -1.
    9900012    2    1    2    0    0  0.15091563668E+02 -0.27892046819E+02 -0.33164331064E+01  0.59301948218E+02  0.50000007642E+02 0.  0.
         12    1    1    2    0    0 -0.15091563668E+02  0.27892046819E+02  0.33164331064E+01  0.31886051782E+02  0.00000000000E+00 0. -1.
         11    1    3    3    0    0  0.10299619393E+02 -0.25362326109E+02 -0.59721592149E+01  0.28017787765E+02  0.51100000000E-03 0. -1.
        -11    1    3    3    0    0 -0.79870188293E+01 -0.73480675510E+01  0.10859009004E+02  0.15352675445E+02  0.51100000000E-03 0.  1.
         12    1    3    3    0    0  0.12778963104E+02  0.48183468411E+01 -0.82032828953E+01  0.15931485008E+02  0.00000000000E+00 0. -1.
</event>
<event>
 7    1  0.6164995E-012  0.5930195E+02  0.7816164E-02  0.1266605E+00
        -11   -1    0    0    0    0  0.00000000000E+00  0.00000000000E+00  0.45593999997E+02  0.45594000000E+02  0.51100000000E-03 0. -1.
         11   -1    0    0    0    0 -0.00000000000E+00 -0.00000000000E+00 -0.45593999997E+02  0.45594000000E+02  0.51100000000E-03 0.  1.
    9900012    2    1    2    0    0 -0.30221903176E+02  0.83695206508E+01 -0.57712712691E+01  0.59301954783E+02  0.50000019615E+02 0.  0.
         12    1    1    2    0    0  0.30221903176E+02 -0.83695206508E+01  0.57712712691E+01  0.31886045217E+02  0.00000000000E+00 0. -1.
         11    1    3    3    0    0  0.40331318385E+01  0.78225820164E+01 -0.53964079490E+01  0.10323766795E+02  0.51100000000E-03 0. -1.
        -11    1    3    3    0    0 -0.56998211963E+01 -0.92085397538E+01 -0.12427847974E+02  0.16484434221E+02  0.51100000000E-03 0.  1.
         12    1    3    3    0    0 -0.28555213818E+02  0.97554783881E+01  0.12052984654E+02  0.32493753767E+02  0.00000000000E+00 0. -1.
</event>
<event>
 7    1  0.6164995E-012  0.5930195E+02  0.7816164E-02  0.1266605E+00
        -11   -1    0    0    0    0  0.00000000000E+00  0.00000000000E+00  0.45593999997E+02  0.45594000000E+02  0.51100000000E-03 0.  1.
         11   -1    0    0    0    0 -0.00000000000E+00 -0.00000000000E+00 -0.45593999997E+02  0.45594000000E+02  0.51100000000E-03 0. -1.
    9900012    2    1    2    0    0  0.17540231708E+02  0.38919301449E+01  0.26342238338E+02  0.59301947104E+02  0.50000005610E+02 0.  0.
         12    1    1    2    0    0 -0.17540231708E+02 -0.38919301449E+01 -0.26342238338E+02  0.31886052896E+02  0.00000000000E+00 0. -1.
         11    1    3    3    0    0 -0.10478713566E+02  0.83503202021E+01  0.13812058365E+02  0.19243290831E+02  0.51100000000E-03 0. -1.
        -11    1    3    3    0    0  0.72740305401E+01 -0.61181757988E+01  0.16338258043E+02  0.18901911849E+02  0.51100000000E-03 0.  1.
         12    1    3    3    0    0  0.20744914734E+02  0.16597857417E+01 -0.38080780698E+01  0.21156744424E+02  0.00000000000E+00 0. -1.
</event>
<event>
 7    1  0.6164995E-012  0.5930181E+02  0.7816164E-02  0.1266605E+00
        -11   -1    0    0    0    0  0.00000000000E+00  0.00000000000E+00  0.45593999997E+02  0.45594000000E+02  0.51100000000E-03 0. -1.
         11   -1    0    0    0    0 -0.00000000000E+00 -0.00000000000E+00 -0.45593999997E+02  0.45594000000E+02  0.51100000000E-03 0.  1.
    9900012    2    1    2    0    0  0.45488149447E+01 -0.29487700750E+02 -0.11247792176E+02  0.59301811112E+02  0.49999757594E+02 0.  0.
         12    1    1    2    0    0 -0.45488149447E+01  0.29487700750E+02  0.11247792176E+02  0.31886188888E+02  0.00000000000E+00 0. -1.
         11    1    3    3    0    0  0.16881346263E+02 -0.53889158762E+01  0.10717610170E+01  0.17752997998E+02  0.51100000000E-03 0. -1.
        -11    1    3    3    0    0  0.69659015655E+01 -0.11234655491E+02  0.32523345523E+01  0.13613190255E+02  0.51100000000E-03 0.  1.
        -12    1    3    3    0    0 -0.19298432884E+02 -0.12864129383E+02 -0.15571887746E+02  0.27935622859E+02  0.00000000000E+00 0.  1.
</event>
<event>
 7    1  0.6164995E-012  0.5930195E+02  0.7816164E-02  0.1266605E+00
        -11   -1    0    0    0    0  0.00000000000E+00  0.00000000000E+00  0.45593999997E+02  0.45594000000E+02  0.51100000000E-03 0. -1.
         11   -1    0    0    0    0 -0.00000000000E+00 -0.00000000000E+00 -0.45593999997E+02  0.45594000000E+02  0.51100000000E-03 0.  1.
    9900012    2    1    2    0    0 -0.14953640797E+01 -0.30338524820E+02 -0.96983371848E+01  0.59301953739E+02  0.50000017711E+02 0.  0.
         12    1    1    2    0    0  0.14953640797E+01  0.30338524820E+02  0.96983371848E+01  0.31886046261E+02  0.00000000000E+00 0. -1.
         11    1    3    3    0    0 -0.84692283054E+01 -0.26569145628E+02 -0.15919615894E+02  0.32110457767E+02  0.51100000000E-03 0. -1.
        -11    1    3    3    0    0  0.16138346586E+01 -0.14053756746E+02  0.25262661986E+00  0.14148369568E+02  0.51100000000E-03 0.  1.
         12    1    3    3    0    0  0.53600295672E+01  0.10284377554E+02  0.59686520896E+01  0.13043126404E+02  0.00000000000E+00 0. -1.
</event>
<event>
 7    1  0.6164995E-012  0.5930196E+02  0.7816164E-02  0.1266605E+00
        -11   -1    0    0    0    0  0.00000000000E+00  0.00000000000E+00  0.45593999997E+02  0.45594000000E+02  0.51100000000E-03 0.  1.
         11   -1    0    0    0    0 -0.00000000000E+00 -0.00000000000E+00 -0.45593999997E+02  0.45594000000E+02  0.51100000000E-03 0. -1.
    9900012    2    1    2    0    0 -0.25883783166E+02  0.16089492733E+02  0.93743140057E+01  0.59301956494E+02  0.50000022735E+02 0.  0.
         12    1    1    2    0    0  0.25883783166E+02 -0.16089492733E+02 -0.93743140057E+01  0.31886043506E+02  0.00000000000E+00 0. -1.
         11    1    3    3    0    0 -0.11335370346E+02 -0.21775037691E+00 -0.30791705802E+01  0.11748162743E+02  0.51100000000E-03 0. -1.
        -11    1    3    3    0    0 -0.13721093544E+02 -0.74567109996E+01  0.17279547185E+02  0.23290635417E+02  0.51100000000E-03 0.  1.
        -12    1    3    3    0    0 -0.82731927674E+00  0.23763954110E+02 -0.48260625992E+01  0.24263158334E+02  0.00000000000E+00 0.  1.
</event>
<event>
 7    1  0.6164995E-012  0.5930195E+02  0.7816164E-02  0.1266605E+00
        -11   -1    0    0    0    0  0.00000000000E+00  0.00000000000E+00  0.45593999997E+02  0.45594000000E+02  0.51100000000E-03 0.  1.
         11   -1    0    0    0    0 -0.00000000000E+00 -0.00000000000E+00 -0.45593999997E+02  0.45594000000E+02  0.51100000000E-03 0. -1.
    9900012    2    1    2    0    0  0.60013948739E+01  0.92044718397E+01  0.29932946996E+02  0.59301947279E+02  0.50000005930E+02 0.  0.
         12    1    1    2    0    0 -0.60013948739E+01 -0.92044718397E+01 -0.29932946996E+02  0.31886052721E+02  0.00000000000E+00 0. -1.
         11    1    3    3    0    0  0.63438976394E+01 -0.40764576840E+01  0.12071358342E+01  0.76367350151E+01  0.51100000000E-03 0.  1.
        -11    1    3    3    0    0  0.51210108697E+01  0.14153982972E+02  0.37996379528E+02  0.40869118461E+02  0.51100000000E-03 0. -1.
         12    1    3    3    0    0 -0.54635136351E+01 -0.87305344859E+00 -0.92705683663E+01  0.10796093803E+02  0.00000000000E+00 0. -1.
</event>
<event>
 7    1  0.6164995E-012  0.5930196E+02  0.7816164E-02  0.1266605E+00
        -11   -1    0    0    0    0  0.00000000000E+00  0.00000000000E+00  0.45593999997E+02  0.45594000000E+02  0.51100000000E-03 0.  1.
         11   -1    0    0    0    0 -0.00000000000E+00 -0.00000000000E+00 -0.45593999997E+02  0.45594000000E+02  0.51100000000E-03 0. -1.
    9900012    2    1    2    0    0  0.24013175629E+02 -0.18243859280E+02  0.10356082519E+02  0.59301961514E+02  0.50000031890E+02 0.  0.
         12    1    1    2    0    0 -0.24013175629E+02  0.18243859280E+02 -0.10356082519E+02  0.31886038486E+02  0.00000000000E+00 0. -1.
         11    1    3    3    0    0  0.29194704643E+01  0.13415343087E+01 -0.11856981207E+02  0.12284584881E+02  0.51100000000E-03 0. -1.
        -11    1    3    3    0    0 -0.41488971901E+01 -0.12708887104E+02  0.11289308333E+01  0.13416543683E+02  0.51100000000E-03 0.  1.
        -12    1    3    3    0    0  0.25242602355E+02 -0.68765064845E+01  0.21084132893E+02  0.33600832950E+02  0.00000000000E+00 0.  1.
</event>
<event>
 7    1  0.6164995E-012  0.5930196E+02  0.7816164E-02  0.1266605E+00
        -11   -1    0    0    0    0  0.00000000000E+00  0.00000000000E+00  0.45593999997E+02  0.45594000000E+02  0.51100000000E-03 0.  1.
         11   -1    0    0    0    0 -0.00000000000E+00 -0.00000000000E+00 -0.45593999997E+02  0.45594000000E+02  0.51100000000E-03 0. -1.
    9900012    2    1    2    0    0 -0.23265736194E+02  0.41459647174E+01  0.21406452530E+02  0.59301957380E+02  0.50000024350E+02 0.  0.
         12    1    1    2    0    0  0.23265736194E+02 -0.41459647174E+01 -0.21406452530E+02  0.31886042620E+02  0.00000000000E+00 0. -1.
         11    1    3    3    0    0 -0.29134416491E+02  0.12540184387E+01  0.89198142243E+01  0.30495079481E+02  0.51100000000E-03 0. -1.
        -11    1    3    3    0    0  0.34046406233E+01  0.20831944812E+01  0.20240770906E+02  0.20630561896E+02  0.51100000000E-03 0.  1.
        -12    1    3    3    0    0  0.24640396735E+01  0.80875179754E+00 -0.77541326005E+01  0.81763160023E+01  0.00000000000E+00 0.  1.
</event>
<event>
 7    1  0.6164995E-012  0.5930195E+02  0.7816164E-02  0.1266605E+00
        -11   -1    0    0    0    0  0.00000000000E+00  0.00000000000E+00  0.45593999997E+02  0.45594000000E+02  0.51100000000E-03 0.  1.
         11   -1    0    0    0    0 -0.00000000000E+00 -0.00000000000E+00 -0.45593999997E+02  0.45594000000E+02  0.51100000000E-03 0. -1.
    9900012    2    1    2    0    0  0.18544428323E+02 -0.63780038848E+01  0.25142504759E+02  0.59301948176E+02  0.50000007565E+02 0.  0.
         12    1    1    2    0    0 -0.18544428323E+02  0.63780038848E+01 -0.25142504759E+02  0.31886051824E+02  0.00000000000E+00 0. -1.
         11    1    3    3    0    0 -0.75704218826E+01 -0.23965925883E-01 -0.70247617579E+01  0.10327591194E+02  0.51100000000E-03 0. -1.
        -11    1    3    3    0    0 -0.18991855327E+01 -0.45207722015E+00  0.15954298111E+02  0.16073297980E+02  0.51100000000E-03 0.  1.
        -12    1    3    3    0    0  0.28014035738E+02 -0.59019607388E+01  0.16212968406E+02  0.32901059002E+02  0.00000000000E+00 0.  1.
</event>
<event>
 7    1  0.6164995E-012  0.5930192E+02  0.7816164E-02  0.1266605E+00
        -11   -1    0    0    0    0  0.00000000000E+00  0.00000000000E+00  0.45593999997E+02  0.45594000000E+02  0.51100000000E-03 0. -1.
         11   -1    0    0    0    0 -0.00000000000E+00 -0.00000000000E+00 -0.45593999997E+02  0.45594000000E+02  0.51100000000E-03 0.  1.
    9900012    2    1    2    0    0  0.16082604844E+02 -0.26371200775E+02 -0.79140076576E+01  0.59301922692E+02  0.49999961088E+02 0.  0.
         12    1    1    2    0    0 -0.16082604844E+02  0.26371200775E+02  0.79140076576E+01  0.31886077308E+02  0.00000000000E+00 0. -1.
         11    1    3    3    0    0 -0.13580840221E+02 -0.20799152548E+01  0.10419328617E+00  0.13739582420E+02  0.51100000000E-03 0. -1.
        -11    1    3    3    0    0 -0.40000987075E+01 -0.27233586016E+01 -0.14047035005E+01  0.50389149555E+01  0.51100000000E-03 0.  1.
         12    1    3    3    0    0  0.33663543773E+02 -0.21567926919E+02 -0.66134974433E+01  0.40523425316E+02  0.00000000000E+00 0. -1.
</event>
<event>
 7    1  0.6164995E-012  0.5930199E+02  0.7816164E-02  0.1266605E+00
        -11   -1    0    0    0    0  0.00000000000E+00  0.00000000000E+00  0.45593999997E+02  0.45594000000E+02  0.51100000000E-03 0.  1.
         11   -1    0    0    0    0 -0.00000000000E+00 -0.00000000000E+00 -0.45593999997E+02  0.45594000000E+02  0.51100000000E-03 0. -1.
    9900012    2    1    2    0    0 -0.45923235940E+01 -0.31552388747E+02  0.27334777369E+00  0.59301993812E+02  0.50000090794E+02 0.  0.
         12    1    1    2    0    0  0.45923235940E+01  0.31552388747E+02 -0.27334777369E+00  0.31886006188E+02  0.00000000000E+00 0. -1.
         11    1    3    3    0    0  0.12830283104E+02 -0.85892920623E+00 -0.46634954515E+01  0.13678527479E+02  0.51100000000E-03 0. -1.
        -11    1    3    3    0    0  0.66728313338E+01 -0.10725972607E+02 -0.36943557370E+01  0.13161361287E+02  0.51100000000E-03 0.  1.
        -12    1    3    3    0    0 -0.24095438032E+02 -0.19967486934E+02  0.86311989621E+01  0.32462105045E+02  0.00000000000E+00 0.  1.
</event>
<event>
 7    1  0.6164995E-012  0.5930195E+02  0.7816164E-02  0.1266605E+00
        -11   -1    0    0    0    0  0.00000000000E+00  0.00000000000E+00  0.45593999997E+02  0.45594000000E+02  0.51100000000E-03 0. -1.
         11   -1    0    0    0    0 -0.00000000000E+00 -0.00000000000E+00 -0.45593999997E+02  0.45594000000E+02  0.51100000000E-03 0.  1.
    9900012    2    1    2    0    0 -0.17338504367E+02 -0.18405372962E+02 -0.19425202425E+02  0.59301953259E+02  0.50000016835E+02 0.  0.
         12    1    1    2    0    0  0.17338504367E+02  0.18405372962E+02  0.19425202425E+02  0.31886046741E+02  0.00000000000E+00 0. -1.
         11    1    3    3    0    0  0.94189059656E+01  0.46763756713E+01 -0.76623673475E+01  0.13011385500E+02  0.51100000000E-03 0. -1.
        -11    1    3    3    0    0 -0.53481580207E+01 -0.22123111537E+02 -0.97657627853E+01  0.24767013977E+02  0.51100000000E-03 0.  1.
         12    1    3    3    0    0 -0.21409252312E+02 -0.95863709631E+00 -0.19970722920E+01  0.21523553782E+02  0.00000000000E+00 0. -1.
</event>
<event>
 7    1  0.6164995E-012  0.5930185E+02  0.7816164E-02  0.1266605E+00
        -11   -1    0    0    0    0  0.00000000000E+00  0.00000000000E+00  0.45593999997E+02  0.45594000000E+02  0.51100000000E-03 0. -1.
         11   -1    0    0    0    0 -0.00000000000E+00 -0.00000000000E+00 -0.45593999997E+02  0.45594000000E+02  0.51100000000E-03 0.  1.
    9900012    2    1    2    0    0 -0.25495583828E+02 -0.19143170490E+02  0.49039249135E+00  0.59301854797E+02  0.49999837264E+02 0.  0.
         12    1    1    2    0    0  0.25495583828E+02  0.19143170490E+02 -0.49039249135E+00  0.31886145203E+02  0.00000000000E+00 0. -1.
         11    1    3    3    0    0 -0.67621549410E+01 -0.24354663109E+02 -0.19745428483E+00  0.25276774775E+02  0.51100000000E-03 0.  1.
        -11    1    3    3    0    0 -0.68214307862E+01 -0.53578717655E+01  0.11771867495E+02  0.14622433874E+02  0.51100000000E-03 0. -1.
        -12    1    3    3    0    0 -0.11911998100E+02  0.10569364384E+02 -0.11084020719E+02  0.19402646148E+02  0.00000000000E+00 0.  1.
</event>
<event>
 7    1  0.6164995E-012  0.5930196E+02  0.7816164E-02  0.1266605E+00
        -11   -1    0    0    0    0  0.00000000000E+00  0.00000000000E+00  0.45593999997E+02  0.45594000000E+02  0.51100000000E-03 0.  1.
         11   -1    0    0    0    0 -0.00000000000E+00 -0.00000000000E+00 -0.45593999997E+02  0.45594000000E+02  0.51100000000E-03 0. -1.
    9900012    2    1    2    0    0 -0.19605032593E+02  0.23652728741E+02  0.85387873193E+01  0.59301956521E+02  0.50000022785E+02 0.  0.
         12    1    1    2    0    0  0.19605032593E+02 -0.23652728741E+02 -0.85387873193E+01  0.31886043479E+02  0.00000000000E+00 0. -1.
         11    1    3    3    0    0 -0.27720742207E+02  0.60380358435E+00  0.92119215273E+01  0.29217522581E+02  0.51100000000E-03 0. -1.
        -11    1    3    3    0    0  0.53319451219E+01  0.39028795651E+01 -0.70985417975E+01  0.96980102905E+01  0.51100000000E-03 0.  1.
        -12    1    3    3    0    0  0.27837644929E+01  0.19146045591E+02  0.64254075895E+01  0.20386423650E+02  0.00000000000E+00 0.  1.
</event>
<event>
 7    1  0.6164995E-012  0.5930201E+02  0.7816164E-02  0.1266605E+00
        -11   -1    0    0    0    0  0.00000000000E+00  0.00000000000E+00  0.45593999997E+02  0.45594000000E+02  0.51100000000E-03 0.  1.
         11   -1    0    0    0    0 -0.00000000000E+00 -0.00000000000E+00 -0.45593999997E+02  0.45594000000E+02  0.51100000000E-03 0. -1.
    9900012    2    1    2    0    0  0.11347744421E+02 -0.28189950153E+02 -0.96577167227E+01  0.59302014279E+02  0.50000128122E+02 0.  0.
         12    1    1    2    0    0 -0.11347744421E+02  0.28189950153E+02  0.96577167227E+01  0.31885985721E+02  0.00000000000E+00 0. -1.
         11    1    3    3    0    0  0.21487498678E+02 -0.77733382486E+01  0.54536752501E+01  0.23492125510E+02  0.51100000000E-03 0. -1.
        -11    1    3    3    0    0 -0.23311611943E+01 -0.70761853008E+00  0.56404786401E+01  0.61441057973E+01  0.51100000000E-03 0.  1.
         12    1    3    3    0    0 -0.78085930624E+01 -0.19708993374E+02 -0.20751870613E+02  0.29665782973E+02  0.00000000000E+00 0. -1.
</event>
<event>
 7    1  0.6164995E-012  0.5930197E+02  0.7816164E-02  0.1266605E+00
        -11   -1    0    0    0    0  0.00000000000E+00  0.00000000000E+00  0.45593999997E+02  0.45594000000E+02  0.51100000000E-03 0.  1.
         11   -1    0    0    0    0 -0.00000000000E+00 -0.00000000000E+00 -0.45593999997E+02  0.45594000000E+02  0.51100000000E-03 0. -1.
    9900012    2    1    2    0    0  0.21000421314E+02 -0.15647735956E+02  0.18189276647E+02  0.59301966680E+02  0.50000041312E+02 0.  0.
         12    1    1    2    0    0 -0.21000421314E+02  0.15647735956E+02 -0.18189276647E+02  0.31886033320E+02  0.00000000000E+00 0. -1.
         11    1    3    3    0    0 -0.79037090767E+01  0.64264397631E+01  0.11409594663E+02  0.15295312871E+02  0.51100000000E-03 0.  1.
        -11    1    3    3    0    0  0.18961924266E+00  0.13532516070E+01 -0.49504168499E+01  0.51355498847E+01  0.51100000000E-03 0. -1.
        -12    1    3    3    0    0  0.28714511148E+02 -0.23427427326E+02  0.11730098834E+02  0.38871103924E+02  0.00000000000E+00 0.  1.
</event>
<event>
 7    1  0.6164995E-012  0.5930199E+02  0.7816164E-02  0.1266605E+00
        -11   -1    0    0    0    0  0.00000000000E+00  0.00000000000E+00  0.45593999997E+02  0.45594000000E+02  0.51100000000E-03 0.  1.
         11   -1    0    0    0    0 -0.00000000000E+00 -0.00000000000E+00 -0.45593999997E+02  0.45594000000E+02  0.51100000000E-03 0. -1.
    9900012    2    1    2    0    0 -0.61708497612E+01  0.26500962516E+02  0.16623402956E+02  0.59301985403E+02  0.50000075459E+02 0.  0.
         12    1    1    2    0    0  0.61708497612E+01 -0.26500962516E+02 -0.16623402956E+02  0.31886014597E+02  0.00000000000E+00 0. -1.
         11    1    3    3    0    0 -0.51550934872E+01 -0.71862171787E+01  0.56459506027E+01  0.10492543289E+02  0.51100000000E-03 0. -1.
        -11    1    3    3    0    0  0.19043599371E+01  0.11464959421E+02 -0.12003792056E+02  0.16708168819E+02  0.51100000000E-03 0.  1.
        -12    1    3    3    0    0 -0.29201162111E+01  0.22222220273E+02  0.22981244410E+02  0.32101273295E+02  0.00000000000E+00 0.  1.
</event>
<event>
 7    1  0.6164995E-012  0.5930192E+02  0.7816164E-02  0.1266605E+00
        -11   -1    0    0    0    0  0.00000000000E+00  0.00000000000E+00  0.45593999997E+02  0.45594000000E+02  0.51100000000E-03 0.  1.
         11   -1    0    0    0    0 -0.00000000000E+00 -0.00000000000E+00 -0.45593999997E+02  0.45594000000E+02  0.51100000000E-03 0. -1.
    9900012    2    1    2    0    0 -0.16084470710E+02  0.10720181880E+02  0.25359207221E+02  0.59301923282E+02  0.49999962165E+02 0.  0.
         12    1    1    2    0    0  0.16084470710E+02 -0.10720181880E+02 -0.25359207221E+02  0.31886076718E+02  0.00000000000E+00 0. -1.
         11    1    3    3    0    0 -0.69698929945E+01  0.82771108811E+01 -0.30281379484E+00  0.10825048238E+02  0.51100000000E-03 0. -1.
        -11    1    3    3    0    0  0.80108572572E+01  0.91442937383E+01 -0.46555021882E+01  0.13017897021E+02  0.51100000000E-03 0.  1.
        -12    1    3    3    0    0 -0.17125434973E+02 -0.67012227397E+01  0.30317523204E+02  0.35458978023E+02  0.00000000000E+00 0.  1.
</event>
<event>
 7    1  0.6164995E-012  0.5930193E+02  0.7816164E-02  0.1266605E+00
        -11   -1    0    0    0    0  0.00000000000E+00  0.00000000000E+00  0.45593999997E+02  0.45594000000E+02  0.51100000000E-03 0.  1.
         11   -1    0    0    0    0 -0.00000000000E+00 -0.00000000000E+00 -0.45593999997E+02  0.45594000000E+02  0.51100000000E-03 0. -1.
    9900012    2    1    2    0    0  0.23849308686E+02  0.19042969735E+02  0.92356623892E+01  0.59301926537E+02  0.49999968101E+02 0.  0.
         12    1    1    2    0    0 -0.23849308686E+02 -0.19042969735E+02 -0.92356623892E+01  0.31886073463E+02  0.00000000000E+00 0. -1.
         11    1    3    3    0    0 -0.92268152732E+00  0.56061697539E+01  0.19762277198E+02  0.20562783878E+02  0.51100000000E-03 0. -1.
        -11    1    3    3    0    0  0.27375091352E+02  0.15742051361E+02 -0.46615079008E+01  0.31920799861E+02  0.51100000000E-03 0.  1.
         12    1    3    3    0    0 -0.26031011393E+01 -0.23052513797E+01 -0.58651069079E+01  0.68183427976E+01  0.00000000000E+00 0. -1.
</event>
<event>
 7    1  0.6164995E-012  0.5930207E+02  0.7816164E-02  0.1266604E+00
        -11   -1    0    0    0    0  0.00000000000E+00  0.00000000000E+00  0.45593999997E+02  0.45594000000E+02  0.51100000000E-03 0. -1.
         11   -1    0    0    0    0 -0.00000000000E+00 -0.00000000000E+00 -0.45593999997E+02  0.45594000000E+02  0.51100000000E-03 0.  1.
    9900012    2    1    2    0    0 -0.97607171286E+01  0.28373408373E+02 -0.10788440754E+02  0.59302072767E+02  0.50000234790E+02 0.  0.
         12    1    1    2    0    0  0.97607171286E+01 -0.28373408373E+02  0.10788440754E+02  0.31885927233E+02  0.00000000000E+00 0. -1.
         11    1    3    3    0    0 -0.19120879652E+02  0.37990123656E+01 -0.27300830809E+01  0.19684864427E+02  0.51100000000E-03 0. -1.
        -11    1    3    3    0    0 -0.12929318772E+01 -0.53258759468E+01 -0.55134494811E+01  0.77739792180E+01  0.51100000000E-03 0.  1.
         12    1    3    3    0    0  0.10653094400E+02  0.29900271954E+02 -0.25449081918E+01  0.31843229123E+02  0.00000000000E+00 0. -1.
</event>
<event>
 7    1  0.6164995E-012  0.5930191E+02  0.7816164E-02  0.1266605E+00
        -11   -1    0    0    0    0  0.00000000000E+00  0.00000000000E+00  0.45593999997E+02  0.45594000000E+02  0.51100000000E-03 0. -1.
         11   -1    0    0    0    0 -0.00000000000E+00 -0.00000000000E+00 -0.45593999997E+02  0.45594000000E+02  0.51100000000E-03 0.  1.
    9900012    2    1    2    0    0  0.20989751250E+02 -0.13904839610E+02 -0.19565488342E+02  0.59301912812E+02  0.49999943069E+02 0.  0.
         12    1    1    2    0    0 -0.20989751250E+02  0.13904839610E+02  0.19565488342E+02  0.31886087188E+02  0.00000000000E+00 0. -1.
         11    1    3    3    0    0  0.98177356969E+01  0.80704464891E+01 -0.70566844461E+00  0.12728629501E+02  0.51100000000E-03 0. -1.
        -11    1    3    3    0    0 -0.14951582494E+01  0.10971376049E+01 -0.20136156634E+02  0.20221375160E+02  0.51100000000E-03 0.  1.
        -12    1    3    3    0    0  0.12667173803E+02 -0.23072423704E+02  0.12763367366E+01  0.26351908151E+02  0.00000000000E+00 0.  1.
</event>
<event>
 7    1  0.6164995E-012  0.5930194E+02  0.7816164E-02  0.1266605E+00
        -11   -1    0    0    0    0  0.00000000000E+00  0.00000000000E+00  0.45593999997E+02  0.45594000000E+02  0.51100000000E-03 0.  1.
         11   -1    0    0    0    0 -0.00000000000E+00 -0.00000000000E+00 -0.45593999997E+02  0.45594000000E+02  0.51100000000E-03 0. -1.
    9900012    2    1    2    0    0 -0.12750129816E+02  0.96230259476E+01  0.27596237634E+02  0.59301940817E+02  0.49999994144E+02 0.  0.
         12    1    1    2    0    0  0.12750129816E+02 -0.96230259476E+01 -0.27596237634E+02  0.31886059183E+02  0.00000000000E+00 0. -1.
         11    1    3    3    0    0 -0.12189214533E+01 -0.16288262459E+02  0.84696669167E+01  0.18399144583E+02  0.51100000000E-03 0. -1.
        -11    1    3    3    0    0  0.43208837507E+01  0.23597875737E+00  0.73142236115E+01  0.84984463086E+01  0.51100000000E-03 0.  1.
        -12    1    3    3    0    0 -0.15852092113E+02  0.25675309649E+02  0.11812347106E+02  0.32404349925E+02  0.00000000000E+00 0.  1.
</event>
<event>
 7    1  0.6164995E-012  0.5930193E+02  0.7816164E-02  0.1266605E+00
        -11   -1    0    0    0    0  0.00000000000E+00  0.00000000000E+00  0.45593999997E+02  0.45594000000E+02  0.51100000000E-03 0.  1.
         11   -1    0    0    0    0 -0.00000000000E+00 -0.00000000000E+00 -0.45593999997E+02  0.45594000000E+02  0.51100000000E-03 0. -1.
    9900012    2    1    2    0    0 -0.18488916524E+02  0.14549687638E+02  0.21521806006E+02  0.59301928144E+02  0.49999971033E+02 0.  0.
         12    1    1    2    0    0  0.18488916524E+02 -0.14549687638E+02 -0.21521806006E+02  0.31886071856E+02  0.00000000000E+00 0. -1.
         11    1    3    3    0    0 -0.25005509271E+01 -0.88083245315E+01 -0.10231409212E+02  0.13730297546E+02  0.51100000000E-03 0. -1.
        -11    1    3    3    0    0 -0.96187736355E+01  0.52368898353E+01  0.20678394397E+02  0.23399611461E+02  0.51100000000E-03 0.  1.
        -12    1    3    3    0    0 -0.63695919618E+01  0.18121122334E+02  0.11074820820E+02  0.22172019137E+02  0.00000000000E+00 0.  1.
</event>
<event>
 7    1  0.6164995E-012  0.5930193E+02  0.7816164E-02  0.1266605E+00
        -11   -1    0    0    0    0  0.00000000000E+00  0.00000000000E+00  0.45593999997E+02  0.45594000000E+02  0.51100000000E-03 0.  1.
         11   -1    0    0    0    0 -0.00000000000E+00 -0.00000000000E+00 -0.45593999997E+02  0.45594000000E+02  0.51100000000E-03 0. -1.
    9900012    2    1    2    0    0  0.11711814066E+02 -0.29508539935E+02  0.29666641941E+01  0.59301927582E+02  0.49999970007E+02 0.  0.
         12    1    1    2    0    0 -0.11711814066E+02  0.29508539935E+02 -0.29666641941E+01  0.31886072418E+02  0.00000000000E+00 0. -1.
         11    1    3    3    0    0  0.39444299473E+01 -0.14731244699E+02 -0.14669675321E+02  0.21160516825E+02  0.51100000000E-03 0. -1.
        -11    1    3    3    0    0  0.16455954089E+02 -0.18122935110E+02  0.13478280336E+02  0.27944646053E+02  0.51100000000E-03 0.  1.
         12    1    3    3    0    0 -0.86885699702E+01  0.33456398741E+01  0.41580591789E+01  0.10196764704E+02  0.00000000000E+00 0. -1.
</event>
<event>
 7    1  0.6164995E-012  0.5930193E+02  0.7816164E-02  0.1266605E+00
        -11   -1    0    0    0    0  0.00000000000E+00  0.00000000000E+00  0.45593999997E+02  0.45594000000E+02  0.51100000000E-03 0.  1.
         11   -1    0    0    0    0 -0.00000000000E+00 -0.00000000000E+00 -0.45593999997E+02  0.45594000000E+02  0.51100000000E-03 0. -1.
    9900012    2    1    2    0    0  0.10705842614E+02 -0.11311152933E+02  0.27823801070E+02  0.59301934819E+02  0.49999983206E+02 0.  0.
         12    1    1    2    0    0 -0.10705842614E+02  0.11311152933E+02 -0.27823801070E+02  0.31886065181E+02  0.00000000000E+00 0. -1.
         11    1    3    3    0    0  0.43344147438E+01 -0.56197828277E+01 -0.86462505668E+01  0.11186007300E+02  0.51100000000E-03 0. -1.
        -11    1    3    3    0    0  0.82313834306E+00 -0.17920830458E+02  0.20069955332E+02  0.26919079262E+02  0.51100000000E-03 0.  1.
         12    1    3    3    0    0  0.55482895271E+01  0.12229460353E+02  0.16400096305E+02  0.21196848256E+02  0.00000000000E+00 0. -1.
</event>
<event>
 7    1  0.6164995E-012  0.5930194E+02  0.7816164E-02  0.1266605E+00
        -11   -1    0    0    0    0  0.00000000000E+00  0.00000000000E+00  0.45593999997E+02  0.45594000000E+02  0.51100000000E-03 0. -1.
         11   -1    0    0    0    0 -0.00000000000E+00 -0.00000000000E+00 -0.45593999997E+02  0.45594000000E+02  0.51100000000E-03 0.  1.
    9900012    2    1    2    0    0 -0.49404016840E+01  0.17089065463E+02 -0.26462748933E+02  0.59301940220E+02  0.49999993056E+02 0.  0.
         12    1    1    2    0    0  0.49404016840E+01 -0.17089065463E+02  0.26462748933E+02  0.31886059780E+02  0.00000000000E+00 0. -1.
         11    1    3    3    0    0  0.92258289973E+01  0.12550359516E+02  0.36962999319E+01  0.16009062375E+02  0.51100000000E-03 0. -1.
        -11    1    3    3    0    0 -0.83560816982E+01  0.16025232152E+02 -0.15765520854E+02  0.23982990117E+02  0.51100000000E-03 0.  1.
        -12    1    3    3    0    0 -0.58101489832E+01 -0.11486526206E+02 -0.14393528011E+02  0.19309887728E+02  0.00000000000E+00 0.  1.
</event>
<event>
 7    1  0.6164995E-012  0.5930194E+02  0.7816164E-02  0.1266605E+00
        -11   -1    0    0    0    0  0.00000000000E+00  0.00000000000E+00  0.45593999997E+02  0.45594000000E+02  0.51100000000E-03 0.  1.
         11   -1    0    0    0    0 -0.00000000000E+00 -0.00000000000E+00 -0.45593999997E+02  0.45594000000E+02  0.51100000000E-03 0. -1.
    9900012    2    1    2    0    0 -0.12474178003E+02 -0.12665733981E+01  0.29317421151E+02  0.59301944929E+02  0.50000001644E+02 0.  0.
         12    1    1    2    0    0  0.12474178003E+02  0.12665733981E+01 -0.29317421151E+02  0.31886055071E+02  0.00000000000E+00 0. -1.
         11    1    3    3    0    0 -0.12029744485E+02  0.10141193415E+02  0.86815138404E+01  0.17970176379E+02  0.51100000000E-03 0. -1.
        -11    1    3    3    0    0 -0.49299625570E+01  0.63330983148E+01 -0.52797646636E+01  0.96066945535E+01  0.51100000000E-03 0.  1.
        -12    1    3    3    0    0  0.44855290391E+01 -0.17740865128E+02  0.25915671974E+02  0.31725073997E+02  0.00000000000E+00 0.  1.
</event>
<event>
 7    1  0.6164995E-012  0.5930197E+02  0.7816164E-02  0.1266605E+00
        -11   -1    0    0    0    0  0.00000000000E+00  0.00000000000E+00  0.45593999997E+02  0.45594000000E+02  0.51100000000E-03 0. -1.
         11   -1    0    0    0    0 -0.00000000000E+00 -0.00000000000E+00 -0.45593999997E+02  0.45594000000E+02  0.51100000000E-03 0.  1.
    9900012    2    1    2    0    0 -0.17438083352E+02 -0.25079641048E+02 -0.91457105656E+01  0.59301965944E+02  0.50000039970E+02 0.  0.
         12    1    1    2    0    0  0.17438083352E+02  0.25079641048E+02  0.91457105656E+01  0.31886034056E+02  0.00000000000E+00 0. -1.
         11    1    3    3    0    0  0.59380315315E+01 -0.91916229504E+01 -0.14876969884E+02  0.18468090972E+02  0.51100000000E-03 0. -1.
        -11    1    3    3    0    0  0.53749398387E+01  0.28076394816E+01  0.17311749646E+01  0.63063289438E+01  0.51100000000E-03 0.  1.
         12    1    3    3    0    0 -0.28751054722E+02 -0.18695657579E+02  0.40000843542E+01  0.34527546029E+02  0.00000000000E+00 0. -1.
</event>
<event>
 7    1  0.6164995E-012  0.5930195E+02  0.7816164E-02  0.1266605E+00
        -11   -1    0    0    0    0  0.00000000000E+00  0.00000000000E+00  0.45593999997E+02  0.45594000000E+02  0.51100000000E-03 0.  1.
         11   -1    0    0    0    0 -0.00000000000E+00 -0.00000000000E+00 -0.45593999997E+02  0.45594000000E+02  0.51100000000E-03 0. -1.
    9900012    2    1    2    0    0 -0.20068468437E+02 -0.22308122524E+02 -0.10785387160E+02  0.59301947686E+02  0.50000006673E+02 0.  0.
         12    1    1    2    0    0  0.20068468437E+02  0.22308122524E+02  0.10785387160E+02  0.31886052314E+02  0.00000000000E+00 0. -1.
         11    1    3    3    0    0  0.58791770564E+00  0.10058489413E+02 -0.37430192614E+01  0.10748444071E+02  0.51100000000E-03 0. -1.
        -11    1    3    3    0    0  0.25634966110E+01 -0.57603040916E+01  0.79860659490E+01  0.10174962786E+02  0.51100000000E-03 0.  1.
         12    1    3    3    0    0 -0.23219882753E+02 -0.26606307845E+02 -0.15028433847E+02  0.38378540829E+02  0.00000000000E+00 0. -1.
</event>
<event>
 7    1  0.6164995E-012  0.5930195E+02  0.7816164E-02  0.1266605E+00
        -11   -1    0    0    0    0  0.00000000000E+00  0.00000000000E+00  0.45593999997E+02  0.45594000000E+02  0.51100000000E-03 0.  1.
         11   -1    0    0    0    0 -0.00000000000E+00 -0.00000000000E+00 -0.45593999997E+02  0.45594000000E+02  0.51100000000E-03 0. -1.
    9900012    2    1    2    0    0 -0.20287976833E+02  0.14165864203E+02  0.20110858066E+02  0.59301947802E+02  0.50000006884E+02 0.  0.
         12    1    1    2    0    0  0.20287976833E+02 -0.14165864203E+02 -0.20110858066E+02  0.31886052198E+02  0.00000000000E+00 0. -1.
         11    1    3    3    0    0 -0.77069288336E+01 -0.31878947629E+01 -0.23807303186E+01  0.86733674070E+01  0.51100000000E-03 0. -1.
        -11    1    3    3    0    0 -0.14188970294E+02  0.21166845742E+02 -0.22142066147E+01  0.25578603321E+02  0.51100000000E-03 0.  1.
        -12    1    3    3    0    0  0.16079222942E+01 -0.38130867759E+01  0.24705795000E+02  0.25049977075E+02  0.00000000000E+00 0.  1.
</event>
<event>
 7    1  0.6164995E-012  0.5930195E+02  0.7816164E-02  0.1266605E+00
        -11   -1    0    0    0    0  0.00000000000E+00  0.00000000000E+00  0.45593999997E+02  0.45594000000E+02  0.51100000000E-03 0.  1.
         11   -1    0    0    0    0 -0.00000000000E+00 -0.00000000000E+00 -0.45593999997E+02  0.45594000000E+02  0.51100000000E-03 0. -1.
    9900012    2    1    2    0    0  0.24984425682E+02 -0.18793413165E+02  0.62694827338E+01  0.59301947895E+02  0.50000007054E+02 0.  0.
         12    1    1    2    0    0 -0.24984425682E+02  0.18793413165E+02 -0.62694827338E+01  0.31886052105E+02  0.00000000000E+00 0. -1.
         11    1    3    3    0    0 -0.11697429119E+02 -0.59381124583E+01  0.26570970968E+01  0.13384737308E+02  0.51100000000E-03 0. -1.
        -11    1    3    3    0    0  0.99451435395E+00 -0.52307593743E+01  0.75218653134E+01  0.92156584401E+01  0.51100000000E-03 0.  1.
        -12    1    3    3    0    0  0.35687340447E+02 -0.76245413327E+01 -0.39094796764E+01  0.36701552148E+02  0.00000000000E+00 0.  1.
</event>
<event>
 7    1  0.6164995E-012  0.5930193E+02  0.7816164E-02  0.1266605E+00
        -11   -1    0    0    0    0  0.00000000000E+00  0.00000000000E+00  0.45593999997E+02  0.45594000000E+02  0.51100000000E-03 0.  1.
         11   -1    0    0    0    0 -0.00000000000E+00 -0.00000000000E+00 -0.45593999997E+02  0.45594000000E+02  0.51100000000E-03 0. -1.
    9900012    2    1    2    0    0 -0.26221584244E+02 -0.17769920440E+02  0.36578965036E+01  0.59301925304E+02  0.49999965852E+02 0.  0.
         12    1    1    2    0    0  0.26221584244E+02  0.17769920440E+02 -0.36578965036E+01  0.31886074696E+02  0.00000000000E+00 0. -1.
         11    1    3    3    0    0 -0.22212030846E+02 -0.76445588376E+01 -0.15258952123E+02  0.28011590713E+02  0.51100000000E-03 0. -1.
        -11    1    3    3    0    0 -0.80518804617E+01 -0.15231595687E+02  0.90316548480E+01  0.19452636729E+02  0.51100000000E-03 0.  1.
        -12    1    3    3    0    0  0.40423270634E+01  0.51062340846E+01  0.98851937790E+01  0.11837697862E+02  0.00000000000E+00 0.  1.
</event>
<event>
 7    1  0.6164995E-012  0.5930192E+02  0.7816164E-02  0.1266605E+00
        -11   -1    0    0    0    0  0.00000000000E+00  0.00000000000E+00  0.45593999997E+02  0.45594000000E+02  0.51100000000E-03 0.  1.
         11   -1    0    0    0    0 -0.00000000000E+00 -0.00000000000E+00 -0.45593999997E+02  0.45594000000E+02  0.51100000000E-03 0. -1.
    9900012    2    1    2    0    0  0.11074510648E+02 -0.26389897462E+01  0.29784439050E+02  0.59301923689E+02  0.49999962907E+02 0.  0.
         12    1    1    2    0    0 -0.11074510648E+02  0.26389897462E+01 -0.29784439050E+02  0.31886076311E+02  0.00000000000E+00 0. -1.
         11    1    3    3    0    0  0.14266433404E+02 -0.12964780159E+02  0.58037629877E+01  0.20132071719E+02  0.51100000000E-03 0. -1.
        -11    1    3    3    0    0  0.78034385018E+01  0.15688923816E+02  0.86055845177E+01  0.19521579549E+02  0.51100000000E-03 0.  1.
        -12    1    3    3    0    0 -0.10995361258E+02 -0.53631334028E+01  0.15375091545E+02  0.19648272420E+02  0.00000000000E+00 0.  1.
</event>
<event>
 7    1  0.6164995E-012  0.5930195E+02  0.7816164E-02  0.1266605E+00
        -11   -1    0    0    0    0  0.00000000000E+00  0.00000000000E+00  0.45593999997E+02  0.45594000000E+02  0.51100000000E-03 0.  1.
         11   -1    0    0    0    0 -0.00000000000E+00 -0.00000000000E+00 -0.45593999997E+02  0.45594000000E+02  0.51100000000E-03 0. -1.
    9900012    2    1    2    0    0  0.68132548591E+01  0.17301142882E+02  0.25903095812E+02  0.59301947258E+02  0.50000005892E+02 0.  0.
         12    1    1    2    0    0 -0.68132548591E+01 -0.17301142882E+02 -0.25903095812E+02  0.31886052742E+02  0.00000000000E+00 0. -1.
         11    1    3    3    0    0  0.65811896784E+01  0.12644970743E+02 -0.26758633771E+01  0.14504054183E+02  0.51100000000E-03 0. -1.
        -11    1    3    3    0    0  0.85870475429E+00  0.14599015971E+02  0.31233544139E+02  0.34487721306E+02  0.51100000000E-03 0.  1.
         12    1    3    3    0    0 -0.62663957357E+00 -0.99428438331E+01 -0.26545849494E+01  0.10310171769E+02  0.00000000000E+00 0. -1.
</event>
<event>
 7    1  0.6164995E-012  0.5930193E+02  0.7816164E-02  0.1266605E+00
        -11   -1    0    0    0    0  0.00000000000E+00  0.00000000000E+00  0.45593999997E+02  0.45594000000E+02  0.51100000000E-03 0.  1.
         11   -1    0    0    0    0 -0.00000000000E+00 -0.00000000000E+00 -0.45593999997E+02  0.45594000000E+02  0.51100000000E-03 0. -1.
    9900012    2    1    2    0    0  0.20149650278E+02  0.22695770702E+02  0.97783026532E+01  0.59301927541E+02  0.49999969933E+02 0.  0.
         12    1    1    2    0    0 -0.20149650278E+02 -0.22695770702E+02 -0.97783026532E+01  0.31886072459E+02  0.00000000000E+00 0. -1.
         11    1    3    3    0    0  0.12282880860E+02 -0.82457064204E+01  0.13090859886E+02  0.19754276737E+02  0.51100000000E-03 0. -1.
        -11    1    3    3    0    0  0.28332675076E+00  0.23370813480E+01 -0.90955858156E+01  0.93953129200E+01  0.51100000000E-03 0.  1.
        -12    1    3    3    0    0  0.75834426675E+01  0.28604395774E+02  0.57830285826E+01  0.30152337884E+02  0.00000000000E+00 0.  1.
</event>
<event>
 7    1  0.6164995E-012  0.5930196E+02  0.7816164E-02  0.1266605E+00
        -11   -1    0    0    0    0  0.00000000000E+00  0.00000000000E+00  0.45593999997E+02  0.45594000000E+02  0.51100000000E-03 0.  1.
         11   -1    0    0    0    0 -0.00000000000E+00 -0.00000000000E+00 -0.45593999997E+02  0.45594000000E+02  0.51100000000E-03 0. -1.
    9900012    2    1    2    0    0  0.13514234772E+02 -0.21790786694E+02 -0.18953806410E+02  0.59301957542E+02  0.50000024646E+02 0.  0.
         12    1    1    2    0    0 -0.13514234772E+02  0.21790786694E+02  0.18953806410E+02  0.31886042458E+02  0.00000000000E+00 0. -1.
         11    1    3    3    0    0 -0.60326849633E+01 -0.26328730004E+01 -0.13427618435E+02  0.14954138063E+02  0.51100000000E-03 0. -1.
        -11    1    3    3    0    0 -0.82921062327E+01 -0.12821201199E+02 -0.38535648707E+01  0.15747767728E+02  0.51100000000E-03 0.  1.
         12    1    3    3    0    0  0.27839025968E+02 -0.63367124953E+01 -0.16726231043E+01  0.28600051750E+02  0.00000000000E+00 0. -1.
</event>
<event>
 7    1  0.6164995E-012  0.5930193E+02  0.7816164E-02  0.1266605E+00
        -11   -1    0    0    0    0  0.00000000000E+00  0.00000000000E+00  0.45593999997E+02  0.45594000000E+02  0.51100000000E-03 0.  1.
         11   -1    0    0    0    0 -0.00000000000E+00 -0.00000000000E+00 -0.45593999997E+02  0.45594000000E+02  0.51100000000E-03 0. -1.
    9900012    2    1    2    0    0  0.17080340761E+01 -0.64751608356E+01  0.31174935022E+02  0.59301926835E+02  0.49999968645E+02 0.  0.
         12    1    1    2    0    0 -0.17080340761E+01  0.64751608356E+01 -0.31174935022E+02  0.31886073165E+02  0.00000000000E+00 0. -1.
         11    1    3    3    0    0  0.42823181585E+01 -0.64383823114E+01 -0.67890913496E+01  0.10289935724E+02  0.51100000000E-03 0. -1.
        -11    1    3    3    0    0 -0.14657166821E+02 -0.49470021025E+01  0.10761820118E+02  0.18844684702E+02  0.51100000000E-03 0.  1.
        -12    1    3    3    0    0  0.12082882739E+02  0.49102235783E+01  0.27202206254E+02  0.30167306408E+02  0.00000000000E+00 0.  1.
</event>
<event>
 7    1  0.6164995E-012  0.5930196E+02  0.7816164E-02  0.1266605E+00
        -11   -1    0    0    0    0  0.00000000000E+00  0.00000000000E+00  0.45593999997E+02  0.45594000000E+02  0.51100000000E-03 0.  1.
         11   -1    0    0    0    0 -0.00000000000E+00 -0.00000000000E+00 -0.45593999997E+02  0.45594000000E+02  0.51100000000E-03 0. -1.
    9900012    2    1    2    0    0  0.13895089636E+02  0.14898106117E+02  0.24529422116E+02  0.59301958677E+02  0.50000026717E+02 0.  0.
         12    1    1    2    0    0 -0.13895089636E+02 -0.14898106117E+02 -0.24529422116E+02  0.31886041323E+02  0.00000000000E+00 0. -1.
         11    1    3    3    0    0  0.16178851191E+02  0.79744027059E+01  0.22384479718E+02  0.28747369564E+02  0.51100000000E-03 0.  1.
        -11    1    3    3    0    0  0.95240098058E+00  0.13787273139E+02 -0.94180036131E+01  0.16724077270E+02  0.51100000000E-03 0. -1.
         12    1    3    3    0    0 -0.32361625353E+01 -0.68635697271E+01  0.11562946012E+02  0.13830511843E+02  0.00000000000E+00 0. -1.
</event>
<event>
 7    1  0.6164995E-012  0.5930200E+02  0.7816164E-02  0.1266605E+00
        -11   -1    0    0    0    0  0.00000000000E+00  0.00000000000E+00  0.45593999997E+02  0.45594000000E+02  0.51100000000E-03 0.  1.
         11   -1    0    0    0    0 -0.00000000000E+00 -0.00000000000E+00 -0.45593999997E+02  0.45594000000E+02  0.51100000000E-03 0. -1.
    9900012    2    1    2    0    0  0.83198888900E+01 -0.29247159230E+02  0.95968837585E+01  0.59301999121E+02  0.50000100477E+02 0.  0.
         12    1    1    2    0    0 -0.83198888900E+01  0.29247159230E+02 -0.95968837585E+01  0.31886000879E+02  0.00000000000E+00 0. -1.
         11    1    3    3    0    0  0.42942297507E+01  0.10069237571E+02  0.27486844010E+01  0.11286506130E+02  0.51100000000E-03 0. -1.
        -11    1    3    3    0    0  0.10260416084E+02 -0.54788914483E+01 -0.33933614007E+01  0.12116488417E+02  0.51100000000E-03 0.  1.
        -12    1    3    3    0    0 -0.62347569444E+01 -0.33837505353E+02  0.10241560758E+02  0.35899004574E+02  0.00000000000E+00 0.  1.
</event>
<event>
 7    1  0.6164995E-012  0.5930195E+02  0.7816164E-02  0.1266605E+00
        -11   -1    0    0    0    0  0.00000000000E+00  0.00000000000E+00  0.45593999997E+02  0.45594000000E+02  0.51100000000E-03 0. -1.
         11   -1    0    0    0    0 -0.00000000000E+00 -0.00000000000E+00 -0.45593999997E+02  0.45594000000E+02  0.51100000000E-03 0.  1.
    9900012    2    1    2    0    0  0.37889867679E+01 -0.27299997060E+02 -0.16033530469E+02  0.59301947257E+02  0.50000005890E+02 0.  0.
         12    1    1    2    0    0 -0.37889867679E+01  0.27299997060E+02  0.16033530469E+02  0.31886052743E+02  0.00000000000E+00 0. -1.
         11    1    3    3    0    0 -0.10151196128E+02 -0.15873807527E+02 -0.88851426874E+01  0.20831954039E+02  0.51100000000E-03 0. -1.
        -11    1    3    3    0    0  0.15643395409E+02 -0.68582315813E+01 -0.19063409377E+02  0.25596185999E+02  0.51100000000E-03 0.  1.
         12    1    3    3    0    0 -0.17032125129E+01 -0.45679579522E+01  0.11915021595E+02  0.12873807220E+02  0.00000000000E+00 0. -1.
</event>
<event>
 7    1  0.6164995E-012  0.5930194E+02  0.7816164E-02  0.1266605E+00
        -11   -1    0    0    0    0  0.00000000000E+00  0.00000000000E+00  0.45593999997E+02  0.45594000000E+02  0.51100000000E-03 0. -1.
         11   -1    0    0    0    0 -0.00000000000E+00 -0.00000000000E+00 -0.45593999997E+02  0.45594000000E+02  0.51100000000E-03 0.  1.
    9900012    2    1    2    0    0 -0.22415197741E+01  0.15227753023E+02 -0.27925117425E+02  0.59301936332E+02  0.49999985964E+02 0.  0.
         12    1    1    2    0    0  0.22415197741E+01 -0.15227753023E+02  0.27925117425E+02  0.31886063668E+02  0.00000000000E+00 0. -1.
         11    1    3    3    0    0 -0.32678022648E+01  0.19888294944E+02 -0.24937772858E+02  0.32064237443E+02  0.51100000000E-03 0.  1.
        -11    1    3    3    0    0  0.30175623223E+01  0.84908818565E+01  0.63173112192E+01  0.11004961534E+02  0.51100000000E-03 0. -1.
        -12    1    3    3    0    0 -0.19912798316E+01 -0.13151423777E+02 -0.93046557866E+01  0.16232737355E+02  0.00000000000E+00 0.  1.
</event>
<event>
 7    1  0.6164995E-012  0.5930193E+02  0.7816164E-02  0.1266605E+00
        -11   -1    0    0    0    0  0.00000000000E+00  0.00000000000E+00  0.45593999997E+02  0.45594000000E+02  0.51100000000E-03 0.  1.
         11   -1    0    0    0    0 -0.00000000000E+00 -0.00000000000E+00 -0.45593999997E+02  0.45594000000E+02  0.51100000000E-03 0. -1.
    9900012    2    1    2    0    0 -0.11718445359E+02 -0.12732430261E+02  0.26782165917E+02  0.59301934811E+02  0.49999983191E+02 0.  0.
         12    1    1    2    0    0  0.11718445359E+02  0.12732430261E+02 -0.26782165917E+02  0.31886065189E+02  0.00000000000E+00 0. -1.
         11    1    3    3    0    0 -0.10102765306E+02  0.90452735914E+01  0.13488006490E+02  0.19126138149E+02  0.51100000000E-03 0. -1.
        -11    1    3    3    0    0 -0.15575166107E+02 -0.86096701003E+01  0.19992746884E+01  0.17908358887E+02  0.51100000000E-03 0.  1.
        -12    1    3    3    0    0  0.13959486054E+02 -0.13168033752E+02  0.11294884739E+02  0.22267437775E+02  0.00000000000E+00 0.  1.
</event>
<event>
 7    1  0.6164995E-012  0.5930195E+02  0.7816164E-02  0.1266605E+00
        -11   -1    0    0    0    0  0.00000000000E+00  0.00000000000E+00  0.45593999997E+02  0.45594000000E+02  0.51100000000E-03 0.  1.
         11   -1    0    0    0    0 -0.00000000000E+00 -0.00000000000E+00 -0.45593999997E+02  0.45594000000E+02  0.51100000000E-03 0. -1.
    9900012    2    1    2    0    0  0.23584652428E+01  0.31774509133E+02  0.12402646491E+01  0.59301952184E+02  0.50000014875E+02 0.  0.
         12    1    1    2    0    0 -0.23584652428E+01 -0.31774509133E+02 -0.12402646491E+01  0.31886047816E+02  0.00000000000E+00 0. -1.
         11    1    3    3    0    0 -0.12624539640E+02  0.11137883761E+02  0.56748112369E+01  0.17766117714E+02  0.51100000000E-03 0. -1.
        -11    1    3    3    0    0  0.14314225447E+01  0.26449063873E+02 -0.17286870332E+01  0.26544120053E+02  0.51100000000E-03 0.  1.
         12    1    3    3    0    0  0.13551582338E+02 -0.58124385017E+01 -0.27058595546E+01  0.14991714416E+02  0.00000000000E+00 0. -1.
</event>
<event>
 7    1  0.6164995E-012  0.5930195E+02  0.7816164E-02  0.1266605E+00
        -11   -1    0    0    0    0  0.00000000000E+00  0.00000000000E+00  0.45593999997E+02  0.45594000000E+02  0.51100000000E-03 0.  1.
         11   -1    0    0    0    0 -0.00000000000E+00 -0.00000000000E+00 -0.45593999997E+02  0.45594000000E+02  0.51100000000E-03 0. -1.
    9900012    2    1    2    0    0 -0.33347121736E+01 -0.60796685661E+01  0.31122937020E+02  0.59301954715E+02  0.50000019491E+02 0.  0.
         12    1    1    2    0    0  0.33347121736E+01  0.60796685661E+01 -0.31122937020E+02  0.31886045285E+02  0.00000000000E+00 0. -1.
         11    1    3    3    0    0 -0.14435810037E+01  0.16521143174E+01  0.31331854403E+02  0.31408573805E+02  0.51100000000E-03 0. -1.
        -11    1    3    3    0    0  0.17629635624E+01 -0.78159824987E+01  0.12401108844E+02  0.14764319279E+02  0.51100000000E-03 0.  1.
         12    1    3    3    0    0 -0.36540947323E+01  0.84199615168E-01 -0.12610026227E+02  0.13129061632E+02  0.00000000000E+00 0. -1.
</event>
<event>
 7    1  0.6164995E-012  0.5930191E+02  0.7816164E-02  0.1266605E+00
        -11   -1    0    0    0    0  0.00000000000E+00  0.00000000000E+00  0.45593999997E+02  0.45594000000E+02  0.51100000000E-03 0.  1.
         11   -1    0    0    0    0 -0.00000000000E+00 -0.00000000000E+00 -0.45593999997E+02  0.45594000000E+02  0.51100000000E-03 0. -1.
    9900012    2    1    2    0    0 -0.25002624384E+02 -0.12320433480E+02 -0.15485422745E+02  0.59301911736E+02  0.49999941107E+02 0.  0.
         12    1    1    2    0    0  0.25002624384E+02  0.12320433480E+02  0.15485422745E+02  0.31886088264E+02  0.00000000000E+00 0. -1.
         11    1    3    3    0    0 -0.30666176087E+01  0.51365887508E+01 -0.23612264424E+02  0.24358319299E+02  0.51100000000E-03 0. -1.
        -11    1    3    3    0    0 -0.68121644196E+01  0.16236460863E+01 -0.36503258583E+01  0.78972583741E+01  0.51100000000E-03 0.  1.
        -12    1    3    3    0    0 -0.15123842355E+02 -0.19080668317E+02  0.11777167537E+02  0.27046334063E+02  0.00000000000E+00 0.  1.
</event>
<event>
 7    1  0.6164995E-012  0.5930203E+02  0.7816164E-02  0.1266604E+00
        -11   -1    0    0    0    0  0.00000000000E+00  0.00000000000E+00  0.45593999997E+02  0.45594000000E+02  0.51100000000E-03 0. -1.
         11   -1    0    0    0    0 -0.00000000000E+00 -0.00000000000E+00 -0.45593999997E+02  0.45594000000E+02  0.51100000000E-03 0.  1.
    9900012    2    1    2    0    0  0.31662163916E+02  0.15086842628E+01 -0.34563868214E+01  0.59302025624E+02  0.50000148812E+02 0.  0.
         12    1    1    2    0    0 -0.31662163916E+02 -0.15086842628E+01  0.34563868214E+01  0.31885974376E+02  0.00000000000E+00 0. -1.
         11    1    3    3    0    0  0.19217967796E+02  0.19487982381E+02 -0.77380473512E+01  0.28442734056E+02  0.51100000000E-03 0. -1.
        -11    1    3    3    0    0  0.43154345549E+01  0.28521641114E+01 -0.44796627089E+01  0.68428936688E+01  0.51100000000E-03 0.  1.
         12    1    3    3    0    0  0.81287615647E+01 -0.20831462229E+02  0.87613232387E+01  0.24016397900E+02  0.00000000000E+00 0. -1.
</event>
<event>
 7    1  0.6164995E-012  0.5930195E+02  0.7816164E-02  0.1266605E+00
        -11   -1    0    0    0    0  0.00000000000E+00  0.00000000000E+00  0.45593999997E+02  0.45594000000E+02  0.51100000000E-03 0. -1.
         11   -1    0    0    0    0 -0.00000000000E+00 -0.00000000000E+00 -0.45593999997E+02  0.45594000000E+02  0.51100000000E-03 0.  1.
    9900012    2    1    2    0    0 -0.24849495588E+02 -0.18858634262E+02 -0.66010906750E+01  0.59301954223E+02  0.50000018593E+02 0.  0.
         12    1    1    2    0    0  0.24849495588E+02  0.18858634262E+02  0.66010906750E+01  0.31886045777E+02  0.00000000000E+00 0. -1.
         11    1    3    3    0    0 -0.11352595051E+02 -0.37154288524E+00 -0.72071783815E+01  0.13452244385E+02  0.51100000000E-03 0. -1.
        -11    1    3    3    0    0 -0.14549101102E+02 -0.26825900085E+02 -0.10184620005E+02  0.32171909225E+02  0.51100000000E-03 0.  1.
         12    1    3    3    0    0  0.10522005648E+01  0.83388087078E+01  0.10790707712E+02  0.13677800613E+02  0.00000000000E+00 0. -1.
</event>
<event>
 7    1  0.6164995E-012  0.5930196E+02  0.7816164E-02  0.1266605E+00
        -11   -1    0    0    0    0  0.00000000000E+00  0.00000000000E+00  0.45593999997E+02  0.45594000000E+02  0.51100000000E-03 0.  1.
         11   -1    0    0    0    0 -0.00000000000E+00 -0.00000000000E+00 -0.45593999997E+02  0.45594000000E+02  0.51100000000E-03 0. -1.
    9900012    2    1    2    0    0  0.27709545216E+00 -0.10870457607E+02  0.29974585181E+02  0.59301962503E+02  0.50000033694E+02 0.  0.
         12    1    1    2    0    0 -0.27709545216E+00  0.10870457607E+02 -0.29974585181E+02  0.31886037497E+02  0.00000000000E+00 0. -1.
         11    1    3    3    0    0 -0.10985714687E+02 -0.33812665684E+01  0.16046440155E+02  0.19738468348E+02  0.51100000000E-03 0. -1.
        -11    1    3    3    0    0  0.33264047885E+01 -0.13529870757E+02  0.22465213338E+02  0.26434980274E+02  0.51100000000E-03 0.  1.
        -12    1    3    3    0    0  0.79364053507E+01  0.60406797180E+01 -0.85370683122E+01  0.13128513881E+02  0.00000000000E+00 0.  1.
</event>
<event>
 7    1  0.6164995E-012  0.5930195E+02  0.7816164E-02  0.1266605E+00
        -11   -1    0    0    0    0  0.00000000000E+00  0.00000000000E+00  0.45593999997E+02  0.45594000000E+02  0.51100000000E-03 0. -1.
         11   -1    0    0    0    0 -0.00000000000E+00 -0.00000000000E+00 -0.45593999997E+02  0.45594000000E+02  0.51100000000E-03 0.  1.
    9900012    2    1    2    0    0 -0.49230466799E+01 -0.10189699045E+02 -0.29810297859E+02  0.59301949544E+02  0.50000010061E+02 0.  0.
         12    1    1    2    0    0  0.49230466799E+01  0.10189699045E+02  0.29810297859E+02  0.31886050456E+02  0.00000000000E+00 0. -1.
         11    1    3    3    0    0  0.65396720013E+01 -0.20158065410E+02 -0.12725690726E+02  0.24719589715E+02  0.51100000000E-03 0. -1.
        -11    1    3    3    0    0  0.65011112408E+01 -0.23576950095E+00  0.16300849123E+01  0.67065051782E+01  0.51100000000E-03 0.  1.
        -12    1    3    3    0    0 -0.17963829922E+02  0.10204135865E+02 -0.18714692045E+02  0.27875854652E+02  0.00000000000E+00 0.  1.
</event>
<event>
 7    1  0.6164995E-012  0.5930197E+02  0.7816164E-02  0.1266605E+00
        -11   -1    0    0    0    0  0.00000000000E+00  0.00000000000E+00  0.45593999997E+02  0.45594000000E+02  0.51100000000E-03 0. -1.
         11   -1    0    0    0    0 -0.00000000000E+00 -0.00000000000E+00 -0.45593999997E+02  0.45594000000E+02  0.51100000000E-03 0.  1.
    9900012    2    1    2    0    0  0.12515229998E+02  0.29203408867E+02 -0.26923581154E+01  0.59301970715E+02  0.50000048671E+02 0.  0.
         12    1    1    2    0    0 -0.12515229998E+02 -0.29203408867E+02  0.26923581154E+01  0.31886029285E+02  0.00000000000E+00 0. -1.
         11    1    3    3    0    0 -0.64300315097E+01 -0.64073114346E+01  0.33694339146E+01  0.96825632041E+01  0.51100000000E-03 0. -1.
        -11    1    3    3    0    0  0.12357986533E+02  0.33434801353E+01 -0.10278397940E+02  0.16417799945E+02  0.51100000000E-03 0.  1.
         12    1    3    3    0    0  0.65872749742E+01  0.32267240166E+02  0.42166059098E+01  0.33201607565E+02  0.00000000000E+00 0. -1.
</event>
<event>
 7    1  0.6164995E-012  0.5930196E+02  0.7816164E-02  0.1266605E+00
        -11   -1    0    0    0    0  0.00000000000E+00  0.00000000000E+00  0.45593999997E+02  0.45594000000E+02  0.51100000000E-03 0.  1.
         11   -1    0    0    0    0 -0.00000000000E+00 -0.00000000000E+00 -0.45593999997E+02  0.45594000000E+02  0.51100000000E-03 0. -1.
    9900012    2    1    2    0    0 -0.82130141224E+01 -0.24120834899E+02  0.19169021940E+02  0.59301957923E+02  0.50000025342E+02 0.  0.
         12    1    1    2    0    0  0.82130141224E+01  0.24120834899E+02 -0.19169021940E+02  0.31886042077E+02  0.00000000000E+00 0. -1.
         11    1    3    3    0    0 -0.91772086514E+00 -0.63365465501E+01  0.59217010832E+01  0.87212715672E+01  0.51100000000E-03 0. -1.
        -11    1    3    3    0    0 -0.23319983641E+02 -0.22194489226E+02  0.85696007873E+01  0.33314487043E+02  0.51100000000E-03 0.  1.
         12    1    3    3    0    0  0.16024690384E+02  0.44102008772E+01  0.46777200693E+01  0.17266199313E+02  0.00000000000E+00 0. -1.
</event>
<event>
 7    1  0.6164995E-012  0.5930195E+02  0.7816164E-02  0.1266605E+00
        -11   -1    0    0    0    0  0.00000000000E+00  0.00000000000E+00  0.45593999997E+02  0.45594000000E+02  0.51100000000E-03 0.  1.
         11   -1    0    0    0    0 -0.00000000000E+00 -0.00000000000E+00 -0.45593999997E+02  0.45594000000E+02  0.51100000000E-03 0. -1.
    9900012    2    1    2    0    0  0.24918490691E+02  0.11989632718E+02  0.15875693463E+02  0.59301951107E+02  0.50000012911E+02 0.  0.
         12    1    1    2    0    0 -0.24918490691E+02 -0.11989632718E+02 -0.15875693463E+02  0.31886048893E+02  0.00000000000E+00 0. -1.
         11    1    3    3    0    0 -0.72200689707E+01  0.12236097258E+02 -0.98030155534E+01  0.17261245211E+02  0.51100000000E-03 0. -1.
        -11    1    3    3    0    0  0.44269498913E+01  0.87486458634E+00  0.42679115567E+00  0.45327060721E+01  0.51100000000E-03 0.  1.
        -12    1    3    3    0    0  0.27711609771E+02 -0.11213291257E+01  0.25251917861E+02  0.37507999824E+02  0.00000000000E+00 0.  1.
</event>
<event>
 7    1  0.6164995E-012  0.5930196E+02  0.7816164E-02  0.1266605E+00
        -11   -1    0    0    0    0  0.00000000000E+00  0.00000000000E+00  0.45593999997E+02  0.45594000000E+02  0.51100000000E-03 0.  1.
         11   -1    0    0    0    0 -0.00000000000E+00 -0.00000000000E+00 -0.45593999997E+02  0.45594000000E+02  0.51100000000E-03 0. -1.
    9900012    2    1    2    0    0 -0.16331826616E+02 -0.19797232309E+02  0.18922494874E+02  0.59301956345E+02  0.50000022465E+02 0.  0.
         12    1    1    2    0    0  0.16331826616E+02  0.19797232309E+02 -0.18922494874E+02  0.31886043655E+02  0.00000000000E+00 0. -1.
         11    1    3    3    0    0 -0.10788817517E+01  0.94470820120E+01  0.10117305653E+02  0.13884207515E+02  0.51100000000E-03 0. -1.
        -11    1    3    3    0    0  0.16048267653E+01 -0.27225024029E+02  0.79955597459E+01  0.28420175549E+02  0.51100000000E-03 0.  1.
         12    1    3    3    0    0 -0.16857771629E+02 -0.20192902920E+01  0.80962947488E+00  0.16997573282E+02  0.00000000000E+00 0. -1.
</event>
<event>
 7    1  0.6164995E-012  0.5930200E+02  0.7816164E-02  0.1266605E+00
        -11   -1    0    0    0    0  0.00000000000E+00  0.00000000000E+00  0.45593999997E+02  0.45594000000E+02  0.51100000000E-03 0.  1.
         11   -1    0    0    0    0 -0.00000000000E+00 -0.00000000000E+00 -0.45593999997E+02  0.45594000000E+02  0.51100000000E-03 0. -1.
    9900012    2    1    2    0    0 -0.30757337346E+02  0.62090064066E+01 -0.56702284720E+01  0.59301999120E+02  0.50000100475E+02 0.  0.
         12    1    1    2    0    0  0.30757337346E+02 -0.62090064066E+01  0.56702284720E+01  0.31886000880E+02  0.00000000000E+00 0. -1.
         11    1    3    3    0    0 -0.85498809629E+01 -0.17147468202E+02 -0.19661630409E+01  0.19261410322E+02  0.51100000000E-03 0. -1.
        -11    1    3    3    0    0  0.30346631720E+01 -0.21148301389E+01  0.11025834145E+01  0.38597121047E+01  0.51100000000E-03 0.  1.
         12    1    3    3    0    0 -0.25242119555E+02  0.25471304748E+02 -0.48066488456E+01  0.36180876694E+02  0.00000000000E+00 0. -1.
</event>
<event>
 7    1  0.6164995E-012  0.5930194E+02  0.7816164E-02  0.1266605E+00
        -11   -1    0    0    0    0  0.00000000000E+00  0.00000000000E+00  0.45593999997E+02  0.45594000000E+02  0.51100000000E-03 0.  1.
         11   -1    0    0    0    0 -0.00000000000E+00 -0.00000000000E+00 -0.45593999997E+02  0.45594000000E+02  0.51100000000E-03 0. -1.
    9900012    2    1    2    0    0  0.22649511679E+02  0.16133924036E+02  0.15601828404E+02  0.59301938254E+02  0.49999989470E+02 0.  0.
         12    1    1    2    0    0 -0.22649511679E+02 -0.16133924036E+02 -0.15601828404E+02  0.31886061746E+02  0.00000000000E+00 0. -1.
         11    1    3    3    0    0  0.59674019521E+01 -0.46031992357E+00 -0.57235301598E+01  0.82813391574E+01  0.51100000000E-03 0. -1.
        -11    1    3    3    0    0  0.99030851220E+01  0.28369670263E+02  0.61868463069E+01  0.30678760621E+02  0.51100000000E-03 0.  1.
        -12    1    3    3    0    0  0.67790246052E+01 -0.11775426303E+02  0.15138512257E+02  0.20341838476E+02  0.00000000000E+00 0.  1.
</event>
<event>
 7    1  0.6164995E-012  0.5930222E+02  0.7816164E-02  0.1266604E+00
        -11   -1    0    0    0    0  0.00000000000E+00  0.00000000000E+00  0.45593999997E+02  0.45594000000E+02  0.51100000000E-03 0.  1.
         11   -1    0    0    0    0 -0.00000000000E+00 -0.00000000000E+00 -0.45593999997E+02  0.45594000000E+02  0.51100000000E-03 0. -1.
    9900012    2    1    2    0    0  0.29708292841E+02 -0.88458144011E+01  0.74747508946E+01  0.59302219519E+02  0.50000502427E+02 0.  0.
         12    1    1    2    0    0 -0.29708292841E+02  0.88458144011E+01 -0.74747508946E+01  0.31885780481E+02  0.00000000000E+00 0. -1.
         11    1    3    3    0    0 -0.73734054450E+01 -0.44321670211E+01  0.94609804277E+01  0.12787547195E+02  0.51100000000E-03 0. -1.
        -11    1    3    3    0    0  0.10744541972E+02 -0.13090599709E+02  0.54755068807E+01  0.17798599911E+02  0.51100000000E-03 0.  1.
        -12    1    3    3    0    0  0.26337156315E+02  0.86769523293E+01 -0.74617364138E+01  0.28716072412E+02  0.00000000000E+00 0.  1.
</event>
<event>
 7    1  0.6164995E-012  0.5930174E+02  0.7816164E-02  0.1266605E+00
        -11   -1    0    0    0    0  0.00000000000E+00  0.00000000000E+00  0.45593999997E+02  0.45594000000E+02  0.51100000000E-03 0.  1.
         11   -1    0    0    0    0 -0.00000000000E+00 -0.00000000000E+00 -0.45593999997E+02  0.45594000000E+02  0.51100000000E-03 0. -1.
    9900012    2    1    2    0    0 -0.25435778974E+01 -0.13968667909E+02  0.28550660895E+02  0.59301737923E+02  0.49999624114E+02 0.  0.
         12    1    1    2    0    0  0.25435778974E+01  0.13968667909E+02 -0.28550660895E+02  0.31886262077E+02  0.00000000000E+00 0. -1.
         11    1    3    3    0    0  0.96271322163E+01 -0.97605047658E+01  0.12965164267E+02  0.18869144462E+02  0.51100000000E-03 0. -1.
        -11    1    3    3    0    0  0.26315647080E+01 -0.17288786560E+02  0.61174063845E+01  0.18527005551E+02  0.51100000000E-03 0.  1.
        -12    1    3    3    0    0 -0.14802274822E+02  0.13080623417E+02  0.94680902437E+01  0.21905587911E+02  0.00000000000E+00 0.  1.
</event>
<event>
 7    1  0.6164995E-012  0.5930194E+02  0.7816164E-02  0.1266605E+00
        -11   -1    0    0    0    0  0.00000000000E+00  0.00000000000E+00  0.45593999997E+02  0.45594000000E+02  0.51100000000E-03 0. -1.
         11   -1    0    0    0    0 -0.00000000000E+00 -0.00000000000E+00 -0.45593999997E+02  0.45594000000E+02  0.51100000000E-03 0.  1.
    9900012    2    1    2    0    0  0.22634434740E+02 -0.22388834398E+02 -0.17729143456E+01  0.59301940868E+02  0.49999994238E+02 0.  0.
         12    1    1    2    0    0 -0.22634434740E+02  0.22388834398E+02  0.17729143456E+01  0.31886059132E+02  0.00000000000E+00 0. -1.
         11    1    3    3    0    0 -0.20765127132E+01  0.71463257243E+01  0.11245914215E+02  0.13485268377E+02  0.51100000000E-03 0. -1.
        -11    1    3    3    0    0 -0.34226739458E+01 -0.54029725992E+01 -0.43969756028E+01  0.77614563427E+01  0.51100000000E-03 0.  1.
        -12    1    3    3    0    0  0.28133621399E+02 -0.24132187523E+02 -0.86218529580E+01  0.38055216148E+02  0.00000000000E+00 0.  1.
</event>
<event>
 7    1  0.6164995E-012  0.5930198E+02  0.7816164E-02  0.1266605E+00
        -11   -1    0    0    0    0  0.00000000000E+00  0.00000000000E+00  0.45593999997E+02  0.45594000000E+02  0.51100000000E-03 0.  1.
         11   -1    0    0    0    0 -0.00000000000E+00 -0.00000000000E+00 -0.45593999997E+02  0.45594000000E+02  0.51100000000E-03 0. -1.
    9900012    2    1    2    0    0 -0.10317396553E+02 -0.29294469129E+02 -0.72183087595E+01  0.59301975247E+02  0.50000056936E+02 0.  0.
         12    1    1    2    0    0  0.10317396553E+02  0.29294469129E+02  0.72183087595E+01  0.31886024753E+02  0.00000000000E+00 0. -1.
         11    1    3    3    0    0  0.14560512729E+01 -0.75430564267E+00  0.62722884674E+01  0.64831061376E+01  0.51100000000E-03 0. -1.
        -11    1    3    3    0    0 -0.17924646340E+02  0.33955912020E+01 -0.21222935205E+01  0.18366467163E+02  0.51100000000E-03 0.  1.
        -12    1    3    3    0    0  0.61511985141E+01 -0.31935754689E+02 -0.11368303706E+02  0.34452401946E+02  0.00000000000E+00 0.  1.
</event>
<event>
 7    1  0.6164995E-012  0.5930195E+02  0.7816164E-02  0.1266605E+00
        -11   -1    0    0    0    0  0.00000000000E+00  0.00000000000E+00  0.45593999997E+02  0.45594000000E+02  0.51100000000E-03 0.  1.
         11   -1    0    0    0    0 -0.00000000000E+00 -0.00000000000E+00 -0.45593999997E+02  0.45594000000E+02  0.51100000000E-03 0. -1.
    9900012    2    1    2    0    0  0.10782987460E+01  0.31563952357E+02  0.43902496948E+01  0.59301951186E+02  0.50000013055E+02 0.  0.
         12    1    1    2    0    0 -0.10782987460E+01 -0.31563952357E+02 -0.43902496948E+01  0.31886048814E+02  0.00000000000E+00 0. -1.
         11    1    3    3    0    0  0.42322001903E+01 -0.95077316846E+01 -0.93451109328E+01  0.13987121893E+02  0.51100000000E-03 0. -1.
        -11    1    3    3    0    0 -0.15625820323E+01 -0.75427706430E-01 -0.65345741191E+00  0.16953934047E+01  0.51100000000E-03 0.  1.
        -12    1    3    3    0    0 -0.15913194120E+01  0.41147111748E+02  0.14388818039E+02  0.43619435889E+02  0.00000000000E+00 0.  1.
</event>
<event>
 7    1  0.6164995E-012  0.5930189E+02  0.7816164E-02  0.1266605E+00
        -11   -1    0    0    0    0  0.00000000000E+00  0.00000000000E+00  0.45593999997E+02  0.45594000000E+02  0.51100000000E-03 0.  1.
         11   -1    0    0    0    0 -0.00000000000E+00 -0.00000000000E+00 -0.45593999997E+02  0.45594000000E+02  0.51100000000E-03 0. -1.
    9900012    2    1    2    0    0  0.13912982476E+02  0.12288894061E+02  0.25925585174E+02  0.59301890716E+02  0.49999902773E+02 0.  0.
         12    1    1    2    0    0 -0.13912982476E+02 -0.12288894061E+02 -0.25925585174E+02  0.31886109284E+02  0.00000000000E+00 0. -1.
         11    1    3    3    0    0  0.18291990150E+02  0.94246541600E+01  0.19769938193E+02  0.28535442280E+02  0.51100000000E-03 0. -1.
        -11    1    3    3    0    0  0.54359043200E-01  0.11694691030E+02  0.13933965258E+02  0.18191320493E+02  0.51100000000E-03 0.  1.
         12    1    3    3    0    0 -0.44333667164E+01 -0.88304511292E+01 -0.77783182770E+01  0.12575127944E+02  0.00000000000E+00 0. -1.
</event>
<event>
 7    1  0.6164995E-012  0.5930195E+02  0.7816164E-02  0.1266605E+00
        -11   -1    0    0    0    0  0.00000000000E+00  0.00000000000E+00  0.45593999997E+02  0.45594000000E+02  0.51100000000E-03 0.  1.
         11   -1    0    0    0    0 -0.00000000000E+00 -0.00000000000E+00 -0.45593999997E+02  0.45594000000E+02  0.51100000000E-03 0. -1.
    9900012    2    1    2    0    0 -0.27031079460E+02 -0.53094252570E+01  0.16057737696E+02  0.59301949864E+02  0.50000010644E+02 0.  0.
         12    1    1    2    0    0  0.27031079460E+02  0.53094252570E+01 -0.16057737696E+02  0.31886050136E+02  0.00000000000E+00 0. -1.
         11    1    3    3    0    0  0.77591553085E+00 -0.19578501636E+02 -0.16344542964E+01  0.19661922905E+02  0.51100000000E-03 0. -1.
        -11    1    3    3    0    0 -0.49584720088E+01  0.59059529221E+01 -0.24097553322E+01  0.80792107041E+01  0.51100000000E-03 0.  1.
        -12    1    3    3    0    0 -0.22848522982E+02  0.83631234569E+01  0.20101947325E+02  0.31560816255E+02  0.00000000000E+00 0.  1.
</event>
<event>
 7    1  0.6164995E-012  0.5930196E+02  0.7816164E-02  0.1266605E+00
        -11   -1    0    0    0    0  0.00000000000E+00  0.00000000000E+00  0.45593999997E+02  0.45594000000E+02  0.51100000000E-03 0.  1.
         11   -1    0    0    0    0 -0.00000000000E+00 -0.00000000000E+00 -0.45593999997E+02  0.45594000000E+02  0.51100000000E-03 0. -1.
    9900012    2    1    2    0    0 -0.25662297237E+01 -0.12277536591E+02  0.29315459663E+02  0.59301958932E+02  0.50000027181E+02 0.  0.
         12    1    1    2    0    0  0.25662297237E+01  0.12277536591E+02 -0.29315459663E+02  0.31886041068E+02  0.00000000000E+00 0. -1.
         11    1    3    3    0    0 -0.96312668723E+00  0.24349649350E+01  0.18024328945E+02  0.18213541705E+02  0.51100000000E-03 0.  1.
        -11    1    3    3    0    0 -0.16055008973E+02 -0.18313555431E+02  0.92650129159E+01  0.26057438290E+02  0.51100000000E-03 0. -1.
         12    1    3    3    0    0  0.14451905937E+02  0.36010539049E+01  0.20261178023E+01  0.15030978936E+02  0.00000000000E+00 0. -1.
</event>
<event>
 7    1  0.6164995E-012  0.5930201E+02  0.7816164E-02  0.1266605E+00
        -11   -1    0    0    0    0  0.00000000000E+00  0.00000000000E+00  0.45593999997E+02  0.45594000000E+02  0.51100000000E-03 0.  1.
         11   -1    0    0    0    0 -0.00000000000E+00 -0.00000000000E+00 -0.45593999997E+02  0.45594000000E+02  0.51100000000E-03 0. -1.
    9900012    2    1    2    0    0 -0.29827174975E+02  0.11244713229E+02  0.78248886240E+00  0.59302011989E+02  0.50000123945E+02 0.  0.
         12    1    1    2    0    0  0.29827174975E+02 -0.11244713229E+02 -0.78248886240E+00  0.31885988011E+02  0.00000000000E+00 0. -1.
         11    1    3    3    0    0  0.27431101763E+01  0.13702362603E+02 -0.64731691552E+01  0.15400691982E+02  0.51100000000E-03 0. -1.
        -11    1    3    3    0    0 -0.15979522508E+01 -0.10700209375E+02 -0.81786666251E+00  0.10849739085E+02  0.51100000000E-03 0.  1.
        -12    1    3    3    0    0 -0.30972332901E+02  0.82425600011E+01  0.80735246801E+01  0.33051580922E+02  0.00000000000E+00 0.  1.
</event>
<event>
 7    1  0.6164995E-012  0.5930196E+02  0.7816164E-02  0.1266605E+00
        -11   -1    0    0    0    0  0.00000000000E+00  0.00000000000E+00  0.45593999997E+02  0.45594000000E+02  0.51100000000E-03 0.  1.
         11   -1    0    0    0    0 -0.00000000000E+00 -0.00000000000E+00 -0.45593999997E+02  0.45594000000E+02  0.51100000000E-03 0. -1.
    9900012    2    1    2    0    0  0.29623608424E+02  0.20434737300E+01  0.11618331431E+02  0.59301959384E+02  0.50000028006E+02 0.  0.
         12    1    1    2    0    0 -0.29623608424E+02 -0.20434737300E+01 -0.11618331431E+02  0.31886040616E+02  0.00000000000E+00 0. -1.
         11    1    3    3    0    0  0.10380434258E+02 -0.55042456412E+01  0.13637983280E+02  0.18001242281E+02  0.51100000000E-03 0. -1.
        -11    1    3    3    0    0  0.22193611172E+02  0.68866324055E+01  0.12557357189E+02  0.26413430345E+02  0.51100000000E-03 0.  1.
         12    1    3    3    0    0 -0.29504370057E+01  0.66108696565E+00 -0.14577009038E+02  0.14887286758E+02  0.00000000000E+00 0. -1.
</event>
<event>
 7    1  0.6164995E-012  0.5930196E+02  0.7816164E-02  0.1266605E+00
        -11   -1    0    0    0    0  0.00000000000E+00  0.00000000000E+00  0.45593999997E+02  0.45594000000E+02  0.51100000000E-03 0. -1.
         11   -1    0    0    0    0 -0.00000000000E+00 -0.00000000000E+00 -0.45593999997E+02  0.45594000000E+02  0.51100000000E-03 0.  1.
    9900012    2    1    2    0    0 -0.47321880469E+01  0.31375098570E+02 -0.31510201120E+01  0.59301963217E+02  0.50000034997E+02 0.  0.
         12    1    1    2    0    0  0.47321880469E+01 -0.31375098570E+02  0.31510201120E+01  0.31886036783E+02  0.00000000000E+00 0. -1.
         11    1    3    3    0    0  0.86513832483E+01  0.91923859241E+01 -0.42934358558E+01  0.13333416021E+02  0.51100000000E-03 0. -1.
        -11    1    3    3    0    0  0.92352461052E+01  0.19927536488E+02 -0.47823069729E+01  0.22478143637E+02  0.51100000000E-03 0.  1.
         12    1    3    3    0    0 -0.22618817400E+02  0.22551761572E+01  0.59247227167E+01  0.23490403559E+02  0.00000000000E+00 0. -1.
</event>
<event>
 7    1  0.6164995E-012  0.5930200E+02  0.7816164E-02  0.1266605E+00
        -11   -1    0    0    0    0  0.00000000000E+00  0.00000000000E+00  0.45593999997E+02  0.45594000000E+02  0.51100000000E-03 0. -1.
         11   -1    0    0    0    0 -0.00000000000E+00 -0.00000000000E+00 -0.45593999997E+02  0.45594000000E+02  0.51100000000E-03 0.  1.
    9900012    2    1    2    0    0  0.30170019102E+02  0.23851759114E+01  0.10039799894E+02  0.59302004663E+02  0.50000110583E+02 0.  0.
         12    1    1    2    0    0 -0.30170019102E+02 -0.23851759114E+01 -0.10039799894E+02  0.31885995337E+02  0.00000000000E+00 0. -1.
         11    1    3    3    0    0  0.67256896877E+01  0.13790650971E+01 -0.66246801675E+00  0.68975058138E+01  0.51100000000E-03 0. -1.
        -11    1    3    3    0    0  0.17679501647E+02  0.22324972895E+02  0.10402252396E+02  0.30317916294E+02  0.51100000000E-03 0.  1.
         12    1    3    3    0    0  0.57648277673E+01 -0.21318862081E+02  0.30001551514E+00  0.22086582554E+02  0.00000000000E+00 0. -1.
</event>
<event>
 7    1  0.6164995E-012  0.5930190E+02  0.7816164E-02  0.1266605E+00
        -11   -1    0    0    0    0  0.00000000000E+00  0.00000000000E+00  0.45593999997E+02  0.45594000000E+02  0.51100000000E-03 0.  1.
         11   -1    0    0    0    0 -0.00000000000E+00 -0.00000000000E+00 -0.45593999997E+02  0.45594000000E+02  0.51100000000E-03 0. -1.
    9900012    2    1    2    0    0  0.24792216971E+02 -0.13285324052E+02  0.15018965319E+02  0.59301903080E+02  0.49999925322E+02 0.  0.
         12    1    1    2    0    0 -0.24792216971E+02  0.13285324052E+02 -0.15018965319E+02  0.31886096920E+02  0.00000000000E+00 0. -1.
         11    1    3    3    0    0 -0.99678728641E-01  0.87919435116E+00  0.49210343669E+01  0.49999498055E+01  0.51100000000E-03 0. -1.
        -11    1    3    3    0    0 -0.41413699685E+01  0.11212117262E+02  0.10243313560E+02  0.15741283038E+02  0.51100000000E-03 0.  1.
         12    1    3    3    0    0  0.29033265668E+02 -0.25376635665E+02 -0.14538260824E+00  0.38560670237E+02  0.00000000000E+00 0. -1.
</event>
<event>
 7    1  0.6164995E-012  0.5930193E+02  0.7816164E-02  0.1266605E+00
        -11   -1    0    0    0    0  0.00000000000E+00  0.00000000000E+00  0.45593999997E+02  0.45594000000E+02  0.51100000000E-03 0. -1.
         11   -1    0    0    0    0 -0.00000000000E+00 -0.00000000000E+00 -0.45593999997E+02  0.45594000000E+02  0.51100000000E-03 0.  1.
    9900012    2    1    2    0    0  0.31175651716E+02  0.11412289086E+01 -0.65952625108E+01  0.59301934848E+02  0.49999983258E+02 0.  0.
         12    1    1    2    0    0 -0.31175651716E+02 -0.11412289086E+01  0.65952625108E+01  0.31886065152E+02  0.00000000000E+00 0. -1.
         11    1    3    3    0    0  0.29624318723E+02  0.54863191874E+00 -0.94096122601E+01  0.31087651245E+02  0.51100000000E-03 0. -1.
        -11    1    3    3    0    0  0.65746996141E+00  0.75155733100E+01 -0.10648030617E+02  0.13049776443E+02  0.51100000000E-03 0.  1.
         12    1    3    3    0    0  0.89386303075E+00 -0.69229763201E+01  0.13462380367E+02  0.15164507159E+02  0.00000000000E+00 0. -1.
</event>
<event>
 7    1  0.7339710E-012  0.5930195E+02  0.7816164E-02  0.1266605E+00
        -11   -1    0    0    0    0  0.00000000000E+00  0.00000000000E+00  0.45593999997E+02  0.45594000000E+02  0.51100000000E-03 0. -1.
         11   -1    0    0    0    0 -0.00000000000E+00 -0.00000000000E+00 -0.45593999997E+02  0.45594000000E+02  0.51100000000E-03 0.  1.
    9900012    2    1    2    0    0 -0.50874327106E+01  0.26335676436E+02 -0.17241528695E+02  0.59301950752E+02  0.50000012264E+02 0.  0.
         12    1    1    2    0    0  0.50874327106E+01 -0.26335676436E+02  0.17241528695E+02  0.31886049248E+02  0.00000000000E+00 0. -1.
         11    1    3    3    0    0 -0.21634206674E+01 -0.81301814867E+01  0.15256148666E+01  0.85503064842E+01  0.51100000000E-03 0. -1.
        -11    1    3    3    0    0  0.42604892193E+01 -0.39825039605E+01 -0.85076258119E+01  0.10314640246E+02  0.51100000000E-03 0.  1.
        -12    1    3    3    0    0 -0.71845012625E+01  0.38448361883E+02 -0.10259517749E+02  0.40437004022E+02  0.00000000000E+00 0.  1.
</event>
<event>
 7    1  0.6164995E-012  0.5930195E+02  0.7816164E-02  0.1266605E+00
        -11   -1    0    0    0    0  0.00000000000E+00  0.00000000000E+00  0.45593999997E+02  0.45594000000E+02  0.51100000000E-03 0.  1.
         11   -1    0    0    0    0 -0.00000000000E+00 -0.00000000000E+00 -0.45593999997E+02  0.45594000000E+02  0.51100000000E-03 0. -1.
    9900012    2    1    2    0    0  0.15508902234E+02 -0.75481452236E+01  0.26818274693E+02  0.59301946586E+02  0.50000004665E+02 0.  0.
         12    1    1    2    0    0 -0.15508902234E+02  0.75481452236E+01 -0.26818274693E+02  0.31886053414E+02  0.00000000000E+00 0. -1.
         11    1    3    3    0    0  0.16163115979E+02  0.95453375336E+01  0.17623733533E+02  0.25747927503E+02  0.51100000000E-03 0. -1.
        -11    1    3    3    0    0  0.43223025866E+01 -0.74515221666E+01  0.17754205051E+02  0.19733709218E+02  0.51100000000E-03 0.  1.
        -12    1    3    3    0    0 -0.49765163320E+01 -0.96419605906E+01 -0.85596638908E+01  0.13820309865E+02  0.00000000000E+00 0.  1.
</event>
<event>
 7    1  0.6164995E-012  0.5930179E+02  0.7816164E-02  0.1266605E+00
        -11   -1    0    0    0    0  0.00000000000E+00  0.00000000000E+00  0.45593999997E+02  0.45594000000E+02  0.51100000000E-03 0. -1.
         11   -1    0    0    0    0 -0.00000000000E+00 -0.00000000000E+00 -0.45593999997E+02  0.45594000000E+02  0.51100000000E-03 0.  1.
    9900012    2    1    2    0    0  0.19186621159E+02 -0.12226248814E+02 -0.22341054029E+02  0.59301791592E+02  0.49999721993E+02 0.  0.
         12    1    1    2    0    0 -0.19186621159E+02  0.12226248814E+02  0.22341054029E+02  0.31886208408E+02  0.00000000000E+00 0. -1.
         11    1    3    3    0    0  0.16733004908E+01 -0.53155667445E+01 -0.20496691794E+01  0.59377039631E+01  0.51100000000E-03 0.  1.
        -11    1    3    3    0    0  0.28851576631E+02  0.20151923745E+01 -0.57033118101E+00  0.28927491290E+02  0.51100000000E-03 0. -1.
         12    1    3    3    0    0 -0.11338255963E+02 -0.89258744436E+01 -0.19721053668E+02  0.24436596339E+02  0.00000000000E+00 0. -1.
</event>
<event>
 7    1  0.6164995E-012  0.5930191E+02  0.7816164E-02  0.1266605E+00
        -11   -1    0    0    0    0  0.00000000000E+00  0.00000000000E+00  0.45593999997E+02  0.45594000000E+02  0.51100000000E-03 0.  1.
         11   -1    0    0    0    0 -0.00000000000E+00 -0.00000000000E+00 -0.45593999997E+02  0.45594000000E+02  0.51100000000E-03 0. -1.
    9900012    2    1    2    0    0  0.60799677569E+01  0.71460497128E+01  0.30474426090E+02  0.59301910871E+02  0.49999939531E+02 0.  0.
         12    1    1    2    0    0 -0.60799677569E+01 -0.71460497128E+01 -0.30474426090E+02  0.31886089129E+02  0.00000000000E+00 0. -1.
         11    1    3    3    0    0  0.89357591332E+01  0.70115694642E+01  0.28071522616E+02  0.30282342708E+02  0.51100000000E-03 0.  1.
        -11    1    3    3    0    0 -0.11218802383E+02 -0.15115185997E+01  0.11786885491E+02  0.16342487118E+02  0.51100000000E-03 0. -1.
         12    1    3    3    0    0  0.83630110067E+01  0.16459988482E+01 -0.93839820173E+01  0.12677081044E+02  0.00000000000E+00 0. -1.
</event>
<event>
 7    1  0.6164995E-012  0.5930196E+02  0.7816164E-02  0.1266605E+00
        -11   -1    0    0    0    0  0.00000000000E+00  0.00000000000E+00  0.45593999997E+02  0.45594000000E+02  0.51100000000E-03 0.  1.
         11   -1    0    0    0    0 -0.00000000000E+00 -0.00000000000E+00 -0.45593999997E+02  0.45594000000E+02  0.51100000000E-03 0. -1.
    9900012    2    1    2    0    0  0.15944326330E+02  0.27371512633E+02 -0.36467011187E+01  0.59301957991E+02  0.50000025466E+02 0.  0.
         12    1    1    2    0    0 -0.15944326330E+02 -0.27371512633E+02  0.36467011187E+01  0.31886042009E+02  0.00000000000E+00 0. -1.
         11    1    3    3    0    0  0.10397199938E+02 -0.20266522965E+01 -0.13867184155E+01  0.10683261408E+02  0.51100000000E-03 0. -1.
        -11    1    3    3    0    0  0.36670614974E+01  0.46106043582E+01 -0.18172263427E+02  0.19103302618E+02  0.51100000000E-03 0.  1.
        -12    1    3    3    0    0  0.18800648945E+01  0.24787560571E+02  0.15912280724E+02  0.29515393965E+02  0.00000000000E+00 0.  1.
</event>
<event>
 7    1  0.6164995E-012  0.5930194E+02  0.7816164E-02  0.1266605E+00
        -11   -1    0    0    0    0  0.00000000000E+00  0.00000000000E+00  0.45593999997E+02  0.45594000000E+02  0.51100000000E-03 0.  1.
         11   -1    0    0    0    0 -0.00000000000E+00 -0.00000000000E+00 -0.45593999997E+02  0.45594000000E+02  0.51100000000E-03 0. -1.
    9900012    2    1    2    0    0  0.76045918755E+01  0.10822639365E+02  0.29013122064E+02  0.59301943607E+02  0.49999999233E+02 0.  0.
         12    1    1    2    0    0 -0.76045918755E+01 -0.10822639365E+02 -0.29013122064E+02  0.31886056393E+02  0.00000000000E+00 0. -1.
         11    1    3    3    0    0 -0.18429509638E+02 -0.14094863131E+01  0.23298207244E+02  0.29739534936E+02  0.51100000000E-03 0.  1.
        -11    1    3    3    0    0  0.91013180713E+01  0.27050196442E+01  0.84444593446E+00  0.95322720853E+01  0.51100000000E-03 0. -1.
        -12    1    3    3    0    0  0.16932783442E+02  0.95271060337E+01  0.48704688850E+01  0.20030136586E+02  0.00000000000E+00 0.  1.
</event>
<event>
 7    1  0.6164995E-012  0.5930194E+02  0.7816164E-02  0.1266605E+00
        -11   -1    0    0    0    0  0.00000000000E+00  0.00000000000E+00  0.45593999997E+02  0.45594000000E+02  0.51100000000E-03 0. -1.
         11   -1    0    0    0    0 -0.00000000000E+00 -0.00000000000E+00 -0.45593999997E+02  0.45594000000E+02  0.51100000000E-03 0.  1.
    9900012    2    1    2    0    0  0.25000106460E+02  0.14483448709E+02 -0.13488702484E+02  0.59301941852E+02  0.49999996033E+02 0.  0.
         12    1    1    2    0    0 -0.25000106460E+02 -0.14483448709E+02  0.13488702484E+02  0.31886058148E+02  0.00000000000E+00 0. -1.
         11    1    3    3    0    0  0.63153530428E+01  0.10078513485E+02  0.14249215903E+02  0.18560718526E+02  0.51100000000E-03 0. -1.
        -11    1    3    3    0    0  0.12139210030E+02 -0.87590223263E+01 -0.11823618506E+02  0.19075608695E+02  0.51100000000E-03 0.  1.
        -12    1    3    3    0    0  0.65455433869E+01  0.13163957550E+02 -0.15914299881E+02  0.21665614630E+02  0.00000000000E+00 0.  1.
</event>
<event>
 7    1  0.6164995E-012  0.5930203E+02  0.7816164E-02  0.1266604E+00
        -11   -1    0    0    0    0  0.00000000000E+00  0.00000000000E+00  0.45593999997E+02  0.45594000000E+02  0.51100000000E-03 0. -1.
         11   -1    0    0    0    0 -0.00000000000E+00 -0.00000000000E+00 -0.45593999997E+02  0.45594000000E+02  0.51100000000E-03 0.  1.
    9900012    2    1    2    0    0 -0.21072992577E+01 -0.22159549987E+02 -0.22830428183E+02  0.59302034172E+02  0.50000164401E+02 0.  0.
         12    1    1    2    0    0  0.21072992577E+01  0.22159549987E+02  0.22830428183E+02  0.31885965828E+02  0.00000000000E+00 0. -1.
         11    1    3    3    0    0 -0.35791266869E+01 -0.13403942937E+02  0.11914612609E+02  0.18287532037E+02  0.51100000000E-03 0. -1.
        -11    1    3    3    0    0  0.10593071757E+02 -0.35250107078E+01 -0.19991427462E+02  0.22897511698E+02  0.51100000000E-03 0.  1.
        -12    1    3    3    0    0 -0.91212443278E+01 -0.52305963417E+01 -0.14753613331E+02  0.18116990437E+02  0.00000000000E+00 0.  1.
</event>
<event>
 7    1  0.6164995E-012  0.5930200E+02  0.7816164E-02  0.1266605E+00
        -11   -1    0    0    0    0  0.00000000000E+00  0.00000000000E+00  0.45593999997E+02  0.45594000000E+02  0.51100000000E-03 0.  1.
         11   -1    0    0    0    0 -0.00000000000E+00 -0.00000000000E+00 -0.45593999997E+02  0.45594000000E+02  0.51100000000E-03 0. -1.
    9900012    2    1    2    0    0  0.50783996612E+01  0.10904720711E+02  0.29529886825E+02  0.59301995345E+02  0.50000093591E+02 0.  0.
         12    1    1    2    0    0 -0.50783996612E+01 -0.10904720711E+02 -0.29529886825E+02  0.31886004655E+02  0.00000000000E+00 0. -1.
         11    1    3    3    0    0 -0.21764772867E+00  0.80662395455E+01 -0.66467328942E+01  0.10454216822E+02  0.51100000000E-03 0. -1.
        -11    1    3    3    0    0  0.11975954247E+02 -0.52066697537E+01  0.21298425694E+01  0.13231368776E+02  0.51100000000E-03 0.  1.
        -12    1    3    3    0    0 -0.66799068575E+01  0.80451509194E+01  0.34046777150E+02  0.35616409747E+02  0.00000000000E+00 0.  1.
</event>
<event>
 7    1  0.6164995E-012  0.5930196E+02  0.7816164E-02  0.1266605E+00
        -11   -1    0    0    0    0  0.00000000000E+00  0.00000000000E+00  0.45593999997E+02  0.45594000000E+02  0.51100000000E-03 0.  1.
         11   -1    0    0    0    0 -0.00000000000E+00 -0.00000000000E+00 -0.45593999997E+02  0.45594000000E+02  0.51100000000E-03 0. -1.
    9900012    2    1    2    0    0  0.26672934522E+02  0.74302716268E+01  0.15813440851E+02  0.59301964122E+02  0.50000036647E+02 0.  0.
         12    1    1    2    0    0 -0.26672934522E+02 -0.74302716268E+01 -0.15813440851E+02  0.31886035878E+02  0.00000000000E+00 0. -1.
         11    1    3    3    0    0  0.10914325964E+02  0.11591794301E+02 -0.42243069102E+01  0.16472309355E+02  0.51100000000E-03 0. -1.
        -11    1    3    3    0    0 -0.70826326045E+01 -0.85379629500E+01  0.15617833826E+02  0.19156649750E+02  0.51100000000E-03 0.  1.
         12    1    3    3    0    0  0.22841241163E+02  0.43764402759E+01  0.44199139347E+01  0.23673005017E+02  0.00000000000E+00 0. -1.
</event>
<event>
 7    1  0.6164995E-012  0.5930194E+02  0.7816164E-02  0.1266605E+00
        -11   -1    0    0    0    0  0.00000000000E+00  0.00000000000E+00  0.45593999997E+02  0.45594000000E+02  0.51100000000E-03 0.  1.
         11   -1    0    0    0    0 -0.00000000000E+00 -0.00000000000E+00 -0.45593999997E+02  0.45594000000E+02  0.51100000000E-03 0. -1.
    9900012    2    1    2    0    0 -0.14446601624E+02 -0.74503209279E+01  0.27431906114E+02  0.59301936376E+02  0.49999986045E+02 0.  0.
         12    1    1    2    0    0  0.14446601624E+02  0.74503209279E+01 -0.27431906114E+02  0.31886063624E+02  0.00000000000E+00 0. -1.
         11    1    3    3    0    0 -0.21941071077E+02 -0.15363978997E+02  0.17592154709E+02  0.32046003779E+02  0.51100000000E-03 0. -1.
        -11    1    3    3    0    0 -0.61364501985E+00  0.77410490824E+01  0.15520217359E+02  0.17354467673E+02  0.51100000000E-03 0.  1.
         12    1    3    3    0    0  0.81081144726E+01  0.17260898643E+00 -0.56804659545E+01  0.99014649231E+01  0.00000000000E+00 0. -1.
</event>
<event>
 7    1  0.6164995E-012  0.5930192E+02  0.7816164E-02  0.1266605E+00
        -11   -1    0    0    0    0  0.00000000000E+00  0.00000000000E+00  0.45593999997E+02  0.45594000000E+02  0.51100000000E-03 0.  1.
         11   -1    0    0    0    0 -0.00000000000E+00 -0.00000000000E+00 -0.45593999997E+02  0.45594000000E+02  0.51100000000E-03 0. -1.
    9900012    2    1    2    0    0  0.21981625773E+01 -0.27969876603E+02  0.15151762025E+02  0.59301924538E+02  0.49999964456E+02 0.  0.
         12    1    1    2    0    0 -0.21981625773E+01  0.27969876603E+02 -0.15151762025E+02  0.31886075462E+02  0.00000000000E+00 0. -1.
         11    1    3    3    0    0 -0.11111521573E+02 -0.12380637194E+02 -0.29601634507E+01  0.16897001418E+02  0.51100000000E-03 0. -1.
        -11    1    3    3    0    0  0.58355142970E+01 -0.10839745830E+02 -0.81006976019E+01  0.14736845615E+02  0.51100000000E-03 0.  1.
         12    1    3    3    0    0  0.74741698537E+01 -0.47494935786E+01  0.26212623078E+02  0.27668077506E+02  0.00000000000E+00 0. -1.
</event>
<event>
 7    1  0.6164995E-012  0.5930194E+02  0.7816164E-02  0.1266605E+00
        -11   -1    0    0    0    0  0.00000000000E+00  0.00000000000E+00  0.45593999997E+02  0.45594000000E+02  0.51100000000E-03 0.  1.
         11   -1    0    0    0    0 -0.00000000000E+00 -0.00000000000E+00 -0.45593999997E+02  0.45594000000E+02  0.51100000000E-03 0. -1.
    9900012    2    1    2    0    0 -0.26917044032E+00  0.26564412526E+02  0.17634627360E+02  0.59301944307E+02  0.50000000509E+02 0.  0.
         12    1    1    2    0    0  0.26917044032E+00 -0.26564412526E+02 -0.17634627360E+02  0.31886055693E+02  0.00000000000E+00 0. -1.
         11    1    3    3    0    0 -0.12978166273E+02 -0.31823332365E+01 -0.12426915961E+01  0.13420295351E+02  0.51100000000E-03 0. -1.
        -11    1    3    3    0    0 -0.64249240856E+01  0.18455956818E+02  0.10053151638E+02  0.21976529519E+02  0.51100000000E-03 0.  1.
        -12    1    3    3    0    0  0.19133919918E+02  0.11290788944E+02  0.88241673179E+01  0.23905119436E+02  0.00000000000E+00 0.  1.
</event>
<event>
 7    1  0.6164995E-012  0.5930195E+02  0.7816164E-02  0.1266605E+00
        -11   -1    0    0    0    0  0.00000000000E+00  0.00000000000E+00  0.45593999997E+02  0.45594000000E+02  0.51100000000E-03 0. -1.
         11   -1    0    0    0    0 -0.00000000000E+00 -0.00000000000E+00 -0.45593999997E+02  0.45594000000E+02  0.51100000000E-03 0.  1.
    9900012    2    1    2    0    0 -0.28275197282E+02 -0.12883495537E+02  0.71588341644E+01  0.59301950618E+02  0.50000012019E+02 0.  0.
         12    1    1    2    0    0  0.28275197282E+02  0.12883495537E+02 -0.71588341644E+01  0.31886049382E+02  0.00000000000E+00 0. -1.
         11    1    3    3    0    0 -0.42623944579E+01 -0.15652733554E+02  0.24651615801E+01  0.16408933423E+02  0.51100000000E-03 0. -1.
        -11    1    3    3    0    0 -0.87885289448E+01 -0.16127349955E+02  0.17934411244E+01  0.18453890888E+02  0.51100000000E-03 0.  1.
         12    1    3    3    0    0 -0.15224273879E+02  0.18896587971E+02  0.29002314599E+01  0.24439126306E+02  0.00000000000E+00 0. -1.
</event>
<event>
 7    1  0.6164995E-012  0.5930193E+02  0.7816164E-02  0.1266605E+00
        -11   -1    0    0    0    0  0.00000000000E+00  0.00000000000E+00  0.45593999997E+02  0.45594000000E+02  0.51100000000E-03 0.  1.
         11   -1    0    0    0    0 -0.00000000000E+00 -0.00000000000E+00 -0.45593999997E+02  0.45594000000E+02  0.51100000000E-03 0. -1.
    9900012    2    1    2    0    0  0.40577129985E+01 -0.31600460930E+02 -0.12911369639E+01  0.59301934071E+02  0.49999981841E+02 0.  0.
         12    1    1    2    0    0 -0.40577129985E+01  0.31600460930E+02  0.12911369639E+01  0.31886065929E+02  0.00000000000E+00 0. -1.
         11    1    3    3    0    0 -0.14013354412E+02 -0.18085948884E+02  0.34604467447E+01  0.23139799931E+02  0.51100000000E-03 0. -1.
        -11    1    3    3    0    0  0.28740375147E+01 -0.19168299797E+02 -0.45511263046E+00  0.19387906966E+02  0.51100000000E-03 0.  1.
         12    1    3    3    0    0  0.15197029896E+02  0.56537877508E+01 -0.42964710782E+01  0.16774227175E+02  0.00000000000E+00 0. -1.
</event>
<event>
 7    1  0.6164995E-012  0.5930194E+02  0.7816164E-02  0.1266605E+00
        -11   -1    0    0    0    0  0.00000000000E+00  0.00000000000E+00  0.45593999997E+02  0.45594000000E+02  0.51100000000E-03 0. -1.
         11   -1    0    0    0    0 -0.00000000000E+00 -0.00000000000E+00 -0.45593999997E+02  0.45594000000E+02  0.51100000000E-03 0.  1.
    9900012    2    1    2    0    0  0.87037703820E+01  0.20424801568E+02 -0.22886513516E+02  0.59301942876E+02  0.49999997900E+02 0.  0.
         12    1    1    2    0    0 -0.87037703820E+01 -0.20424801568E+02  0.22886513516E+02  0.31886057124E+02  0.00000000000E+00 0. -1.
         11    1    3    3    0    0  0.54568476813E+01 -0.64537779263E+01  0.53911913969E+01  0.10024638701E+02  0.51100000000E-03 0. -1.
        -11    1    3    3    0    0 -0.13266026406E+01 -0.49701481855E+01 -0.12343389258E+02  0.13372415870E+02  0.51100000000E-03 0.  1.
        -12    1    3    3    0    0  0.45735253413E+01  0.31848727680E+02 -0.15934315655E+02  0.35904888306E+02  0.00000000000E+00 0.  1.
</event>
<event>
 7    1  0.6164995E-012  0.5930192E+02  0.7816164E-02  0.1266605E+00
        -11   -1    0    0    0    0  0.00000000000E+00  0.00000000000E+00  0.45593999997E+02  0.45594000000E+02  0.51100000000E-03 0.  1.
         11   -1    0    0    0    0 -0.00000000000E+00 -0.00000000000E+00 -0.45593999997E+02  0.45594000000E+02  0.51100000000E-03 0. -1.
    9900012    2    1    2    0    0  0.89490657423E+01 -0.23496022426E+01  0.30514187264E+02  0.59301921020E+02  0.49999958039E+02 0.  0.
         12    1    1    2    0    0 -0.89490657423E+01  0.23496022426E+01 -0.30514187264E+02  0.31886078980E+02  0.00000000000E+00 0. -1.
         11    1    3    3    0    0 -0.71155229755E+01 -0.36009706879E+01 -0.13049498688E+00  0.79758815383E+01  0.51100000000E-03 0. -1.
        -11    1    3    3    0    0  0.14381810963E+02  0.26279794109E+01 -0.51236013956E+01  0.15491741473E+02  0.51100000000E-03 0.  1.
         12    1    3    3    0    0  0.16827777551E+01 -0.13766109656E+01  0.35768283646E+02  0.35834298008E+02  0.00000000000E+00 0. -1.
</event>
<event>
 7    1  0.6164995E-012  0.5930195E+02  0.7816164E-02  0.1266605E+00
        -11   -1    0    0    0    0  0.00000000000E+00  0.00000000000E+00  0.45593999997E+02  0.45594000000E+02  0.51100000000E-03 0.  1.
         11   -1    0    0    0    0 -0.00000000000E+00 -0.00000000000E+00 -0.45593999997E+02  0.45594000000E+02  0.51100000000E-03 0. -1.
    9900012    2    1    2    0    0 -0.18726474587E+02  0.19013644553E+02  0.17450518971E+02  0.59301950668E+02  0.50000012111E+02 0.  0.
         12    1    1    2    0    0  0.18726474587E+02 -0.19013644553E+02 -0.17450518971E+02  0.31886049332E+02  0.00000000000E+00 0. -1.
         11    1    3    3    0    0  0.76310410519E+01  0.14462094310E+02 -0.12089632964E+01  0.16396540851E+02  0.51100000000E-03 0. -1.
        -11    1    3    3    0    0 -0.17640027049E+01  0.12617899101E+02  0.66658493499E+01  0.14379034428E+02  0.51100000000E-03 0.  1.
         12    1    3    3    0    0 -0.24593512934E+02 -0.80663488578E+01  0.11993632917E+02  0.28526375390E+02  0.00000000000E+00 0. -1.
</event>
<event>
 7    1  0.6164995E-012  0.5930195E+02  0.7816164E-02  0.1266605E+00
        -11   -1    0    0    0    0  0.00000000000E+00  0.00000000000E+00  0.45593999997E+02  0.45594000000E+02  0.51100000000E-03 0.  1.
         11   -1    0    0    0    0 -0.00000000000E+00 -0.00000000000E+00 -0.45593999997E+02  0.45594000000E+02  0.51100000000E-03 0. -1.
    9900012    2    1    2    0    0 -0.22839661925E+02 -0.55655754813E+01  0.21542851463E+02  0.59301949187E+02  0.50000009410E+02 0.  0.
         12    1    1    2    0    0  0.22839661925E+02  0.55655754813E+01 -0.21542851463E+02  0.31886050813E+02  0.00000000000E+00 0. -1.
         11    1    3    3    0    0 -0.15502119703E+02 -0.14023347617E+02  0.22749352674E+02  0.30895032627E+02  0.51100000000E-03 0. -1.
        -11    1    3    3    0    0 -0.12644173481E+02 -0.96759950781E+00  0.73124838481E+01  0.14638435440E+02  0.51100000000E-03 0.  1.
         12    1    3    3    0    0  0.53066312594E+01  0.94253716431E+01 -0.85189850594E+01  0.13768481121E+02  0.00000000000E+00 0. -1.
</event>
<event>
 7    1  0.6164995E-012  0.5930190E+02  0.7816164E-02  0.1266605E+00
        -11   -1    0    0    0    0  0.00000000000E+00  0.00000000000E+00  0.45593999997E+02  0.45594000000E+02  0.51100000000E-03 0.  1.
         11   -1    0    0    0    0 -0.00000000000E+00 -0.00000000000E+00 -0.45593999997E+02  0.45594000000E+02  0.51100000000E-03 0. -1.
    9900012    2    1    2    0    0  0.30821531165E+02  0.71422003678E+01  0.39680347446E+01  0.59301904140E+02  0.49999927255E+02 0.  0.
         12    1    1    2    0    0 -0.30821531165E+02 -0.71422003678E+01 -0.39680347446E+01  0.31886095860E+02  0.00000000000E+00 0. -1.
         11    1    3    3    0    0  0.10246062157E+02  0.24778842468E+01  0.14314216750E+02  0.17776909222E+02  0.51100000000E-03 0. -1.
        -11    1    3    3    0    0 -0.25803264274E+01 -0.77179734134E+01  0.64242041967E+01  0.10368008387E+02  0.51100000000E-03 0.  1.
         12    1    3    3    0    0  0.23155795436E+02  0.12382289534E+02 -0.16770386202E+02  0.31156986532E+02  0.00000000000E+00 0. -1.
</event>
<event>
 7    1  0.6164995E-012  0.5930197E+02  0.7816164E-02  0.1266605E+00
        -11   -1    0    0    0    0  0.00000000000E+00  0.00000000000E+00  0.45593999997E+02  0.45594000000E+02  0.51100000000E-03 0. -1.
         11   -1    0    0    0    0 -0.00000000000E+00 -0.00000000000E+00 -0.45593999997E+02  0.45594000000E+02  0.51100000000E-03 0.  1.
    9900012    2    1    2    0    0  0.50574953023E+01  0.11139184426E+02 -0.29445867398E+02  0.59301971787E+02  0.50000050626E+02 0.  0.
         12    1    1    2    0    0 -0.50574953023E+01 -0.11139184426E+02  0.29445867398E+02  0.31886028213E+02  0.00000000000E+00 0. -1.
         11    1    3    3    0    0 -0.12134248645E+02 -0.30748346088E+01 -0.20728112062E+02  0.24214649036E+02  0.51100000000E-03 0. -1.
        -11    1    3    3    0    0  0.13509727387E+02 -0.42230360797E+01 -0.80302135231E+01  0.16273631964E+02  0.51100000000E-03 0.  1.
         12    1    3    3    0    0  0.36820165600E+01  0.18437055115E+02 -0.68754181272E+00  0.18813690786E+02  0.00000000000E+00 0. -1.
</event>
<event>
 7    1  0.6164995E-012  0.5930210E+02  0.7816164E-02  0.1266604E+00
        -11   -1    0    0    0    0  0.00000000000E+00  0.00000000000E+00  0.45593999997E+02  0.45594000000E+02  0.51100000000E-03 0.  1.
         11   -1    0    0    0    0 -0.00000000000E+00 -0.00000000000E+00 -0.45593999997E+02  0.45594000000E+02  0.51100000000E-03 0. -1.
    9900012    2    1    2    0    0 -0.12848526290E+02 -0.48836545653E+01  0.28771100259E+02  0.59302095279E+02  0.50000275846E+02 0.  0.
         12    1    1    2    0    0  0.12848526290E+02  0.48836545653E+01 -0.28771100259E+02  0.31885904721E+02  0.00000000000E+00 0. -1.
         11    1    3    3    0    0 -0.91989422993E+01  0.93006856453E+01  0.54801598669E+01  0.14182927953E+02  0.51100000000E-03 0. -1.
        -11    1    3    3    0    0  0.13625332662E+02 -0.43038412348E+01  0.20551289826E+02  0.25030546404E+02  0.51100000000E-03 0.  1.
         12    1    3    3    0    0 -0.17274916652E+02 -0.98804989759E+01  0.27396505665E+01  0.20088620922E+02  0.00000000000E+00 0. -1.
</event>
<event>
 7    1  0.6164995E-012  0.5930193E+02  0.7816164E-02  0.1266605E+00
        -11   -1    0    0    0    0  0.00000000000E+00  0.00000000000E+00  0.45593999997E+02  0.45594000000E+02  0.51100000000E-03 0.  1.
         11   -1    0    0    0    0 -0.00000000000E+00 -0.00000000000E+00 -0.45593999997E+02  0.45594000000E+02  0.51100000000E-03 0. -1.
    9900012    2    1    2    0    0  0.23323378427E+02  0.13731054493E+02  0.16858219573E+02  0.59301930849E+02  0.49999975965E+02 0.  0.
         12    1    1    2    0    0 -0.23323378427E+02 -0.13731054493E+02 -0.16858219573E+02  0.31886069151E+02  0.00000000000E+00 0. -1.
         11    1    3    3    0    0  0.56743352371E+01 -0.88141142522E+01  0.39240405058E+01  0.11193068596E+02  0.51100000000E-03 0. -1.
        -11    1    3    3    0    0 -0.10314448513E+02  0.12012839085E+02  0.82789278720E+01  0.17867198941E+02  0.51100000000E-03 0.  1.
         12    1    3    3    0    0  0.27963491702E+02  0.10532329660E+02  0.46552511956E+01  0.30241663313E+02  0.00000000000E+00 0. -1.
</event>
<event>
 7    1  0.6164995E-012  0.5930195E+02  0.7816164E-02  0.1266605E+00
        -11   -1    0    0    0    0  0.00000000000E+00  0.00000000000E+00  0.45593999997E+02  0.45594000000E+02  0.51100000000E-03 0. -1.
         11   -1    0    0    0    0 -0.00000000000E+00 -0.00000000000E+00 -0.45593999997E+02  0.45594000000E+02  0.51100000000E-03 0.  1.
    9900012    2    1    2    0    0  0.27823611088E+02 -0.74503645450E+01 -0.13676948781E+02  0.59301949856E+02  0.50000010630E+02 0.  0.
         12    1    1    2    0    0 -0.27823611088E+02  0.74503645450E+01  0.13676948781E+02  0.31886050144E+02  0.00000000000E+00 0. -1.
         11    1    3    3    0    0 -0.11441067477E+01 -0.21973094488E+01  0.10742080613E+02  0.11024039424E+02  0.51100000000E-03 0. -1.
        -11    1    3    3    0    0  0.16830395411E+01 -0.13116664500E+02 -0.85814939252E+01  0.15764566215E+02  0.51100000000E-03 0.  1.
        -12    1    3    3    0    0  0.27284678294E+02  0.78636094035E+01 -0.15837535469E+02  0.32513344217E+02  0.00000000000E+00 0.  1.
</event>
<event>
 7    1  0.6164995E-012  0.5930198E+02  0.7816164E-02  0.1266605E+00
        -11   -1    0    0    0    0  0.00000000000E+00  0.00000000000E+00  0.45593999997E+02  0.45594000000E+02  0.51100000000E-03 0. -1.
         11   -1    0    0    0    0 -0.00000000000E+00 -0.00000000000E+00 -0.45593999997E+02  0.45594000000E+02  0.51100000000E-03 0.  1.
    9900012    2    1    2    0    0  0.47672137958E+01  0.31525501403E+02 -0.36731184706E+00  0.59301976665E+02  0.50000059523E+02 0.  0.
         12    1    1    2    0    0 -0.47672137958E+01 -0.31525501403E+02  0.36731184706E+00  0.31886023335E+02  0.00000000000E+00 0. -1.
         11    1    3    3    0    0  0.74019920174E+01  0.85884800129E+01  0.81865238864E+01  0.13984657606E+02  0.51100000000E-03 0. -1.
        -11    1    3    3    0    0 -0.13495059517E+02  0.37395466247E+01 -0.16709253393E+02  0.21801375863E+02  0.51100000000E-03 0.  1.
         12    1    3    3    0    0  0.10860281296E+02  0.19197474766E+02  0.81554176593E+01  0.23515943196E+02  0.00000000000E+00 0. -1.
</event>
<event>
 7    1  0.6164995E-012  0.5930194E+02  0.7816164E-02  0.1266605E+00
        -11   -1    0    0    0    0  0.00000000000E+00  0.00000000000E+00  0.45593999997E+02  0.45594000000E+02  0.51100000000E-03 0.  1.
         11   -1    0    0    0    0 -0.00000000000E+00 -0.00000000000E+00 -0.45593999997E+02  0.45594000000E+02  0.51100000000E-03 0. -1.
    9900012    2    1    2    0    0 -0.11040420705E+02  0.10876719716E+02  0.27866229567E+02  0.59301942366E+02  0.49999996970E+02 0.  0.
         12    1    1    2    0    0  0.11040420705E+02 -0.10876719716E+02 -0.27866229567E+02  0.31886057634E+02  0.00000000000E+00 0. -1.
         11    1    3    3    0    0  0.25034117066E+01 -0.10225493778E+01 -0.53073080711E+01  0.59565255498E+01  0.51100000000E-03 0. -1.
        -11    1    3    3    0    0  0.11441809706E+02 -0.33574919765E+01  0.13809704514E+02  0.18245429585E+02  0.51100000000E-03 0.  1.
         12    1    3    3    0    0 -0.24985642118E+02  0.15256761070E+02  0.19363833124E+02  0.35099987231E+02  0.00000000000E+00 0. -1.
</event>
<event>
 7    1  0.6164995E-012  0.5930198E+02  0.7816164E-02  0.1266605E+00
        -11   -1    0    0    0    0  0.00000000000E+00  0.00000000000E+00  0.45593999997E+02  0.45594000000E+02  0.51100000000E-03 0. -1.
         11   -1    0    0    0    0 -0.00000000000E+00 -0.00000000000E+00 -0.45593999997E+02  0.45594000000E+02  0.51100000000E-03 0.  1.
    9900012    2    1    2    0    0  0.29596671959E+02  0.44639256146E+00 -0.11855625090E+02  0.59301982631E+02  0.50000070403E+02 0.  0.
         12    1    1    2    0    0 -0.29596671959E+02 -0.44639256146E+00  0.11855625090E+02  0.31886017369E+02  0.00000000000E+00 0. -1.
         11    1    3    3    0    0  0.90168027346E+01 -0.15260429868E+01  0.99185510887E+01  0.13491078338E+02  0.51100000000E-03 0. -1.
        -11    1    3    3    0    0  0.19683118219E+02 -0.90521034529E+01 -0.31309330328E+00  0.21667112115E+02  0.51100000000E-03 0.  1.
         12    1    3    3    0    0  0.89675100541E+00  0.11024539001E+02 -0.21461082876E+02  0.24143792178E+02  0.00000000000E+00 0. -1.
</event>
<event>
 7    1  0.6164995E-012  0.5930214E+02  0.7816164E-02  0.1266604E+00
        -11   -1    0    0    0    0  0.00000000000E+00  0.00000000000E+00  0.45593999997E+02  0.45594000000E+02  0.51100000000E-03 0. -1.
         11   -1    0    0    0    0 -0.00000000000E+00 -0.00000000000E+00 -0.45593999997E+02  0.45594000000E+02  0.51100000000E-03 0.  1.
    9900012    2    1    2    0    0  0.11986270900E+02 -0.12325862228E+02 -0.26853505487E+02  0.59302135943E+02  0.50000350006E+02 0.  0.
         12    1    1    2    0    0 -0.11986270900E+02  0.12325862228E+02  0.26853505487E+02  0.31885864057E+02  0.00000000000E+00 0. -1.
         11    1    3    3    0    0 -0.70082799314E+01 -0.53673942014E+00 -0.11837846129E+02  0.13767304675E+02  0.51100000000E-03 0. -1.
        -11    1    3    3    0    0 -0.24609658572E+01 -0.16475309038E+02  0.32477159640E+01  0.16971735919E+02  0.51100000000E-03 0.  1.
        -12    1    3    3    0    0  0.21455516688E+02  0.46861862304E+01 -0.18263375322E+02  0.28563095349E+02  0.00000000000E+00 0.  1.
</event>
<event>
 7    1  0.6164995E-012  0.5930194E+02  0.7816164E-02  0.1266605E+00
        -11   -1    0    0    0    0  0.00000000000E+00  0.00000000000E+00  0.45593999997E+02  0.45594000000E+02  0.51100000000E-03 0. -1.
         11   -1    0    0    0    0 -0.00000000000E+00 -0.00000000000E+00 -0.45593999997E+02  0.45594000000E+02  0.51100000000E-03 0.  1.
    9900012    2    1    2    0    0  0.30200989483E+02  0.44001562628E+01 -0.92336107093E+01  0.59301941799E+02  0.49999995935E+02 0.  0.
         12    1    1    2    0    0 -0.30200989483E+02 -0.44001562628E+01  0.92336107093E+01  0.31886058201E+02  0.00000000000E+00 0. -1.
         11    1    3    3    0    0  0.76557073971E+01  0.68810485244E+01 -0.88398595784E+01  0.13568411925E+02  0.51100000000E-03 0. -1.
        -11    1    3    3    0    0  0.32004308174E+02 -0.94286273087E+01 -0.36243960011E+01  0.33560557225E+02  0.51100000000E-03 0.  1.
         12    1    3    3    0    0 -0.94590260881E+01  0.69477350471E+01  0.32306448702E+01  0.12172972648E+02  0.00000000000E+00 0. -1.
</event>
<event>
 7    1  0.6164995E-012  0.5930195E+02  0.7816164E-02  0.1266605E+00
        -11   -1    0    0    0    0  0.00000000000E+00  0.00000000000E+00  0.45593999997E+02  0.45594000000E+02  0.51100000000E-03 0. -1.
         11   -1    0    0    0    0 -0.00000000000E+00 -0.00000000000E+00 -0.45593999997E+02  0.45594000000E+02  0.51100000000E-03 0.  1.
    9900012    2    1    2    0    0 -0.26014498582E+02 -0.15336515464E+02 -0.10235113645E+02  0.59301946710E+02  0.50000004893E+02 0.  0.
         12    1    1    2    0    0  0.26014498582E+02  0.15336515464E+02  0.10235113645E+02  0.31886053290E+02  0.00000000000E+00 0. -1.
         11    1    3    3    0    0  0.75729712996E+00 -0.12871270842E+02 -0.16070506765E+02  0.20603502129E+02  0.51100000000E-03 0. -1.
        -11    1    3    3    0    0 -0.70368009269E+01 -0.13801511636E+02  0.26668529448E+01  0.15719745405E+02  0.51100000000E-03 0.  1.
         12    1    3    3    0    0 -0.19734994785E+02  0.11336267014E+02  0.31685401753E+01  0.22978699176E+02  0.00000000000E+00 0. -1.
</event>
<event>
 7    1  0.6164995E-012  0.5930202E+02  0.7816164E-02  0.1266605E+00
        -11   -1    0    0    0    0  0.00000000000E+00  0.00000000000E+00  0.45593999997E+02  0.45594000000E+02  0.51100000000E-03 0.  1.
         11   -1    0    0    0    0 -0.00000000000E+00 -0.00000000000E+00 -0.45593999997E+02  0.45594000000E+02  0.51100000000E-03 0. -1.
    9900012    2    1    2    0    0 -0.14497868082E+02  0.23610448914E+02 -0.15782094220E+02  0.59302016014E+02  0.50000131285E+02 0.  0.
         12    1    1    2    0    0  0.14497868082E+02 -0.23610448914E+02  0.15782094220E+02  0.31885983986E+02  0.00000000000E+00 0. -1.
         11    1    3    3    0    0  0.11642270501E+02  0.10620814368E+02 -0.30577239711E+01  0.16052845119E+02  0.51100000000E-03 0. -1.
        -11    1    3    3    0    0 -0.34285072074E+01 -0.27334342617E+01  0.77234709746E+01  0.88813472340E+01  0.51100000000E-03 0.  1.
        -12    1    3    3    0    0 -0.22711631376E+02  0.15723068807E+02 -0.20447841223E+02  0.34367823660E+02  0.00000000000E+00 0.  1.
</event>
<event>
 7    1  0.6164995E-012  0.5930192E+02  0.7816164E-02  0.1266605E+00
        -11   -1    0    0    0    0  0.00000000000E+00  0.00000000000E+00  0.45593999997E+02  0.45594000000E+02  0.51100000000E-03 0.  1.
         11   -1    0    0    0    0 -0.00000000000E+00 -0.00000000000E+00 -0.45593999997E+02  0.45594000000E+02  0.51100000000E-03 0. -1.
    9900012    2    1    2    0    0  0.15380123105E+02 -0.17504374247E+02  0.21766269291E+02  0.59301924930E+02  0.49999965171E+02 0.  0.
         12    1    1    2    0    0 -0.15380123105E+02  0.17504374247E+02 -0.21766269291E+02  0.31886075070E+02  0.00000000000E+00 0. -1.
         11    1    3    3    0    0 -0.11955579365E+00  0.47852923081E+00 -0.10468771255E+02  0.10480384328E+02  0.51100000000E-03 0. -1.
        -11    1    3    3    0    0  0.50430343763E+01  0.75439066882E+01  0.75735891000E+01  0.11819559042E+02  0.51100000000E-03 0.  1.
         12    1    3    3    0    0  0.10456644522E+02 -0.25526810166E+02  0.24661451447E+02  0.37001981560E+02  0.00000000000E+00 0. -1.
</event>
<event>
 7    1  0.6164995E-012  0.5930195E+02  0.7816164E-02  0.1266605E+00
        -11   -1    0    0    0    0  0.00000000000E+00  0.00000000000E+00  0.45593999997E+02  0.45594000000E+02  0.51100000000E-03 0. -1.
         11   -1    0    0    0    0 -0.00000000000E+00 -0.00000000000E+00 -0.45593999997E+02  0.45594000000E+02  0.51100000000E-03 0.  1.
    9900012    2    1    2    0    0 -0.20743351198E+02  0.17894682737E+02 -0.16316062900E+02  0.59301949794E+02  0.50000010516E+02 0.  0.
         12    1    1    2    0    0  0.20743351198E+02 -0.17894682737E+02  0.16316062900E+02  0.31886050206E+02  0.00000000000E+00 0. -1.
         11    1    3    3    0    0 -0.10560767440E+02  0.87099159193E+01  0.54558637533E+01  0.14736312083E+02  0.51100000000E-03 0. -1.
        -11    1    3    3    0    0 -0.59220481555E+01  0.17905374877E+02 -0.27462575043E+02  0.33314653414E+02  0.51100000000E-03 0.  1.
         12    1    3    3    0    0 -0.42605356031E+01 -0.87206080594E+01  0.56906483899E+01  0.11250984297E+02  0.00000000000E+00 0. -1.
</event>
<event>
 7    1  0.6164995E-012  0.5930192E+02  0.7816164E-02  0.1266605E+00
        -11   -1    0    0    0    0  0.00000000000E+00  0.00000000000E+00  0.45593999997E+02  0.45594000000E+02  0.51100000000E-03 0.  1.
         11   -1    0    0    0    0 -0.00000000000E+00 -0.00000000000E+00 -0.45593999997E+02  0.45594000000E+02  0.51100000000E-03 0. -1.
    9900012    2    1    2    0    0 -0.12301312026E+02 -0.28195119204E+02  0.83925444575E+01  0.59301924247E+02  0.49999963924E+02 0.  0.
         12    1    1    2    0    0  0.12301312026E+02  0.28195119204E+02 -0.83925444575E+01  0.31886075753E+02  0.00000000000E+00 0. -1.
         11    1    3    3    0    0  0.12159214315E+02 -0.61636804595E+01 -0.69144346590E+01  0.15285511326E+02  0.51100000000E-03 0.  1.
        -11    1    3    3    0    0 -0.47264947110E+01 -0.33107956082E+01 -0.68331754589E+01  0.89439033383E+01  0.51100000000E-03 0. -1.
        -12    1    3    3    0    0 -0.19734031630E+02 -0.18720643136E+02  0.22140154575E+02  0.35072509583E+02  0.00000000000E+00 0.  1.
</event>
<event>
 7    1  0.6164995E-012  0.5930194E+02  0.7816164E-02  0.1266605E+00
        -11   -1    0    0    0    0  0.00000000000E+00  0.00000000000E+00  0.45593999997E+02  0.45594000000E+02  0.51100000000E-03 0.  1.
         11   -1    0    0    0    0 -0.00000000000E+00 -0.00000000000E+00 -0.45593999997E+02  0.45594000000E+02  0.51100000000E-03 0. -1.
    9900012    2    1    2    0    0 -0.14295074071E+02 -0.20359999167E+02  0.19945978354E+02  0.59301940958E+02  0.49999994401E+02 0.  0.
         12    1    1    2    0    0  0.14295074071E+02  0.20359999167E+02 -0.19945978354E+02  0.31886059042E+02  0.00000000000E+00 0. -1.
         11    1    3    3    0    0 -0.18312528718E+02  0.26745022406E+01  0.54201321330E+01  0.19284177527E+02  0.51100000000E-03 0. -1.
        -11    1    3    3    0    0  0.24849868423E+01 -0.64160359727E+00  0.17221056360E+02  0.17411249157E+02  0.51100000000E-03 0.  1.
        -12    1    3    3    0    0  0.15324678051E+01 -0.22392897810E+02 -0.26952101393E+01  0.22606514274E+02  0.00000000000E+00 0.  1.
</event>
<event>
 7    1  0.6164995E-012  0.5930180E+02  0.7816164E-02  0.1266605E+00
        -11   -1    0    0    0    0  0.00000000000E+00  0.00000000000E+00  0.45593999997E+02  0.45594000000E+02  0.51100000000E-03 0.  1.
         11   -1    0    0    0    0 -0.00000000000E+00 -0.00000000000E+00 -0.45593999997E+02  0.45594000000E+02  0.51100000000E-03 0. -1.
    9900012    2    1    2    0    0 -0.19764898767E+02  0.13841304501E+02  0.20844591436E+02  0.59301797252E+02  0.49999732315E+02 0.  0.
         12    1    1    2    0    0  0.19764898767E+02 -0.13841304501E+02 -0.20844591436E+02  0.31886202748E+02  0.00000000000E+00 0. -1.
         11    1    3    3    0    0  0.50011250046E+01 -0.36322764426E+01  0.16724470058E+02  0.17830103265E+02  0.51100000000E-03 0. -1.
        -11    1    3    3    0    0 -0.27105087211E+02  0.53624602884E+01  0.75975400109E+01  0.28655965305E+02  0.51100000000E-03 0.  1.
         12    1    3    3    0    0  0.23390634392E+01  0.12111120655E+02 -0.34774186332E+01  0.12815728682E+02  0.00000000000E+00 0. -1.
</event>
<event>
 7    1  0.6164995E-012  0.5930195E+02  0.7816164E-02  0.1266605E+00
        -11   -1    0    0    0    0  0.00000000000E+00  0.00000000000E+00  0.45593999997E+02  0.45594000000E+02  0.51100000000E-03 0. -1.
         11   -1    0    0    0    0 -0.00000000000E+00 -0.00000000000E+00 -0.45593999997E+02  0.45594000000E+02  0.51100000000E-03 0.  1.
    9900012    2    1    2    0    0  0.23283131748E+02  0.18494210087E+02 -0.11514341496E+02  0.59301951471E+02  0.50000013574E+02 0.  0.
         12    1    1    2    0    0 -0.23283131748E+02 -0.18494210087E+02  0.11514341496E+02  0.31886048529E+02  0.00000000000E+00 0. -1.
         11    1    3    3    0    0 -0.30551770520E+01  0.56312622751E+00  0.11467148412E+02  0.11880518126E+02  0.51100000000E-03 0. -1.
        -11    1    3    3    0    0  0.42716245929E+01  0.76090851565E+01  0.52093596310E+01  0.10162793986E+02  0.51100000000E-03 0.  1.
         12    1    3    3    0    0  0.22066684207E+02  0.10321998703E+02 -0.28190849539E+02  0.37258639359E+02  0.00000000000E+00 0. -1.
</event>
<event>
 7    1  0.6164995E-012  0.5930196E+02  0.7816164E-02  0.1266605E+00
        -11   -1    0    0    0    0  0.00000000000E+00  0.00000000000E+00  0.45593999997E+02  0.45594000000E+02  0.51100000000E-03 0.  1.
         11   -1    0    0    0    0 -0.00000000000E+00 -0.00000000000E+00 -0.45593999997E+02  0.45594000000E+02  0.51100000000E-03 0. -1.
    9900012    2    1    2    0    0  0.56591725318E+01 -0.28934963987E+02 -0.12143363953E+02  0.59301958183E+02  0.50000025816E+02 0.  0.
         12    1    1    2    0    0 -0.56591725318E+01  0.28934963987E+02  0.12143363953E+02  0.31886041817E+02  0.00000000000E+00 0. -1.
         11    1    3    3    0    0  0.56478759424E+01 -0.13207790012E+02 -0.10366482477E+02  0.17714631773E+02  0.51100000000E-03 0. -1.
        -11    1    3    3    0    0  0.12725163470E+02 -0.60803631766E+01 -0.15198879379E+02  0.20734187622E+02  0.51100000000E-03 0.  1.
        -12    1    3    3    0    0 -0.12713866880E+02 -0.96468107981E+01  0.13421997903E+02  0.20853138788E+02  0.00000000000E+00 0.  1.
</event>
<event>
 7    1  0.6164995E-012  0.5930181E+02  0.7816164E-02  0.1266605E+00
        -11   -1    0    0    0    0  0.00000000000E+00  0.00000000000E+00  0.45593999997E+02  0.45594000000E+02  0.51100000000E-03 0.  1.
         11   -1    0    0    0    0 -0.00000000000E+00 -0.00000000000E+00 -0.45593999997E+02  0.45594000000E+02  0.51100000000E-03 0. -1.
    9900012    2    1    2    0    0 -0.27204256791E+01  0.23469298670E+02  0.21413085271E+02  0.59301813072E+02  0.49999761168E+02 0.  0.
         12    1    1    2    0    0  0.27204256791E+01 -0.23469298670E+02 -0.21413085271E+02  0.31886186928E+02  0.00000000000E+00 0. -1.
         11    1    3    3    0    0 -0.50135107907E+01  0.82704798384E+01  0.15358682061E+02  0.18150075540E+02  0.51100000000E-03 0. -1.
        -11    1    3    3    0    0  0.13929931183E+02  0.91429627395E+00  0.15152869519E+02  0.20603115672E+02  0.51100000000E-03 0.  1.
         12    1    3    3    0    0 -0.11636846072E+02  0.14284522558E+02 -0.90984663089E+01  0.20548621861E+02  0.00000000000E+00 0. -1.
</event>
<event>
 7    1  0.6164995E-012  0.5930192E+02  0.7816164E-02  0.1266605E+00
        -11   -1    0    0    0    0  0.00000000000E+00  0.00000000000E+00  0.45593999997E+02  0.45594000000E+02  0.51100000000E-03 0. -1.
         11   -1    0    0    0    0 -0.00000000000E+00 -0.00000000000E+00 -0.45593999997E+02  0.45594000000E+02  0.51100000000E-03 0.  1.
    9900012    2    1    2    0    0 -0.26800267524E+02  0.19401210270E+01 -0.17166929001E+02  0.59301923724E+02  0.49999962971E+02 0.  0.
         12    1    1    2    0    0  0.26800267524E+02 -0.19401210270E+01  0.17166929001E+02  0.31886076276E+02  0.00000000000E+00 0. -1.
         11    1    3    3    0    0 -0.41807014406E+01  0.95930600362E+01  0.12065609750E+01  0.10533795851E+02  0.51100000000E-03 0. -1.
        -11    1    3    3    0    0 -0.32979807339E+02 -0.13796390192E+01 -0.12370309514E+02  0.35250470262E+02  0.51100000000E-03 0.  1.
         12    1    3    3    0    0  0.10360241256E+02 -0.62732999900E+01 -0.60031804613E+01  0.13517657611E+02  0.00000000000E+00 0. -1.
</event>
<event>
 7    1  0.6164995E-012  0.5930194E+02  0.7816164E-02  0.1266605E+00
        -11   -1    0    0    0    0  0.00000000000E+00  0.00000000000E+00  0.45593999997E+02  0.45594000000E+02  0.51100000000E-03 0. -1.
         11   -1    0    0    0    0 -0.00000000000E+00 -0.00000000000E+00 -0.45593999997E+02  0.45594000000E+02  0.51100000000E-03 0.  1.
    9900012    2    1    2    0    0  0.13491556968E+02  0.63584123771E+01 -0.28182786370E+02  0.59301937763E+02  0.49999988575E+02 0.  0.
         12    1    1    2    0    0 -0.13491556968E+02 -0.63584123771E+01  0.28182786370E+02  0.31886062237E+02  0.00000000000E+00 0. -1.
         11    1    3    3    0    0  0.10934836700E+02  0.36135606433E+01 -0.16277324620E+01  0.11630906560E+02  0.51100000000E-03 0. -1.
        -11    1    3    3    0    0  0.17616881143E+02  0.43675152735E+01 -0.26980962482E+02  0.32517718672E+02  0.51100000000E-03 0.  1.
         12    1    3    3    0    0 -0.15060160875E+02 -0.16226635397E+01  0.42590857409E+00  0.15153312531E+02  0.00000000000E+00 0. -1.
</event>
<event>
 7    1  0.6164995E-012  0.5930194E+02  0.7816164E-02  0.1266605E+00
        -11   -1    0    0    0    0  0.00000000000E+00  0.00000000000E+00  0.45593999997E+02  0.45594000000E+02  0.51100000000E-03 0.  1.
         11   -1    0    0    0    0 -0.00000000000E+00 -0.00000000000E+00 -0.45593999997E+02  0.45594000000E+02  0.51100000000E-03 0. -1.
    9900012    2    1    2    0    0 -0.66866396715E+01 -0.21919483528E+02  0.22170837819E+02  0.59301937875E+02  0.49999988780E+02 0.  0.
         12    1    1    2    0    0  0.66866396715E+01  0.21919483528E+02 -0.22170837819E+02  0.31886062125E+02  0.00000000000E+00 0. -1.
         11    1    3    3    0    0  0.19050579651E+01  0.45664889086E+01 -0.20748926465E+01  0.53653747827E+01  0.51100000000E-03 0.  1.
        -11    1    3    3    0    0  0.37220585138E+01 -0.55064043715E+01 -0.99531762232E+01  0.11968288344E+02  0.51100000000E-03 0. -1.
         12    1    3    3    0    0 -0.12313756150E+02 -0.20979568065E+02  0.34198906689E+02  0.41968274749E+02  0.00000000000E+00 0. -1.
</event>
<event>
 7    1  0.6164995E-012  0.5930197E+02  0.7816164E-02  0.1266605E+00
        -11   -1    0    0    0    0  0.00000000000E+00  0.00000000000E+00  0.45593999997E+02  0.45594000000E+02  0.51100000000E-03 0.  1.
         11   -1    0    0    0    0 -0.00000000000E+00 -0.00000000000E+00 -0.45593999997E+02  0.45594000000E+02  0.51100000000E-03 0. -1.
    9900012    2    1    2    0    0  0.17299812350E+02 -0.22773552967E+02  0.14099660448E+02  0.59301974114E+02  0.50000054870E+02 0.  0.
         12    1    1    2    0    0 -0.17299812350E+02  0.22773552967E+02 -0.14099660448E+02  0.31886025886E+02  0.00000000000E+00 0. -1.
         11    1    3    3    0    0  0.68392804960E+01 -0.39797124012E+01 -0.11219833898E+02  0.13729477101E+02  0.51100000000E-03 0. -1.
        -11    1    3    3    0    0  0.18937354424E+02 -0.21510076414E+02  0.21770365569E+02  0.35989659587E+02  0.51100000000E-03 0.  1.
        -12    1    3    3    0    0 -0.84768225698E+01  0.27162358481E+01  0.35491287772E+01  0.95828374264E+01  0.00000000000E+00 0.  1.
</event>
<event>
 7    1  0.6164995E-012  0.5930190E+02  0.7816164E-02  0.1266605E+00
        -11   -1    0    0    0    0  0.00000000000E+00  0.00000000000E+00  0.45593999997E+02  0.45594000000E+02  0.51100000000E-03 0. -1.
         11   -1    0    0    0    0 -0.00000000000E+00 -0.00000000000E+00 -0.45593999997E+02  0.45594000000E+02  0.51100000000E-03 0.  1.
    9900012    2    1    2    0    0 -0.29116888620E+01  0.59153896620E+01 -0.31197013065E+02  0.59301899720E+02  0.49999919193E+02 0.  0.
         12    1    1    2    0    0  0.29116888620E+01 -0.59153896620E+01  0.31197013065E+02  0.31886100280E+02  0.00000000000E+00 0. -1.
         11    1    3    3    0    0 -0.17849863108E+02  0.67359729786E+01 -0.91586310443E+01  0.21162973983E+02  0.51100000000E-03 0. -1.
        -11    1    3    3    0    0 -0.65927087868E-01 -0.12191047797E+02 -0.10243291835E+02  0.15923285485E+02  0.51100000000E-03 0.  1.
        -12    1    3    3    0    0  0.15004101333E+02  0.11370464480E+02 -0.11795090186E+02  0.22215640252E+02  0.00000000000E+00 0.  1.
</event>
<event>
 7    1  0.6164995E-012  0.5930195E+02  0.7816164E-02  0.1266605E+00
        -11   -1    0    0    0    0  0.00000000000E+00  0.00000000000E+00  0.45593999997E+02  0.45594000000E+02  0.51100000000E-03 0. -1.
         11   -1    0    0    0    0 -0.00000000000E+00 -0.00000000000E+00 -0.45593999997E+02  0.45594000000E+02  0.51100000000E-03 0.  1.
    9900012    2    1    2    0    0 -0.14968949893E+02 -0.27233944037E+02 -0.71388593178E+01  0.59301945351E+02  0.50000002414E+02 0.  0.
         12    1    1    2    0    0  0.14968949893E+02  0.27233944037E+02  0.71388593178E+01  0.31886054649E+02  0.00000000000E+00 0. -1.
         11    1    3    3    0    0 -0.13314778882E+02 -0.19745898024E+02 -0.14126201069E+02  0.27689950927E+02  0.51100000000E-03 0. -1.
        -11    1    3    3    0    0 -0.96976655458E+01 -0.15675689079E+02  0.52546871965E+00  0.18440392153E+02  0.51100000000E-03 0.  1.
         12    1    3    3    0    0  0.80434945343E+01  0.81876430656E+01  0.64618730321E+01  0.13171602271E+02  0.00000000000E+00 0. -1.
</event>
<event>
 7    1  0.6164995E-012  0.5930200E+02  0.7816164E-02  0.1266605E+00
        -11   -1    0    0    0    0  0.00000000000E+00  0.00000000000E+00  0.45593999997E+02  0.45594000000E+02  0.51100000000E-03 0.  1.
         11   -1    0    0    0    0 -0.00000000000E+00 -0.00000000000E+00 -0.45593999997E+02  0.45594000000E+02  0.51100000000E-03 0. -1.
    9900012    2    1    2    0    0 -0.72911104834E+01  0.24871596111E+02 -0.18573106685E+02  0.59302001864E+02  0.50000105480E+02 0.  0.
         12    1    1    2    0    0  0.72911104834E+01 -0.24871596111E+02  0.18573106685E+02  0.31885998136E+02  0.00000000000E+00 0. -1.
         11    1    3    3    0    0 -0.91696119156E+01  0.22294270795E+01 -0.45011308246E+01  0.10455252591E+02  0.51100000000E-03 0. -1.
        -11    1    3    3    0    0  0.67574481645E+01 -0.10811992376E+02 -0.17809113196E+01  0.12873769076E+02  0.51100000000E-03 0.  1.
         12    1    3    3    0    0 -0.48789467323E+01  0.33454161407E+02 -0.12291064541E+02  0.35972980197E+02  0.00000000000E+00 0. -1.
</event>
<event>
 7    1  0.6164995E-012  0.5930194E+02  0.7816164E-02  0.1266605E+00
        -11   -1    0    0    0    0  0.00000000000E+00  0.00000000000E+00  0.45593999997E+02  0.45594000000E+02  0.51100000000E-03 0.  1.
         11   -1    0    0    0    0 -0.00000000000E+00 -0.00000000000E+00 -0.45593999997E+02  0.45594000000E+02  0.51100000000E-03 0. -1.
    9900012    2    1    2    0    0  0.17713509041E+02 -0.40755733597E+01  0.26198128624E+02  0.59301942794E+02  0.49999997750E+02 0.  0.
         12    1    1    2    0    0 -0.17713509041E+02  0.40755733597E+01 -0.26198128624E+02  0.31886057206E+02  0.00000000000E+00 0. -1.
         11    1    3    3    0    0  0.13666324678E+02  0.23743058651E+01  0.36630352304E+01  0.14346553102E+02  0.51100000000E-03 0.  1.
        -11    1    3    3    0    0 -0.16653205332E+02 -0.38520847559E+00  0.57448982523E+01  0.17620484942E+02  0.51100000000E-03 0. -1.
         12    1    3    3    0    0  0.20700389695E+02 -0.60646707492E+01  0.16790195141E+02  0.27334904750E+02  0.00000000000E+00 0. -1.
</event>
<event>
 7    1  0.6164995E-012  0.5930194E+02  0.7816164E-02  0.1266605E+00
        -11   -1    0    0    0    0  0.00000000000E+00  0.00000000000E+00  0.45593999997E+02  0.45594000000E+02  0.51100000000E-03 0.  1.
         11   -1    0    0    0    0 -0.00000000000E+00 -0.00000000000E+00 -0.45593999997E+02  0.45594000000E+02  0.51100000000E-03 0. -1.
    9900012    2    1    2    0    0  0.23121097816E+02 -0.19514529637E+02  0.10065707774E+02  0.59301944989E+02  0.50000001753E+02 0.  0.
         12    1    1    2    0    0 -0.23121097816E+02  0.19514529637E+02 -0.10065707774E+02  0.31886055011E+02  0.00000000000E+00 0. -1.
         11    1    3    3    0    0 -0.11463674039E+02 -0.31668238526E+00  0.77918454093E+01  0.13864666074E+02  0.51100000000E-03 0. -1.
        -11    1    3    3    0    0  0.25767048874E+01  0.75542866138E-01  0.72964119302E+01  0.77383940270E+01  0.51100000000E-03 0.  1.
        -12    1    3    3    0    0  0.32008066967E+02 -0.19273390118E+02 -0.50225495650E+01  0.37698884888E+02  0.00000000000E+00 0.  1.
</event>
<event>
 7    1  0.6164995E-012  0.5930197E+02  0.7816164E-02  0.1266605E+00
        -11   -1    0    0    0    0  0.00000000000E+00  0.00000000000E+00  0.45593999997E+02  0.45594000000E+02  0.51100000000E-03 0.  1.
         11   -1    0    0    0    0 -0.00000000000E+00 -0.00000000000E+00 -0.45593999997E+02  0.45594000000E+02  0.51100000000E-03 0. -1.
    9900012    2    1    2    0    0 -0.88565480989E+00  0.55487279876E+01  0.31387038911E+02  0.59301968915E+02  0.50000045389E+02 0.  0.
         12    1    1    2    0    0  0.88565480989E+00 -0.55487279876E+01 -0.31387038911E+02  0.31886031085E+02  0.00000000000E+00 0. -1.
         11    1    3    3    0    0  0.63675658222E+01  0.12277260045E+01  0.72340572049E+01  0.97151834542E+01  0.51100000000E-03 0. -1.
        -11    1    3    3    0    0  0.31886115686E+01 -0.12712080757E+02  0.26407701590E+02  0.29481026855E+02  0.51100000000E-03 0.  1.
        -12    1    3    3    0    0 -0.10441832201E+02  0.17033082741E+02 -0.22547198839E+01  0.20105758606E+02  0.00000000000E+00 0.  1.
</event>
<event>
 7    1  0.6164995E-012  0.5930193E+02  0.7816164E-02  0.1266605E+00
        -11   -1    0    0    0    0  0.00000000000E+00  0.00000000000E+00  0.45593999997E+02  0.45594000000E+02  0.51100000000E-03 0.  1.
         11   -1    0    0    0    0 -0.00000000000E+00 -0.00000000000E+00 -0.45593999997E+02  0.45594000000E+02  0.51100000000E-03 0. -1.
    9900012    2    1    2    0    0 -0.13045484272E+02 -0.21524978096E+02  0.19575800971E+02  0.59301932109E+02  0.49999978263E+02 0.  0.
         12    1    1    2    0    0  0.13045484272E+02  0.21524978096E+02 -0.19575800971E+02  0.31886067891E+02  0.00000000000E+00 0. -1.
         11    1    3    3    0    0 -0.10924890342E+01  0.44648267457E+01  0.70498457000E+00  0.46502917827E+01  0.51100000000E-03 0. -1.
        -11    1    3    3    0    0  0.13190822551E+02 -0.12122384155E+02  0.18755754668E+02  0.25937006971E+02  0.51100000000E-03 0.  1.
         12    1    3    3    0    0 -0.25143817789E+02 -0.13867420687E+02  0.11506173268E+00  0.28714633355E+02  0.00000000000E+00 0. -1.
</event>
<event>
 7    1  0.6164995E-012  0.5930192E+02  0.7816164E-02  0.1266605E+00
        -11   -1    0    0    0    0  0.00000000000E+00  0.00000000000E+00  0.45593999997E+02  0.45594000000E+02  0.51100000000E-03 0.  1.
         11   -1    0    0    0    0 -0.00000000000E+00 -0.00000000000E+00 -0.45593999997E+02  0.45594000000E+02  0.51100000000E-03 0. -1.
    9900012    2    1    2    0    0  0.73412844233E+01  0.17255409521E+02  0.25789113397E+02  0.59301921776E+02  0.49999959418E+02 0.  0.
         12    1    1    2    0    0 -0.73412844233E+01 -0.17255409521E+02 -0.25789113397E+02  0.31886078224E+02  0.00000000000E+00 0. -1.
         11    1    3    3    0    0  0.17575828324E+02  0.14545891519E+02  0.16561954450E+02  0.28192038536E+02  0.51100000000E-03 0. -1.
        -11    1    3    3    0    0  0.40638314177E+01  0.97848844627E+01 -0.29979407181E+01  0.11011191514E+02  0.51100000000E-03 0.  1.
        -12    1    3    3    0    0 -0.14298375318E+02 -0.70753664608E+01  0.12225099665E+02  0.20098691727E+02  0.00000000000E+00 0.  1.
</event>
<event>
 7    1  0.6164995E-012  0.5930199E+02  0.7816164E-02  0.1266605E+00
        -11   -1    0    0    0    0  0.00000000000E+00  0.00000000000E+00  0.45593999997E+02  0.45594000000E+02  0.51100000000E-03 0. -1.
         11   -1    0    0    0    0 -0.00000000000E+00 -0.00000000000E+00 -0.45593999997E+02  0.45594000000E+02  0.51100000000E-03 0.  1.
    9900012    2    1    2    0    0 -0.34380566036E+01  0.31061563680E+02 -0.63305944564E+01  0.59301993703E+02  0.50000090595E+02 0.  0.
         12    1    1    2    0    0  0.34380566036E+01 -0.31061563680E+02  0.63305944564E+01  0.31886006297E+02  0.00000000000E+00 0. -1.
         11    1    3    3    0    0 -0.14754510081E+01  0.92784673580E+01  0.43912061869E+01  0.10370612529E+02  0.51100000000E-03 0. -1.
        -11    1    3    3    0    0 -0.69382962187E+01  0.19954861539E+02  0.12878872373E+02  0.24742712206E+02  0.51100000000E-03 0.  1.
        -12    1    3    3    0    0  0.49756906232E+01  0.18282347825E+01 -0.23600673016E+02  0.24188668967E+02  0.00000000000E+00 0.  1.
</event>
<event>
 7    1  0.6164995E-012  0.5930193E+02  0.7816164E-02  0.1266605E+00
        -11   -1    0    0    0    0  0.00000000000E+00  0.00000000000E+00  0.45593999997E+02  0.45594000000E+02  0.51100000000E-03 0.  1.
         11   -1    0    0    0    0 -0.00000000000E+00 -0.00000000000E+00 -0.45593999997E+02  0.45594000000E+02  0.51100000000E-03 0. -1.
    9900012    2    1    2    0    0  0.51457818786E+01  0.20242289557E+02  0.24093409700E+02  0.59301925475E+02  0.49999966164E+02 0.  0.
         12    1    1    2    0    0 -0.51457818786E+01 -0.20242289557E+02 -0.24093409700E+02  0.31886074525E+02  0.00000000000E+00 0. -1.
         11    1    3    3    0    0  0.10730859018E+02  0.69964358817E+01 -0.27064279197E+01  0.13092982955E+02  0.51100000000E-03 0. -1.
        -11    1    3    3    0    0  0.11269267239E+01 -0.66802790968E+01 -0.47646945039E+01  0.82824155070E+01  0.51100000000E-03 0.  1.
        -12    1    3    3    0    0 -0.67120038630E+01  0.19926132772E+02  0.31564532124E+02  0.37926527013E+02  0.00000000000E+00 0.  1.
</event>
<event>
 7    1  0.6164995E-012  0.5930197E+02  0.7816164E-02  0.1266605E+00
        -11   -1    0    0    0    0  0.00000000000E+00  0.00000000000E+00  0.45593999997E+02  0.45594000000E+02  0.51100000000E-03 0.  1.
         11   -1    0    0    0    0 -0.00000000000E+00 -0.00000000000E+00 -0.45593999997E+02  0.45594000000E+02  0.51100000000E-03 0. -1.
    9900012    2    1    2    0    0 -0.22801100431E+02 -0.17542108341E+02  0.13751475044E+02  0.59301971527E+02  0.50000050152E+02 0.  0.
         12    1    1    2    0    0  0.22801100431E+02  0.17542108341E+02 -0.13751475044E+02  0.31886028473E+02  0.00000000000E+00 0. -1.
         11    1    3    3    0    0 -0.16619751674E+01 -0.74449989730E+01  0.21896624665E+01  0.79362959334E+01  0.51100000000E-03 0. -1.
        -11    1    3    3    0    0 -0.12421693378E+02 -0.10202820688E+02  0.28269529282E+02  0.32520183001E+02  0.51100000000E-03 0.  1.
         12    1    3    3    0    0 -0.87174318859E+01  0.10571131935E+00 -0.16707716705E+02  0.18845492592E+02  0.00000000000E+00 0. -1.
</event>
<event>
 7    1  0.6164995E-012  0.5930191E+02  0.7816164E-02  0.1266605E+00
        -11   -1    0    0    0    0  0.00000000000E+00  0.00000000000E+00  0.45593999997E+02  0.45594000000E+02  0.51100000000E-03 0.  1.
         11   -1    0    0    0    0 -0.00000000000E+00 -0.00000000000E+00 -0.45593999997E+02  0.45594000000E+02  0.51100000000E-03 0. -1.
    9900012    2    1    2    0    0 -0.12292407914E+00 -0.27308236458E+02  0.16461103989E+02  0.59301908466E+02  0.49999935144E+02 0.  0.
         12    1    1    2    0    0  0.12292407914E+00  0.27308236458E+02 -0.16461103989E+02  0.31886091534E+02  0.00000000000E+00 0. -1.
         11    1    3    3    0    0  0.96708093788E+00 -0.15842554913E+02  0.26907029661E+01  0.16098499135E+02  0.51100000000E-03 0.  1.
        -11    1    3    3    0    0 -0.11877081020E+02 -0.22044545091E+02  0.12646823568E+02  0.28052970760E+02  0.51100000000E-03 0. -1.
        -12    1    3    3    0    0  0.10787076003E+02  0.10578863546E+02  0.11235774546E+01  0.15150438571E+02  0.00000000000E+00 0.  1.
</event>
<event>
 7    1  0.6164995E-012  0.5930188E+02  0.7816164E-02  0.1266605E+00
        -11   -1    0    0    0    0  0.00000000000E+00  0.00000000000E+00  0.45593999997E+02  0.45594000000E+02  0.51100000000E-03 0.  1.
         11   -1    0    0    0    0 -0.00000000000E+00 -0.00000000000E+00 -0.45593999997E+02  0.45594000000E+02  0.51100000000E-03 0. -1.
    9900012    2    1    2    0    0  0.18446240441E+02  0.25952648818E+02  0.17090547823E+01  0.59301880209E+02  0.49999883610E+02 0.  0.
         12    1    1    2    0    0 -0.18446240441E+02 -0.25952648818E+02 -0.17090547823E+01  0.31886119791E+02  0.00000000000E+00 0. -1.
         11    1    3    3    0    0 -0.73923912472E+01  0.89170530834E-01 -0.28635393153E+01  0.79281307637E+01  0.51100000000E-03 0. -1.
        -11    1    3    3    0    0  0.78900336324E+01 -0.86083904600E+01  0.44852884724E+01  0.12508989966E+02  0.51100000000E-03 0.  1.
         12    1    3    3    0    0  0.17948598056E+02  0.34471868747E+02  0.87305625210E-01  0.38864759479E+02  0.00000000000E+00 0. -1.
</event>
<event>
 7    1  0.6164995E-012  0.5930189E+02  0.7816164E-02  0.1266605E+00
        -11   -1    0    0    0    0  0.00000000000E+00  0.00000000000E+00  0.45593999997E+02  0.45594000000E+02  0.51100000000E-03 0.  1.
         11   -1    0    0    0    0 -0.00000000000E+00 -0.00000000000E+00 -0.45593999997E+02  0.45594000000E+02  0.51100000000E-03 0. -1.
    9900012    2    1    2    0    0  0.19148978721E+02 -0.45315337687E+01  0.25089956223E+02  0.59301888798E+02  0.49999899273E+02 0.  0.
         12    1    1    2    0    0 -0.19148978721E+02  0.45315337687E+01 -0.25089956223E+02  0.31886111202E+02  0.00000000000E+00 0. -1.
         11    1    3    3    0    0  0.54665318899E+01  0.11568795534E+02  0.84985799532E+01  0.15360529369E+02  0.51100000000E-03 0. -1.
        -11    1    3    3    0    0 -0.85683472964E+01  0.50664664232E+01  0.47162688514E+01  0.11014937565E+02  0.51100000000E-03 0.  1.
         12    1    3    3    0    0  0.22250794127E+02 -0.21166795726E+02  0.11875107418E+02  0.32926421864E+02  0.00000000000E+00 0. -1.
</event>
<event>
 7    1  0.6164995E-012  0.5930192E+02  0.7816164E-02  0.1266605E+00
        -11   -1    0    0    0    0  0.00000000000E+00  0.00000000000E+00  0.45593999997E+02  0.45594000000E+02  0.51100000000E-03 0.  1.
         11   -1    0    0    0    0 -0.00000000000E+00 -0.00000000000E+00 -0.45593999997E+02  0.45594000000E+02  0.51100000000E-03 0. -1.
    9900012    2    1    2    0    0  0.23216927999E+02  0.21450533684E+02 -0.41917437521E+01  0.59301923780E+02  0.49999963073E+02 0.  0.
         12    1    1    2    0    0 -0.23216927999E+02 -0.21450533684E+02  0.41917437521E+01  0.31886076220E+02  0.00000000000E+00 0. -1.
         11    1    3    3    0    0  0.38391162913E+01 -0.21203916667E+01  0.10641463359E+02  0.11509805272E+02  0.51100000000E-03 0. -1.
        -11    1    3    3    0    0  0.24608030853E+02  0.11807230875E+02  0.10897193799E+01  0.27315808097E+02  0.51100000000E-03 0.  1.
         12    1    3    3    0    0 -0.52302191456E+01  0.11763694476E+02 -0.15922926490E+02  0.20476310411E+02  0.00000000000E+00 0. -1.
</event>
<event>
 7    1  0.6164995E-012  0.5930197E+02  0.7816164E-02  0.1266605E+00
        -11   -1    0    0    0    0  0.00000000000E+00  0.00000000000E+00  0.45593999997E+02  0.45594000000E+02  0.51100000000E-03 0. -1.
         11   -1    0    0    0    0 -0.00000000000E+00 -0.00000000000E+00 -0.45593999997E+02  0.45594000000E+02  0.51100000000E-03 0.  1.
    9900012    2    1    2    0    0 -0.26160718841E+02 -0.27868441900E+01 -0.18015801534E+02  0.59301971465E+02  0.50000050039E+02 0.  0.
         12    1    1    2    0    0  0.26160718841E+02  0.27868441900E+01  0.18015801534E+02  0.31886028535E+02  0.00000000000E+00 0. -1.
         11    1    3    3    0    0 -0.71972077140E+01  0.91253342309E+01  0.41389547497E+01  0.12337036532E+02  0.51100000000E-03 0. -1.
        -11    1    3    3    0    0 -0.71185159018E+01 -0.69899486969E+01  0.88974288040E+01  0.13367755646E+02  0.51100000000E-03 0.  1.
        -12    1    3    3    0    0 -0.11844995225E+02 -0.49222297240E+01 -0.31052185088E+02  0.33597179287E+02  0.00000000000E+00 0.  1.
</event>
<event>
 7    1  0.6164995E-012  0.5930207E+02  0.7816164E-02  0.1266604E+00
        -11   -1    0    0    0    0  0.00000000000E+00  0.00000000000E+00  0.45593999997E+02  0.45594000000E+02  0.51100000000E-03 0. -1.
         11   -1    0    0    0    0 -0.00000000000E+00 -0.00000000000E+00 -0.45593999997E+02  0.45594000000E+02  0.51100000000E-03 0.  1.
    9900012    2    1    2    0    0 -0.88718591484E+01 -0.34977615890E+01 -0.30426445896E+02  0.59302065315E+02  0.50000221199E+02 0.  0.
         12    1    1    2    0    0  0.88718591484E+01  0.34977615890E+01  0.30426445896E+02  0.31885934685E+02  0.00000000000E+00 0. -1.
         11    1    3    3    0    0  0.10449869368E+02 -0.54699150362E+01 -0.21177510088E+02  0.24240599706E+02  0.51100000000E-03 0. -1.
        -11    1    3    3    0    0 -0.28783940449E+01 -0.78550410186E+01 -0.13079495899E+02  0.15526108171E+02  0.51100000000E-03 0.  1.
        -12    1    3    3    0    0 -0.16443334472E+02  0.98271944658E+01  0.38305600921E+01  0.19535357438E+02  0.00000000000E+00 0.  1.
</event>
<event>
 7    1  0.6164995E-012  0.5930197E+02  0.7816164E-02  0.1266605E+00
        -11   -1    0    0    0    0  0.00000000000E+00  0.00000000000E+00  0.45593999997E+02  0.45594000000E+02  0.51100000000E-03 0. -1.
         11   -1    0    0    0    0 -0.00000000000E+00 -0.00000000000E+00 -0.45593999997E+02  0.45594000000E+02  0.51100000000E-03 0.  1.
    9900012    2    1    2    0    0  0.17040955250E+02  0.14193601553E+02 -0.22909960940E+02  0.59301971850E+02  0.50000050742E+02 0.  0.
         12    1    1    2    0    0 -0.17040955250E+02 -0.14193601553E+02  0.22909960940E+02  0.31886028150E+02  0.00000000000E+00 0. -1.
         11    1    3    3    0    0 -0.62936406231E+01  0.80637748069E+01  0.39053416355E+01  0.10949249745E+02  0.51100000000E-03 0. -1.
        -11    1    3    3    0    0  0.18150337458E+02  0.14393522658E+02 -0.39577075959E+01  0.23500461570E+02  0.51100000000E-03 0.  1.
        -12    1    3    3    0    0  0.51842584157E+01 -0.82636959123E+01 -0.22857594980E+02  0.24852260535E+02  0.00000000000E+00 0.  1.
</event>
<event>
 7    1  0.6164995E-012  0.5930192E+02  0.7816164E-02  0.1266605E+00
        -11   -1    0    0    0    0  0.00000000000E+00  0.00000000000E+00  0.45593999997E+02  0.45594000000E+02  0.51100000000E-03 0. -1.
         11   -1    0    0    0    0 -0.00000000000E+00 -0.00000000000E+00 -0.45593999997E+02  0.45594000000E+02  0.51100000000E-03 0.  1.
    9900012    2    1    2    0    0  0.39164011116E+01 -0.29683509497E+02 -0.10966900720E+02  0.59301923962E+02  0.49999963404E+02 0.  0.
         12    1    1    2    0    0 -0.39164011116E+01  0.29683509497E+02  0.10966900720E+02  0.31886076038E+02  0.00000000000E+00 0. -1.
         11    1    3    3    0    0 -0.60059595036E+01 -0.14354930192E+02 -0.27351122244E+00  0.15563109555E+02  0.51100000000E-03 0. -1.
        -11    1    3    3    0    0  0.20583975485E+02 -0.16813867322E+02 -0.16721920759E+02  0.31401095765E+02  0.51100000000E-03 0.  1.
        -12    1    3    3    0    0 -0.10661614870E+02  0.14852880167E+01  0.60285312615E+01  0.12337718642E+02  0.00000000000E+00 0.  1.
</event>
<event>
 7    1  0.6164995E-012  0.5930192E+02  0.7816164E-02  0.1266605E+00
        -11   -1    0    0    0    0  0.00000000000E+00  0.00000000000E+00  0.45593999997E+02  0.45594000000E+02  0.51100000000E-03 0.  1.
         11   -1    0    0    0    0 -0.00000000000E+00 -0.00000000000E+00 -0.45593999997E+02  0.45594000000E+02  0.51100000000E-03 0. -1.
    9900012    2    1    2    0    0 -0.17278583689E+02 -0.26707270923E+02  0.22122553571E+01  0.59301923913E+02  0.49999963316E+02 0.  0.
         12    1    1    2    0    0  0.17278583689E+02  0.26707270923E+02 -0.22122553571E+01  0.31886076087E+02  0.00000000000E+00 0. -1.
         11    1    3    3    0    0 -0.23500035902E+02 -0.13042190828E+01 -0.57368205915E+00  0.23543189805E+02  0.51100000000E-03 0. -1.
        -11    1    3    3    0    0  0.39369106253E+01 -0.77238344411E+01 -0.10433917943E+02  0.13565527179E+02  0.51100000000E-03 0.  1.
        -12    1    3    3    0    0  0.22845415876E+01 -0.17679217399E+02  0.13219855359E+02  0.22193206930E+02  0.00000000000E+00 0.  1.
</event>
<event>
 7    1  0.6164995E-012  0.5930195E+02  0.7816164E-02  0.1266605E+00
        -11   -1    0    0    0    0  0.00000000000E+00  0.00000000000E+00  0.45593999997E+02  0.45594000000E+02  0.51100000000E-03 0. -1.
         11   -1    0    0    0    0 -0.00000000000E+00 -0.00000000000E+00 -0.45593999997E+02  0.45594000000E+02  0.51100000000E-03 0.  1.
    9900012    2    1    2    0    0 -0.25187899828E+02  0.16507482297E+02 -0.10478225115E+02  0.59301945507E+02  0.50000002698E+02 0.  0.
         12    1    1    2    0    0  0.25187899828E+02 -0.16507482297E+02  0.10478225115E+02  0.31886054493E+02  0.00000000000E+00 0. -1.
         11    1    3    3    0    0 -0.21263068553E+02  0.10126275407E+02 -0.20675390654E+01  0.23641790456E+02  0.51100000000E-03 0. -1.
        -11    1    3    3    0    0 -0.16597198338E+02 -0.85123136644E+00 -0.12162978130E+02  0.20594407609E+02  0.51100000000E-03 0.  1.
         12    1    3    3    0    0  0.12672367063E+02  0.72324382569E+01  0.37522920807E+01  0.15065747442E+02  0.00000000000E+00 0. -1.
</event>
<event>
 7    1  0.6164995E-012  0.5930191E+02  0.7816164E-02  0.1266605E+00
        -11   -1    0    0    0    0  0.00000000000E+00  0.00000000000E+00  0.45593999997E+02  0.45594000000E+02  0.51100000000E-03 0. -1.
         11   -1    0    0    0    0 -0.00000000000E+00 -0.00000000000E+00 -0.45593999997E+02  0.45594000000E+02  0.51100000000E-03 0.  1.
    9900012    2    1    2    0    0 -0.28023288690E+02 -0.15162405376E+02  0.12325875725E+01  0.59301913412E+02  0.49999944165E+02 0.  0.
         12    1    1    2    0    0  0.28023288690E+02  0.15162405376E+02 -0.12325875725E+01  0.31886086588E+02  0.00000000000E+00 0. -1.
         11    1    3    3    0    0 -0.81459675490E+01 -0.43639297560E+01 -0.15429519270E+02  0.17985292196E+02  0.51100000000E-03 0. -1.
        -11    1    3    3    0    0 -0.14492758890E+01 -0.98217497825E+01 -0.63757227578E+01  0.11799025822E+02  0.51100000000E-03 0.  1.
         12    1    3    3    0    0 -0.18428045252E+02 -0.97672583711E+00  0.23037829600E+02  0.29517595394E+02  0.00000000000E+00 0. -1.
</event>
<event>
 7    1  0.6164995E-012  0.5930192E+02  0.7816164E-02  0.1266605E+00
        -11   -1    0    0    0    0  0.00000000000E+00  0.00000000000E+00  0.45593999997E+02  0.45594000000E+02  0.51100000000E-03 0. -1.
         11   -1    0    0    0    0 -0.00000000000E+00 -0.00000000000E+00 -0.45593999997E+02  0.45594000000E+02  0.51100000000E-03 0.  1.
    9900012    2    1    2    0    0 -0.43289839282E+01  0.30743068017E+02 -0.72695177330E+01  0.59301918067E+02  0.49999952654E+02 0.  0.
         12    1    1    2    0    0  0.43289839282E+01 -0.30743068017E+02  0.72695177330E+01  0.31886081933E+02  0.00000000000E+00 0. -1.
         11    1    3    3    0    0 -0.88139005457E+01 -0.28210482817E+01  0.27536528719E+01  0.96553488097E+01  0.51100000000E-03 0. -1.
        -11    1    3    3    0    0  0.16117656266E+02  0.71963641520E+01 -0.11021329191E+02  0.20809521809E+02  0.51100000000E-03 0.  1.
         12    1    3    3    0    0 -0.11632739648E+02  0.26367752147E+02  0.99815858630E+00  0.28837047449E+02  0.00000000000E+00 0. -1.
</event>
<event>
 7    1  0.6164995E-012  0.5930198E+02  0.7816164E-02  0.1266605E+00
        -11   -1    0    0    0    0  0.00000000000E+00  0.00000000000E+00  0.45593999997E+02  0.45594000000E+02  0.51100000000E-03 0.  1.
         11   -1    0    0    0    0 -0.00000000000E+00 -0.00000000000E+00 -0.45593999997E+02  0.45594000000E+02  0.51100000000E-03 0. -1.
    9900012    2    1    2    0    0 -0.41769917079E+00 -0.19236283927E+02  0.25426543014E+02  0.59301981409E+02  0.50000068175E+02 0.  0.
         12    1    1    2    0    0  0.41769917079E+00  0.19236283927E+02 -0.25426543014E+02  0.31886018591E+02  0.00000000000E+00 0. -1.
         11    1    3    3    0    0  0.76964750593E+01  0.15852358780E+01  0.12475934008E+02  0.14744410153E+02  0.51100000000E-03 0. -1.
        -11    1    3    3    0    0 -0.82411493440E+01  0.24725407068E+01  0.18682291769E+02  0.20568374414E+02  0.51100000000E-03 0.  1.
         12    1    3    3    0    0  0.12697511384E+00 -0.23294060512E+02 -0.57316827627E+01  0.23989196842E+02  0.00000000000E+00 0. -1.
</event>
<event>
 7    1  0.6164995E-012  0.5930188E+02  0.7816164E-02  0.1266605E+00
        -11   -1    0    0    0    0  0.00000000000E+00  0.00000000000E+00  0.45593999997E+02  0.45594000000E+02  0.51100000000E-03 0.  1.
         11   -1    0    0    0    0 -0.00000000000E+00 -0.00000000000E+00 -0.45593999997E+02  0.45594000000E+02  0.51100000000E-03 0. -1.
    9900012    2    1    2    0    0 -0.25953351748E+02 -0.13047872143E+02  0.13149195249E+02  0.59301878095E+02  0.49999879755E+02 0.  0.
         12    1    1    2    0    0  0.25953351748E+02  0.13047872143E+02 -0.13149195249E+02  0.31886121905E+02  0.00000000000E+00 0. -1.
         11    1    3    3    0    0 -0.19821898628E+02 -0.16998171141E+02  0.19318194271E+02  0.32481350303E+02  0.51100000000E-03 0. -1.
        -11    1    3    3    0    0  0.64688299760E+01 -0.60662667437E+01  0.14937104413E+01  0.89931376398E+01  0.51100000000E-03 0.  1.
         12    1    3    3    0    0 -0.12600283096E+02  0.10016565742E+02 -0.76627094628E+01  0.17827390153E+02  0.00000000000E+00 0. -1.
</event>
<event>
 7    1  0.6164995E-012  0.5930196E+02  0.7816164E-02  0.1266605E+00
        -11   -1    0    0    0    0  0.00000000000E+00  0.00000000000E+00  0.45593999997E+02  0.45594000000E+02  0.51100000000E-03 0.  1.
         11   -1    0    0    0    0 -0.00000000000E+00 -0.00000000000E+00 -0.45593999997E+02  0.45594000000E+02  0.51100000000E-03 0. -1.
    9900012    2    1    2    0    0  0.30734510190E+02 -0.98224518591E+00  0.84347275941E+01  0.59301959922E+02  0.50000028988E+02 0.  0.
         12    1    1    2    0    0 -0.30734510190E+02  0.98224518591E+00 -0.84347275941E+01  0.31886040078E+02  0.00000000000E+00 0. -1.
         11    1    3    3    0    0 -0.41785135143E+01  0.11927338637E+02  0.76254401341E+01  0.14760376677E+02  0.51100000000E-03 0. -1.
        -11    1    3    3    0    0  0.23110075544E+01  0.57110561964E+00 -0.78602218821E+01  0.82127952515E+01  0.51100000000E-03 0.  1.
        -12    1    3    3    0    0  0.32602016150E+02 -0.13480689442E+02  0.86695093422E+01  0.36328787994E+02  0.00000000000E+00 0.  1.
</event>
<event>
 7    1  0.6164995E-012  0.5930194E+02  0.7816164E-02  0.1266605E+00
        -11   -1    0    0    0    0  0.00000000000E+00  0.00000000000E+00  0.45593999997E+02  0.45594000000E+02  0.51100000000E-03 0. -1.
         11   -1    0    0    0    0 -0.00000000000E+00 -0.00000000000E+00 -0.45593999997E+02  0.45594000000E+02  0.51100000000E-03 0.  1.
    9900012    2    1    2    0    0 -0.18939649626E+02  0.24908293781E+02 -0.61308819356E+01  0.59301935013E+02  0.49999983560E+02 0.  0.
         12    1    1    2    0    0  0.18939649626E+02 -0.24908293781E+02  0.61308819356E+01  0.31886064987E+02  0.00000000000E+00 0. -1.
         11    1    3    3    0    0  0.33734061359E+01  0.16172344410E+02 -0.77190560133E+00  0.16538453107E+02  0.51100000000E-03 0. -1.
        -11    1    3    3    0    0 -0.15333842409E+02  0.87966127708E+01 -0.19909817835E+02  0.26625325646E+02  0.51100000000E-03 0.  1.
         12    1    3    3    0    0 -0.69792133532E+01 -0.60663399994E-01  0.14550841501E+02  0.16138156260E+02  0.00000000000E+00 0. -1.
</event>
<event>
 7    1  0.6164995E-012  0.5930189E+02  0.7816164E-02  0.1266605E+00
        -11   -1    0    0    0    0  0.00000000000E+00  0.00000000000E+00  0.45593999997E+02  0.45594000000E+02  0.51100000000E-03 0. -1.
         11   -1    0    0    0    0 -0.00000000000E+00 -0.00000000000E+00 -0.45593999997E+02  0.45594000000E+02  0.51100000000E-03 0.  1.
    9900012    2    1    2    0    0  0.19444634229E+02 -0.22873239557E+02 -0.10744540081E+02  0.59301889706E+02  0.49999900930E+02 0.  0.
         12    1    1    2    0    0 -0.19444634229E+02  0.22873239557E+02  0.10744540081E+02  0.31886110294E+02  0.00000000000E+00 0. -1.
         11    1    3    3    0    0  0.58678199112E+01  0.67983729911E+00 -0.49180793410E+01  0.76864161954E+01  0.51100000000E-03 0. -1.
        -11    1    3    3    0    0  0.65616004975E+01 -0.10106772727E+02 -0.24652784531E+02  0.27440139239E+02  0.51100000000E-03 0.  1.
         12    1    3    3    0    0  0.70152138204E+01 -0.13446304129E+02  0.18826323791E+02  0.24175334272E+02  0.00000000000E+00 0. -1.
</event>
<event>
 7    1  0.6164995E-012  0.5930193E+02  0.7816164E-02  0.1266605E+00
        -11   -1    0    0    0    0  0.00000000000E+00  0.00000000000E+00  0.45593999997E+02  0.45594000000E+02  0.51100000000E-03 0. -1.
         11   -1    0    0    0    0 -0.00000000000E+00 -0.00000000000E+00 -0.45593999997E+02  0.45594000000E+02  0.51100000000E-03 0.  1.
    9900012    2    1    2    0    0 -0.14587919648E+02  0.13932510181E+02 -0.24694109269E+02  0.59301932946E+02  0.49999979789E+02 0.  0.
         12    1    1    2    0    0  0.14587919648E+02 -0.13932510181E+02  0.24694109269E+02  0.31886067054E+02  0.00000000000E+00 0. -1.
         11    1    3    3    0    0  0.40228147310E+01 -0.99152116944E+01  0.23616907489E+01  0.10957739035E+02  0.51100000000E-03 0. -1.
        -11    1    3    3    0    0 -0.12825211462E+02  0.11996589420E+02 -0.30064151530E+02  0.34817487190E+02  0.51100000000E-03 0.  1.
         12    1    3    3    0    0 -0.57855229167E+01  0.11851132455E+02  0.30083515114E+01  0.13526706721E+02  0.00000000000E+00 0. -1.
</event>
<event>
 7    1  0.6164995E-012  0.5930195E+02  0.7816164E-02  0.1266605E+00
        -11   -1    0    0    0    0  0.00000000000E+00  0.00000000000E+00  0.45593999997E+02  0.45594000000E+02  0.51100000000E-03 0. -1.
         11   -1    0    0    0    0 -0.00000000000E+00 -0.00000000000E+00 -0.45593999997E+02  0.45594000000E+02  0.51100000000E-03 0.  1.
    9900012    2    1    2    0    0  0.22681777976E+02 -0.20701387928E+02  0.85854228038E+01  0.59301952910E+02  0.50000016200E+02 0.  0.
         12    1    1    2    0    0 -0.22681777976E+02  0.20701387928E+02 -0.85854228038E+01  0.31886047090E+02  0.00000000000E+00 0. -1.
         11    1    3    3    0    0  0.37752765391E+01 -0.12802937259E+02  0.21763778736E+02  0.25530961215E+02  0.51100000000E-03 0. -1.
        -11    1    3    3    0    0  0.14801169120E+01 -0.97102565682E+01  0.26349232006E+01  0.10169692681E+02  0.51100000000E-03 0.  1.
        -12    1    3    3    0    0  0.17426384525E+02  0.18118058996E+01 -0.15813279133E+02  0.23601299014E+02  0.00000000000E+00 0.  1.
</event>
<event>
 7    1  0.6164995E-012  0.5930199E+02  0.7816164E-02  0.1266605E+00
        -11   -1    0    0    0    0  0.00000000000E+00  0.00000000000E+00  0.45593999997E+02  0.45594000000E+02  0.51100000000E-03 0.  1.
         11   -1    0    0    0    0 -0.00000000000E+00 -0.00000000000E+00 -0.45593999997E+02  0.45594000000E+02  0.51100000000E-03 0. -1.
    9900012    2    1    2    0    0 -0.28077649648E+02 -0.95835510418E+01  0.11684128202E+02  0.59301988770E+02  0.50000081598E+02 0.  0.
         12    1    1    2    0    0  0.28077649648E+02  0.95835510418E+01 -0.11684128202E+02  0.31886011230E+02  0.00000000000E+00 0. -1.
         11    1    3    3    0    0 -0.67989366551E+01  0.11905964670E+02 -0.24968785606E+00  0.13712763348E+02  0.51100000000E-03 0.  1.
        -11    1    3    3    0    0 -0.56486923044E+00  0.51490803198E+01  0.10623966251E+02  0.11819507797E+02  0.51100000000E-03 0. -1.
         12    1    3    3    0    0 -0.20713843763E+02 -0.26638596031E+02  0.13098498070E+01  0.33769717625E+02  0.00000000000E+00 0. -1.
</event>
<event>
 7    1  0.6164995E-012  0.5930197E+02  0.7816164E-02  0.1266605E+00
        -11   -1    0    0    0    0  0.00000000000E+00  0.00000000000E+00  0.45593999997E+02  0.45594000000E+02  0.51100000000E-03 0.  1.
         11   -1    0    0    0    0 -0.00000000000E+00 -0.00000000000E+00 -0.45593999997E+02  0.45594000000E+02  0.51100000000E-03 0. -1.
    9900012    2    1    2    0    0  0.13906096170E+02 -0.26189700184E+01 -0.28574118208E+02  0.59301972559E+02  0.50000052034E+02 0.  0.
         12    1    1    2    0    0 -0.13906096170E+02  0.26189700184E+01  0.28574118208E+02  0.31886027441E+02  0.00000000000E+00 0. -1.
         11    1    3    3    0    0 -0.29482940688E+01  0.26074497029E+01 -0.60978164413E-01  0.39363625935E+01  0.51100000000E-03 0. -1.
        -11    1    3    3    0    0  0.25705571848E+02  0.73660338691E+01 -0.29655871257E+02  0.39931260678E+02  0.51100000000E-03 0.  1.
         12    1    3    3    0    0 -0.88511816097E+01 -0.12592453590E+02  0.11427312144E+01  0.15434349288E+02  0.00000000000E+00 0. -1.
</event>
<event>
 7    1  0.6164995E-012  0.5930193E+02  0.7816164E-02  0.1266605E+00
        -11   -1    0    0    0    0  0.00000000000E+00  0.00000000000E+00  0.45593999997E+02  0.45594000000E+02  0.51100000000E-03 0.  1.
         11   -1    0    0    0    0 -0.00000000000E+00 -0.00000000000E+00 -0.45593999997E+02  0.45594000000E+02  0.51100000000E-03 0. -1.
    9900012    2    1    2    0    0 -0.12572841390E+02  0.22110023023E+02  0.19229982280E+02  0.59301926595E+02  0.49999968207E+02 0.  0.
         12    1    1    2    0    0  0.12572841390E+02 -0.22110023023E+02 -0.19229982280E+02  0.31886073405E+02  0.00000000000E+00 0. -1.
         11    1    3    3    0    0 -0.21604978064E+02  0.14057474261E+02 -0.25853991548E+01  0.25905056433E+02  0.51100000000E-03 0. -1.
        -11    1    3    3    0    0 -0.29683188330E+00  0.14137516856E+02  0.12631139340E+02  0.18960568908E+02  0.51100000000E-03 0.  1.
        -12    1    3    3    0    0  0.93289685566E+01 -0.60849680947E+01  0.91842420948E+01  0.14436301254E+02  0.00000000000E+00 0.  1.
</event>
<event>
 7    1  0.6164995E-012  0.5930193E+02  0.7816164E-02  0.1266605E+00
        -11   -1    0    0    0    0  0.00000000000E+00  0.00000000000E+00  0.45593999997E+02  0.45594000000E+02  0.51100000000E-03 0. -1.
         11   -1    0    0    0    0 -0.00000000000E+00 -0.00000000000E+00 -0.45593999997E+02  0.45594000000E+02  0.51100000000E-03 0.  1.
    9900012    2    1    2    0    0  0.30542235948E+02  0.79114735392E+00 -0.91251039994E+01  0.59301927589E+02  0.49999970019E+02 0.  0.
         12    1    1    2    0    0 -0.30542235948E+02 -0.79114735392E+00  0.91251039994E+01  0.31886072411E+02  0.00000000000E+00 0. -1.
         11    1    3    3    0    0  0.97874712050E+01 -0.73125216228E+01 -0.69897220295E+01  0.14075644901E+02  0.51100000000E-03 0. -1.
        -11    1    3    3    0    0  0.27746939800E+02  0.74565653235E+01 -0.13595666536E+02  0.31785770142E+02  0.51100000000E-03 0.  1.
         12    1    3    3    0    0 -0.69921750572E+01  0.64710365325E+00  0.11460284566E+02  0.13440512546E+02  0.00000000000E+00 0. -1.
</event>
<event>
 7    1  0.6164995E-012  0.5930194E+02  0.7816164E-02  0.1266605E+00
        -11   -1    0    0    0    0  0.00000000000E+00  0.00000000000E+00  0.45593999997E+02  0.45594000000E+02  0.51100000000E-03 0. -1.
         11   -1    0    0    0    0 -0.00000000000E+00 -0.00000000000E+00 -0.45593999997E+02  0.45594000000E+02  0.51100000000E-03 0.  1.
    9900012    2    1    2    0    0  0.23666199380E+02  0.19581765544E+02 -0.85549083884E+01  0.59301937332E+02  0.49999987789E+02 0.  0.
         12    1    1    2    0    0 -0.23666199380E+02 -0.19581765544E+02  0.85549083884E+01  0.31886062668E+02  0.00000000000E+00 0. -1.
         11    1    3    3    0    0  0.20189929567E+02 -0.11085990121E+02  0.15024797566E+01  0.23082241628E+02  0.51100000000E-03 0. -1.
        -11    1    3    3    0    0  0.61773051753E+01  0.28304275207E+01 -0.13515975691E+01  0.69280037116E+01  0.51100000000E-03 0.  1.
         12    1    3    3    0    0 -0.27010353620E+01  0.27837328144E+02 -0.87057905759E+01  0.29291691993E+02  0.00000000000E+00 0. -1.
</event>
<event>
 7    1  0.6164995E-012  0.5930211E+02  0.7816164E-02  0.1266604E+00
        -11   -1    0    0    0    0  0.00000000000E+00  0.00000000000E+00  0.45593999997E+02  0.45594000000E+02  0.51100000000E-03 0.  1.
         11   -1    0    0    0    0 -0.00000000000E+00 -0.00000000000E+00 -0.45593999997E+02  0.45594000000E+02  0.51100000000E-03 0. -1.
    9900012    2    1    2    0    0  0.94303730897E+01  0.31278416225E+01  0.30298422503E+02  0.59302113844E+02  0.50000309703E+02 0.  0.
         12    1    1    2    0    0 -0.94303730897E+01 -0.31278416225E+01 -0.30298422503E+02  0.31885886156E+02  0.00000000000E+00 0. -1.
         11    1    3    3    0    0  0.21848648162E+01  0.79248840536E+01 -0.43981304000E+01  0.93231417883E+01  0.51100000000E-03 0. -1.
        -11    1    3    3    0    0 -0.37439998570E+01  0.11645569207E+02  0.25259896759E+02  0.28065979434E+02  0.51100000000E-03 0.  1.
         12    1    3    3    0    0  0.10989508131E+02 -0.16442611638E+02  0.94366561440E+01  0.21912992621E+02  0.00000000000E+00 0. -1.
</event>
<event>
 7    1  0.6164995E-012  0.5930183E+02  0.7816164E-02  0.1266605E+00
        -11   -1    0    0    0    0  0.00000000000E+00  0.00000000000E+00  0.45593999997E+02  0.45594000000E+02  0.51100000000E-03 0.  1.
         11   -1    0    0    0    0 -0.00000000000E+00 -0.00000000000E+00 -0.45593999997E+02  0.45594000000E+02  0.51100000000E-03 0. -1.
    9900012    2    1    2    0    0  0.68502770679E+01  0.20828115605E+02  0.23151482378E+02  0.59301830085E+02  0.49999792195E+02 0.  0.
         12    1    1    2    0    0 -0.68502770679E+01 -0.20828115605E+02 -0.23151482378E+02  0.31886169915E+02  0.00000000000E+00 0. -1.
         11    1    3    3    0    0 -0.31368677058E+01 -0.11982453601E+02  0.11525021090E+02  0.16918783783E+02  0.51100000000E-03 0. -1.
        -11    1    3    3    0    0  0.73577096147E+01  0.13104772834E+01 -0.23316203996E+01  0.78287735587E+01  0.51100000000E-03 0.  1.
        -12    1    3    3    0    0  0.26294351590E+01  0.31500091923E+02  0.13958081688E+02  0.34554272743E+02  0.00000000000E+00 0.  1.
</event>
<event>
 7    1  0.6164995E-012  0.5930193E+02  0.7816164E-02  0.1266605E+00
        -11   -1    0    0    0    0  0.00000000000E+00  0.00000000000E+00  0.45593999997E+02  0.45594000000E+02  0.51100000000E-03 0. -1.
         11   -1    0    0    0    0 -0.00000000000E+00 -0.00000000000E+00 -0.45593999997E+02  0.45594000000E+02  0.51100000000E-03 0.  1.
    9900012    2    1    2    0    0  0.78204580583E+00  0.20868534509E+02 -0.24095929479E+02  0.59301934930E+02  0.49999983407E+02 0.  0.
         12    1    1    2    0    0 -0.78204580583E+00 -0.20868534509E+02  0.24095929479E+02  0.31886065070E+02  0.00000000000E+00 0. -1.
         11    1    3    3    0    0  0.77671574925E+01 -0.33906684614E+01  0.29639384590E+01  0.89783238735E+01  0.51100000000E-03 0. -1.
        -11    1    3    3    0    0  0.13596130865E+01  0.24460453320E+02 -0.27877631288E+01  0.24656316592E+02  0.51100000000E-03 0.  1.
        -12    1    3    3    0    0 -0.83447247732E+01 -0.20125034873E+00 -0.24272104809E+02  0.25667294464E+02  0.00000000000E+00 0.  1.
</event>
<event>
 7    1  0.6164995E-012  0.5930195E+02  0.7816164E-02  0.1266605E+00
        -11   -1    0    0    0    0  0.00000000000E+00  0.00000000000E+00  0.45593999997E+02  0.45594000000E+02  0.51100000000E-03 0.  1.
         11   -1    0    0    0    0 -0.00000000000E+00 -0.00000000000E+00 -0.45593999997E+02  0.45594000000E+02  0.51100000000E-03 0. -1.
    9900012    2    1    2    0    0  0.95852253833E+01  0.15540949118E+02  0.26140434952E+02  0.59301953136E+02  0.50000016612E+02 0.  0.
         12    1    1    2    0    0 -0.95852253833E+01 -0.15540949118E+02 -0.26140434952E+02  0.31886046864E+02  0.00000000000E+00 0. -1.
         11    1    3    3    0    0 -0.81600167099E+01  0.15739815221E+02  0.41345710633E+01  0.18205008488E+02  0.51100000000E-03 0. -1.
        -11    1    3    3    0    0 -0.76672027915E+01 -0.44995860434E+01  0.65714610467E+01  0.11055151458E+02  0.51100000000E-03 0.  1.
         12    1    3    3    0    0  0.25412444885E+02  0.43007199396E+01  0.15434402842E+02  0.30041793190E+02  0.00000000000E+00 0. -1.
</event>
<event>
 7    1  0.6164995E-012  0.5930194E+02  0.7816164E-02  0.1266605E+00
        -11   -1    0    0    0    0  0.00000000000E+00  0.00000000000E+00  0.45593999997E+02  0.45594000000E+02  0.51100000000E-03 0. -1.
         11   -1    0    0    0    0 -0.00000000000E+00 -0.00000000000E+00 -0.45593999997E+02  0.45594000000E+02  0.51100000000E-03 0.  1.
    9900012    2    1    2    0    0  0.96457949982E+01 -0.24680536788E+02 -0.17735566836E+02  0.59301943670E+02  0.49999999348E+02 0.  0.
         12    1    1    2    0    0 -0.96457949982E+01  0.24680536788E+02  0.17735566836E+02  0.31886056330E+02  0.00000000000E+00 0. -1.
         11    1    3    3    0    0  0.89344395358E+01 -0.68779565750E+01  0.76191520440E+01  0.13608158384E+02  0.51100000000E-03 0. -1.
        -11    1    3    3    0    0  0.73597844464E+01 -0.17612884344E+02  0.40118116718E+00  0.19092958613E+02  0.51100000000E-03 0.  1.
        -12    1    3    3    0    0 -0.66484289839E+01 -0.18969586940E+00 -0.25755900047E+02  0.26600826674E+02  0.00000000000E+00 0.  1.
</event>
<event>
 7    1  0.6164995E-012  0.5930200E+02  0.7816164E-02  0.1266605E+00
        -11   -1    0    0    0    0  0.00000000000E+00  0.00000000000E+00  0.45593999997E+02  0.45594000000E+02  0.51100000000E-03 0.  1.
         11   -1    0    0    0    0 -0.00000000000E+00 -0.00000000000E+00 -0.45593999997E+02  0.45594000000E+02  0.51100000000E-03 0. -1.
    9900012    2    1    2    0    0  0.13779894450E+02 -0.22529817283E+02  0.17867256053E+02  0.59301999989E+02  0.50000102060E+02 0.  0.
         12    1    1    2    0    0 -0.13779894450E+02  0.22529817283E+02 -0.17867256053E+02  0.31886000011E+02  0.00000000000E+00 0. -1.
         11    1    3    3    0    0 -0.54194246477E+01 -0.24945034175E+01  0.92018041596E+01  0.10966581549E+02  0.51100000000E-03 0. -1.
        -11    1    3    3    0    0  0.35025861387E+00  0.85430198216E+01  0.11103568426E+02  0.14014103640E+02  0.51100000000E-03 0.  1.
        -12    1    3    3    0    0  0.18849060483E+02 -0.28578333687E+02 -0.24381165329E+01  0.34321314801E+02  0.00000000000E+00 0.  1.
</event>
<event>
 7    1  0.6164995E-012  0.5930189E+02  0.7816164E-02  0.1266605E+00
        -11   -1    0    0    0    0  0.00000000000E+00  0.00000000000E+00  0.45593999997E+02  0.45594000000E+02  0.51100000000E-03 0.  1.
         11   -1    0    0    0    0 -0.00000000000E+00 -0.00000000000E+00 -0.45593999997E+02  0.45594000000E+02  0.51100000000E-03 0. -1.
    9900012    2    1    2    0    0  0.10981296564E+02  0.16397815002E+02  0.25044891755E+02  0.59301893086E+02  0.49999907095E+02 0.  0.
         12    1    1    2    0    0 -0.10981296564E+02 -0.16397815002E+02 -0.25044891755E+02  0.31886106914E+02  0.00000000000E+00 0. -1.
         11    1    3    3    0    0  0.20143482983E+02 -0.22598130989E+01  0.87259372085E+01  0.22068272301E+02  0.51100000000E-03 0. -1.
        -11    1    3    3    0    0 -0.41224336831E+01 -0.75350944361E-01  0.17324630716E+02  0.17808508274E+02  0.51100000000E-03 0.  1.
        -12    1    3    3    0    0 -0.50397527352E+01  0.18732979045E+02 -0.10056761691E+01  0.19425112511E+02  0.00000000000E+00 0.  1.
</event>
<event>
 7    1  0.6164995E-012  0.5930191E+02  0.7816164E-02  0.1266605E+00
        -11   -1    0    0    0    0  0.00000000000E+00  0.00000000000E+00  0.45593999997E+02  0.45594000000E+02  0.51100000000E-03 0. -1.
         11   -1    0    0    0    0 -0.00000000000E+00 -0.00000000000E+00 -0.45593999997E+02  0.45594000000E+02  0.51100000000E-03 0.  1.
    9900012    2    1    2    0    0 -0.19989924610E+02 -0.39115648920E+01 -0.24532126902E+02  0.59301910931E+02  0.49999939639E+02 0.  0.
         12    1    1    2    0    0  0.19989924610E+02  0.39115648920E+01  0.24532126902E+02  0.31886089069E+02  0.00000000000E+00 0. -1.
         11    1    3    3    0    0  0.15530854459E+01 -0.93250491206E+01  0.50209106328E+01  0.10704118803E+02  0.51100000000E-03 0. -1.
        -11    1    3    3    0    0 -0.80389227097E+01 -0.11359219494E+02 -0.26970116362E+01  0.14174978584E+02  0.51100000000E-03 0.  1.
         12    1    3    3    0    0 -0.13504087346E+02  0.16772703722E+02 -0.26856025899E+02  0.34422813544E+02  0.00000000000E+00 0. -1.
</event>
<event>
 7    1  0.6164995E-012  0.5930198E+02  0.7816164E-02  0.1266605E+00
        -11   -1    0    0    0    0  0.00000000000E+00  0.00000000000E+00  0.45593999997E+02  0.45594000000E+02  0.51100000000E-03 0. -1.
         11   -1    0    0    0    0 -0.00000000000E+00 -0.00000000000E+00 -0.45593999997E+02  0.45594000000E+02  0.51100000000E-03 0.  1.
    9900012    2    1    2    0    0  0.15810697728E+02 -0.19566639862E+02  0.19593029798E+02  0.59301978379E+02  0.50000062648E+02 0.  0.
         12    1    1    2    0    0 -0.15810697728E+02  0.19566639862E+02 -0.19593029798E+02  0.31886021621E+02  0.00000000000E+00 0. -1.
         11    1    3    3    0    0  0.72876317040E+01 -0.13195670249E+02  0.19529793040E+02  0.24670794589E+02  0.51100000000E-03 0. -1.
        -11    1    3    3    0    0  0.66184258109E+01 -0.19896983289E+02  0.25357647837E+00  0.20970403084E+02  0.51100000000E-03 0.  1.
         12    1    3    3    0    0  0.19046402133E+01  0.13526013676E+02 -0.19033972005E+00  0.13660780706E+02  0.00000000000E+00 0. -1.
</event>
<event>
 7    1  0.6164995E-012  0.5930194E+02  0.7816164E-02  0.1266605E+00
        -11   -1    0    0    0    0  0.00000000000E+00  0.00000000000E+00  0.45593999997E+02  0.45594000000E+02  0.51100000000E-03 0. -1.
         11   -1    0    0    0    0 -0.00000000000E+00 -0.00000000000E+00 -0.45593999997E+02  0.45594000000E+02  0.51100000000E-03 0.  1.
    9900012    2    1    2    0    0  0.28192737653E+02  0.13893424446E+01  0.14831047081E+02  0.59301942132E+02  0.49999996543E+02 0.  0.
         12    1    1    2    0    0 -0.28192737653E+02 -0.13893424446E+01 -0.14831047081E+02  0.31886057868E+02  0.00000000000E+00 0. -1.
         11    1    3    3    0    0  0.10206341168E+02 -0.76347457527E+01  0.22151450537E+02  0.25556711523E+02  0.51100000000E-03 0. -1.
        -11    1    3    3    0    0  0.19753188284E+02  0.62479740823E+00  0.33565424931E+01  0.20046076847E+02  0.51100000000E-03 0.  1.
        -12    1    3    3    0    0 -0.17667917989E+01  0.83992907890E+01 -0.10676945948E+02  0.13699153762E+02  0.00000000000E+00 0.  1.
</event>
<event>
 7    1  0.6164995E-012  0.5930187E+02  0.7816164E-02  0.1266605E+00
        -11   -1    0    0    0    0  0.00000000000E+00  0.00000000000E+00  0.45593999997E+02  0.45594000000E+02  0.51100000000E-03 0.  1.
         11   -1    0    0    0    0 -0.00000000000E+00 -0.00000000000E+00 -0.45593999997E+02  0.45594000000E+02  0.51100000000E-03 0. -1.
    9900012    2    1    2    0    0  0.20603781203E+02 -0.68024239371E+01  0.23365288611E+02  0.59301866914E+02  0.49999859364E+02 0.  0.
         12    1    1    2    0    0 -0.20603781203E+02  0.68024239371E+01 -0.23365288611E+02  0.31886133086E+02  0.00000000000E+00 0. -1.
         11    1    3    3    0    0  0.55576559079E+01  0.14327914470E+02  0.11238823490E+02  0.19039113055E+02  0.51100000000E-03 0. -1.
        -11    1    3    3    0    0 -0.35205927889E+01  0.98224341063E+00  0.10752121760E+02  0.11356385794E+02  0.51100000000E-03 0.  1.
        -12    1    3    3    0    0  0.18566718084E+02 -0.22112581817E+02  0.13743433612E+01  0.28906368065E+02  0.00000000000E+00 0.  1.
</event>
<event>
 7    1  0.6164995E-012  0.5930193E+02  0.7816164E-02  0.1266605E+00
        -11   -1    0    0    0    0  0.00000000000E+00  0.00000000000E+00  0.45593999997E+02  0.45594000000E+02  0.51100000000E-03 0.  1.
         11   -1    0    0    0    0 -0.00000000000E+00 -0.00000000000E+00 -0.45593999997E+02  0.45594000000E+02  0.51100000000E-03 0. -1.
    9900012    2    1    2    0    0  0.31631002496E+02 -0.11113299397E+00  0.40235095326E+01  0.59301932535E+02  0.49999979040E+02 0.  0.
         12    1    1    2    0    0 -0.31631002496E+02  0.11113299397E+00 -0.40235095326E+01  0.31886067465E+02  0.00000000000E+00 0. -1.
         11    1    3    3    0    0  0.65022528280E+01 -0.70706106991E+00  0.55292155172E+01  0.85645462047E+01  0.51100000000E-03 0. -1.
        -11    1    3    3    0    0  0.22614278706E+02 -0.14799320218E+02  0.12496441375E+02  0.29775602892E+02  0.51100000000E-03 0.  1.
         12    1    3    3    0    0  0.25144709621E+01  0.15395248294E+02 -0.14002147359E+02  0.20961783438E+02  0.00000000000E+00 0. -1.
</event>
<event>
 7    1  0.6164995E-012  0.5930196E+02  0.7816164E-02  0.1266605E+00
        -11   -1    0    0    0    0  0.00000000000E+00  0.00000000000E+00  0.45593999997E+02  0.45594000000E+02  0.51100000000E-03 0.  1.
         11   -1    0    0    0    0 -0.00000000000E+00 -0.00000000000E+00 -0.45593999997E+02  0.45594000000E+02  0.51100000000E-03 0. -1.
    9900012    2    1    2    0    0  0.78060894868E+01  0.24238659171E+02  0.19190416220E+02  0.59301957502E+02  0.50000024573E+02 0.  0.
         12    1    1    2    0    0 -0.78060894868E+01 -0.24238659171E+02 -0.19190416220E+02  0.31886042498E+02  0.00000000000E+00 0. -1.
         11    1    3    3    0    0 -0.29517624944E+01  0.11879282377E+02 -0.97292112082E+01  0.15636105737E+02  0.51100000000E-03 0. -1.
        -11    1    3    3    0    0  0.15922039594E+02 -0.14352556744E+01  0.74700533475E+01  0.17645764392E+02  0.51100000000E-03 0.  1.
        -12    1    3    3    0    0 -0.51641876131E+01  0.13794632468E+02  0.21449574081E+02  0.26020087373E+02  0.00000000000E+00 0.  1.
</event>
<event>
 7    1  0.6164995E-012  0.5930196E+02  0.7816164E-02  0.1266605E+00
        -11   -1    0    0    0    0  0.00000000000E+00  0.00000000000E+00  0.45593999997E+02  0.45594000000E+02  0.51100000000E-03 0.  1.
         11   -1    0    0    0    0 -0.00000000000E+00 -0.00000000000E+00 -0.45593999997E+02  0.45594000000E+02  0.51100000000E-03 0. -1.
    9900012    2    1    2    0    0  0.14741767402E+02 -0.27975200985E+02  0.40972809059E+01  0.59301964074E+02  0.50000036559E+02 0.  0.
         12    1    1    2    0    0 -0.14741767402E+02  0.27975200985E+02 -0.40972809059E+01  0.31886035926E+02  0.00000000000E+00 0. -1.
         11    1    3    3    0    0 -0.21421439567E+01 -0.74905534994E+00 -0.13093818785E+02  0.13289016340E+02  0.51100000000E-03 0. -1.
        -11    1    3    3    0    0 -0.54739399642E+01 -0.43361776726E+00  0.83853947104E+01  0.10023317206E+02  0.51100000000E-03 0.  1.
        -12    1    3    3    0    0  0.22357851323E+02 -0.26792527868E+02  0.88057049809E+01  0.35989630528E+02  0.00000000000E+00 0.  1.
</event>
<event>
 7    1  0.6164995E-012  0.5930190E+02  0.7816164E-02  0.1266605E+00
        -11   -1    0    0    0    0  0.00000000000E+00  0.00000000000E+00  0.45593999997E+02  0.45594000000E+02  0.51100000000E-03 0.  1.
         11   -1    0    0    0    0 -0.00000000000E+00 -0.00000000000E+00 -0.45593999997E+02  0.45594000000E+02  0.51100000000E-03 0. -1.
    9900012    2    1    2    0    0  0.15338734327E+02 -0.19324504087E+02  0.20199257875E+02  0.59301901968E+02  0.49999923294E+02 0.  0.
         12    1    1    2    0    0 -0.15338734327E+02  0.19324504087E+02 -0.20199257875E+02  0.31886098032E+02  0.00000000000E+00 0. -1.
         11    1    3    3    0    0 -0.39290339815E+01 -0.16453423463E+02 -0.27908801916E+01  0.17144721176E+02  0.51100000000E-03 0. -1.
        -11    1    3    3    0    0 -0.46662520109E+01 -0.13025245099E+01 -0.38304968845E+01  0.61760168856E+01  0.51100000000E-03 0.  1.
        -12    1    3    3    0    0  0.23934020320E+02 -0.15685561141E+01  0.26820634951E+02  0.35981163907E+02  0.00000000000E+00 0.  1.
</event>
<event>
 7    1  0.6164995E-012  0.5930193E+02  0.7816164E-02  0.1266605E+00
        -11   -1    0    0    0    0  0.00000000000E+00  0.00000000000E+00  0.45593999997E+02  0.45594000000E+02  0.51100000000E-03 0. -1.
         11   -1    0    0    0    0 -0.00000000000E+00 -0.00000000000E+00 -0.45593999997E+02  0.45594000000E+02  0.51100000000E-03 0.  1.
    9900012    2    1    2    0    0  0.22734104983E+02 -0.11469236050E+02 -0.19192141853E+02  0.59301933860E+02  0.49999981457E+02 0.  0.
         12    1    1    2    0    0 -0.22734104983E+02  0.11469236050E+02  0.19192141853E+02  0.31886066140E+02  0.00000000000E+00 0. -1.
         11    1    3    3    0    0 -0.24997194707E+01 -0.11057739619E+02  0.15443707560E+01  0.11441472117E+02  0.51100000000E-03 0. -1.
        -11    1    3    3    0    0  0.17745908088E+01 -0.29242017749E+01  0.91587566547E+01  0.97766534294E+01  0.51100000000E-03 0.  1.
        -12    1    3    3    0    0  0.23459233645E+02  0.25127053434E+01 -0.29895269263E+02  0.38083808314E+02  0.00000000000E+00 0.  1.
</event>
<event>
 7    1  0.6164995E-012  0.5930192E+02  0.7816164E-02  0.1266605E+00
        -11   -1    0    0    0    0  0.00000000000E+00  0.00000000000E+00  0.45593999997E+02  0.45594000000E+02  0.51100000000E-03 0. -1.
         11   -1    0    0    0    0 -0.00000000000E+00 -0.00000000000E+00 -0.45593999997E+02  0.45594000000E+02  0.51100000000E-03 0.  1.
    9900012    2    1    2    0    0 -0.71380767930E+01 -0.14179453729E+02 -0.27653447462E+02  0.59301918320E+02  0.49999953116E+02 0.  0.
         12    1    1    2    0    0  0.71380767930E+01  0.14179453729E+02  0.27653447462E+02  0.31886081680E+02  0.00000000000E+00 0. -1.
         11    1    3    3    0    0  0.48335528318E+01  0.43296145812E+01 -0.59343672708E+00  0.65162077015E+01  0.51100000000E-03 0. -1.
        -11    1    3    3    0    0 -0.43937425133E+01 -0.23153749071E+02  0.76121401210E+00  0.23579239096E+02  0.51100000000E-03 0.  1.
        -12    1    3    3    0    0 -0.75778871115E+01  0.46446807601E+01 -0.27821224747E+02  0.29206471523E+02  0.00000000000E+00 0.  1.
</event>
<event>
 7    1  0.6164995E-012  0.5930198E+02  0.7816164E-02  0.1266605E+00
        -11   -1    0    0    0    0  0.00000000000E+00  0.00000000000E+00  0.45593999997E+02  0.45594000000E+02  0.51100000000E-03 0. -1.
         11   -1    0    0    0    0 -0.00000000000E+00 -0.00000000000E+00 -0.45593999997E+02  0.45594000000E+02  0.51100000000E-03 0.  1.
    9900012    2    1    2    0    0  0.21943221828E+02 -0.13224279282E+02 -0.18982408612E+02  0.59301978244E+02  0.50000062402E+02 0.  0.
         12    1    1    2    0    0 -0.21943221828E+02  0.13224279282E+02  0.18982408612E+02  0.31886021756E+02  0.00000000000E+00 0. -1.
         11    1    3    3    0    0  0.19786230895E+02 -0.21267667693E+02 -0.31422767332E+01  0.29217846010E+02  0.51100000000E-03 0. -1.
        -11    1    3    3    0    0 -0.66985516342E+01 -0.58280156022E+01 -0.75596305877E+01  0.11661233843E+02  0.51100000000E-03 0.  1.
         12    1    3    3    0    0  0.88555425678E+01  0.13871404014E+02 -0.82805012914E+01  0.18422898391E+02  0.00000000000E+00 0. -1.
</event>
<event>
 7    1  0.6164995E-012  0.5930196E+02  0.7816164E-02  0.1266605E+00
        -11   -1    0    0    0    0  0.00000000000E+00  0.00000000000E+00  0.45593999997E+02  0.45594000000E+02  0.51100000000E-03 0.  1.
         11   -1    0    0    0    0 -0.00000000000E+00 -0.00000000000E+00 -0.45593999997E+02  0.45594000000E+02  0.51100000000E-03 0. -1.
    9900012    2    1    2    0    0  0.24429874090E+02  0.20310092090E+02  0.27204781437E+01  0.59301959322E+02  0.50000027893E+02 0.  0.
         12    1    1    2    0    0 -0.24429874090E+02 -0.20310092090E+02 -0.27204781437E+01  0.31886040678E+02  0.00000000000E+00 0. -1.
         11    1    3    3    0    0 -0.89757044093E+01  0.13940821076E+02  0.68843560548E+01  0.17952830430E+02  0.51100000000E-03 0. -1.
        -11    1    3    3    0    0  0.66733992321E+01  0.11821416347E+02  0.88330872829E+00  0.13603689806E+02  0.51100000000E-03 0.  1.
        -12    1    3    3    0    0  0.26732179267E+02 -0.54521453324E+01 -0.50471866394E+01  0.27745439086E+02  0.00000000000E+00 0.  1.
</event>
<event>
 7    1  0.6164995E-012  0.5930202E+02  0.7816164E-02  0.1266604E+00
        -11   -1    0    0    0    0  0.00000000000E+00  0.00000000000E+00  0.45593999997E+02  0.45594000000E+02  0.51100000000E-03 0.  1.
         11   -1    0    0    0    0 -0.00000000000E+00 -0.00000000000E+00 -0.45593999997E+02  0.45594000000E+02  0.51100000000E-03 0. -1.
    9900012    2    1    2    0    0 -0.14919738298E+02  0.93823270462E+01  0.26572331177E+02  0.59302024465E+02  0.50000146697E+02 0.  0.
         12    1    1    2    0    0  0.14919738298E+02 -0.93823270462E+01 -0.26572331177E+02  0.31885975535E+02  0.00000000000E+00 0. -1.
         11    1    3    3    0    0  0.41123135501E+01 -0.32871602141E+01 -0.49013090837E+01  0.71930088282E+01  0.51100000000E-03 0. -1.
        -11    1    3    3    0    0  0.61934053783E+01 -0.71243968095E+01  0.63992472813E+01  0.11404633537E+02  0.51100000000E-03 0.  1.
        -12    1    3    3    0    0 -0.25225457226E+02  0.19793884070E+02  0.25074392979E+02  0.40704382100E+02  0.00000000000E+00 0.  1.
</event>
<event>
 7    1  0.6164995E-012  0.5930195E+02  0.7816164E-02  0.1266605E+00
        -11   -1    0    0    0    0  0.00000000000E+00  0.00000000000E+00  0.45593999997E+02  0.45594000000E+02  0.51100000000E-03 0.  1.
         11   -1    0    0    0    0 -0.00000000000E+00 -0.00000000000E+00 -0.45593999997E+02  0.45594000000E+02  0.51100000000E-03 0. -1.
    9900012    2    1    2    0    0  0.12271338871E+02  0.26428643785E+02  0.12948407085E+02  0.59301949507E+02  0.50000009994E+02 0.  0.
         12    1    1    2    0    0 -0.12271338871E+02 -0.26428643785E+02 -0.12948407085E+02  0.31886050493E+02  0.00000000000E+00 0. -1.
         11    1    3    3    0    0  0.11331896929E+02 -0.87017333593E+01 -0.46310702475E+01  0.15019283051E+02  0.51100000000E-03 0. -1.
        -11    1    3    3    0    0 -0.11039289424E+01 -0.20893419301E+01  0.39313687716E+01  0.45869019490E+01  0.51100000000E-03 0.  1.
        -12    1    3    3    0    0  0.20433708840E+01  0.37219719074E+02  0.13648108561E+02  0.39695764507E+02  0.00000000000E+00 0.  1.
</event>
<event>
 7    1  0.6164995E-012  0.5930194E+02  0.7816164E-02  0.1266605E+00
        -11   -1    0    0    0    0  0.00000000000E+00  0.00000000000E+00  0.45593999997E+02  0.45594000000E+02  0.51100000000E-03 0.  1.
         11   -1    0    0    0    0 -0.00000000000E+00 -0.00000000000E+00 -0.45593999997E+02  0.45594000000E+02  0.51100000000E-03 0. -1.
    9900012    2    1    2    0    0  0.18325494255E+02 -0.50388406852E+01  0.25602868642E+02  0.59301944461E+02  0.50000000790E+02 0.  0.
         12    1    1    2    0    0 -0.18325494255E+02  0.50388406852E+01 -0.25602868642E+02  0.31886055539E+02  0.00000000000E+00 0. -1.
         11    1    3    3    0    0  0.15034282578E+01  0.32547891382E+01 -0.33845971942E+01  0.49304611639E+01  0.51100000000E-03 0. -1.
        -11    1    3    3    0    0 -0.26197555142E+01 -0.11780772392E+02 -0.65368652541E+01  0.13725171209E+02  0.51100000000E-03 0.  1.
        -12    1    3    3    0    0  0.19441821511E+02  0.34871425682E+01  0.35524331090E+02  0.40646312088E+02  0.00000000000E+00 0.  1.
</event>
<event>
 7    1  0.6164995E-012  0.5930194E+02  0.7816164E-02  0.1266605E+00
        -11   -1    0    0    0    0  0.00000000000E+00  0.00000000000E+00  0.45593999997E+02  0.45594000000E+02  0.51100000000E-03 0. -1.
         11   -1    0    0    0    0 -0.00000000000E+00 -0.00000000000E+00 -0.45593999997E+02  0.45594000000E+02  0.51100000000E-03 0.  1.
    9900012    2    1    2    0    0 -0.19617012844E+02  0.15775334294E+02 -0.19571218460E+02  0.59301937888E+02  0.49999988802E+02 0.  0.
         12    1    1    2    0    0  0.19617012844E+02 -0.15775334294E+02  0.19571218460E+02  0.31886062112E+02  0.00000000000E+00 0. -1.
         11    1    3    3    0    0  0.34909560841E+01  0.10785699570E+02  0.75737816116E+01  0.13633791027E+02  0.51100000000E-03 0. -1.
        -11    1    3    3    0    0  0.63460781073E+00 -0.30778344422E+01  0.43772684136E+01  0.53885314282E+01  0.51100000000E-03 0.  1.
        -12    1    3    3    0    0 -0.23742576739E+02  0.80674691659E+01 -0.31522268485E+02  0.40279615433E+02  0.00000000000E+00 0.  1.
</event>
<event>
 7    1  0.6164995E-012  0.5930195E+02  0.7816164E-02  0.1266605E+00
        -11   -1    0    0    0    0  0.00000000000E+00  0.00000000000E+00  0.45593999997E+02  0.45594000000E+02  0.51100000000E-03 0.  1.
         11   -1    0    0    0    0 -0.00000000000E+00 -0.00000000000E+00 -0.45593999997E+02  0.45594000000E+02  0.51100000000E-03 0. -1.
    9900012    2    1    2    0    0  0.27514283564E+02  0.15894753443E+02  0.26535208173E+01  0.59301950389E+02  0.50000011602E+02 0.  0.
         12    1    1    2    0    0 -0.27514283564E+02 -0.15894753443E+02 -0.26535208173E+01  0.31886049611E+02  0.00000000000E+00 0. -1.
         11    1    3    3    0    0  0.36113918284E+02  0.52431297906E+01 -0.97819499225E+01  0.37780842346E+02  0.51100000000E-03 0. -1.
        -11    1    3    3    0    0  0.38126484918E+00  0.62445646353E+01  0.10138290689E+01  0.63378071927E+01  0.51100000000E-03 0.  1.
        -12    1    3    3    0    0 -0.89808995691E+01  0.44070590172E+01  0.11421641671E+02  0.15183300850E+02  0.00000000000E+00 0.  1.
</event>
<event>
 7    1  0.6164995E-012  0.5930187E+02  0.7816164E-02  0.1266605E+00
        -11   -1    0    0    0    0  0.00000000000E+00  0.00000000000E+00  0.45593999997E+02  0.45594000000E+02  0.51100000000E-03 0. -1.
         11   -1    0    0    0    0 -0.00000000000E+00 -0.00000000000E+00 -0.45593999997E+02  0.45594000000E+02  0.51100000000E-03 0.  1.
    9900012    2    1    2    0    0 -0.43761259872E+01 -0.20224151694E+02 -0.24260230921E+02  0.59301865165E+02  0.49999856173E+02 0.  0.
         12    1    1    2    0    0  0.43761259872E+01  0.20224151694E+02  0.24260230921E+02  0.31886134835E+02  0.00000000000E+00 0. -1.
         11    1    3    3    0    0  0.12160414933E+02 -0.11671085952E+02 -0.18860838459E+02  0.25294686523E+02  0.51100000000E-03 0.  1.
        -11    1    3    3    0    0  0.34482123335E+01  0.72930447912E+01 -0.10742297767E+01  0.81383438425E+01  0.51100000000E-03 0. -1.
        -12    1    3    3    0    0 -0.19984753254E+02 -0.15846110533E+02 -0.43251626849E+01  0.25868834799E+02  0.00000000000E+00 0.  1.
</event>
<event>
 7    1  0.6164995E-012  0.5930195E+02  0.7816164E-02  0.1266605E+00
        -11   -1    0    0    0    0  0.00000000000E+00  0.00000000000E+00  0.45593999997E+02  0.45594000000E+02  0.51100000000E-03 0.  1.
         11   -1    0    0    0    0 -0.00000000000E+00 -0.00000000000E+00 -0.45593999997E+02  0.45594000000E+02  0.51100000000E-03 0. -1.
    9900012    2    1    2    0    0  0.24209588155E+01  0.10618411905E+01  0.31776273681E+02  0.59301951055E+02  0.50000012815E+02 0.  0.
         12    1    1    2    0    0 -0.24209588155E+01 -0.10618411905E+01 -0.31776273681E+02  0.31886048945E+02  0.00000000000E+00 0. -1.
         11    1    3    3    0    0  0.60173175666E+01  0.15830947835E+02  0.28098135830E+01  0.17167471354E+02  0.51100000000E-03 0. -1.
        -11    1    3    3    0    0 -0.11944369393E+02 -0.53612956425E+01  0.32238311655E+01  0.13483491343E+02  0.51100000000E-03 0.  1.
        -12    1    3    3    0    0  0.83480106415E+01 -0.94078110021E+01  0.25742628932E+02  0.28650988358E+02  0.00000000000E+00 0.  1.
</event>
<event>
 7    1  0.6164995E-012  0.5930188E+02  0.7816164E-02  0.1266605E+00
        -11   -1    0    0    0    0  0.00000000000E+00  0.00000000000E+00  0.45593999997E+02  0.45594000000E+02  0.51100000000E-03 0.  1.
         11   -1    0    0    0    0 -0.00000000000E+00 -0.00000000000E+00 -0.45593999997E+02  0.45594000000E+02  0.51100000000E-03 0. -1.
    9900012    2    1    2    0    0 -0.75315986726E+01  0.14254171374E+02  0.27510328128E+02  0.59301881800E+02  0.49999886512E+02 0.  0.
         12    1    1    2    0    0  0.75315986726E+01 -0.14254171374E+02 -0.27510328128E+02  0.31886118200E+02  0.00000000000E+00 0. -1.
         11    1    3    3    0    0  0.99754891879E+00  0.24836676512E+02  0.19425905853E+02  0.31547130178E+02  0.51100000000E-03 0. -1.
        -11    1    3    3    0    0  0.66038271623E+01  0.14951814364E+01  0.43163246453E+01  0.80297421766E+01  0.51100000000E-03 0.  1.
         12    1    3    3    0    0 -0.15132974754E+02 -0.12077686574E+02  0.37680976306E+01  0.19725009446E+02  0.00000000000E+00 0. -1.
</event>
<event>
 7    1  0.6164995E-012  0.5930192E+02  0.7816164E-02  0.1266605E+00
        -11   -1    0    0    0    0  0.00000000000E+00  0.00000000000E+00  0.45593999997E+02  0.45594000000E+02  0.51100000000E-03 0.  1.
         11   -1    0    0    0    0 -0.00000000000E+00 -0.00000000000E+00 -0.45593999997E+02  0.45594000000E+02  0.51100000000E-03 0. -1.
    9900012    2    1    2    0    0  0.21412606971E+02 -0.23148979033E+02  0.47272893144E+01  0.59301917897E+02  0.49999952345E+02 0.  0.
         12    1    1    2    0    0 -0.21412606971E+02  0.23148979033E+02 -0.47272893144E+01  0.31886082103E+02  0.00000000000E+00 0. -1.
         11    1    3    3    0    0  0.10162397392E+02 -0.18856665542E+02 -0.17960821508E+01  0.21495908157E+02  0.51100000000E-03 0. -1.
        -11    1    3    3    0    0  0.18838238735E+02 -0.12129001295E+02 -0.38724144908E+01  0.22737359242E+02  0.51100000000E-03 0.  1.
         12    1    3    3    0    0 -0.75880291561E+01  0.78366878039E+01  0.10395785956E+02  0.15068650499E+02  0.00000000000E+00 0. -1.
</event>
<event>
 7    1  0.6164995E-012  0.5930197E+02  0.7816164E-02  0.1266605E+00
        -11   -1    0    0    0    0  0.00000000000E+00  0.00000000000E+00  0.45593999997E+02  0.45594000000E+02  0.51100000000E-03 0. -1.
         11   -1    0    0    0    0 -0.00000000000E+00 -0.00000000000E+00 -0.45593999997E+02  0.45594000000E+02  0.51100000000E-03 0.  1.
    9900012    2    1    2    0    0 -0.17800433884E+02  0.24173256135E+02 -0.10747899325E+02  0.59301967031E+02  0.50000041952E+02 0.  0.
         12    1    1    2    0    0  0.17800433884E+02 -0.24173256135E+02  0.10747899325E+02  0.31886032969E+02  0.00000000000E+00 0. -1.
         11    1    3    3    0    0 -0.24269652849E+01  0.15780369150E+02  0.81060802164E+01  0.17905829993E+02  0.51100000000E-03 0. -1.
        -11    1    3    3    0    0 -0.11629511516E+02  0.11254049985E+02  0.51118623764E+01  0.16971455930E+02  0.51100000000E-03 0.  1.
        -12    1    3    3    0    0 -0.37439570831E+01 -0.28611630002E+01 -0.23965841918E+02  0.24424681108E+02  0.00000000000E+00 0.  1.
</event>
<event>
 7    1  0.6164995E-012  0.5930195E+02  0.7816164E-02  0.1266605E+00
        -11   -1    0    0    0    0  0.00000000000E+00  0.00000000000E+00  0.45593999997E+02  0.45594000000E+02  0.51100000000E-03 0.  1.
         11   -1    0    0    0    0 -0.00000000000E+00 -0.00000000000E+00 -0.45593999997E+02  0.45594000000E+02  0.51100000000E-03 0. -1.
    9900012    2    1    2    0    0 -0.10393575721E+02  0.12827951669E+01  0.30117243714E+02  0.59301947428E+02  0.50000006201E+02 0.  0.
         12    1    1    2    0    0  0.10393575721E+02 -0.12827951669E+01 -0.30117243714E+02  0.31886052572E+02  0.00000000000E+00 0. -1.
         11    1    3    3    0    0 -0.19609279080E+02 -0.61084459300E+01  0.10111923978E+02  0.22892967141E+02  0.51100000000E-03 0. -1.
        -11    1    3    3    0    0 -0.93162955598E+01  0.52526983694E+01  0.28576272667E+01  0.11070241053E+02  0.51100000000E-03 0.  1.
         12    1    3    3    0    0  0.18531998919E+02  0.21385427275E+01  0.17147692469E+02  0.25338739234E+02  0.00000000000E+00 0. -1.
</event>
<event>
 7    1  0.6164995E-012  0.5930188E+02  0.7816164E-02  0.1266605E+00
        -11   -1    0    0    0    0  0.00000000000E+00  0.00000000000E+00  0.45593999997E+02  0.45594000000E+02  0.51100000000E-03 0. -1.
         11   -1    0    0    0    0 -0.00000000000E+00 -0.00000000000E+00 -0.45593999997E+02  0.45594000000E+02  0.51100000000E-03 0.  1.
    9900012    2    1    2    0    0  0.17809433208E+02 -0.21634287275E+02 -0.15215333080E+02  0.59301879856E+02  0.49999882967E+02 0.  0.
         12    1    1    2    0    0 -0.17809433208E+02  0.21634287275E+02  0.15215333080E+02  0.31886120144E+02  0.00000000000E+00 0. -1.
         11    1    3    3    0    0 -0.27212386375E+01 -0.51647915135E+01 -0.29703487117E+01  0.65500521243E+01  0.51100000000E-03 0. -1.
        -11    1    3    3    0    0  0.66143983688E+01 -0.35790378633E+01 -0.27437010833E+02  0.28449065741E+02  0.51100000000E-03 0.  1.
         12    1    3    3    0    0  0.13916273476E+02 -0.12890457898E+02  0.15192026465E+02  0.24302761991E+02  0.00000000000E+00 0. -1.
</event>
<event>
 7    1  0.6164995E-012  0.5930195E+02  0.7816164E-02  0.1266605E+00
        -11   -1    0    0    0    0  0.00000000000E+00  0.00000000000E+00  0.45593999997E+02  0.45594000000E+02  0.51100000000E-03 0. -1.
         11   -1    0    0    0    0 -0.00000000000E+00 -0.00000000000E+00 -0.45593999997E+02  0.45594000000E+02  0.51100000000E-03 0.  1.
    9900012    2    1    2    0    0 -0.27688197189E+01 -0.49090028872E+01 -0.31383999033E+02  0.59301951840E+02  0.50000014248E+02 0.  0.
         12    1    1    2    0    0  0.27688197189E+01  0.49090028872E+01  0.31383999033E+02  0.31886048160E+02  0.00000000000E+00 0. -1.
         11    1    3    3    0    0  0.51273378515E+01 -0.15522737342E+02 -0.26670839696E+02  0.31282241901E+02  0.51100000000E-03 0. -1.
        -11    1    3    3    0    0  0.53360507899E+01  0.83346623660E+01 -0.95452868002E+01  0.13749637637E+02  0.51100000000E-03 0.  1.
         12    1    3    3    0    0 -0.13232208360E+02  0.22790720891E+01  0.48321274631E+01  0.14270072302E+02  0.00000000000E+00 0. -1.
</event>
<event>
 7    1  0.6164995E-012  0.5930195E+02  0.7816164E-02  0.1266605E+00
        -11   -1    0    0    0    0  0.00000000000E+00  0.00000000000E+00  0.45593999997E+02  0.45594000000E+02  0.51100000000E-03 0.  1.
         11   -1    0    0    0    0 -0.00000000000E+00 -0.00000000000E+00 -0.45593999997E+02  0.45594000000E+02  0.51100000000E-03 0. -1.
    9900012    2    1    2    0    0 -0.25780725176E+02 -0.24557621821E+01  0.18602249964E+02  0.59301948783E+02  0.50000008672E+02 0.  0.
         12    1    1    2    0    0  0.25780725176E+02  0.24557621821E+01 -0.18602249964E+02  0.31886051217E+02  0.00000000000E+00 0. -1.
         11    1    3    3    0    0 -0.18768666451E+02  0.62953855792E+01  0.69126492399E+01  0.20968534516E+02  0.51100000000E-03 0. -1.
        -11    1    3    3    0    0 -0.17430081256E+02 -0.12961035708E+02 -0.53731850396E+00  0.21727514599E+02  0.51100000000E-03 0.  1.
        -12    1    3    3    0    0  0.10418022531E+02  0.42098879469E+01  0.12226919228E+02  0.16605899668E+02  0.00000000000E+00 0.  1.
</event>
<event>
 7    1  0.6164995E-012  0.5930193E+02  0.7816164E-02  0.1266605E+00
        -11   -1    0    0    0    0  0.00000000000E+00  0.00000000000E+00  0.45593999997E+02  0.45594000000E+02  0.51100000000E-03 0.  1.
         11   -1    0    0    0    0 -0.00000000000E+00 -0.00000000000E+00 -0.45593999997E+02  0.45594000000E+02  0.51100000000E-03 0. -1.
    9900012    2    1    2    0    0  0.49531032380E+01  0.18154864725E+02  0.25740804416E+02  0.59301931618E+02  0.49999977368E+02 0.  0.
         12    1    1    2    0    0 -0.49531032380E+01 -0.18154864725E+02 -0.25740804416E+02  0.31886068382E+02  0.00000000000E+00 0. -1.
         11    1    3    3    0    0 -0.29840056660E+00  0.55924978205E+00 -0.71187763006E+01  0.71469419682E+01  0.51100000000E-03 0. -1.
        -11    1    3    3    0    0  0.13872974882E+02  0.13632677254E+02  0.16330086808E+01  0.19518607501E+02  0.51100000000E-03 0.  1.
        -12    1    3    3    0    0 -0.86214710771E+01  0.39629376889E+01  0.31226572036E+02  0.32636382149E+02  0.00000000000E+00 0.  1.
</event>
<event>
 7    1  0.6164995E-012  0.5930193E+02  0.7816164E-02  0.1266605E+00
        -11   -1    0    0    0    0  0.00000000000E+00  0.00000000000E+00  0.45593999997E+02  0.45594000000E+02  0.51100000000E-03 0.  1.
         11   -1    0    0    0    0 -0.00000000000E+00 -0.00000000000E+00 -0.45593999997E+02  0.45594000000E+02  0.51100000000E-03 0. -1.
    9900012    2    1    2    0    0  0.61185042974E+01  0.57348686985E+01  0.30763556690E+02  0.59301933543E+02  0.49999980879E+02 0.  0.
         12    1    1    2    0    0 -0.61185042974E+01 -0.57348686985E+01 -0.30763556690E+02  0.31886066457E+02  0.00000000000E+00 0. -1.
         11    1    3    3    0    0  0.42533293667E+01 -0.86689616383E+01 -0.15463350407E+01  0.97792054333E+01  0.51100000000E-03 0. -1.
        -11    1    3    3    0    0 -0.12212763024E+02 -0.37036159327E+01  0.46322835145E+01  0.13576685991E+02  0.51100000000E-03 0.  1.
         12    1    3    3    0    0  0.14077937955E+02  0.18107446270E+02  0.27677608217E+02  0.35946042120E+02  0.00000000000E+00 0. -1.
</event>
<event>
 7    1  0.6164995E-012  0.5930195E+02  0.7816164E-02  0.1266605E+00
        -11   -1    0    0    0    0  0.00000000000E+00  0.00000000000E+00  0.45593999997E+02  0.45594000000E+02  0.51100000000E-03 0.  1.
         11   -1    0    0    0    0 -0.00000000000E+00 -0.00000000000E+00 -0.45593999997E+02  0.45594000000E+02  0.51100000000E-03 0. -1.
    9900012    2    1    2    0    0  0.28250992769E+02  0.14784585316E+02 -0.13294046296E+00  0.59301949311E+02  0.50000009635E+02 0.  0.
         12    1    1    2    0    0 -0.28250992769E+02 -0.14784585316E+02  0.13294046296E+00  0.31886050689E+02  0.00000000000E+00 0. -1.
         11    1    3    3    0    0  0.18612104643E+02 -0.34648711743E+00 -0.23030696006E+02  0.29613231018E+02  0.51100000000E-03 0. -1.
        -11    1    3    3    0    0  0.62158555676E+00  0.44064597447E+01  0.30562690555E+01  0.53985217316E+01  0.51100000000E-03 0.  1.
        -12    1    3    3    0    0  0.90173025693E+01  0.10724612689E+02  0.19841486487E+02  0.24290196561E+02  0.00000000000E+00 0.  1.
</event>
<event>
 7    1  0.6164995E-012  0.5930197E+02  0.7816164E-02  0.1266605E+00
        -11   -1    0    0    0    0  0.00000000000E+00  0.00000000000E+00  0.45593999997E+02  0.45594000000E+02  0.51100000000E-03 0.  1.
         11   -1    0    0    0    0 -0.00000000000E+00 -0.00000000000E+00 -0.45593999997E+02  0.45594000000E+02  0.51100000000E-03 0. -1.
    9900012    2    1    2    0    0 -0.99628154951E+01 -0.10881331692E+02  0.28267615771E+02  0.59301965857E+02  0.50000039811E+02 0.  0.
         12    1    1    2    0    0  0.99628154951E+01  0.10881331692E+02 -0.28267615771E+02  0.31886034143E+02  0.00000000000E+00 0. -1.
         11    1    3    3    0    0  0.72049897982E+01 -0.34638199199E+01 -0.41276263829E+01  0.89970676471E+01  0.51100000000E-03 0. -1.
        -11    1    3    3    0    0 -0.62282293346E+01 -0.16209037265E+02  0.31830805733E+02  0.36259121936E+02  0.51100000000E-03 0.  1.
         12    1    3    3    0    0 -0.10939575959E+02  0.87915254938E+01  0.56443642156E+00  0.14045776274E+02  0.00000000000E+00 0. -1.
</event>
<event>
 7    1  0.6164995E-012  0.5930217E+02  0.7816164E-02  0.1266604E+00
        -11   -1    0    0    0    0  0.00000000000E+00  0.00000000000E+00  0.45593999997E+02  0.45594000000E+02  0.51100000000E-03 0. -1.
         11   -1    0    0    0    0 -0.00000000000E+00 -0.00000000000E+00 -0.45593999997E+02  0.45594000000E+02  0.51100000000E-03 0.  1.
    9900012    2    1    2    0    0  0.18631472038E+02 -0.16626855130E+00 -0.25875607600E+02  0.59302165148E+02  0.50000403268E+02 0.  0.
         12    1    1    2    0    0 -0.18631472038E+02  0.16626855130E+00  0.25875607600E+02  0.31885834852E+02  0.00000000000E+00 0. -1.
         11    1    3    3    0    0  0.21052303100E+02  0.12523804187E+02  0.33759666640E+01  0.24727359105E+02  0.51100000000E-03 0.  1.
        -11    1    3    3    0    0 -0.56899168273E+01 -0.44162115135E+01 -0.50684028125E+01  0.88072007452E+01  0.51100000000E-03 0. -1.
        -12    1    3    3    0    0  0.32690857655E+01 -0.82738612249E+01 -0.24183171452E+02  0.25767605297E+02  0.00000000000E+00 0.  1.
</event>
<event>
 7    1  0.6164995E-012  0.5930192E+02  0.7816164E-02  0.1266605E+00
        -11   -1    0    0    0    0  0.00000000000E+00  0.00000000000E+00  0.45593999997E+02  0.45594000000E+02  0.51100000000E-03 0. -1.
         11   -1    0    0    0    0 -0.00000000000E+00 -0.00000000000E+00 -0.45593999997E+02  0.45594000000E+02  0.51100000000E-03 0.  1.
    9900012    2    1    2    0    0 -0.30439539937E+02 -0.71435596837E+01 -0.62550860889E+01  0.59301919361E+02  0.49999955014E+02 0.  0.
         12    1    1    2    0    0  0.30439539937E+02  0.71435596837E+01  0.62550860889E+01  0.31886080639E+02  0.00000000000E+00 0. -1.
         11    1    3    3    0    0 -0.69347755694E+01  0.12440274685E+02  0.45602679814E+01  0.14954851746E+02  0.51100000000E-03 0. -1.
        -11    1    3    3    0    0 -0.16413305943E+01  0.12588774461E+01  0.83308970342E+01  0.85838560216E+01  0.51100000000E-03 0.  1.
        -12    1    3    3    0    0 -0.21863433773E+02 -0.20842711814E+02 -0.19146251104E+02  0.35763211594E+02  0.00000000000E+00 0.  1.
</event>
<event>
 7    1  0.6164995E-012  0.5930192E+02  0.7816164E-02  0.1266605E+00
        -11   -1    0    0    0    0  0.00000000000E+00  0.00000000000E+00  0.45593999997E+02  0.45594000000E+02  0.51100000000E-03 0. -1.
         11   -1    0    0    0    0 -0.00000000000E+00 -0.00000000000E+00 -0.45593999997E+02  0.45594000000E+02  0.51100000000E-03 0.  1.
    9900012    2    1    2    0    0  0.12131355362E+02  0.10832646724E+02 -0.27426374647E+02  0.59301920840E+02  0.49999957711E+02 0.  0.
         12    1    1    2    0    0 -0.12131355362E+02 -0.10832646724E+02  0.27426374647E+02  0.31886079160E+02  0.00000000000E+00 0. -1.
         11    1    3    3    0    0  0.14137116256E+02  0.13976164469E+02 -0.59161918544E+01  0.20741083762E+02  0.51100000000E-03 0. -1.
        -11    1    3    3    0    0  0.79930316892E+01 -0.10838568069E+02 -0.22155413643E+02  0.25927311224E+02  0.51100000000E-03 0.  1.
         12    1    3    3    0    0 -0.99987925841E+01  0.76950503236E+01  0.64523085075E+00  0.12633525853E+02  0.00000000000E+00 0. -1.
</event>
<event>
 7    1  0.6164995E-012  0.5930195E+02  0.7816164E-02  0.1266605E+00
        -11   -1    0    0    0    0  0.00000000000E+00  0.00000000000E+00  0.45593999997E+02  0.45594000000E+02  0.51100000000E-03 0. -1.
         11   -1    0    0    0    0 -0.00000000000E+00 -0.00000000000E+00 -0.45593999997E+02  0.45594000000E+02  0.51100000000E-03 0.  1.
    9900012    2    1    2    0    0 -0.24073392719E+02  0.68051431244E+01 -0.19770740398E+02  0.59301946845E+02  0.50000005137E+02 0.  0.
         12    1    1    2    0    0  0.24073392719E+02 -0.68051431244E+01  0.19770740398E+02  0.31886053155E+02  0.00000000000E+00 0. -1.
         11    1    3    3    0    0 -0.18080829830E+02 -0.14744013771E+01  0.88706240204E+01  0.20193519691E+02  0.51100000000E-03 0. -1.
        -11    1    3    3    0    0 -0.10715009565E+02 -0.50522671040E+01 -0.88702671753E+01  0.14799272715E+02  0.51100000000E-03 0.  1.
        -12    1    3    3    0    0  0.47224466762E+01  0.13331811605E+02 -0.19771097243E+02  0.24309154438E+02  0.00000000000E+00 0.  1.
</event>
<event>
 7    1  0.6164995E-012  0.5930196E+02  0.7816164E-02  0.1266605E+00
        -11   -1    0    0    0    0  0.00000000000E+00  0.00000000000E+00  0.45593999997E+02  0.45594000000E+02  0.51100000000E-03 0. -1.
         11   -1    0    0    0    0 -0.00000000000E+00 -0.00000000000E+00 -0.45593999997E+02  0.45594000000E+02  0.51100000000E-03 0.  1.
    9900012    2    1    2    0    0 -0.21274636098E+02  0.23723055472E+02  0.11515562707E+01  0.59301959420E+02  0.50000028072E+02 0.  0.
         12    1    1    2    0    0  0.21274636098E+02 -0.23723055472E+02 -0.11515562707E+01  0.31886040580E+02  0.00000000000E+00 0. -1.
         11    1    3    3    0    0 -0.24967849429E+02  0.10659907474E+02 -0.14223318951E+01  0.27185477019E+02  0.51100000000E-03 0. -1.
        -11    1    3    3    0    0 -0.67997398166E+01  0.95538564821E+01  0.12580562443E+02  0.17198348377E+02  0.51100000000E-03 0.  1.
        -12    1    3    3    0    0  0.10492953148E+02  0.35092915159E+01 -0.10006674277E+02  0.14918134025E+02  0.00000000000E+00 0.  1.
</event>
<event>
 7    1  0.6164995E-012  0.5930192E+02  0.7816164E-02  0.1266605E+00
        -11   -1    0    0    0    0  0.00000000000E+00  0.00000000000E+00  0.45593999997E+02  0.45594000000E+02  0.51100000000E-03 0. -1.
         11   -1    0    0    0    0 -0.00000000000E+00 -0.00000000000E+00 -0.45593999997E+02  0.45594000000E+02  0.51100000000E-03 0.  1.
    9900012    2    1    2    0    0 -0.10693001390E+02  0.21387105673E+02 -0.21094400860E+02  0.59301916586E+02  0.49999949954E+02 0.  0.
         12    1    1    2    0    0  0.10693001390E+02 -0.21387105673E+02  0.21094400860E+02  0.31886083414E+02  0.00000000000E+00 0. -1.
         11    1    3    3    0    0  0.72958002088E+00  0.20359120331E+02  0.36332139283E+01  0.20693629729E+02  0.51100000000E-03 0. -1.
        -11    1    3    3    0    0  0.47046122796E+01 -0.54899129607E+01  0.12575472152E+01  0.73385248025E+01  0.51100000000E-03 0.  1.
        -12    1    3    3    0    0 -0.16127193691E+02  0.65178983033E+01 -0.25985162004E+02  0.31269762055E+02  0.00000000000E+00 0.  1.
</event>
<event>
 7    1  0.6164995E-012  0.5930180E+02  0.7816164E-02  0.1266605E+00
        -11   -1    0    0    0    0  0.00000000000E+00  0.00000000000E+00  0.45593999997E+02  0.45594000000E+02  0.51100000000E-03 0.  1.
         11   -1    0    0    0    0 -0.00000000000E+00 -0.00000000000E+00 -0.45593999997E+02  0.45594000000E+02  0.51100000000E-03 0. -1.
    9900012    2    1    2    0    0 -0.10786826622E+02  0.15160530202E+02  0.25894640296E+02  0.59301800781E+02  0.49999738752E+02 0.  0.
         12    1    1    2    0    0  0.10786826622E+02 -0.15160530202E+02 -0.25894640296E+02  0.31886199219E+02  0.00000000000E+00 0. -1.
         11    1    3    3    0    0  0.78402766736E+01  0.51973402203E+01 -0.37268531882E+01  0.10117891017E+02  0.51100000000E-03 0. -1.
        -11    1    3    3    0    0  0.87616269229E+01  0.57781722194E+01  0.13598806324E+02  0.17177919380E+02  0.51100000000E-03 0.  1.
         12    1    3    3    0    0 -0.27388730218E+02  0.41850177618E+01  0.16022687160E+02  0.32005990384E+02  0.00000000000E+00 0. -1.
</event>
<event>
 7    1  0.6164995E-012  0.5930188E+02  0.7816164E-02  0.1266605E+00
        -11   -1    0    0    0    0  0.00000000000E+00  0.00000000000E+00  0.45593999997E+02  0.45594000000E+02  0.51100000000E-03 0.  1.
         11   -1    0    0    0    0 -0.00000000000E+00 -0.00000000000E+00 -0.45593999997E+02  0.45594000000E+02  0.51100000000E-03 0. -1.
    9900012    2    1    2    0    0  0.19824106973E+02 -0.12115064356E+02  0.21839297241E+02  0.59301875971E+02  0.49999875880E+02 0.  0.
         12    1    1    2    0    0 -0.19824106973E+02  0.12115064356E+02 -0.21839297241E+02  0.31886124029E+02  0.00000000000E+00 0. -1.
         11    1    3    3    0    0 -0.70441862712E+01  0.95730772087E+01  0.25246474627E+01  0.12150646589E+02  0.51100000000E-03 0. -1.
        -11    1    3    3    0    0  0.12741227788E+02 -0.44007855014E+01 -0.47810976417E+01  0.14302611422E+02  0.51100000000E-03 0.  1.
        -12    1    3    3    0    0  0.14127065456E+02 -0.17287356064E+02  0.24095747420E+02  0.32848617959E+02  0.00000000000E+00 0.  1.
</event>
<event>
 7    1  0.6164995E-012  0.5930191E+02  0.7816164E-02  0.1266605E+00
        -11   -1    0    0    0    0  0.00000000000E+00  0.00000000000E+00  0.45593999997E+02  0.45594000000E+02  0.51100000000E-03 0. -1.
         11   -1    0    0    0    0 -0.00000000000E+00 -0.00000000000E+00 -0.45593999997E+02  0.45594000000E+02  0.51100000000E-03 0.  1.
    9900012    2    1    2    0    0  0.14040175701E+02 -0.17721575502E+02 -0.22484266284E+02  0.59301905816E+02  0.49999930311E+02 0.  0.
         12    1    1    2    0    0 -0.14040175701E+02  0.17721575502E+02  0.22484266284E+02  0.31886094184E+02  0.00000000000E+00 0. -1.
         11    1    3    3    0    0  0.15272005310E+02  0.96016228594E+00 -0.18252518974E+01  0.15410632776E+02  0.51100000000E-03 0. -1.
        -11    1    3    3    0    0 -0.20548090022E+01 -0.77565602455E+01  0.91278607813E+01  0.12153366183E+02  0.51100000000E-03 0.  1.
        -12    1    3    3    0    0  0.82297939327E+00 -0.10925177542E+02 -0.29786875167E+02  0.31737906857E+02  0.00000000000E+00 0.  1.
</event>
<event>
 7    1  0.6164995E-012  0.5930195E+02  0.7816164E-02  0.1266605E+00
        -11   -1    0    0    0    0  0.00000000000E+00  0.00000000000E+00  0.45593999997E+02  0.45594000000E+02  0.51100000000E-03 0.  1.
         11   -1    0    0    0    0 -0.00000000000E+00 -0.00000000000E+00 -0.45593999997E+02  0.45594000000E+02  0.51100000000E-03 0. -1.
    9900012    2    1    2    0    0  0.83802050232E+01  0.28628255199E+02 -0.11265683699E+02  0.59301945663E+02  0.50000002983E+02 0.  0.
         12    1    1    2    0    0 -0.83802050232E+01 -0.28628255199E+02  0.11265683699E+02  0.31886054337E+02  0.00000000000E+00 0. -1.
         11    1    3    3    0    0  0.17258657180E+01 -0.43155237694E+01  0.91061195666E+00  0.47361980826E+01  0.51100000000E-03 0.  1.
        -11    1    3    3    0    0  0.11219275890E+02  0.46732360973E+01  0.12006521569E+02  0.17084140235E+02  0.51100000000E-03 0. -1.
        -12    1    3    3    0    0 -0.45649365851E+01  0.28270542871E+02 -0.24182817225E+02  0.37481607345E+02  0.00000000000E+00 0.  1.
</event>
<event>
 7    1  0.6164995E-012  0.5930193E+02  0.7816164E-02  0.1266605E+00
        -11   -1    0    0    0    0  0.00000000000E+00  0.00000000000E+00  0.45593999997E+02  0.45594000000E+02  0.51100000000E-03 0. -1.
         11   -1    0    0    0    0 -0.00000000000E+00 -0.00000000000E+00 -0.45593999997E+02  0.45594000000E+02  0.51100000000E-03 0.  1.
    9900012    2    1    2    0    0 -0.28979678567E+02  0.99503746536E+00 -0.13263097204E+02  0.59301927541E+02  0.49999969933E+02 0.  0.
         12    1    1    2    0    0  0.28979678567E+02 -0.99503746536E+00  0.13263097204E+02  0.31886072459E+02  0.00000000000E+00 0. -1.
         11    1    3    3    0    0  0.12650293519E+01 -0.16580418809E+01 -0.14935659272E+01  0.25651786643E+01  0.51100000000E-03 0. -1.
        -11    1    3    3    0    0 -0.34214008124E+02 -0.14338127290E+02 -0.30264728825E+01  0.37220152935E+02  0.51100000000E-03 0.  1.
         12    1    3    3    0    0  0.39693002055E+01  0.16991206636E+02 -0.87430583939E+01  0.19516595942E+02  0.00000000000E+00 0. -1.
</event>
<event>
 7    1  0.6164995E-012  0.5930194E+02  0.7816164E-02  0.1266605E+00
        -11   -1    0    0    0    0  0.00000000000E+00  0.00000000000E+00  0.45593999997E+02  0.45594000000E+02  0.51100000000E-03 0.  1.
         11   -1    0    0    0    0 -0.00000000000E+00 -0.00000000000E+00 -0.45593999997E+02  0.45594000000E+02  0.51100000000E-03 0. -1.
    9900012    2    1    2    0    0  0.25401726752E+01  0.68086433663E+01  0.31046906877E+02  0.59301944610E+02  0.50000001062E+02 0.  0.
         12    1    1    2    0    0 -0.25401726752E+01 -0.68086433663E+01 -0.31046906877E+02  0.31886055390E+02  0.00000000000E+00 0. -1.
         11    1    3    3    0    0 -0.28536705716E+01  0.16192775643E+01 -0.86725842995E+01  0.92724977355E+01  0.51100000000E-03 0. -1.
        -11    1    3    3    0    0  0.13280237343E+01 -0.12310696043E+02  0.17896688380E+02  0.21762544413E+02  0.51100000000E-03 0.  1.
        -12    1    3    3    0    0  0.40658195125E+01  0.17500061845E+02  0.21822802796E+02  0.28266902462E+02  0.00000000000E+00 0.  1.
</event>
<event>
 7    1  0.6164995E-012  0.5930194E+02  0.7816164E-02  0.1266605E+00
        -11   -1    0    0    0    0  0.00000000000E+00  0.00000000000E+00  0.45593999997E+02  0.45594000000E+02  0.51100000000E-03 0. -1.
         11   -1    0    0    0    0 -0.00000000000E+00 -0.00000000000E+00 -0.45593999997E+02  0.45594000000E+02  0.51100000000E-03 0.  1.
    9900012    2    1    2    0    0  0.73195919312E+01  0.18356954567E+02 -0.25023318050E+02  0.59301942651E+02  0.49999997489E+02 0.  0.
         12    1    1    2    0    0 -0.73195919312E+01 -0.18356954567E+02  0.25023318050E+02  0.31886057349E+02  0.00000000000E+00 0. -1.
         11    1    3    3    0    0  0.20496931869E+02 -0.52482750771E+01 -0.44810870116E+01  0.21627499819E+02  0.51100000000E-03 0. -1.
        -11    1    3    3    0    0  0.21885904256E+01  0.73910128578E+01 -0.10884577665E+02  0.13337579628E+02  0.51100000000E-03 0.  1.
         12    1    3    3    0    0 -0.15365930364E+02  0.16214216787E+02 -0.96576533736E+01  0.24336863205E+02  0.00000000000E+00 0. -1.
</event>
<event>
 7    1  0.6164995E-012  0.5930193E+02  0.7816164E-02  0.1266605E+00
        -11   -1    0    0    0    0  0.00000000000E+00  0.00000000000E+00  0.45593999997E+02  0.45594000000E+02  0.51100000000E-03 0.  1.
         11   -1    0    0    0    0 -0.00000000000E+00 -0.00000000000E+00 -0.45593999997E+02  0.45594000000E+02  0.51100000000E-03 0. -1.
    9900012    2    1    2    0    0  0.77812509159E+01 -0.28455337884E+02  0.12102364946E+02  0.59301931613E+02  0.49999977359E+02 0.  0.
         12    1    1    2    0    0 -0.77812509159E+01  0.28455337884E+02 -0.12102364946E+02  0.31886068387E+02  0.00000000000E+00 0. -1.
         11    1    3    3    0    0  0.13261395382E+02 -0.36299697540E+01 -0.95415239249E+01  0.16735649583E+02  0.51100000000E-03 0. -1.
        -11    1    3    3    0    0  0.78482627329E+01 -0.53185593544E+01  0.15475835537E+02  0.18148933505E+02  0.51100000000E-03 0.  1.
         12    1    3    3    0    0 -0.13328407199E+02 -0.19506808775E+02  0.61680533337E+01  0.24417348525E+02  0.00000000000E+00 0. -1.
</event>
<event>
 7    1  0.6164995E-012  0.5930194E+02  0.7816164E-02  0.1266605E+00
        -11   -1    0    0    0    0  0.00000000000E+00  0.00000000000E+00  0.45593999997E+02  0.45594000000E+02  0.51100000000E-03 0.  1.
         11   -1    0    0    0    0 -0.00000000000E+00 -0.00000000000E+00 -0.45593999997E+02  0.45594000000E+02  0.51100000000E-03 0. -1.
    9900012    2    1    2    0    0 -0.11204737979E+02  0.21003181722E+01  0.29778567828E+02  0.59301943620E+02  0.49999999256E+02 0.  0.
         12    1    1    2    0    0  0.11204737979E+02 -0.21003181722E+01 -0.29778567828E+02  0.31886056380E+02  0.00000000000E+00 0. -1.
         11    1    3    3    0    0 -0.24699151736E+02 -0.97861864353E+01  0.30418653824E+02  0.40387028142E+02  0.51100000000E-03 0. -1.
        -11    1    3    3    0    0  0.13668509989E+01  0.10005167278E+01  0.17596519041E+01  0.24424762968E+01  0.51100000000E-03 0.  1.
        -12    1    3    3    0    0  0.12127562759E+02  0.10885987880E+02 -0.23997379000E+01  0.16472439181E+02  0.00000000000E+00 0.  1.
</event>
<event>
 7    1  0.6164995E-012  0.5930193E+02  0.7816164E-02  0.1266605E+00
        -11   -1    0    0    0    0  0.00000000000E+00  0.00000000000E+00  0.45593999997E+02  0.45594000000E+02  0.51100000000E-03 0.  1.
         11   -1    0    0    0    0 -0.00000000000E+00 -0.00000000000E+00 -0.45593999997E+02  0.45594000000E+02  0.51100000000E-03 0. -1.
    9900012    2    1    2    0    0 -0.14638373894E+02  0.25910742816E+02  0.11448708279E+02  0.59301929298E+02  0.49999973137E+02 0.  0.
         12    1    1    2    0    0  0.14638373894E+02 -0.25910742816E+02 -0.11448708279E+02  0.31886070702E+02  0.00000000000E+00 0. -1.
         11    1    3    3    0    0  0.32878633862E+01  0.79809057221E+01 -0.41591345984E+01  0.95814040026E+01  0.51100000000E-03 0. -1.
        -11    1    3    3    0    0 -0.97708951093E+01  0.22189554111E+02  0.26195364553E+02  0.35693750534E+02  0.51100000000E-03 0.  1.
         12    1    3    3    0    0 -0.81553421711E+01 -0.42597170173E+01 -0.10587521675E+02  0.14026774761E+02  0.00000000000E+00 0. -1.
</event>
<event>
 7    1  0.6164995E-012  0.5930195E+02  0.7816164E-02  0.1266605E+00
        -11   -1    0    0    0    0  0.00000000000E+00  0.00000000000E+00  0.45593999997E+02  0.45594000000E+02  0.51100000000E-03 0.  1.
         11   -1    0    0    0    0 -0.00000000000E+00 -0.00000000000E+00 -0.45593999997E+02  0.45594000000E+02  0.51100000000E-03 0. -1.
    9900012    2    1    2    0    0  0.30473643378E+02  0.87112963715E+00 -0.93444353609E+01  0.59301948507E+02  0.50000008170E+02 0.  0.
         12    1    1    2    0    0 -0.30473643378E+02 -0.87112963715E+00  0.93444353609E+01  0.31886051493E+02  0.00000000000E+00 0. -1.
         11    1    3    3    0    0  0.11015201498E+01  0.46877091617E+01  0.13591287632E+02  0.14419121457E+02  0.51100000000E-03 0. -1.
        -11    1    3    3    0    0  0.15502022658E+02 -0.12915151243E+02 -0.57118552432E+01  0.20969957766E+02  0.51100000000E-03 0.  1.
        -12    1    3    3    0    0  0.13870100570E+02  0.90985717185E+01 -0.17223867750E+02  0.23912869284E+02  0.00000000000E+00 0.  1.
</event>
<event>
 7    1  0.6164995E-012  0.5930187E+02  0.7816164E-02  0.1266605E+00
        -11   -1    0    0    0    0  0.00000000000E+00  0.00000000000E+00  0.45593999997E+02  0.45594000000E+02  0.51100000000E-03 0.  1.
         11   -1    0    0    0    0 -0.00000000000E+00 -0.00000000000E+00 -0.45593999997E+02  0.45594000000E+02  0.51100000000E-03 0. -1.
    9900012    2    1    2    0    0 -0.17731308704E+02 -0.14013072894E+02  0.22493545431E+02  0.59301872823E+02  0.49999870140E+02 0.  0.
         12    1    1    2    0    0  0.17731308704E+02  0.14013072894E+02 -0.22493545431E+02  0.31886127177E+02  0.00000000000E+00 0. -1.
         11    1    3    3    0    0  0.66458409786E+01 -0.42492791723E+00  0.67704958076E-01  0.66597560218E+01  0.51100000000E-03 0. -1.
        -11    1    3    3    0    0  0.69050257790E+01 -0.14620231642E+02  0.96962880690E+01  0.18853343386E+02  0.51100000000E-03 0.  1.
        -12    1    3    3    0    0 -0.31282175461E+02  0.10320866654E+01  0.12729552404E+02  0.33788773415E+02  0.00000000000E+00 0.  1.
</event>
<event>
 7    1  0.6164995E-012  0.5930198E+02  0.7816164E-02  0.1266605E+00
        -11   -1    0    0    0    0  0.00000000000E+00  0.00000000000E+00  0.45593999997E+02  0.45594000000E+02  0.51100000000E-03 0. -1.
         11   -1    0    0    0    0 -0.00000000000E+00 -0.00000000000E+00 -0.45593999997E+02  0.45594000000E+02  0.51100000000E-03 0.  1.
    9900012    2    1    2    0    0  0.19781123778E+02  0.25008427055E+02  0.65294611649E-01  0.59301975709E+02  0.50000057779E+02 0.  0.
         12    1    1    2    0    0 -0.19781123778E+02 -0.25008427055E+02 -0.65294611649E-01  0.31886024291E+02  0.00000000000E+00 0. -1.
         11    1    3    3    0    0  0.48924352809E+01  0.11429364159E+02  0.14355535685E+02  0.18990726503E+02  0.51100000000E-03 0. -1.
        -11    1    3    3    0    0 -0.40580146417E+01  0.15793364864E+02  0.27819697789E+00  0.16308747664E+02  0.51100000000E-03 0.  1.
        -12    1    3    3    0    0  0.18946703139E+02 -0.22143019677E+01 -0.14568438051E+02  0.24002501542E+02  0.00000000000E+00 0.  1.
</event>
<event>
 7    1  0.6164995E-012  0.5930195E+02  0.7816164E-02  0.1266605E+00
        -11   -1    0    0    0    0  0.00000000000E+00  0.00000000000E+00  0.45593999997E+02  0.45594000000E+02  0.51100000000E-03 0.  1.
         11   -1    0    0    0    0 -0.00000000000E+00 -0.00000000000E+00 -0.45593999997E+02  0.45594000000E+02  0.51100000000E-03 0. -1.
    9900012    2    1    2    0    0 -0.29360864231E+02  0.93918445910E+01  0.81518756717E+01  0.59301950226E+02  0.50000011305E+02 0.  0.
         12    1    1    2    0    0  0.29360864231E+02 -0.93918445910E+01 -0.81518756717E+01  0.31886049774E+02  0.00000000000E+00 0. -1.
         11    1    3    3    0    0 -0.16494529201E+02  0.14372385571E+02  0.88249952125E+01  0.23590580776E+02  0.51100000000E-03 0. -1.
        -11    1    3    3    0    0 -0.47068001113E+00 -0.86957075322E+01  0.13786672507E+02  0.16306722793E+02  0.51100000000E-03 0.  1.
         12    1    3    3    0    0 -0.12395655019E+02  0.37151665518E+01 -0.14459792048E+02  0.19404646658E+02  0.00000000000E+00 0. -1.
</event>
<event>
 7    1  0.6164995E-012  0.5930197E+02  0.7816164E-02  0.1266605E+00
        -11   -1    0    0    0    0  0.00000000000E+00  0.00000000000E+00  0.45593999997E+02  0.45594000000E+02  0.51100000000E-03 0.  1.
         11   -1    0    0    0    0 -0.00000000000E+00 -0.00000000000E+00 -0.45593999997E+02  0.45594000000E+02  0.51100000000E-03 0. -1.
    9900012    2    1    2    0    0  0.12228303541E+02 -0.23949793847E+02  0.17134619736E+02  0.59301965026E+02  0.50000038296E+02 0.  0.
         12    1    1    2    0    0 -0.12228303541E+02  0.23949793847E+02 -0.17134619736E+02  0.31886034974E+02  0.00000000000E+00 0. -1.
         11    1    3    3    0    0  0.89697633979E+01 -0.48881309497E+01 -0.94146772731E+01  0.13891962713E+02  0.51100000000E-03 0. -1.
        -11    1    3    3    0    0  0.30584039121E+01  0.86165594610E+01  0.72130522686E+01  0.11645902916E+02  0.51100000000E-03 0.  1.
        -12    1    3    3    0    0  0.20013623141E+00 -0.27678222359E+02  0.19336244741E+02  0.33764099398E+02  0.00000000000E+00 0.  1.
</event>
<event>
 7    1  0.6164995E-012  0.5930196E+02  0.7816164E-02  0.1266605E+00
        -11   -1    0    0    0    0  0.00000000000E+00  0.00000000000E+00  0.45593999997E+02  0.45594000000E+02  0.51100000000E-03 0. -1.
         11   -1    0    0    0    0 -0.00000000000E+00 -0.00000000000E+00 -0.45593999997E+02  0.45594000000E+02  0.51100000000E-03 0.  1.
    9900012    2    1    2    0    0  0.25931949022E+02 -0.18477672695E+02 -0.16820803611E+01  0.59301956616E+02  0.50000022958E+02 0.  0.
         12    1    1    2    0    0 -0.25931949022E+02  0.18477672695E+02  0.16820803611E+01  0.31886043384E+02  0.00000000000E+00 0. -1.
         11    1    3    3    0    0  0.18075277218E+02 -0.28095262289E+00  0.40491763602E+01  0.18525399060E+02  0.51100000000E-03 0. -1.
        -11    1    3    3    0    0  0.45177660692E+01 -0.18282655691E+02  0.12264111173E+02  0.22473854420E+02  0.51100000000E-03 0.  1.
         12    1    3    3    0    0  0.33389057351E+01  0.85935617993E-01 -0.17995367894E+02  0.18302703136E+02  0.00000000000E+00 0. -1.
</event>
<event>
 7    1  0.6164995E-012  0.5930195E+02  0.7816164E-02  0.1266605E+00
        -11   -1    0    0    0    0  0.00000000000E+00  0.00000000000E+00  0.45593999997E+02  0.45594000000E+02  0.51100000000E-03 0.  1.
         11   -1    0    0    0    0 -0.00000000000E+00 -0.00000000000E+00 -0.45593999997E+02  0.45594000000E+02  0.51100000000E-03 0. -1.
    9900012    2    1    2    0    0 -0.22735072273E+02 -0.16920060282E+02  0.14613297481E+02  0.59301946396E+02  0.50000004319E+02 0.  0.
         12    1    1    2    0    0  0.22735072273E+02  0.16920060282E+02 -0.14613297481E+02  0.31886053604E+02  0.00000000000E+00 0. -1.
         11    1    3    3    0    0  0.15655829366E+01 -0.73614719703E+01 -0.95999524392E+01  0.12198418201E+02  0.51100000000E-03 0. -1.
        -11    1    3    3    0    0 -0.26592967888E+01  0.66625979536E+01  0.17966456654E+02  0.19345687785E+02  0.51100000000E-03 0.  1.
         12    1    3    3    0    0 -0.21641358421E+02 -0.16221186265E+02  0.62467932661E+01  0.27757840410E+02  0.00000000000E+00 0. -1.
</event>
<event>
 7    1  0.6164995E-012  0.5930193E+02  0.7816164E-02  0.1266605E+00
        -11   -1    0    0    0    0  0.00000000000E+00  0.00000000000E+00  0.45593999997E+02  0.45594000000E+02  0.51100000000E-03 0. -1.
         11   -1    0    0    0    0 -0.00000000000E+00 -0.00000000000E+00 -0.45593999997E+02  0.45594000000E+02  0.51100000000E-03 0.  1.
    9900012    2    1    2    0    0 -0.23615213174E+02 -0.13536850888E+01 -0.21382487869E+02  0.59301928683E+02  0.49999972015E+02 0.  0.
         12    1    1    2    0    0  0.23615213174E+02  0.13536850888E+01  0.21382487869E+02  0.31886071317E+02  0.00000000000E+00 0. -1.
         11    1    3    3    0    0 -0.16263929513E+02 -0.18667180672E+02  0.30927960161E+01  0.24950840165E+02  0.51100000000E-03 0. -1.
        -11    1    3    3    0    0 -0.30497018329E+01  0.59377502366E+01  0.37362832976E+00  0.66855932820E+01  0.51100000000E-03 0.  1.
        -12    1    3    3    0    0 -0.43015818281E+01  0.11375745347E+02 -0.24848912215E+02  0.27665495236E+02  0.00000000000E+00 0.  1.
</event>
<event>
 7    1  0.6164995E-012  0.5930194E+02  0.7816164E-02  0.1266605E+00
        -11   -1    0    0    0    0  0.00000000000E+00  0.00000000000E+00  0.45593999997E+02  0.45594000000E+02  0.51100000000E-03 0.  1.
         11   -1    0    0    0    0 -0.00000000000E+00 -0.00000000000E+00 -0.45593999997E+02  0.45594000000E+02  0.51100000000E-03 0. -1.
    9900012    2    1    2    0    0 -0.19780269404E+02  0.28214536529E+01 -0.24849571502E+02  0.59301939373E+02  0.49999991512E+02 0.  0.
         12    1    1    2    0    0  0.19780269404E+02 -0.28214536529E+01  0.24849571502E+02  0.31886060627E+02  0.00000000000E+00 0. -1.
         11    1    3    3    0    0 -0.76753834670E+01  0.73324462685E+01  0.12760950601E+01  0.10691337545E+02  0.51100000000E-03 0. -1.
        -11    1    3    3    0    0 -0.20909671549E+02  0.10547175669E+02 -0.13043159043E+02  0.26806366351E+02  0.51100000000E-03 0.  1.
         12    1    3    3    0    0  0.88047856115E+01 -0.15058168284E+02 -0.13082507520E+02  0.21804235477E+02  0.00000000000E+00 0. -1.
</event>
<event>
 7    1  0.6164995E-012  0.5930191E+02  0.7816164E-02  0.1266605E+00
        -11   -1    0    0    0    0  0.00000000000E+00  0.00000000000E+00  0.45593999997E+02  0.45594000000E+02  0.51100000000E-03 0.  1.
         11   -1    0    0    0    0 -0.00000000000E+00 -0.00000000000E+00 -0.45593999997E+02  0.45594000000E+02  0.51100000000E-03 0. -1.
    9900012    2    1    2    0    0 -0.26122139953E+01 -0.67821539787E+00  0.31771674272E+02  0.59301907042E+02  0.49999932548E+02 0.  0.
         12    1    1    2    0    0  0.26122139953E+01  0.67821539787E+00 -0.31771674272E+02  0.31886092958E+02  0.00000000000E+00 0. -1.
         11    1    3    3    0    0  0.65592785276E+01 -0.31319416591E+01 -0.12344993900E+01  0.73727323540E+01  0.51100000000E-03 0. -1.
        -11    1    3    3    0    0 -0.13274403605E+02 -0.98207787728E+01  0.38744883855E-01  0.16512388931E+02  0.51100000000E-03 0.  1.
        -12    1    3    3    0    0  0.41029110823E+01  0.12274505034E+02  0.32967428778E+02  0.35416785757E+02  0.00000000000E+00 0.  1.
</event>
<event>
 7    1  0.6164995E-012  0.5930190E+02  0.7816164E-02  0.1266605E+00
        -11   -1    0    0    0    0  0.00000000000E+00  0.00000000000E+00  0.45593999997E+02  0.45594000000E+02  0.51100000000E-03 0.  1.
         11   -1    0    0    0    0 -0.00000000000E+00 -0.00000000000E+00 -0.45593999997E+02  0.45594000000E+02  0.51100000000E-03 0. -1.
    9900012    2    1    2    0    0 -0.21220438709E+02 -0.44309201036E+01  0.23383404009E+02  0.59301895582E+02  0.49999911646E+02 0.  0.
         12    1    1    2    0    0  0.21220438709E+02  0.44309201036E+01 -0.23383404009E+02  0.31886104418E+02  0.00000000000E+00 0. -1.
         11    1    3    3    0    0 -0.27486650715E+01  0.33450879917E+01  0.76225287818E+01  0.87662830571E+01  0.51100000000E-03 0.  1.
        -11    1    3    3    0    0 -0.81531472437E+01 -0.17708832778E+02  0.26311116757E+02  0.32746777454E+02  0.51100000000E-03 0. -1.
         12    1    3    3    0    0 -0.10318626393E+02  0.99328246830E+01 -0.10550241530E+02  0.17788835071E+02  0.00000000000E+00 0. -1.
</event>
<event>
 7    1  0.6164995E-012  0.5930190E+02  0.7816164E-02  0.1266605E+00
        -11   -1    0    0    0    0  0.00000000000E+00  0.00000000000E+00  0.45593999997E+02  0.45594000000E+02  0.51100000000E-03 0. -1.
         11   -1    0    0    0    0 -0.00000000000E+00 -0.00000000000E+00 -0.45593999997E+02  0.45594000000E+02  0.51100000000E-03 0.  1.
    9900012    2    1    2    0    0  0.71069175820E+01 -0.29769654860E+02  0.89433018451E+01  0.59301901526E+02  0.49999922486E+02 0.  0.
         12    1    1    2    0    0 -0.71069175820E+01  0.29769654860E+02 -0.89433018451E+01  0.31886098474E+02  0.00000000000E+00 0. -1.
         11    1    3    3    0    0  0.11721088208E+02 -0.11100904445E+02  0.17324371472E+02  0.23680114769E+02  0.51100000000E-03 0. -1.
        -11    1    3    3    0    0 -0.37124307970E+01 -0.63568428882E+01  0.10644518630E+02  0.12942077540E+02  0.51100000000E-03 0.  1.
        -12    1    3    3    0    0 -0.90173982885E+00 -0.12311907527E+02 -0.19025588257E+02  0.22679709217E+02  0.00000000000E+00 0.  1.
</event>
<event>
 7    1  0.6164995E-012  0.5930197E+02  0.7816164E-02  0.1266605E+00
        -11   -1    0    0    0    0  0.00000000000E+00  0.00000000000E+00  0.45593999997E+02  0.45594000000E+02  0.51100000000E-03 0.  1.
         11   -1    0    0    0    0 -0.00000000000E+00 -0.00000000000E+00 -0.45593999997E+02  0.45594000000E+02  0.51100000000E-03 0. -1.
    9900012    2    1    2    0    0  0.64541138252E+00 -0.23405267608E+02  0.21644766407E+02  0.59301968255E+02  0.50000044184E+02 0.  0.
         12    1    1    2    0    0 -0.64541138252E+00  0.23405267608E+02 -0.21644766407E+02  0.31886031745E+02  0.00000000000E+00 0. -1.
         11    1    3    3    0    0  0.83761026264E+01 -0.16103893959E+02  0.19199557538E+02  0.26421913363E+02  0.51100000000E-03 0. -1.
        -11    1    3    3    0    0 -0.18137190621E+02 -0.14329814855E+01  0.77907468042E+01  0.19791585475E+02  0.51100000000E-03 0.  1.
         12    1    3    3    0    0  0.10406499377E+02 -0.58683921636E+01 -0.53455379349E+01  0.13088469417E+02  0.00000000000E+00 0. -1.
</event>
<event>
 7    1  0.6164995E-012  0.5930195E+02  0.7816164E-02  0.1266605E+00
        -11   -1    0    0    0    0  0.00000000000E+00  0.00000000000E+00  0.45593999997E+02  0.45594000000E+02  0.51100000000E-03 0.  1.
         11   -1    0    0    0    0 -0.00000000000E+00 -0.00000000000E+00 -0.45593999997E+02  0.45594000000E+02  0.51100000000E-03 0. -1.
    9900012    2    1    2    0    0 -0.80362020724E+01 -0.29378069714E+02 -0.94376228792E+01  0.59301948983E+02  0.50000009036E+02 0.  0.
         12    1    1    2    0    0  0.80362020724E+01  0.29378069714E+02  0.94376228792E+01  0.31886051017E+02  0.00000000000E+00 0. -1.
         11    1    3    3    0    0  0.85752910320E+01 -0.80499847160E+01  0.23619638917E+01  0.11996530494E+02  0.51100000000E-03 0. -1.
        -11    1    3    3    0    0 -0.67249841159E+01 -0.31096934682E+02 -0.96088045732E+01  0.33235130262E+02  0.51100000000E-03 0.  1.
        -12    1    3    3    0    0 -0.98865089885E+01  0.97688496838E+01 -0.21907821977E+01  0.14070288226E+02  0.00000000000E+00 0.  1.
</event>
<event>
 7    1  0.6164995E-012  0.5930195E+02  0.7816164E-02  0.1266605E+00
        -11   -1    0    0    0    0  0.00000000000E+00  0.00000000000E+00  0.45593999997E+02  0.45594000000E+02  0.51100000000E-03 0.  1.
         11   -1    0    0    0    0 -0.00000000000E+00 -0.00000000000E+00 -0.45593999997E+02  0.45594000000E+02  0.51100000000E-03 0. -1.
    9900012    2    1    2    0    0  0.17804040090E+02  0.24734365078E+02  0.93780439590E+01  0.59301947127E+02  0.50000005652E+02 0.  0.
         12    1    1    2    0    0 -0.17804040090E+02 -0.24734365078E+02 -0.93780439590E+01  0.31886052873E+02  0.00000000000E+00 0. -1.
         11    1    3    3    0    0  0.13269083077E+01  0.93880367704E+01 -0.94195478019E+01  0.13365021553E+02  0.51100000000E-03 0. -1.
        -11    1    3    3    0    0  0.16345996627E+02  0.46682894801E+01 -0.67164089640E+01  0.18278257084E+02  0.51100000000E-03 0.  1.
        -12    1    3    3    0    0  0.13113515506E+00  0.10678038827E+02  0.25514000725E+02  0.27658668490E+02  0.00000000000E+00 0.  1.
</event>
<event>
 7    1  0.6164995E-012  0.5930193E+02  0.7816164E-02  0.1266605E+00
        -11   -1    0    0    0    0  0.00000000000E+00  0.00000000000E+00  0.45593999997E+02  0.45594000000E+02  0.51100000000E-03 0.  1.
         11   -1    0    0    0    0 -0.00000000000E+00 -0.00000000000E+00 -0.45593999997E+02  0.45594000000E+02  0.51100000000E-03 0. -1.
    9900012    2    1    2    0    0  0.18156616978E+02 -0.16386669206E+02  0.20458140013E+02  0.59301934696E+02  0.49999982981E+02 0.  0.
         12    1    1    2    0    0 -0.18156616978E+02  0.16386669206E+02 -0.20458140013E+02  0.31886065304E+02  0.00000000000E+00 0. -1.
         11    1    3    3    0    0 -0.10547971405E+02 -0.82533244020E+01  0.13894264797E+02  0.19298384879E+02  0.51100000000E-03 0. -1.
        -11    1    3    3    0    0 -0.39869533976E+01  0.29222602259E+01  0.55978117090E+00  0.49748123023E+01  0.51100000000E-03 0.  1.
         12    1    3    3    0    0  0.32691541781E+02 -0.11055605030E+02  0.60040940455E+01  0.35028737515E+02  0.00000000000E+00 0. -1.
</event>
<event>
 7    1  0.6164995E-012  0.5930188E+02  0.7816164E-02  0.1266605E+00
        -11   -1    0    0    0    0  0.00000000000E+00  0.00000000000E+00  0.45593999997E+02  0.45594000000E+02  0.51100000000E-03 0.  1.
         11   -1    0    0    0    0 -0.00000000000E+00 -0.00000000000E+00 -0.45593999997E+02  0.45594000000E+02  0.51100000000E-03 0. -1.
    9900012    2    1    2    0    0 -0.21322664016E+02 -0.23218772427E+02 -0.47913460883E+01  0.59301884039E+02  0.49999890595E+02 0.  0.
         12    1    1    2    0    0  0.21322664016E+02  0.23218772427E+02  0.47913460883E+01  0.31886115961E+02  0.00000000000E+00 0. -1.
         11    1    3    3    0    0 -0.89211675258E+01 -0.11808564945E+02 -0.43411320420E+01  0.15423192398E+02  0.51100000000E-03 0. -1.
        -11    1    3    3    0    0 -0.10687100640E+02 -0.10871096789E+02  0.18992075827E+02  0.24353517404E+02  0.51100000000E-03 0.  1.
        -12    1    3    3    0    0 -0.17143958495E+01 -0.53911069256E+00 -0.19442289873E+02  0.19525174237E+02  0.00000000000E+00 0.  1.
</event>
<event>
 7    1  0.6164995E-012  0.5930198E+02  0.7816164E-02  0.1266605E+00
        -11   -1    0    0    0    0  0.00000000000E+00  0.00000000000E+00  0.45593999997E+02  0.45594000000E+02  0.51100000000E-03 0.  1.
         11   -1    0    0    0    0 -0.00000000000E+00 -0.00000000000E+00 -0.45593999997E+02  0.45594000000E+02  0.51100000000E-03 0. -1.
    9900012    2    1    2    0    0  0.16503903825E+02  0.11748559025E+01  0.27257275401E+02  0.59301981275E+02  0.50000067930E+02 0.  0.
         12    1    1    2    0    0 -0.16503903825E+02 -0.11748559025E+01 -0.27257275401E+02  0.31886018725E+02  0.00000000000E+00 0. -1.
         11    1    3    3    0    0  0.14432469685E+02 -0.34124467246E+01  0.13856284177E+01  0.14894997155E+02  0.51100000000E-03 0. -1.
        -11    1    3    3    0    0  0.10173183673E+02  0.10029420584E+02  0.30444006656E+02  0.33629161226E+02  0.51100000000E-03 0.  1.
         12    1    3    3    0    0 -0.81017495333E+01 -0.54421179568E+01 -0.45723596723E+01  0.10777822894E+02  0.00000000000E+00 0. -1.
</event>
<event>
 7    1  0.6164995E-012  0.5930196E+02  0.7816164E-02  0.1266605E+00
        -11   -1    0    0    0    0  0.00000000000E+00  0.00000000000E+00  0.45593999997E+02  0.45594000000E+02  0.51100000000E-03 0. -1.
         11   -1    0    0    0    0 -0.00000000000E+00 -0.00000000000E+00 -0.45593999997E+02  0.45594000000E+02  0.51100000000E-03 0.  1.
    9900012    2    1    2    0    0  0.17875837260E+02  0.15278376002E+02 -0.21534741232E+02  0.59301962132E+02  0.50000033018E+02 0.  0.
         12    1    1    2    0    0 -0.17875837260E+02 -0.15278376002E+02  0.21534741232E+02  0.31886037868E+02  0.00000000000E+00 0. -1.
         11    1    3    3    0    0 -0.49456269876E+01 -0.34820821236E+01  0.24528334164E+01  0.65269069433E+01  0.51100000000E-03 0. -1.
        -11    1    3    3    0    0  0.14226223515E+02  0.98016094667E+01  0.75710994482E+01  0.18862092427E+02  0.51100000000E-03 0.  1.
        -12    1    3    3    0    0  0.85952407329E+01  0.89588486592E+01 -0.31558674096E+02  0.33912962761E+02  0.00000000000E+00 0.  1.
</event>
<event>
 7    1  0.6164995E-012  0.5930199E+02  0.7816164E-02  0.1266605E+00
        -11   -1    0    0    0    0  0.00000000000E+00  0.00000000000E+00  0.45593999997E+02  0.45594000000E+02  0.51100000000E-03 0.  1.
         11   -1    0    0    0    0 -0.00000000000E+00 -0.00000000000E+00 -0.45593999997E+02  0.45594000000E+02  0.51100000000E-03 0. -1.
    9900012    2    1    2    0    0  0.20815561325E+02  0.24023691025E+02  0.25084110901E+01  0.59301992882E+02  0.50000089098E+02 0.  0.
         12    1    1    2    0    0 -0.20815561325E+02 -0.24023691025E+02 -0.25084110901E+01  0.31886007118E+02  0.00000000000E+00 0. -1.
         11    1    3    3    0    0  0.15309933942E+01  0.21305529665E+00 -0.65610792152E+01  0.67407042705E+01  0.51100000000E-03 0. -1.
        -11    1    3    3    0    0  0.32044135827E+02  0.11549904374E+02  0.53625593554E+01  0.34481646931E+02  0.51100000000E-03 0.  1.
        -12    1    3    3    0    0 -0.12759567896E+02  0.12260731354E+02  0.37069309500E+01  0.18079641681E+02  0.00000000000E+00 0.  1.
</event>
<event>
 7    1  0.6164995E-012  0.5930198E+02  0.7816164E-02  0.1266605E+00
        -11   -1    0    0    0    0  0.00000000000E+00  0.00000000000E+00  0.45593999997E+02  0.45594000000E+02  0.51100000000E-03 0.  1.
         11   -1    0    0    0    0 -0.00000000000E+00 -0.00000000000E+00 -0.45593999997E+02  0.45594000000E+02  0.51100000000E-03 0. -1.
    9900012    2    1    2    0    0 -0.19591735601E+02 -0.21618987396E+00  0.25156221846E+02  0.59301978933E+02  0.50000063659E+02 0.  0.
         12    1    1    2    0    0  0.19591735601E+02  0.21618987396E+00 -0.25156221846E+02  0.31886021067E+02  0.00000000000E+00 0. -1.
         11    1    3    3    0    0 -0.22965753523E+01  0.30120931338E+01 -0.87130222301E+01  0.95007220799E+01  0.51100000000E-03 0. -1.
        -11    1    3    3    0    0 -0.20837229277E+02 -0.65202177509E+01  0.76425287630E+01  0.23132479538E+02  0.51100000000E-03 0.  1.
        -12    1    3    3    0    0  0.35420690279E+01  0.32919347432E+01  0.26226715313E+02  0.26668777315E+02  0.00000000000E+00 0.  1.
</event>
<event>
 7    1  0.6164995E-012  0.5930195E+02  0.7816164E-02  0.1266605E+00
        -11   -1    0    0    0    0  0.00000000000E+00  0.00000000000E+00  0.45593999997E+02  0.45594000000E+02  0.51100000000E-03 0.  1.
         11   -1    0    0    0    0 -0.00000000000E+00 -0.00000000000E+00 -0.45593999997E+02  0.45594000000E+02  0.51100000000E-03 0. -1.
    9900012    2    1    2    0    0  0.86181583264E+01 -0.25591067788E+02  0.16957143355E+02  0.59301951103E+02  0.50000012904E+02 0.  0.
         12    1    1    2    0    0 -0.86181583264E+01  0.25591067788E+02 -0.16957143355E+02  0.31886048897E+02  0.00000000000E+00 0. -1.
         11    1    3    3    0    0  0.42142538578E+01 -0.23449860192E+02 -0.78015578065E+01  0.25070304806E+02  0.51100000000E-03 0. -1.
        -11    1    3    3    0    0  0.58369152902E+01 -0.12135145356E+02  0.15505638083E+02  0.20536702401E+02  0.51100000000E-03 0.  1.
         12    1    3    3    0    0 -0.14330108216E+01  0.99939377600E+01  0.92530630792E+01  0.13694943896E+02  0.00000000000E+00 0. -1.
</event>
<event>
 7    1  0.6164995E-012  0.5930190E+02  0.7816164E-02  0.1266605E+00
        -11   -1    0    0    0    0  0.00000000000E+00  0.00000000000E+00  0.45593999997E+02  0.45594000000E+02  0.51100000000E-03 0.  1.
         11   -1    0    0    0    0 -0.00000000000E+00 -0.00000000000E+00 -0.45593999997E+02  0.45594000000E+02  0.51100000000E-03 0. -1.
    9900012    2    1    2    0    0 -0.19240063962E+02 -0.58833566090E+01  0.24737210484E+02  0.59301897560E+02  0.49999915254E+02 0.  0.
         12    1    1    2    0    0  0.19240063962E+02  0.58833566090E+01 -0.24737210484E+02  0.31886102440E+02  0.00000000000E+00 0. -1.
         11    1    3    3    0    0  0.68267398215E+01  0.12432858471E+02  0.39685426222E+01  0.14728532756E+02  0.51100000000E-03 0. -1.
        -11    1    3    3    0    0 -0.14925800176E+02  0.30819594975E+01  0.93766820126E+01  0.17894137338E+02  0.51100000000E-03 0.  1.
         12    1    3    3    0    0 -0.11141003607E+02 -0.21398174577E+02  0.11391985850E+02  0.26679227466E+02  0.00000000000E+00 0. -1.
</event>
<event>
 7    1  0.6164995E-012  0.5930195E+02  0.7816164E-02  0.1266605E+00
        -11   -1    0    0    0    0  0.00000000000E+00  0.00000000000E+00  0.45593999997E+02  0.45594000000E+02  0.51100000000E-03 0.  1.
         11   -1    0    0    0    0 -0.00000000000E+00 -0.00000000000E+00 -0.45593999997E+02  0.45594000000E+02  0.51100000000E-03 0. -1.
    9900012    2    1    2    0    0  0.24243497619E+02  0.16258950657E+02  0.12830418078E+02  0.59301948483E+02  0.50000008126E+02 0.  0.
         12    1    1    2    0    0 -0.24243497619E+02 -0.16258950657E+02 -0.12830418078E+02  0.31886051517E+02  0.00000000000E+00 0. -1.
         11    1    3    3    0    0  0.20169848236E+02  0.14141166988E+02 -0.14426323146E+02  0.28546701760E+02  0.51100000000E-03 0. -1.
        -11    1    3    3    0    0  0.71755719445E+01  0.50042745957E+01  0.11562435670E+02  0.14499017755E+02  0.51100000000E-03 0.  1.
        -12    1    3    3    0    0 -0.31019225611E+01 -0.28864909269E+01  0.15694305554E+02  0.16256228968E+02  0.00000000000E+00 0.  1.
</event>
<event>
 7    1  0.6164995E-012  0.5930193E+02  0.7816164E-02  0.1266605E+00
        -11   -1    0    0    0    0  0.00000000000E+00  0.00000000000E+00  0.45593999997E+02  0.45594000000E+02  0.51100000000E-03 0. -1.
         11   -1    0    0    0    0 -0.00000000000E+00 -0.00000000000E+00 -0.45593999997E+02  0.45594000000E+02  0.51100000000E-03 0.  1.
    9900012    2    1    2    0    0  0.88467488900E+01 -0.28429451315E+02 -0.11411528653E+02  0.59301926955E+02  0.49999968864E+02 0.  0.
         12    1    1    2    0    0 -0.88467488900E+01  0.28429451315E+02  0.11411528653E+02  0.31886073045E+02  0.00000000000E+00 0. -1.
         11    1    3    3    0    0  0.54323389034E+01 -0.16747247610E+00  0.15263331413E+02  0.16202087491E+02  0.51100000000E-03 0. -1.
        -11    1    3    3    0    0 -0.54562130505E+01 -0.14177052471E+02 -0.54777697611E+01  0.16148220937E+02  0.51100000000E-03 0.  1.
        -12    1    3    3    0    0  0.88706230370E+01 -0.14084926368E+02 -0.21197090305E+02  0.26951618527E+02  0.00000000000E+00 0.  1.
</event>
<event>
 7    1  0.6164995E-012  0.5930199E+02  0.7816164E-02  0.1266605E+00
        -11   -1    0    0    0    0  0.00000000000E+00  0.00000000000E+00  0.45593999997E+02  0.45594000000E+02  0.51100000000E-03 0.  1.
         11   -1    0    0    0    0 -0.00000000000E+00 -0.00000000000E+00 -0.45593999997E+02  0.45594000000E+02  0.51100000000E-03 0. -1.
    9900012    2    1    2    0    0  0.35654583190E+01 -0.81480477970E+01  0.30620490502E+02  0.59301990301E+02  0.50000084392E+02 0.  0.
         12    1    1    2    0    0 -0.35654583190E+01  0.81480477970E+01 -0.30620490502E+02  0.31886009699E+02  0.00000000000E+00 0. -1.
         11    1    3    3    0    0 -0.16316523302E+01 -0.53817218259E+01  0.12891959535E+02  0.14065128512E+02  0.51100000000E-03 0. -1.
        -11    1    3    3    0    0  0.19576875610E+02 -0.32166356715E+01  0.22576735621E+02  0.30055112631E+02  0.51100000000E-03 0.  1.
         12    1    3    3    0    0 -0.14379764961E+02  0.45030970041E+00 -0.48482046538E+01  0.15181749159E+02  0.00000000000E+00 0. -1.
</event>
<event>
 7    1  0.6164995E-012  0.5930195E+02  0.7816164E-02  0.1266605E+00
        -11   -1    0    0    0    0  0.00000000000E+00  0.00000000000E+00  0.45593999997E+02  0.45594000000E+02  0.51100000000E-03 0. -1.
         11   -1    0    0    0    0 -0.00000000000E+00 -0.00000000000E+00 -0.45593999997E+02  0.45594000000E+02  0.51100000000E-03 0.  1.
    9900012    2    1    2    0    0 -0.31877941111E+02 -0.60169585409E+00 -0.39400865625E+00  0.59301946462E+02  0.50000004440E+02 0.  0.
         12    1    1    2    0    0  0.31877941111E+02  0.60169585409E+00  0.39400865625E+00  0.31886053538E+02  0.00000000000E+00 0. -1.
         11    1    3    3    0    0 -0.62491763491E+01 -0.74361250638E+01 -0.10581463260E+02  0.14363687757E+02  0.51100000000E-03 0. -1.
        -11    1    3    3    0    0 -0.18619492960E+02  0.15239552150E+02 -0.65534015285E+01  0.24937452550E+02  0.51100000000E-03 0.  1.
         12    1    3    3    0    0 -0.70092718024E+01 -0.84051229401E+01  0.16740856132E+02  0.20000806155E+02  0.00000000000E+00 0. -1.
</event>
<event>
 7    1  0.6164995E-012  0.5930196E+02  0.7816164E-02  0.1266605E+00
        -11   -1    0    0    0    0  0.00000000000E+00  0.00000000000E+00  0.45593999997E+02  0.45594000000E+02  0.51100000000E-03 0.  1.
         11   -1    0    0    0    0 -0.00000000000E+00 -0.00000000000E+00 -0.45593999997E+02  0.45594000000E+02  0.51100000000E-03 0. -1.
    9900012    2    1    2    0    0 -0.40235674410E+01  0.38795508894E+01  0.31392346139E+02  0.59301962206E+02  0.50000033153E+02 0.  0.
         12    1    1    2    0    0  0.40235674410E+01 -0.38795508894E+01 -0.31392346139E+02  0.31886037794E+02  0.00000000000E+00 0. -1.
         11    1    3    3    0    0  0.66142386621E+01  0.64872034739E+01  0.18103894513E+02  0.20336739138E+02  0.51100000000E-03 0. -1.
        -11    1    3    3    0    0 -0.16260695224E+00  0.98122617813E+01 -0.76637285584E+01  0.12451492198E+02  0.51100000000E-03 0.  1.
         12    1    3    3    0    0 -0.10475199151E+02 -0.12419914366E+02  0.20952180185E+02  0.26513730869E+02  0.00000000000E+00 0. -1.
</event>
<event>
 7    1  0.6164995E-012  0.5930193E+02  0.7816164E-02  0.1266605E+00
        -11   -1    0    0    0    0  0.00000000000E+00  0.00000000000E+00  0.45593999997E+02  0.45594000000E+02  0.51100000000E-03 0.  1.
         11   -1    0    0    0    0 -0.00000000000E+00 -0.00000000000E+00 -0.45593999997E+02  0.45594000000E+02  0.51100000000E-03 0. -1.
    9900012    2    1    2    0    0 -0.54654110467E+01  0.56276363121E+01  0.30905993947E+02  0.59301929840E+02  0.49999974126E+02 0.  0.
         12    1    1    2    0    0  0.54654110467E+01 -0.56276363121E+01 -0.30905993947E+02  0.31886070160E+02  0.00000000000E+00 0. -1.
         11    1    3    3    0    0  0.86752875092E+01 -0.13316230434E+01  0.57202618586E+01  0.10476412997E+02  0.51100000000E-03 0. -1.
        -11    1    3    3    0    0  0.26587719267E+01 -0.22567029051E+01  0.29066667454E+02  0.29275124821E+02  0.51100000000E-03 0.  1.
         12    1    3    3    0    0 -0.16799470483E+02  0.92159622606E+01 -0.38809353656E+01  0.19550392022E+02  0.00000000000E+00 0. -1.
</event>
<event>
 7    1  0.6164995E-012  0.5930194E+02  0.7816164E-02  0.1266605E+00
        -11   -1    0    0    0    0  0.00000000000E+00  0.00000000000E+00  0.45593999997E+02  0.45594000000E+02  0.51100000000E-03 0. -1.
         11   -1    0    0    0    0 -0.00000000000E+00 -0.00000000000E+00 -0.45593999997E+02  0.45594000000E+02  0.51100000000E-03 0.  1.
    9900012    2    1    2    0    0  0.24596146961E+02  0.13906628323E+02 -0.14776866315E+02  0.59301944509E+02  0.50000000878E+02 0.  0.
         12    1    1    2    0    0 -0.24596146961E+02 -0.13906628323E+02  0.14776866315E+02  0.31886055491E+02  0.00000000000E+00 0. -1.
         11    1    3    3    0    0  0.10938665342E+02 -0.86439073860E+01  0.13724667127E+02  0.19563691430E+02  0.51100000000E-03 0. -1.
        -11    1    3    3    0    0  0.30101917512E+01  0.38611726261E+00 -0.23178539611E+01  0.38187416992E+01  0.51100000000E-03 0.  1.
        -12    1    3    3    0    0  0.10647289868E+02  0.22164418447E+02 -0.26183679481E+02  0.35919511380E+02  0.00000000000E+00 0.  1.
</event>
<event>
 7    1  0.6164995E-012  0.5930195E+02  0.7816164E-02  0.1266605E+00
        -11   -1    0    0    0    0  0.00000000000E+00  0.00000000000E+00  0.45593999997E+02  0.45594000000E+02  0.51100000000E-03 0.  1.
         11   -1    0    0    0    0 -0.00000000000E+00 -0.00000000000E+00 -0.45593999997E+02  0.45594000000E+02  0.51100000000E-03 0. -1.
    9900012    2    1    2    0    0 -0.32757386706E+01  0.38171555488E+01  0.31486811073E+02  0.59301946436E+02  0.50000004393E+02 0.  0.
         12    1    1    2    0    0  0.32757386706E+01 -0.38171555488E+01 -0.31486811073E+02  0.31886053564E+02  0.00000000000E+00 0. -1.
         11    1    3    3    0    0 -0.57237263062E+01  0.33544420525E+01  0.19026978429E+02  0.20150415199E+02  0.51100000000E-03 0. -1.
        -11    1    3    3    0    0 -0.12753870589E+02  0.10288846364E+02  0.13190140610E+02  0.21035716866E+02  0.51100000000E-03 0.  1.
        -12    1    3    3    0    0  0.15201858224E+02 -0.98261328680E+01 -0.73030796537E+00  0.18115814371E+02  0.00000000000E+00 0.  1.
</event>
<event>
 7    1  0.6164995E-012  0.5930194E+02  0.7816164E-02  0.1266605E+00
        -11   -1    0    0    0    0  0.00000000000E+00  0.00000000000E+00  0.45593999997E+02  0.45594000000E+02  0.51100000000E-03 0.  1.
         11   -1    0    0    0    0 -0.00000000000E+00 -0.00000000000E+00 -0.45593999997E+02  0.45594000000E+02  0.51100000000E-03 0. -1.
    9900012    2    1    2    0    0 -0.15889263552E+02  0.87608926297E+01  0.26220197127E+02  0.59301942337E+02  0.49999996917E+02 0.  0.
         12    1    1    2    0    0  0.15889263552E+02 -0.87608926297E+01 -0.26220197127E+02  0.31886057663E+02  0.00000000000E+00 0. -1.
         11    1    3    3    0    0 -0.17567680266E+02 -0.84489101106E+01 -0.22174149271E+00  0.19495041460E+02  0.51100000000E-03 0. -1.
        -11    1    3    3    0    0 -0.41684887126E+01 -0.50885948717E+01  0.74538755599E+01  0.99413458364E+01  0.51100000000E-03 0.  1.
        -12    1    3    3    0    0  0.58469054270E+01  0.22298397612E+02  0.18988063060E+02  0.29865555041E+02  0.00000000000E+00 0.  1.
</event>
<event>
 7    1  0.6164995E-012  0.5930193E+02  0.7816164E-02  0.1266605E+00
        -11   -1    0    0    0    0  0.00000000000E+00  0.00000000000E+00  0.45593999997E+02  0.45594000000E+02  0.51100000000E-03 0.  1.
         11   -1    0    0    0    0 -0.00000000000E+00 -0.00000000000E+00 -0.45593999997E+02  0.45594000000E+02  0.51100000000E-03 0. -1.
    9900012    2    1    2    0    0 -0.31570866964E+02  0.62643454626E+00 -0.44282360675E+01  0.59301931949E+02  0.49999977971E+02 0.  0.
         12    1    1    2    0    0  0.31570866964E+02 -0.62643454626E+00  0.44282360675E+01  0.31886068051E+02  0.00000000000E+00 0. -1.
         11    1    3    3    0    0  0.22315194767E+00 -0.15636068549E+01 -0.67855870547E+01  0.69669832156E+01  0.51100000000E-03 0. -1.
        -11    1    3    3    0    0 -0.42291291820E+01  0.19266269312E+02 -0.90434851375E+00  0.19745696071E+02  0.51100000000E-03 0.  1.
         12    1    3    3    0    0 -0.27564889730E+02 -0.17076227910E+02  0.32616995009E+01  0.32589252662E+02  0.00000000000E+00 0. -1.
</event>
<event>
 7    1  0.6164995E-012  0.5930196E+02  0.7816164E-02  0.1266605E+00
        -11   -1    0    0    0    0  0.00000000000E+00  0.00000000000E+00  0.45593999997E+02  0.45594000000E+02  0.51100000000E-03 0. -1.
         11   -1    0    0    0    0 -0.00000000000E+00 -0.00000000000E+00 -0.45593999997E+02  0.45594000000E+02  0.51100000000E-03 0.  1.
    9900012    2    1    2    0    0 -0.25395173244E+02  0.72264502385E+01 -0.17876888191E+02  0.59301960131E+02  0.50000029369E+02 0.  0.
         12    1    1    2    0    0  0.25395173244E+02 -0.72264502385E+01  0.17876888191E+02  0.31886039869E+02  0.00000000000E+00 0. -1.
         11    1    3    3    0    0 -0.46611975695E+01 -0.66752713287E+01 -0.38077650206E+01  0.89880523367E+01  0.51100000000E-03 0.  1.
        -11    1    3    3    0    0 -0.14505308251E+02  0.63876760421E+01 -0.28665320560E+02  0.32755258750E+02  0.51100000000E-03 0. -1.
         12    1    3    3    0    0 -0.62286674230E+01  0.75140455251E+01  0.14596197390E+02  0.17558649044E+02  0.00000000000E+00 0. -1.
</event>
<event>
 7    1  0.6164995E-012  0.5930191E+02  0.7816164E-02  0.1266605E+00
        -11   -1    0    0    0    0  0.00000000000E+00  0.00000000000E+00  0.45593999997E+02  0.45594000000E+02  0.51100000000E-03 0. -1.
         11   -1    0    0    0    0 -0.00000000000E+00 -0.00000000000E+00 -0.45593999997E+02  0.45594000000E+02  0.51100000000E-03 0.  1.
    9900012    2    1    2    0    0 -0.23033979527E+02 -0.10018971878E+02 -0.19641253369E+02  0.59301908295E+02  0.49999934831E+02 0.  0.
         12    1    1    2    0    0  0.23033979527E+02  0.10018971878E+02  0.19641253369E+02  0.31886091705E+02  0.00000000000E+00 0. -1.
         11    1    3    3    0    0 -0.67674684475E+01 -0.72647301392E+01 -0.20790294587E+02  0.23039342058E+02  0.51100000000E-03 0.  1.
        -11    1    3    3    0    0 -0.84642220329E+01  0.11095187752E+02 -0.97193951280E+01  0.17006260253E+02  0.51100000000E-03 0. -1.
        -12    1    3    3    0    0 -0.78022890466E+01 -0.13849429490E+02  0.10868436345E+02  0.19256305984E+02  0.00000000000E+00 0.  1.
</event>
<event>
 7    1  0.6164995E-012  0.5930195E+02  0.7816164E-02  0.1266605E+00
        -11   -1    0    0    0    0  0.00000000000E+00  0.00000000000E+00  0.45593999997E+02  0.45594000000E+02  0.51100000000E-03 0.  1.
         11   -1    0    0    0    0 -0.00000000000E+00 -0.00000000000E+00 -0.45593999997E+02  0.45594000000E+02  0.51100000000E-03 0. -1.
    9900012    2    1    2    0    0 -0.63762977707E+01 -0.15407815755E+02  0.27178335246E+02  0.59301954991E+02  0.50000019994E+02 0.  0.
         12    1    1    2    0    0  0.63762977707E+01  0.15407815755E+02 -0.27178335246E+02  0.31886045009E+02  0.00000000000E+00 0. -1.
         11    1    3    3    0    0 -0.86925219427E-01 -0.20234556831E+02  0.23893154737E+02  0.31310185079E+02  0.51100000000E-03 0. -1.
        -11    1    3    3    0    0 -0.95038517427E+01 -0.15163308060E+01  0.12861679578E+02  0.16063787190E+02  0.51100000000E-03 0.  1.
        -12    1    3    3    0    0  0.32144791914E+01  0.63430718823E+01 -0.95764990691E+01  0.11927982721E+02  0.00000000000E+00 0.  1.
</event>
<event>
 7    1  0.6164995E-012  0.5930195E+02  0.7816164E-02  0.1266605E+00
        -11   -1    0    0    0    0  0.00000000000E+00  0.00000000000E+00  0.45593999997E+02  0.45594000000E+02  0.51100000000E-03 0.  1.
         11   -1    0    0    0    0 -0.00000000000E+00 -0.00000000000E+00 -0.45593999997E+02  0.45594000000E+02  0.51100000000E-03 0. -1.
    9900012    2    1    2    0    0  0.24471922229E+02  0.95212750427E+01  0.18088416849E+02  0.59301945366E+02  0.50000002440E+02 0.  0.
         12    1    1    2    0    0 -0.24471922229E+02 -0.95212750427E+01 -0.18088416849E+02  0.31886054634E+02  0.00000000000E+00 0. -1.
         11    1    3    3    0    0  0.79224179998E+01 -0.36429878307E+01 -0.30223909409E+01  0.92288089458E+01  0.51100000000E-03 0. -1.
        -11    1    3    3    0    0  0.90647134062E+01  0.89319152236E+01 -0.11006141664E+02  0.16825079295E+02  0.51100000000E-03 0.  1.
        -12    1    3    3    0    0  0.74847908229E+01  0.42323476498E+01  0.32116949455E+02  0.33248057125E+02  0.00000000000E+00 0.  1.
</event>
<event>
 7    1  0.6164995E-012  0.5930193E+02  0.7816164E-02  0.1266605E+00
        -11   -1    0    0    0    0  0.00000000000E+00  0.00000000000E+00  0.45593999997E+02  0.45594000000E+02  0.51100000000E-03 0.  1.
         11   -1    0    0    0    0 -0.00000000000E+00 -0.00000000000E+00 -0.45593999997E+02  0.45594000000E+02  0.51100000000E-03 0. -1.
    9900012    2    1    2    0    0 -0.19397411352E+02 -0.16705381882E+02  0.19010313846E+02  0.59301931200E+02  0.49999976606E+02 0.  0.
         12    1    1    2    0    0  0.19397411352E+02  0.16705381882E+02 -0.19010313846E+02  0.31886068800E+02  0.00000000000E+00 0. -1.
         11    1    3    3    0    0  0.83490302235E+01 -0.19912609910E+02  0.10469297170E+01  0.21617455937E+02  0.51100000000E-03 0. -1.
        -11    1    3    3    0    0 -0.10598321270E+02 -0.45962636913E+01  0.14482439114E+02  0.18525417583E+02  0.51100000000E-03 0.  1.
         12    1    3    3    0    0 -0.17148120305E+02  0.78034917189E+01  0.34809450149E+01  0.19159057680E+02  0.00000000000E+00 0. -1.
</event>
<event>
 7    1  0.6164995E-012  0.5930194E+02  0.7816164E-02  0.1266605E+00
        -11   -1    0    0    0    0  0.00000000000E+00  0.00000000000E+00  0.45593999997E+02  0.45594000000E+02  0.51100000000E-03 0.  1.
         11   -1    0    0    0    0 -0.00000000000E+00 -0.00000000000E+00 -0.45593999997E+02  0.45594000000E+02  0.51100000000E-03 0. -1.
    9900012    2    1    2    0    0  0.65232441582E+01  0.31208597741E+02 -0.43794105687E+00  0.59301935965E+02  0.49999985295E+02 0.  0.
         12    1    1    2    0    0 -0.65232441582E+01 -0.31208597741E+02  0.43794105687E+00  0.31886064035E+02  0.00000000000E+00 0. -1.
         11    1    3    3    0    0 -0.38371051267E+01  0.13019673555E+02  0.81796668272E+01  0.15847467460E+02  0.51100000000E-03 0. -1.
        -11    1    3    3    0    0 -0.53132828936E+01  0.24704418467E+02 -0.24219271937E+01  0.25385133414E+02  0.51100000000E-03 0.  1.
         12    1    3    3    0    0  0.15673632179E+02 -0.65154942806E+01 -0.61956806904E+01  0.18069335090E+02  0.00000000000E+00 0. -1.
</event>
<event>
 7    1  0.6164995E-012  0.5930194E+02  0.7816164E-02  0.1266605E+00
        -11   -1    0    0    0    0  0.00000000000E+00  0.00000000000E+00  0.45593999997E+02  0.45594000000E+02  0.51100000000E-03 0.  1.
         11   -1    0    0    0    0 -0.00000000000E+00 -0.00000000000E+00 -0.45593999997E+02  0.45594000000E+02  0.51100000000E-03 0. -1.
    9900012    2    1    2    0    0 -0.19053948838E+02 -0.20112787064E+02  0.15784285793E+02  0.59301939600E+02  0.49999991926E+02 0.  0.
         12    1    1    2    0    0  0.19053948838E+02  0.20112787064E+02 -0.15784285793E+02  0.31886060400E+02  0.00000000000E+00 0. -1.
         11    1    3    3    0    0 -0.92944895624E+01  0.16059811581E+01  0.32204798952E+01  0.99668552073E+01  0.51100000000E-03 0. -1.
        -11    1    3    3    0    0 -0.13558177309E+02  0.86631122517E+01  0.91956027114E+01  0.18531939869E+02  0.51100000000E-03 0.  1.
         12    1    3    3    0    0  0.37987180338E+01 -0.30381880474E+02  0.33682031869E+01  0.30803144524E+02  0.00000000000E+00 0. -1.
</event>
<event>
 7    1  0.6164995E-012  0.5930210E+02  0.7816164E-02  0.1266604E+00
        -11   -1    0    0    0    0  0.00000000000E+00  0.00000000000E+00  0.45593999997E+02  0.45594000000E+02  0.51100000000E-03 0. -1.
         11   -1    0    0    0    0 -0.00000000000E+00 -0.00000000000E+00 -0.45593999997E+02  0.45594000000E+02  0.51100000000E-03 0.  1.
    9900012    2    1    2    0    0 -0.10387139631E+02  0.17298795328E+02 -0.24689468988E+02  0.59302096086E+02  0.50000277317E+02 0.  0.
         12    1    1    2    0    0  0.10387139631E+02 -0.17298795328E+02  0.24689468988E+02  0.31885903914E+02  0.00000000000E+00 0. -1.
         11    1    3    3    0    0  0.18440360624E+02  0.76258664959E+01 -0.14405664511E+02  0.24611458916E+02  0.51100000000E-03 0.  1.
        -11    1    3    3    0    0 -0.24304753732E+01  0.27131569197E+01 -0.60545968400E+01  0.70658739139E+01  0.51100000000E-03 0. -1.
         12    1    3    3    0    0 -0.26397024882E+02  0.69597719127E+01 -0.42292076370E+01  0.27624763255E+02  0.00000000000E+00 0. -1.
</event>
<event>
 7    1  0.6164995E-012  0.5930212E+02  0.7816164E-02  0.1266604E+00
        -11   -1    0    0    0    0  0.00000000000E+00  0.00000000000E+00  0.45593999997E+02  0.45594000000E+02  0.51100000000E-03 0. -1.
         11   -1    0    0    0    0 -0.00000000000E+00 -0.00000000000E+00 -0.45593999997E+02  0.45594000000E+02  0.51100000000E-03 0.  1.
    9900012    2    1    2    0    0  0.19526607482E+02  0.11478261260E+02 -0.22442608854E+02  0.59302116392E+02  0.50000314350E+02 0.  0.
         12    1    1    2    0    0 -0.19526607482E+02 -0.11478261260E+02  0.22442608854E+02  0.31885883608E+02  0.00000000000E+00 0. -1.
         11    1    3    3    0    0 -0.31609916466E+01  0.63078602537E+01 -0.20357216682E+02  0.21545237071E+02  0.51100000000E-03 0. -1.
        -11    1    3    3    0    0  0.71496530931E+01  0.41554614737E+01 -0.15262274874E+02  0.17358641479E+02  0.51100000000E-03 0.  1.
         12    1    3    3    0    0  0.15537946036E+02  0.10149395327E+01  0.13176882702E+02  0.20398237841E+02  0.00000000000E+00 0. -1.
</event>
<event>
 7    1  0.6164995E-012  0.5930195E+02  0.7816164E-02  0.1266605E+00
        -11   -1    0    0    0    0  0.00000000000E+00  0.00000000000E+00  0.45593999997E+02  0.45594000000E+02  0.51100000000E-03 0.  1.
         11   -1    0    0    0    0 -0.00000000000E+00 -0.00000000000E+00 -0.45593999997E+02  0.45594000000E+02  0.51100000000E-03 0. -1.
    9900012    2    1    2    0    0  0.10322142042E+02 -0.27823478729E+02  0.11663080481E+02  0.59301952405E+02  0.50000015279E+02 0.  0.
         12    1    1    2    0    0 -0.10322142042E+02  0.27823478729E+02 -0.11663080481E+02  0.31886047595E+02  0.00000000000E+00 0. -1.
         11    1    3    3    0    0  0.43363425505E+01 -0.86397807656E+01 -0.72556227643E+01  0.12086924354E+02  0.51100000000E-03 0. -1.
        -11    1    3    3    0    0 -0.96126675100E+01 -0.10336868043E+02 -0.69536555146E+01  0.15735550288E+02  0.51100000000E-03 0.  1.
         12    1    3    3    0    0  0.15598467001E+02 -0.88468299205E+01  0.25872358760E+02  0.31479477763E+02  0.00000000000E+00 0. -1.
</event>
<event>
 7    1  0.6164995E-012  0.5930194E+02  0.7816164E-02  0.1266605E+00
        -11   -1    0    0    0    0  0.00000000000E+00  0.00000000000E+00  0.45593999997E+02  0.45594000000E+02  0.51100000000E-03 0. -1.
         11   -1    0    0    0    0 -0.00000000000E+00 -0.00000000000E+00 -0.45593999997E+02  0.45594000000E+02  0.51100000000E-03 0.  1.
    9900012    2    1    2    0    0  0.91997575283E+01 -0.21604093451E+02 -0.21571935960E+02  0.59301940139E+02  0.49999992908E+02 0.  0.
         12    1    1    2    0    0 -0.91997575283E+01  0.21604093451E+02  0.21571935960E+02  0.31886059861E+02  0.00000000000E+00 0. -1.
         11    1    3    3    0    0  0.17783033918E+02 -0.56310796263E+00  0.42387044492E+01  0.18289887960E+02  0.51100000000E-03 0. -1.
        -11    1    3    3    0    0  0.33385863130E+01  0.33351209188E+01 -0.33537766802E+01  0.57893875664E+01  0.51100000000E-03 0.  1.
        -12    1    3    3    0    0 -0.11921862703E+02 -0.24376106407E+02 -0.22456863729E+02  0.35222664613E+02  0.00000000000E+00 0.  1.
</event>
<event>
 7    1  0.6164995E-012  0.5930210E+02  0.7816164E-02  0.1266604E+00
        -11   -1    0    0    0    0  0.00000000000E+00  0.00000000000E+00  0.45593999997E+02  0.45594000000E+02  0.51100000000E-03 0. -1.
         11   -1    0    0    0    0 -0.00000000000E+00 -0.00000000000E+00 -0.45593999997E+02  0.45594000000E+02  0.51100000000E-03 0.  1.
    9900012    2    1    2    0    0 -0.17084508566E+02 -0.26213961958E+02 -0.61366268388E+01  0.59302103064E+02  0.50000290043E+02 0.  0.
         12    1    1    2    0    0  0.17084508566E+02  0.26213961958E+02  0.61366268388E+01  0.31885896936E+02  0.00000000000E+00 0. -1.
         11    1    3    3    0    0  0.50555697860E+00 -0.16368637622E+02 -0.27137641552E+01  0.16599771131E+02  0.51100000000E-03 0. -1.
        -11    1    3    3    0    0  0.66329227153E+01 -0.67964143594E+01  0.10852525704E+02  0.14420964819E+02  0.51100000000E-03 0.  1.
        -12    1    3    3    0    0 -0.24222988259E+02 -0.30489099769E+01 -0.14275388387E+02  0.28281367115E+02  0.00000000000E+00 0.  1.
</event>
<event>
 7    1  0.6164995E-012  0.5930196E+02  0.7816164E-02  0.1266605E+00
        -11   -1    0    0    0    0  0.00000000000E+00  0.00000000000E+00  0.45593999997E+02  0.45594000000E+02  0.51100000000E-03 0.  1.
         11   -1    0    0    0    0 -0.00000000000E+00 -0.00000000000E+00 -0.45593999997E+02  0.45594000000E+02  0.51100000000E-03 0. -1.
    9900012    2    1    2    0    0  0.16782848882E+02 -0.30929641084E+01  0.26934904540E+02  0.59301960325E+02  0.50000029722E+02 0.  0.
         12    1    1    2    0    0 -0.16782848882E+02  0.30929641084E+01 -0.26934904540E+02  0.31886039675E+02  0.00000000000E+00 0. -1.
         11    1    3    3    0    0  0.33091703889E+01  0.14330248328E+02  0.17404190887E+02  0.22786234584E+02  0.51100000000E-03 0. -1.
        -11    1    3    3    0    0  0.62322598218E+01 -0.76603371051E+01  0.18795672268E+02  0.21232030598E+02  0.51100000000E-03 0.  1.
        -12    1    3    3    0    0  0.72414186713E+01 -0.97628753312E+01 -0.92649586146E+01  0.15283695143E+02  0.00000000000E+00 0.  1.
</event>
<event>
 7    1  0.6164995E-012  0.5930197E+02  0.7816164E-02  0.1266605E+00
        -11   -1    0    0    0    0  0.00000000000E+00  0.00000000000E+00  0.45593999997E+02  0.45594000000E+02  0.51100000000E-03 0. -1.
         11   -1    0    0    0    0 -0.00000000000E+00 -0.00000000000E+00 -0.45593999997E+02  0.45594000000E+02  0.51100000000E-03 0.  1.
    9900012    2    1    2    0    0 -0.24779128854E+02  0.15235485851E+02 -0.13061158715E+02  0.59301966649E+02  0.50000041255E+02 0.  0.
         12    1    1    2    0    0  0.24779128854E+02 -0.15235485851E+02  0.13061158715E+02  0.31886033351E+02  0.00000000000E+00 0. -1.
         11    1    3    3    0    0 -0.30766838555E+02 -0.84110957383E+00 -0.10058713899E+02  0.32380295638E+02  0.51100000000E-03 0. -1.
        -11    1    3    3    0    0 -0.50299264064E+01  0.53447312728E+01 -0.78971475461E+01  0.10781059858E+02  0.51100000000E-03 0.  1.
         12    1    3    3    0    0  0.11017636107E+02  0.10731864152E+02  0.48947027307E+01  0.16140611153E+02  0.00000000000E+00 0. -1.
</event>
<event>
 7    1  0.6164995E-012  0.5930195E+02  0.7816164E-02  0.1266605E+00
        -11   -1    0    0    0    0  0.00000000000E+00  0.00000000000E+00  0.45593999997E+02  0.45594000000E+02  0.51100000000E-03 0.  1.
         11   -1    0    0    0    0 -0.00000000000E+00 -0.00000000000E+00 -0.45593999997E+02  0.45594000000E+02  0.51100000000E-03 0. -1.
    9900012    2    1    2    0    0 -0.19265467735E+02  0.91668972075E+01  0.23696622895E+02  0.59301949945E+02  0.50000010792E+02 0.  0.
         12    1    1    2    0    0  0.19265467735E+02 -0.91668972075E+01 -0.23696622895E+02  0.31886050055E+02  0.00000000000E+00 0. -1.
         11    1    3    3    0    0  0.61518285742E+01 -0.68488745279E+01  0.13154962388E+02  0.16056310684E+02  0.51100000000E-03 0. -1.
        -11    1    3    3    0    0 -0.76346324795E+01 -0.36618444207E+01  0.14138966792E+02  0.16480506663E+02  0.51100000000E-03 0.  1.
         12    1    3    3    0    0 -0.17782663829E+02  0.19677616156E+02 -0.35973062852E+01  0.26765132598E+02  0.00000000000E+00 0. -1.
</event>
<event>
 7    1  0.6164995E-012  0.5930196E+02  0.7816164E-02  0.1266605E+00
        -11   -1    0    0    0    0  0.00000000000E+00  0.00000000000E+00  0.45593999997E+02  0.45594000000E+02  0.51100000000E-03 0.  1.
         11   -1    0    0    0    0 -0.00000000000E+00 -0.00000000000E+00 -0.45593999997E+02  0.45594000000E+02  0.51100000000E-03 0. -1.
    9900012    2    1    2    0    0  0.12347133853E+02 -0.29238281542E+02 -0.30644774020E+01  0.59301955346E+02  0.50000020642E+02 0.  0.
         12    1    1    2    0    0 -0.12347133853E+02  0.29238281542E+02  0.30644774020E+01  0.31886044654E+02  0.00000000000E+00 0. -1.
         11    1    3    3    0    0  0.64105502837E+01  0.79453041740E+01 -0.95138054201E+01  0.13954766468E+02  0.51100000000E-03 0. -1.
        -11    1    3    3    0    0  0.86780895626E+01 -0.17751793237E+02 -0.76441852996E+01  0.21186528048E+02  0.51100000000E-03 0.  1.
        -12    1    3    3    0    0 -0.27415059928E+01 -0.19431792479E+02  0.14093513318E+02  0.24160660829E+02  0.00000000000E+00 0.  1.
</event>
<event>
 7    1  0.6164995E-012  0.5930190E+02  0.7816164E-02  0.1266605E+00
        -11   -1    0    0    0    0  0.00000000000E+00  0.00000000000E+00  0.45593999997E+02  0.45594000000E+02  0.51100000000E-03 0.  1.
         11   -1    0    0    0    0 -0.00000000000E+00 -0.00000000000E+00 -0.45593999997E+02  0.45594000000E+02  0.51100000000E-03 0. -1.
    9900012    2    1    2    0    0  0.24444136572E+02  0.17240366965E+02 -0.11044340212E+02  0.59301897753E+02  0.49999915606E+02 0.  0.
         12    1    1    2    0    0 -0.24444136572E+02 -0.17240366965E+02  0.11044340212E+02  0.31886102247E+02  0.00000000000E+00 0. -1.
         11    1    3    3    0    0  0.10293123777E+01  0.18353208173E+01 -0.67203070701E+01  0.70420461409E+01  0.51100000000E-03 0. -1.
        -11    1    3    3    0    0  0.27362231483E+02  0.24529662910E+02 -0.13085758418E+02  0.39008116435E+02  0.51100000000E-03 0.  1.
         12    1    3    3    0    0 -0.39474072890E+01 -0.91246167627E+01  0.87617252763E+01  0.13251735177E+02  0.00000000000E+00 0. -1.
</event>
<event>
 7    1  0.6164995E-012  0.5930190E+02  0.7816164E-02  0.1266605E+00
        -11   -1    0    0    0    0  0.00000000000E+00  0.00000000000E+00  0.45593999997E+02  0.45594000000E+02  0.51100000000E-03 0.  1.
         11   -1    0    0    0    0 -0.00000000000E+00 -0.00000000000E+00 -0.45593999997E+02  0.45594000000E+02  0.51100000000E-03 0. -1.
    9900012    2    1    2    0    0  0.11593655893E+01 -0.17542186816E+02  0.26601705001E+02  0.59301903409E+02  0.49999925921E+02 0.  0.
         12    1    1    2    0    0 -0.11593655893E+01  0.17542186816E+02 -0.26601705001E+02  0.31886096591E+02  0.00000000000E+00 0. -1.
         11    1    3    3    0    0 -0.14405330965E+01  0.24805435928E+01  0.16422622562E+02  0.16671255627E+02  0.51100000000E-03 0. -1.
        -11    1    3    3    0    0 -0.15231916397E+02 -0.40862527667E+01 -0.18177583786E+01  0.15874916837E+02  0.51100000000E-03 0.  1.
         12    1    3    3    0    0  0.17831815083E+02 -0.15936477642E+02  0.11996840817E+02  0.26755730945E+02  0.00000000000E+00 0. -1.
</event>
<event>
 7    1  0.6164995E-012  0.5930195E+02  0.7816164E-02  0.1266605E+00
        -11   -1    0    0    0    0  0.00000000000E+00  0.00000000000E+00  0.45593999997E+02  0.45594000000E+02  0.51100000000E-03 0. -1.
         11   -1    0    0    0    0 -0.00000000000E+00 -0.00000000000E+00 -0.45593999997E+02  0.45594000000E+02  0.51100000000E-03 0.  1.
    9900012    2    1    2    0    0 -0.61388587744E+01 -0.30414892450E+02 -0.73463537429E+01  0.59301950024E+02  0.50000010935E+02 0.  0.
         12    1    1    2    0    0  0.61388587744E+01  0.30414892450E+02  0.73463537429E+01  0.31886049976E+02  0.00000000000E+00 0. -1.
         11    1    3    3    0    0 -0.69116832810E+01 -0.45146572928E+01 -0.15913643344E+02  0.17927563721E+02  0.51100000000E-03 0. -1.
        -11    1    3    3    0    0  0.58639115946E+01 -0.23076647475E+02 -0.69478215113E+01  0.24803010742E+02  0.51100000000E-03 0.  1.
         12    1    3    3    0    0 -0.50910870881E+01 -0.28235876824E+01  0.15515111112E+02  0.16571375560E+02  0.00000000000E+00 0. -1.
</event>
<event>
 7    1  0.6164995E-012  0.5930193E+02  0.7816164E-02  0.1266605E+00
        -11   -1    0    0    0    0  0.00000000000E+00  0.00000000000E+00  0.45593999997E+02  0.45594000000E+02  0.51100000000E-03 0. -1.
         11   -1    0    0    0    0 -0.00000000000E+00 -0.00000000000E+00 -0.45593999997E+02  0.45594000000E+02  0.51100000000E-03 0.  1.
    9900012    2    1    2    0    0 -0.30208234524E+02  0.57700228368E+01  0.84196745106E+01  0.59301929131E+02  0.49999972832E+02 0.  0.
         12    1    1    2    0    0  0.30208234524E+02 -0.57700228368E+01 -0.84196745106E+01  0.31886070869E+02  0.00000000000E+00 0. -1.
         11    1    3    3    0    0 -0.48791112964E+01 -0.53236099524E+01  0.21865779629E+02  0.23027350456E+02  0.51100000000E-03 0. -1.
        -11    1    3    3    0    0 -0.62943991292E+00  0.69302122806E+01 -0.80701427411E+01  0.10656042463E+02  0.51100000000E-03 0.  1.
         12    1    3    3    0    0 -0.24699683315E+02  0.41634205086E+01 -0.53759623771E+01  0.25618536212E+02  0.00000000000E+00 0. -1.
</event>
<event>
 7    1  0.6164995E-012  0.5930192E+02  0.7816164E-02  0.1266605E+00
        -11   -1    0    0    0    0  0.00000000000E+00  0.00000000000E+00  0.45593999997E+02  0.45594000000E+02  0.51100000000E-03 0.  1.
         11   -1    0    0    0    0 -0.00000000000E+00 -0.00000000000E+00 -0.45593999997E+02  0.45594000000E+02  0.51100000000E-03 0. -1.
    9900012    2    1    2    0    0  0.28848846557E+02  0.33752451190E+01  0.13155761897E+02  0.59301916854E+02  0.49999950442E+02 0.  0.
         12    1    1    2    0    0 -0.28848846557E+02 -0.33752451190E+01 -0.13155761897E+02  0.31886083146E+02  0.00000000000E+00 0. -1.
         11    1    3    3    0    0 -0.86544589742E+01 -0.24736576305E+01 -0.84368594930E+01  0.12336905632E+02  0.51100000000E-03 0. -1.
        -11    1    3    3    0    0  0.42618295861E+01  0.29715400051E+01  0.10651652386E+02  0.11851199949E+02  0.51100000000E-03 0.  1.
        -12    1    3    3    0    0  0.33241475945E+02  0.28773627444E+01  0.10940969005E+02  0.35113811273E+02  0.00000000000E+00 0.  1.
</event>
<event>
 7    1  0.6164995E-012  0.5930197E+02  0.7816164E-02  0.1266605E+00
        -11   -1    0    0    0    0  0.00000000000E+00  0.00000000000E+00  0.45593999997E+02  0.45594000000E+02  0.51100000000E-03 0. -1.
         11   -1    0    0    0    0 -0.00000000000E+00 -0.00000000000E+00 -0.45593999997E+02  0.45594000000E+02  0.51100000000E-03 0.  1.
    9900012    2    1    2    0    0  0.73340312095E+01  0.27804942778E+02  0.13777385261E+02  0.59301965419E+02  0.50000039013E+02 0.  0.
         12    1    1    2    0    0 -0.73340312095E+01 -0.27804942778E+02 -0.13777385261E+02  0.31886034581E+02  0.00000000000E+00 0. -1.
         11    1    3    3    0    0 -0.39737038348E+00 -0.55438149232E+01  0.49002548805E+01  0.74097425920E+01  0.51100000000E-03 0. -1.
        -11    1    3    3    0    0  0.13559030884E+02 -0.13001884034E+01  0.97411780958E+01  0.16745995323E+02  0.51100000000E-03 0.  1.
         12    1    3    3    0    0 -0.58276292910E+01  0.34648946105E+02 -0.86404771573E+00  0.35146227504E+02  0.00000000000E+00 0. -1.
</event>
<event>
 7    1  0.6164995E-012  0.5930197E+02  0.7816164E-02  0.1266605E+00
        -11   -1    0    0    0    0  0.00000000000E+00  0.00000000000E+00  0.45593999997E+02  0.45594000000E+02  0.51100000000E-03 0.  1.
         11   -1    0    0    0    0 -0.00000000000E+00 -0.00000000000E+00 -0.45593999997E+02  0.45594000000E+02  0.51100000000E-03 0. -1.
    9900012    2    1    2    0    0 -0.42755049729E+00 -0.25050022143E+02  0.19723908529E+02  0.59301968945E+02  0.50000045443E+02 0.  0.
         12    1    1    2    0    0  0.42755049729E+00  0.25050022143E+02 -0.19723908529E+02  0.31886031055E+02  0.00000000000E+00 0. -1.
         11    1    3    3    0    0 -0.61098332307E+00 -0.22648584700E+02  0.70906297906E+01  0.23740444828E+02  0.51100000000E-03 0. -1.
        -11    1    3    3    0    0 -0.46495070563E+00 -0.14953864089E+02  0.16632676868E+02  0.22371414136E+02  0.51100000000E-03 0.  1.
         12    1    3    3    0    0  0.64838353141E+00  0.12552426646E+02 -0.39993981297E+01  0.13190109981E+02  0.00000000000E+00 0. -1.
</event>
<event>
 7    1  0.6164995E-012  0.5930193E+02  0.7816164E-02  0.1266605E+00
        -11   -1    0    0    0    0  0.00000000000E+00  0.00000000000E+00  0.45593999997E+02  0.45594000000E+02  0.51100000000E-03 0.  1.
         11   -1    0    0    0    0 -0.00000000000E+00 -0.00000000000E+00 -0.45593999997E+02  0.45594000000E+02  0.51100000000E-03 0. -1.
    9900012    2    1    2    0    0  0.22539355612E+02  0.16087051194E+02  0.15808407011E+02  0.59301929377E+02  0.49999973281E+02 0.  0.
         12    1    1    2    0    0 -0.22539355612E+02 -0.16087051194E+02 -0.15808407011E+02  0.31886070623E+02  0.00000000000E+00 0. -1.
         11    1    3    3    0    0  0.27140049298E+02  0.10342872417E+02 -0.14166230962E+01  0.29078585024E+02  0.51100000000E-03 0. -1.
        -11    1    3    3    0    0  0.51781490774E+01  0.72997986618E+01  0.18192090732E+02  0.20274428570E+02  0.51100000000E-03 0.  1.
        -12    1    3    3    0    0 -0.97788427630E+01 -0.15556198854E+01 -0.96706062443E+00  0.99489157832E+01  0.00000000000E+00 0.  1.
</event>
<event>
 7    1  0.6164995E-012  0.5930195E+02  0.7816164E-02  0.1266605E+00
        -11   -1    0    0    0    0  0.00000000000E+00  0.00000000000E+00  0.45593999997E+02  0.45594000000E+02  0.51100000000E-03 0.  1.
         11   -1    0    0    0    0 -0.00000000000E+00 -0.00000000000E+00 -0.45593999997E+02  0.45594000000E+02  0.51100000000E-03 0. -1.
    9900012    2    1    2    0    0 -0.17175239656E+02 -0.10515964636E+02  0.24721367960E+02  0.59301946571E+02  0.50000004638E+02 0.  0.
         12    1    1    2    0    0  0.17175239656E+02  0.10515964636E+02 -0.24721367960E+02  0.31886053429E+02  0.00000000000E+00 0. -1.
         11    1    3    3    0    0 -0.48669470037E+01  0.37753798958E+01 -0.63619701908E+00  0.61923673504E+01  0.51100000000E-03 0. -1.
        -11    1    3    3    0    0 -0.14459026677E+02 -0.24494744679E+02  0.30309517656E+02  0.41565885413E+02  0.51100000000E-03 0.  1.
         12    1    3    3    0    0  0.21507340248E+01  0.10203400147E+02 -0.49519526769E+01  0.11543693808E+02  0.00000000000E+00 0. -1.
</event>
<event>
 7    1  0.6164995E-012  0.5930194E+02  0.7816164E-02  0.1266605E+00
        -11   -1    0    0    0    0  0.00000000000E+00  0.00000000000E+00  0.45593999997E+02  0.45594000000E+02  0.51100000000E-03 0. -1.
         11   -1    0    0    0    0 -0.00000000000E+00 -0.00000000000E+00 -0.45593999997E+02  0.45594000000E+02  0.51100000000E-03 0.  1.
    9900012    2    1    2    0    0  0.12957119419E+02 -0.17524867454E+01 -0.29081999626E+02  0.59301939477E+02  0.49999991700E+02 0.  0.
         12    1    1    2    0    0 -0.12957119419E+02  0.17524867454E+01  0.29081999626E+02  0.31886060523E+02  0.00000000000E+00 0. -1.
         11    1    3    3    0    0 -0.21762449245E+01 -0.12656073878E+02 -0.10540210478E+02  0.16613497078E+02  0.51100000000E-03 0. -1.
        -11    1    3    3    0    0 -0.74676134685E+01 -0.65054470631E+01 -0.53684828363E+01  0.11265287419E+02  0.51100000000E-03 0.  1.
         12    1    3    3    0    0  0.22600977812E+02  0.17409034196E+02 -0.13173306312E+02  0.31423154980E+02  0.00000000000E+00 0. -1.
</event>
<event>
 7    1  0.6164995E-012  0.5930193E+02  0.7816164E-02  0.1266605E+00
        -11   -1    0    0    0    0  0.00000000000E+00  0.00000000000E+00  0.45593999997E+02  0.45594000000E+02  0.51100000000E-03 0.  1.
         11   -1    0    0    0    0 -0.00000000000E+00 -0.00000000000E+00 -0.45593999997E+02  0.45594000000E+02  0.51100000000E-03 0. -1.
    9900012    2    1    2    0    0  0.17992691215E+02 -0.87769948835E+01  0.24818319921E+02  0.59301928119E+02  0.49999970986E+02 0.  0.
         12    1    1    2    0    0 -0.17992691215E+02  0.87769948835E+01 -0.24818319921E+02  0.31886071881E+02  0.00000000000E+00 0. -1.
         11    1    3    3    0    0  0.49146568382E+01 -0.16193645624E+02  0.41731247910E+01  0.17429944957E+02  0.51100000000E-03 0. -1.
        -11    1    3    3    0    0 -0.10747758219E+02  0.64609993865E+01  0.61528829963E+01  0.13968421143E+02  0.51100000000E-03 0.  1.
        -12    1    3    3    0    0  0.23825792595E+02  0.95565135396E+00  0.14492312134E+02  0.27903562018E+02  0.00000000000E+00 0.  1.
</event>
<event>
 7    1  0.6164995E-012  0.5930186E+02  0.7816164E-02  0.1266605E+00
        -11   -1    0    0    0    0  0.00000000000E+00  0.00000000000E+00  0.45593999997E+02  0.45594000000E+02  0.51100000000E-03 0. -1.
         11   -1    0    0    0    0 -0.00000000000E+00 -0.00000000000E+00 -0.45593999997E+02  0.45594000000E+02  0.51100000000E-03 0.  1.
    9900012    2    1    2    0    0 -0.28224691177E+02  0.37039069755E+01 -0.14365710577E+02  0.59301862584E+02  0.49999851466E+02 0.  0.
         12    1    1    2    0    0  0.28224691177E+02 -0.37039069755E+01  0.14365710577E+02  0.31886137416E+02  0.00000000000E+00 0. -1.
         11    1    3    3    0    0 -0.12518492231E+02 -0.70423527415E+01 -0.12641499540E+01  0.14418926980E+02  0.51100000000E-03 0. -1.
        -11    1    3    3    0    0 -0.27668914051E+02  0.29236162745E+01 -0.12698752131E+02  0.30583895155E+02  0.51100000000E-03 0.  1.
         12    1    3    3    0    0  0.11962715105E+02  0.78226434425E+01 -0.40280849183E+00  0.14299040450E+02  0.00000000000E+00 0. -1.
</event>
<event>
 7    1  0.6164995E-012  0.5930194E+02  0.7816164E-02  0.1266605E+00
        -11   -1    0    0    0    0  0.00000000000E+00  0.00000000000E+00  0.45593999997E+02  0.45594000000E+02  0.51100000000E-03 0.  1.
         11   -1    0    0    0    0 -0.00000000000E+00 -0.00000000000E+00 -0.45593999997E+02  0.45594000000E+02  0.51100000000E-03 0. -1.
    9900012    2    1    2    0    0 -0.12928953985E+02 -0.25559769076E+02  0.14009332798E+02  0.59301936402E+02  0.49999986092E+02 0.  0.
         12    1    1    2    0    0  0.12928953985E+02  0.25559769076E+02 -0.14009332798E+02  0.31886063598E+02  0.00000000000E+00 0. -1.
         11    1    3    3    0    0  0.63386065002E+01 -0.18562093605E+02  0.12471166100E+02  0.23243477268E+02  0.51100000000E-03 0. -1.
        -11    1    3    3    0    0 -0.88238380746E+01 -0.13590998409E+02  0.11763689037E+02  0.20023979029E+02  0.51100000000E-03 0.  1.
         12    1    3    3    0    0 -0.10443722410E+02  0.65933229379E+01 -0.10225522339E+02  0.16034480105E+02  0.00000000000E+00 0. -1.
</event>
<event>
 7    1  0.6164995E-012  0.5930195E+02  0.7816164E-02  0.1266605E+00
        -11   -1    0    0    0    0  0.00000000000E+00  0.00000000000E+00  0.45593999997E+02  0.45594000000E+02  0.51100000000E-03 0.  1.
         11   -1    0    0    0    0 -0.00000000000E+00 -0.00000000000E+00 -0.45593999997E+02  0.45594000000E+02  0.51100000000E-03 0. -1.
    9900012    2    1    2    0    0  0.27511241133E+01  0.23689333625E+02  0.21165227001E+02  0.59301952182E+02  0.50000014871E+02 0.  0.
         12    1    1    2    0    0 -0.27511241133E+01 -0.23689333625E+02 -0.21165227001E+02  0.31886047818E+02  0.00000000000E+00 0. -1.
         11    1    3    3    0    0 -0.10752214629E+02  0.21479066894E+02  0.10867941950E+02  0.26364229489E+02  0.51100000000E-03 0.  1.
        -11    1    3    3    0    0  0.19772123456E+02  0.91210085836E+01  0.88112743489E+01  0.23489747114E+02  0.51100000000E-03 0. -1.
         12    1    3    3    0    0 -0.62687847142E+01 -0.69107418519E+01  0.14860107019E+01  0.94479755791E+01  0.00000000000E+00 0. -1.
</event>
<event>
 7    1  0.6164995E-012  0.5930193E+02  0.7816164E-02  0.1266605E+00
        -11   -1    0    0    0    0  0.00000000000E+00  0.00000000000E+00  0.45593999997E+02  0.45594000000E+02  0.51100000000E-03 0.  1.
         11   -1    0    0    0    0 -0.00000000000E+00 -0.00000000000E+00 -0.45593999997E+02  0.45594000000E+02  0.51100000000E-03 0. -1.
    9900012    2    1    2    0    0  0.59818991197E+01  0.25837347259E+02  0.17702248130E+02  0.59301933774E+02  0.49999981300E+02 0.  0.
         12    1    1    2    0    0 -0.59818991197E+01 -0.25837347259E+02 -0.17702248130E+02  0.31886066226E+02  0.00000000000E+00 0. -1.
         11    1    3    3    0    0  0.11250227727E+02  0.82321175023E+01 -0.93191647083E+01  0.16768488710E+02  0.51100000000E-03 0. -1.
        -11    1    3    3    0    0  0.66444312227E+01  0.12378445272E+02  0.18119990024E+01  0.14165370249E+02  0.51100000000E-03 0.  1.
        -12    1    3    3    0    0 -0.11912759830E+02  0.52267844848E+01  0.25209413836E+02  0.28368074816E+02  0.00000000000E+00 0.  1.
</event>
<event>
 7    1  0.6164995E-012  0.5930194E+02  0.7816164E-02  0.1266605E+00
        -11   -1    0    0    0    0  0.00000000000E+00  0.00000000000E+00  0.45593999997E+02  0.45594000000E+02  0.51100000000E-03 0.  1.
         11   -1    0    0    0    0 -0.00000000000E+00 -0.00000000000E+00 -0.45593999997E+02  0.45594000000E+02  0.51100000000E-03 0. -1.
    9900012    2    1    2    0    0 -0.17644030418E+02  0.57938610388E+01  0.25919884319E+02  0.59301936614E+02  0.49999986480E+02 0.  0.
         12    1    1    2    0    0  0.17644030418E+02 -0.57938610388E+01 -0.25919884319E+02  0.31886063386E+02  0.00000000000E+00 0. -1.
         11    1    3    3    0    0 -0.51830582450E+01  0.14931110780E+02 -0.21204058141E+01  0.15946732674E+02  0.51100000000E-03 0. -1.
        -11    1    3    3    0    0 -0.14621710385E+02  0.45893709418E+01  0.44183068853E+01  0.15949237480E+02  0.51100000000E-03 0.  1.
        -12    1    3    3    0    0  0.21607382119E+01 -0.13726620683E+02  0.23621983248E+02  0.27405966459E+02  0.00000000000E+00 0.  1.
</event>
<event>
 7    1  0.6164995E-012  0.5930194E+02  0.7816164E-02  0.1266605E+00
        -11   -1    0    0    0    0  0.00000000000E+00  0.00000000000E+00  0.45593999997E+02  0.45594000000E+02  0.51100000000E-03 0. -1.
         11   -1    0    0    0    0 -0.00000000000E+00 -0.00000000000E+00 -0.45593999997E+02  0.45594000000E+02  0.51100000000E-03 0.  1.
    9900012    2    1    2    0    0 -0.11604961541E+02  0.25517100171E+02 -0.15196162024E+02  0.59301939193E+02  0.49999991183E+02 0.  0.
         12    1    1    2    0    0  0.11604961541E+02 -0.25517100171E+02  0.15196162024E+02  0.31886060807E+02  0.00000000000E+00 0. -1.
         11    1    3    3    0    0 -0.11649069435E+02  0.15936743570E+02 -0.88997323281E+00  0.19760381244E+02  0.51100000000E-03 0. -1.
        -11    1    3    3    0    0 -0.16081708059E+02  0.40024481742E+00 -0.13445643551E+02  0.20965849870E+02  0.51100000000E-03 0.  1.
         12    1    3    3    0    0  0.16125815953E+02  0.91801117838E+01 -0.86054524046E+00  0.18575708078E+02  0.00000000000E+00 0. -1.
</event>
<event>
 7    1  0.6164995E-012  0.5930194E+02  0.7816164E-02  0.1266605E+00
        -11   -1    0    0    0    0  0.00000000000E+00  0.00000000000E+00  0.45593999997E+02  0.45594000000E+02  0.51100000000E-03 0. -1.
         11   -1    0    0    0    0 -0.00000000000E+00 -0.00000000000E+00 -0.45593999997E+02  0.45594000000E+02  0.51100000000E-03 0.  1.
    9900012    2    1    2    0    0  0.14624404106E+02  0.20201089592E+01 -0.28262463597E+02  0.59301939029E+02  0.49999990883E+02 0.  0.
         12    1    1    2    0    0 -0.14624404106E+02 -0.20201089592E+01  0.28262463597E+02  0.31886060971E+02  0.00000000000E+00 0. -1.
         11    1    3    3    0    0 -0.38495970506E+01 -0.13453339104E+02  0.18811496720E+01  0.14119152058E+02  0.51100000000E-03 0. -1.
        -11    1    3    3    0    0 -0.47896074362E+01  0.21624661460E+01 -0.59424558356E+00  0.52886413473E+01  0.51100000000E-03 0.  1.
        -12    1    3    3    0    0  0.23263608593E+02  0.13310981917E+02 -0.29549367686E+02  0.39894145623E+02  0.00000000000E+00 0.  1.
</event>
<event>
 7    1  0.6164995E-012  0.5930193E+02  0.7816164E-02  0.1266605E+00
        -11   -1    0    0    0    0  0.00000000000E+00  0.00000000000E+00  0.45593999997E+02  0.45594000000E+02  0.51100000000E-03 0.  1.
         11   -1    0    0    0    0 -0.00000000000E+00 -0.00000000000E+00 -0.45593999997E+02  0.45594000000E+02  0.51100000000E-03 0. -1.
    9900012    2    1    2    0    0  0.71838714061E+01 -0.13293457398E+02  0.28078415744E+02  0.59301930178E+02  0.49999974741E+02 0.  0.
         12    1    1    2    0    0 -0.71838714061E+01  0.13293457398E+02 -0.28078415744E+02  0.31886069822E+02  0.00000000000E+00 0. -1.
         11    1    3    3    0    0 -0.84710208722E+01 -0.76542617633E+01 -0.21297818536E+01  0.11613866228E+02  0.51100000000E-03 0. -1.
        -11    1    3    3    0    0  0.26055143260E+01 -0.18382758462E+02  0.16937886151E+02  0.25131782688E+02  0.51100000000E-03 0.  1.
        -12    1    3    3    0    0  0.13049377952E+02  0.12743562827E+02  0.13270311446E+02  0.22556281261E+02  0.00000000000E+00 0.  1.
</event>
<event>
 7    1  0.6164995E-012  0.5930198E+02  0.7816164E-02  0.1266605E+00
        -11   -1    0    0    0    0  0.00000000000E+00  0.00000000000E+00  0.45593999997E+02  0.45594000000E+02  0.51100000000E-03 0.  1.
         11   -1    0    0    0    0 -0.00000000000E+00 -0.00000000000E+00 -0.45593999997E+02  0.45594000000E+02  0.51100000000E-03 0. -1.
    9900012    2    1    2    0    0 -0.86989070665E+01 -0.24692542304E+02  0.18202361156E+02  0.59301975142E+02  0.50000056745E+02 0.  0.
         12    1    1    2    0    0  0.86989070665E+01  0.24692542304E+02 -0.18202361156E+02  0.31886024858E+02  0.00000000000E+00 0. -1.
         11    1    3    3    0    0  0.51091355139E+01 -0.83681426860E+01 -0.14260105281E+02  0.17305481230E+02  0.51100000000E-03 0. -1.
        -11    1    3    3    0    0 -0.27690027834E+01  0.13915365514E+01  0.13315006283E+02  0.13670886693E+02  0.51100000000E-03 0.  1.
        -12    1    3    3    0    0 -0.11039039797E+02 -0.17715936169E+02  0.19147460154E+02  0.28325607219E+02  0.00000000000E+00 0.  1.
</event>
<event>
 7    1  0.6164995E-012  0.5930198E+02  0.7816164E-02  0.1266605E+00
        -11   -1    0    0    0    0  0.00000000000E+00  0.00000000000E+00  0.45593999997E+02  0.45594000000E+02  0.51100000000E-03 0.  1.
         11   -1    0    0    0    0 -0.00000000000E+00 -0.00000000000E+00 -0.45593999997E+02  0.45594000000E+02  0.51100000000E-03 0. -1.
    9900012    2    1    2    0    0  0.14082264472E+02  0.25953156338E+01  0.28489868458E+02  0.59301977347E+02  0.50000060766E+02 0.  0.
         12    1    1    2    0    0 -0.14082264472E+02 -0.25953156338E+01 -0.28489868458E+02  0.31886022653E+02  0.00000000000E+00 0. -1.
         11    1    3    3    0    0 -0.24933746837E+01  0.18976006756E+01 -0.16421584445E+01  0.35375825440E+01  0.51100000000E-03 0. -1.
        -11    1    3    3    0    0  0.44854602875E+01  0.20999387900E+02  0.67176415293E+01  0.22499341193E+02  0.51100000000E-03 0.  1.
        -12    1    3    3    0    0  0.12090178868E+02 -0.20301672941E+02  0.23414385373E+02  0.33265053610E+02  0.00000000000E+00 0.  1.
</event>
<event>
 7    1  0.6164995E-012  0.5930197E+02  0.7816164E-02  0.1266605E+00
        -11   -1    0    0    0    0  0.00000000000E+00  0.00000000000E+00  0.45593999997E+02  0.45594000000E+02  0.51100000000E-03 0.  1.
         11   -1    0    0    0    0 -0.00000000000E+00 -0.00000000000E+00 -0.45593999997E+02  0.45594000000E+02  0.51100000000E-03 0. -1.
    9900012    2    1    2    0    0 -0.29036134044E+02  0.10956431083E+02 -0.73197436722E+01  0.59301966855E+02  0.50000041632E+02 0.  0.
         12    1    1    2    0    0  0.29036134044E+02 -0.10956431083E+02  0.73197436722E+01  0.31886033145E+02  0.00000000000E+00 0. -1.
         11    1    3    3    0    0 -0.10854070041E+02 -0.11085941927E+02  0.87553032288E+01  0.17814720873E+02  0.51100000000E-03 0. -1.
        -11    1    3    3    0    0 -0.12037023832E+02  0.17267653473E+01  0.34580315341E+01  0.12642374921E+02  0.51100000000E-03 0.  1.
         12    1    3    3    0    0 -0.61450401704E+01  0.20315607663E+02 -0.19533078435E+02  0.28844871062E+02  0.00000000000E+00 0. -1.
</event>
<event>
 7    1  0.6164995E-012  0.5930195E+02  0.7816164E-02  0.1266605E+00
        -11   -1    0    0    0    0  0.00000000000E+00  0.00000000000E+00  0.45593999997E+02  0.45594000000E+02  0.51100000000E-03 0.  1.
         11   -1    0    0    0    0 -0.00000000000E+00 -0.00000000000E+00 -0.45593999997E+02  0.45594000000E+02  0.51100000000E-03 0. -1.
    9900012    2    1    2    0    0  0.11171502501E+02 -0.17112718329E+02  0.24475963995E+02  0.59301946462E+02  0.50000004439E+02 0.  0.
         12    1    1    2    0    0 -0.11171502501E+02  0.17112718329E+02 -0.24475963995E+02  0.31886053538E+02  0.00000000000E+00 0. -1.
         11    1    3    3    0    0 -0.28172219321E+01 -0.43600548902E+01  0.66605314064E+01  0.84444950670E+01  0.51100000000E-03 0. -1.
        -11    1    3    3    0    0 -0.10387714741E+02  0.78194598450E+01 -0.22198636513E+01  0.13190010034E+02  0.51100000000E-03 0.  1.
        -12    1    3    3    0    0  0.24376439174E+02 -0.20572123284E+02  0.20035296240E+02  0.37667441361E+02  0.00000000000E+00 0.  1.
</event>
<event>
 7    1  0.6164995E-012  0.5930195E+02  0.7816164E-02  0.1266605E+00
        -11   -1    0    0    0    0  0.00000000000E+00  0.00000000000E+00  0.45593999997E+02  0.45594000000E+02  0.51100000000E-03 0.  1.
         11   -1    0    0    0    0 -0.00000000000E+00 -0.00000000000E+00 -0.45593999997E+02  0.45594000000E+02  0.51100000000E-03 0. -1.
    9900012    2    1    2    0    0  0.29961063940E+02  0.10043284441E+02  0.42646867883E+01  0.59301945554E+02  0.50000002783E+02 0.  0.
         12    1    1    2    0    0 -0.29961063940E+02 -0.10043284441E+02 -0.42646867883E+01  0.31886054446E+02  0.00000000000E+00 0. -1.
         11    1    3    3    0    0 -0.33043084709E+00  0.13900865971E+01  0.83787698037E-01  0.14312742335E+01  0.51100000000E-03 0. -1.
        -11    1    3    3    0    0  0.20829931099E+02  0.28715568951E+02  0.38866642660E+01  0.35687197833E+02  0.51100000000E-03 0.  1.
         12    1    3    3    0    0  0.94615636874E+01 -0.20062371107E+02  0.29423482427E+00  0.22183473488E+02  0.00000000000E+00 0. -1.
</event>
<event>
 7    1  0.6164995E-012  0.5930190E+02  0.7816164E-02  0.1266605E+00
        -11   -1    0    0    0    0  0.00000000000E+00  0.00000000000E+00  0.45593999997E+02  0.45594000000E+02  0.51100000000E-03 0.  1.
         11   -1    0    0    0    0 -0.00000000000E+00 -0.00000000000E+00 -0.45593999997E+02  0.45594000000E+02  0.51100000000E-03 0. -1.
    9900012    2    1    2    0    0  0.23610844865E+02 -0.18105376450E+02  0.11465031891E+02  0.59301896320E+02  0.49999912993E+02 0.  0.
         12    1    1    2    0    0 -0.23610844865E+02  0.18105376450E+02 -0.11465031891E+02  0.31886103680E+02  0.00000000000E+00 0. -1.
         11    1    3    3    0    0 -0.47330461764E+01  0.17969595168E+01 -0.17303276681E+01  0.53502171650E+01  0.51100000000E-03 0. -1.
        -11    1    3    3    0    0  0.80105575593E+01  0.11862860308E+02  0.61696420209E+01  0.15587205331E+02  0.51100000000E-03 0.  1.
        -12    1    3    3    0    0  0.20333333482E+02 -0.31765196275E+02  0.70257175377E+01  0.38364473824E+02  0.00000000000E+00 0.  1.
</event>
<event>
 7    1  0.6164995E-012  0.5930191E+02  0.7816164E-02  0.1266605E+00
        -11   -1    0    0    0    0  0.00000000000E+00  0.00000000000E+00  0.45593999997E+02  0.45594000000E+02  0.51100000000E-03 0.  1.
         11   -1    0    0    0    0 -0.00000000000E+00 -0.00000000000E+00 -0.45593999997E+02  0.45594000000E+02  0.51100000000E-03 0. -1.
    9900012    2    1    2    0    0  0.54051655455E+01  0.14124644804E+02  0.28071359215E+02  0.59301911911E+02  0.49999941427E+02 0.  0.
         12    1    1    2    0    0 -0.54051655455E+01 -0.14124644804E+02 -0.28071359215E+02  0.31886088089E+02  0.00000000000E+00 0. -1.
         11    1    3    3    0    0 -0.36147431651E+01 -0.16071284458E+02  0.54512856607E+01  0.17351341963E+02  0.51100000000E-03 0. -1.
        -11    1    3    3    0    0  0.99294146993E+01  0.17446069439E+02  0.59364863024E+01  0.20933238761E+02  0.51100000000E-03 0.  1.
        -12    1    3    3    0    0 -0.90950598870E+00  0.12749859824E+02  0.16683587252E+02  0.21017331188E+02  0.00000000000E+00 0.  1.
</event>
<event>
 7    1  0.6164995E-012  0.5930192E+02  0.7816164E-02  0.1266605E+00
        -11   -1    0    0    0    0  0.00000000000E+00  0.00000000000E+00  0.45593999997E+02  0.45594000000E+02  0.51100000000E-03 0. -1.
         11   -1    0    0    0    0 -0.00000000000E+00 -0.00000000000E+00 -0.45593999997E+02  0.45594000000E+02  0.51100000000E-03 0.  1.
    9900012    2    1    2    0    0 -0.11341146417E+02 -0.83291774266E+00 -0.29789370919E+02  0.59301921945E+02  0.49999959726E+02 0.  0.
         12    1    1    2    0    0  0.11341146417E+02  0.83291774266E+00  0.29789370919E+02  0.31886078055E+02  0.00000000000E+00 0. -1.
         11    1    3    3    0    0  0.62468160219E+01 -0.43444494983E+01  0.94269967477E+01  0.12114669612E+02  0.51100000000E-03 0. -1.
        -11    1    3    3    0    0 -0.57429078689E+01 -0.31545713700E+01 -0.10029895817E+01  0.66285971126E+01  0.51100000000E-03 0.  1.
        -12    1    3    3    0    0 -0.11845054570E+02  0.66661031257E+01 -0.38213378085E+02  0.40558655221E+02  0.00000000000E+00 0.  1.
</event>
<event>
 7    1  0.6164995E-012  0.5930192E+02  0.7816164E-02  0.1266605E+00
        -11   -1    0    0    0    0  0.00000000000E+00  0.00000000000E+00  0.45593999997E+02  0.45594000000E+02  0.51100000000E-03 0. -1.
         11   -1    0    0    0    0 -0.00000000000E+00 -0.00000000000E+00 -0.45593999997E+02  0.45594000000E+02  0.51100000000E-03 0.  1.
    9900012    2    1    2    0    0 -0.39329986927E+01  0.23139535311E+02 -0.21582754341E+02  0.59301923759E+02  0.49999963034E+02 0.  0.
         12    1    1    2    0    0  0.39329986927E+01 -0.23139535311E+02  0.21582754341E+02  0.31886076241E+02  0.00000000000E+00 0. -1.
         11    1    3    3    0    0 -0.14537073247E+02  0.22711849122E+02  0.35940220982E+01  0.27204256730E+02  0.51100000000E-03 0. -1.
        -11    1    3    3    0    0 -0.36641883290E+01  0.33537693878E+01 -0.39112660740E+01  0.63223451171E+01  0.51100000000E-03 0.  1.
         12    1    3    3    0    0  0.14268262883E+02 -0.29260831985E+01 -0.21265510365E+02  0.25775321912E+02  0.00000000000E+00 0. -1.
</event>
<event>
 7    1  0.6164995E-012  0.5930193E+02  0.7816164E-02  0.1266605E+00
        -11   -1    0    0    0    0  0.00000000000E+00  0.00000000000E+00  0.45593999997E+02  0.45594000000E+02  0.51100000000E-03 0.  1.
         11   -1    0    0    0    0 -0.00000000000E+00 -0.00000000000E+00 -0.45593999997E+02  0.45594000000E+02  0.51100000000E-03 0. -1.
    9900012    2    1    2    0    0  0.29784021881E+02 -0.10519348367E+02  0.43562071999E+01  0.59301934224E+02  0.49999982121E+02 0.  0.
         12    1    1    2    0    0 -0.29784021881E+02  0.10519348367E+02 -0.43562071999E+01  0.31886065776E+02  0.00000000000E+00 0. -1.
         11    1    3    3    0    0  0.35747961097E+01 -0.98074249484E+00 -0.10435364216E+02  0.11074197472E+02  0.51100000000E-03 0. -1.
        -11    1    3    3    0    0  0.12691522140E+02  0.12823330639E+02 -0.31569520064E+00  0.18044727946E+02  0.51100000000E-03 0.  1.
        -12    1    3    3    0    0  0.13517703631E+02 -0.22361936512E+02  0.15107266616E+02  0.30183008807E+02  0.00000000000E+00 0.  1.
</event>
<event>
 7    1  0.6164995E-012  0.5930210E+02  0.7816164E-02  0.1266604E+00
        -11   -1    0    0    0    0  0.00000000000E+00  0.00000000000E+00  0.45593999997E+02  0.45594000000E+02  0.51100000000E-03 0.  1.
         11   -1    0    0    0    0 -0.00000000000E+00 -0.00000000000E+00 -0.45593999997E+02  0.45594000000E+02  0.51100000000E-03 0. -1.
    9900012    2    1    2    0    0 -0.22195637190E+01 -0.24329171054E+02  0.20490871328E+02  0.59302096609E+02  0.50000278271E+02 0.  0.
         12    1    1    2    0    0  0.22195637190E+01  0.24329171054E+02 -0.20490871328E+02  0.31885903391E+02  0.00000000000E+00 0. -1.
         11    1    3    3    0    0  0.11674521288E+02 -0.61240779941E+01  0.97172408605E+01  0.16377531828E+02  0.51100000000E-03 0. -1.
        -11    1    3    3    0    0 -0.10886847761E+02 -0.12389924141E+02  0.23442991002E+02  0.28663696582E+02  0.51100000000E-03 0.  1.
         12    1    3    3    0    0 -0.30072372466E+01 -0.58151689195E+01 -0.12669360535E+02  0.14260868199E+02  0.00000000000E+00 0. -1.
</event>
<event>
 7    1  0.6164995E-012  0.5930194E+02  0.7816164E-02  0.1266605E+00
        -11   -1    0    0    0    0  0.00000000000E+00  0.00000000000E+00  0.45593999997E+02  0.45594000000E+02  0.51100000000E-03 0.  1.
         11   -1    0    0    0    0 -0.00000000000E+00 -0.00000000000E+00 -0.45593999997E+02  0.45594000000E+02  0.51100000000E-03 0. -1.
    9900012    2    1    2    0    0  0.21825443728E+02  0.12919212543E+02  0.19325240465E+02  0.59301937752E+02  0.49999988554E+02 0.  0.
         12    1    1    2    0    0 -0.21825443728E+02 -0.12919212543E+02 -0.19325240465E+02  0.31886062248E+02  0.00000000000E+00 0. -1.
         11    1    3    3    0    0  0.52429914947E+01  0.13585159161E+02  0.19211892934E+00  0.14563049790E+02  0.51100000000E-03 0.  1.
        -11    1    3    3    0    0  0.14465314970E+02  0.49801619252E+01 -0.77767157295E+01  0.17161720712E+02  0.51100000000E-03 0. -1.
        -12    1    3    3    0    0  0.21171372629E+01 -0.56461085434E+01  0.26909837265E+02  0.27577167250E+02  0.00000000000E+00 0.  1.
</event>
<event>
 7    1  0.6164995E-012  0.5930195E+02  0.7816164E-02  0.1266605E+00
        -11   -1    0    0    0    0  0.00000000000E+00  0.00000000000E+00  0.45593999997E+02  0.45594000000E+02  0.51100000000E-03 0.  1.
         11   -1    0    0    0    0 -0.00000000000E+00 -0.00000000000E+00 -0.45593999997E+02  0.45594000000E+02  0.51100000000E-03 0. -1.
    9900012    2    1    2    0    0  0.10845061255E+02 -0.26477032544E+02 -0.14073780273E+02  0.59301954508E+02  0.50000019114E+02 0.  0.
         12    1    1    2    0    0 -0.10845061255E+02  0.26477032544E+02  0.14073780273E+02  0.31886045492E+02  0.00000000000E+00 0. -1.
         11    1    3    3    0    0 -0.12045669067E+01  0.29947028552E+01 -0.15022460739E+02  0.15365336102E+02  0.51100000000E-03 0. -1.
        -11    1    3    3    0    0  0.19009251688E+02 -0.12403840808E+02 -0.71584400058E+01  0.23800213867E+02  0.51100000000E-03 0.  1.
        -12    1    3    3    0    0 -0.69596235268E+01 -0.17067894590E+02  0.81071204723E+01  0.20136404538E+02  0.00000000000E+00 0.  1.
</event>
<event>
 7    1  0.6164995E-012  0.5930196E+02  0.7816164E-02  0.1266605E+00
        -11   -1    0    0    0    0  0.00000000000E+00  0.00000000000E+00  0.45593999997E+02  0.45594000000E+02  0.51100000000E-03 0.  1.
         11   -1    0    0    0    0 -0.00000000000E+00 -0.00000000000E+00 -0.45593999997E+02  0.45594000000E+02  0.51100000000E-03 0. -1.
    9900012    2    1    2    0    0  0.25417555929E+02  0.17346466757E+02  0.83526860155E+01  0.59301961958E+02  0.50000032700E+02 0.  0.
         12    1    1    2    0    0 -0.25417555929E+02 -0.17346466757E+02 -0.83526860155E+01  0.31886038042E+02  0.00000000000E+00 0. -1.
         11    1    3    3    0    0  0.15885323552E+02  0.62013483740E+01 -0.13280388682E+02  0.21614091464E+02  0.51100000000E-03 0. -1.
        -11    1    3    3    0    0  0.15962873315E+02  0.12299543749E+02  0.64500619918E+01  0.21158813786E+02  0.51100000000E-03 0.  1.
         12    1    3    3    0    0 -0.64306409376E+01 -0.11544253659E+01  0.15183012706E+02  0.16529056707E+02  0.00000000000E+00 0. -1.
</event>
<event>
 7    1  0.6164995E-012  0.5930194E+02  0.7816164E-02  0.1266605E+00
        -11   -1    0    0    0    0  0.00000000000E+00  0.00000000000E+00  0.45593999997E+02  0.45594000000E+02  0.51100000000E-03 0.  1.
         11   -1    0    0    0    0 -0.00000000000E+00 -0.00000000000E+00 -0.45593999997E+02  0.45594000000E+02  0.51100000000E-03 0. -1.
    9900012    2    1    2    0    0  0.12393340924E+02 -0.32816840963E+01  0.29195139812E+02  0.59301944452E+02  0.50000000773E+02 0.  0.
         12    1    1    2    0    0 -0.12393340924E+02  0.32816840963E+01 -0.29195139812E+02  0.31886055548E+02  0.00000000000E+00 0. -1.
         11    1    3    3    0    0  0.46796625868E+01  0.79940012258E+01 -0.13114697858E+01  0.93553861911E+01  0.51100000000E-03 0. -1.
        -11    1    3    3    0    0  0.56941910535E+01 -0.39891755770E+00 -0.80307934164E+01  0.98527453093E+01  0.51100000000E-03 0.  1.
        -12    1    3    3    0    0  0.20194872840E+01 -0.10876767764E+02  0.38537403014E+02  0.40093812951E+02  0.00000000000E+00 0.  1.
</event>
<event>
 7    1  0.6164995E-012  0.5930191E+02  0.7816164E-02  0.1266605E+00
        -11   -1    0    0    0    0  0.00000000000E+00  0.00000000000E+00  0.45593999997E+02  0.45594000000E+02  0.51100000000E-03 0.  1.
         11   -1    0    0    0    0 -0.00000000000E+00 -0.00000000000E+00 -0.45593999997E+02  0.45594000000E+02  0.51100000000E-03 0. -1.
    9900012    2    1    2    0    0  0.45421764394E+01  0.26300312010E+02  0.17446633184E+02  0.59301909175E+02  0.49999936437E+02 0.  0.
         12    1    1    2    0    0 -0.45421764394E+01 -0.26300312010E+02 -0.17446633184E+02  0.31886090825E+02  0.00000000000E+00 0. -1.
         11    1    3    3    0    0  0.97856766389E+01  0.76474535452E+00 -0.84114699183E+01  0.12926605478E+02  0.51100000000E-03 0. -1.
        -11    1    3    3    0    0 -0.67850698753E+01 -0.36083256098E+01  0.47999510761E+00  0.76998430168E+01  0.51100000000E-03 0.  1.
        -12    1    3    3    0    0  0.15415696758E+01  0.29143892265E+02  0.25378107995E+02  0.38675460680E+02  0.00000000000E+00 0.  1.
</event>
<event>
 7    1  0.6164995E-012  0.5930196E+02  0.7816164E-02  0.1266605E+00
        -11   -1    0    0    0    0  0.00000000000E+00  0.00000000000E+00  0.45593999997E+02  0.45594000000E+02  0.51100000000E-03 0.  1.
         11   -1    0    0    0    0 -0.00000000000E+00 -0.00000000000E+00 -0.45593999997E+02  0.45594000000E+02  0.51100000000E-03 0. -1.
    9900012    2    1    2    0    0 -0.11453506744E+01  0.18927696692E+02  0.25634938354E+02  0.59301959251E+02  0.50000027764E+02 0.  0.
         12    1    1    2    0    0  0.11453506744E+01 -0.18927696692E+02 -0.25634938354E+02  0.31886040749E+02  0.00000000000E+00 0. -1.
         11    1    3    3    0    0 -0.94029028659E+01 -0.51683162190E+01  0.12004619881E+01  0.10796628367E+02  0.51100000000E-03 0.  1.
        -11    1    3    3    0    0 -0.51305034392E+00 -0.52248291081E+01  0.15883573834E+02  0.16728717162E+02  0.51100000000E-03 0. -1.
        -12    1    3    3    0    0  0.87706025354E+01  0.29320842020E+02  0.85509025314E+01  0.31776613723E+02  0.00000000000E+00 0.  1.
</event>
<event>
 7    1  0.6164995E-012  0.5930201E+02  0.7816164E-02  0.1266605E+00
        -11   -1    0    0    0    0  0.00000000000E+00  0.00000000000E+00  0.45593999997E+02  0.45594000000E+02  0.51100000000E-03 0.  1.
         11   -1    0    0    0    0 -0.00000000000E+00 -0.00000000000E+00 -0.45593999997E+02  0.45594000000E+02  0.51100000000E-03 0. -1.
    9900012    2    1    2    0    0  0.98458098772E+01 -0.37098131753E+00  0.30325542036E+02  0.59302014065E+02  0.50000127730E+02 0.  0.
         12    1    1    2    0    0 -0.98458098772E+01  0.37098131753E+00 -0.30325542036E+02  0.31885985935E+02  0.00000000000E+00 0. -1.
         11    1    3    3    0    0 -0.63363906368E+01 -0.58209945298E+01  0.15123060865E+02  0.17399448089E+02  0.51100000000E-03 0. -1.
        -11    1    3    3    0    0  0.22079672351E+02  0.64810059491E+01  0.22689577914E+02  0.32316130886E+02  0.51100000000E-03 0.  1.
        -12    1    3    3    0    0 -0.58974718374E+01 -0.10309927368E+01 -0.74870967425E+01  0.95864350896E+01  0.00000000000E+00 0.  1.
</event>
<event>
 7    1  0.6164995E-012  0.5930196E+02  0.7816164E-02  0.1266605E+00
        -11   -1    0    0    0    0  0.00000000000E+00  0.00000000000E+00  0.45593999997E+02  0.45594000000E+02  0.51100000000E-03 0.  1.
         11   -1    0    0    0    0 -0.00000000000E+00 -0.00000000000E+00 -0.45593999997E+02  0.45594000000E+02  0.51100000000E-03 0. -1.
    9900012    2    1    2    0    0 -0.42641386656E+01  0.21372477501E+02  0.23275613487E+02  0.59301955148E+02  0.50000020280E+02 0.  0.
         12    1    1    2    0    0  0.42641386656E+01 -0.21372477501E+02 -0.23275613487E+02  0.31886044852E+02  0.00000000000E+00 0. -1.
         11    1    3    3    0    0  0.63991720585E+01 -0.11320317508E+02 -0.16893170160E+01  0.13113076823E+02  0.51100000000E-03 0.  1.
        -11    1    3    3    0    0 -0.96537604684E+01  0.11411281718E+02  0.23708386764E+01  0.15133846766E+02  0.51100000000E-03 0. -1.
        -12    1    3    3    0    0 -0.10095502557E+01  0.21281513291E+02  0.22594091827E+02  0.31055031559E+02  0.00000000000E+00 0.  1.
</event>
<event>
 7    1  0.6164995E-012  0.5930195E+02  0.7816164E-02  0.1266605E+00
        -11   -1    0    0    0    0  0.00000000000E+00  0.00000000000E+00  0.45593999997E+02  0.45594000000E+02  0.51100000000E-03 0.  1.
         11   -1    0    0    0    0 -0.00000000000E+00 -0.00000000000E+00 -0.45593999997E+02  0.45594000000E+02  0.51100000000E-03 0. -1.
    9900012    2    1    2    0    0 -0.19997064260E+02 -0.44966143588E+01  0.24425763495E+02  0.59301952236E+02  0.50000014970E+02 0.  0.
         12    1    1    2    0    0  0.19997064260E+02  0.44966143588E+01 -0.24425763495E+02  0.31886047764E+02  0.00000000000E+00 0. -1.
         11    1    3    3    0    0  0.11477177671E+01 -0.61640878198E+01 -0.11372968548E+01  0.63723370218E+01  0.51100000000E-03 0.  1.
        -11    1    3    3    0    0  0.87047169657E+01  0.60737667490E+01 -0.33596765968E+01  0.11133290936E+02  0.51100000000E-03 0. -1.
         12    1    3    3    0    0 -0.29849498993E+02 -0.44062932880E+01  0.28922736946E+02  0.41796324278E+02  0.00000000000E+00 0. -1.
</event>
<event>
 7    1  0.6164995E-012  0.5930200E+02  0.7816164E-02  0.1266605E+00
        -11   -1    0    0    0    0  0.00000000000E+00  0.00000000000E+00  0.45593999997E+02  0.45594000000E+02  0.51100000000E-03 0. -1.
         11   -1    0    0    0    0 -0.00000000000E+00 -0.00000000000E+00 -0.45593999997E+02  0.45594000000E+02  0.51100000000E-03 0.  1.
    9900012    2    1    2    0    0  0.10671177865E+02  0.11159483487E+02 -0.27898185902E+02  0.59302001735E+02  0.50000105244E+02 0.  0.
         12    1    1    2    0    0 -0.10671177865E+02 -0.11159483487E+02  0.27898185902E+02  0.31885998265E+02  0.00000000000E+00 0. -1.
         11    1    3    3    0    0 -0.13496249998E+01 -0.44152596700E+00 -0.10298385582E+02  0.10395825060E+02  0.51100000000E-03 0. -1.
        -11    1    3    3    0    0  0.25361107476E+02  0.15536088891E+01 -0.19594846096E+02  0.32086717918E+02  0.51100000000E-03 0.  1.
         12    1    3    3    0    0 -0.13340304611E+02  0.10047400565E+02  0.19950457751E+01  0.16819458757E+02  0.00000000000E+00 0. -1.
</event>
<event>
 7    1  0.6164995E-012  0.5930196E+02  0.7816164E-02  0.1266605E+00
        -11   -1    0    0    0    0  0.00000000000E+00  0.00000000000E+00  0.45593999997E+02  0.45594000000E+02  0.51100000000E-03 0.  1.
         11   -1    0    0    0    0 -0.00000000000E+00 -0.00000000000E+00 -0.45593999997E+02  0.45594000000E+02  0.51100000000E-03 0. -1.
    9900012    2    1    2    0    0 -0.15444123642E+02  0.21420801171E+02  0.17870312387E+02  0.59301956930E+02  0.50000023530E+02 0.  0.
         12    1    1    2    0    0  0.15444123642E+02 -0.21420801171E+02 -0.17870312387E+02  0.31886043070E+02  0.00000000000E+00 0. -1.
         11    1    3    3    0    0  0.49751731144E+01  0.15231729020E+02  0.19571994041E+02  0.25294680615E+02  0.51100000000E-03 0. -1.
        -11    1    3    3    0    0 -0.27597880914E+01 -0.86207670366E+01  0.45442504708E+01  0.10128389172E+02  0.51100000000E-03 0.  1.
        -12    1    3    3    0    0 -0.17659508665E+02  0.14809839188E+02 -0.62459321246E+01  0.23878887143E+02  0.00000000000E+00 0.  1.
</event>
<event>
 7    1  0.6164995E-012  0.5930195E+02  0.7816164E-02  0.1266605E+00
        -11   -1    0    0    0    0  0.00000000000E+00  0.00000000000E+00  0.45593999997E+02  0.45594000000E+02  0.51100000000E-03 0.  1.
         11   -1    0    0    0    0 -0.00000000000E+00 -0.00000000000E+00 -0.45593999997E+02  0.45594000000E+02  0.51100000000E-03 0. -1.
    9900012    2    1    2    0    0 -0.13799277685E+02  0.27505785736E+02  0.83505651045E+01  0.59301948956E+02  0.50000008988E+02 0.  0.
         12    1    1    2    0    0  0.13799277685E+02 -0.27505785736E+02 -0.83505651045E+01  0.31886051044E+02  0.00000000000E+00 0. -1.
         11    1    3    3    0    0 -0.23995502150E+02  0.86151489294E+01 -0.42779018087E+01  0.25851602633E+02  0.51100000000E-03 0. -1.
        -11    1    3    3    0    0 -0.46593267436E+01  0.54863857556E+01  0.11299370285E+02  0.13397220736E+02  0.51100000000E-03 0.  1.
         12    1    3    3    0    0  0.14855551209E+02  0.13404251052E+02  0.13290966284E+01  0.20053125587E+02  0.00000000000E+00 0. -1.
</event>
<event>
 7    1  0.6164995E-012  0.5930199E+02  0.7816164E-02  0.1266605E+00
        -11   -1    0    0    0    0  0.00000000000E+00  0.00000000000E+00  0.45593999997E+02  0.45594000000E+02  0.51100000000E-03 0.  1.
         11   -1    0    0    0    0 -0.00000000000E+00 -0.00000000000E+00 -0.45593999997E+02  0.45594000000E+02  0.51100000000E-03 0. -1.
    9900012    2    1    2    0    0 -0.61469865604E+01  0.23568752262E+02  0.20577806523E+02  0.59301989772E+02  0.50000083427E+02 0.  0.
         12    1    1    2    0    0  0.61469865604E+01 -0.23568752262E+02 -0.20577806523E+02  0.31886010228E+02  0.00000000000E+00 0. -1.
         11    1    3    3    0    0 -0.42791272307E+01  0.52929344789E+01  0.18246369923E+02  0.19474498733E+02  0.51100000000E-03 0. -1.
        -11    1    3    3    0    0 -0.11614795722E+02 -0.58925723615E+01  0.42427165965E+01  0.13697683493E+02  0.51100000000E-03 0.  1.
         12    1    3    3    0    0  0.97469363919E+01  0.24168390144E+02 -0.19112799969E+01  0.26129807547E+02  0.00000000000E+00 0. -1.
</event>
<event>
 7    1  0.6164995E-012  0.5930194E+02  0.7816164E-02  0.1266605E+00
        -11   -1    0    0    0    0  0.00000000000E+00  0.00000000000E+00  0.45593999997E+02  0.45594000000E+02  0.51100000000E-03 0. -1.
         11   -1    0    0    0    0 -0.00000000000E+00 -0.00000000000E+00 -0.45593999997E+02  0.45594000000E+02  0.51100000000E-03 0.  1.
    9900012    2    1    2    0    0  0.34398511256E+01  0.14148556232E+02 -0.28367353300E+02  0.59301937960E+02  0.49999988933E+02 0.  0.
         12    1    1    2    0    0 -0.34398511256E+01 -0.14148556232E+02  0.28367353300E+02  0.31886062040E+02  0.00000000000E+00 0. -1.
         11    1    3    3    0    0  0.10647642542E+02  0.20722135979E+02 -0.71565951729E+01  0.24372034506E+02  0.51100000000E-03 0. -1.
        -11    1    3    3    0    0  0.83217330583E+01  0.24178962044E+01 -0.25324730299E+01  0.90283377793E+01  0.51100000000E-03 0.  1.
        -12    1    3    3    0    0 -0.15529524475E+02 -0.89914759519E+01 -0.18678285097E+02  0.25901565674E+02  0.00000000000E+00 0.  1.
</event>
<event>
 7    1  0.6164995E-012  0.5930200E+02  0.7816164E-02  0.1266605E+00
        -11   -1    0    0    0    0  0.00000000000E+00  0.00000000000E+00  0.45593999997E+02  0.45594000000E+02  0.51100000000E-03 0. -1.
         11   -1    0    0    0    0 -0.00000000000E+00 -0.00000000000E+00 -0.45593999997E+02  0.45594000000E+02  0.51100000000E-03 0.  1.
    9900012    2    1    2    0    0 -0.44999679845E+01  0.48169837017E+01 -0.31197183153E+02  0.59301995538E+02  0.50000093943E+02 0.  0.
         12    1    1    2    0    0  0.44999679845E+01 -0.48169837017E+01  0.31197183153E+02  0.31886004462E+02  0.00000000000E+00 0. -1.
         11    1    3    3    0    0 -0.19627231139E+02  0.15112890876E+02 -0.80671309069E+01  0.26051991750E+02  0.51100000000E-03 0. -1.
        -11    1    3    3    0    0 -0.28088860476E+01 -0.32601071131E+01 -0.23138468485E+01  0.48859008091E+01  0.51100000000E-03 0.  1.
        -12    1    3    3    0    0  0.17936149202E+02 -0.70358000607E+01 -0.20816205398E+02  0.28364102980E+02  0.00000000000E+00 0.  1.
</event>
<event>
 7    1  0.6164995E-012  0.5930195E+02  0.7816164E-02  0.1266605E+00
        -11   -1    0    0    0    0  0.00000000000E+00  0.00000000000E+00  0.45593999997E+02  0.45594000000E+02  0.51100000000E-03 0.  1.
         11   -1    0    0    0    0 -0.00000000000E+00 -0.00000000000E+00 -0.45593999997E+02  0.45594000000E+02  0.51100000000E-03 0. -1.
    9900012    2    1    2    0    0  0.23803580645E+02 -0.84420440199E+01  0.19463857761E+02  0.59301947913E+02  0.50000007086E+02 0.  0.
         12    1    1    2    0    0 -0.23803580645E+02  0.84420440199E+01 -0.19463857761E+02  0.31886052087E+02  0.00000000000E+00 0. -1.
         11    1    3    3    0    0  0.41411424497E+00  0.73740343597E+00 -0.33971133041E+01  0.35008046928E+01  0.51100000000E-03 0. -1.
        -11    1    3    3    0    0  0.22539305718E+02 -0.13520915872E+02 -0.57040593175E+01  0.26895571406E+02  0.51100000000E-03 0.  1.
        -12    1    3    3    0    0  0.85016068135E+00  0.43414684160E+01  0.28565030382E+02  0.28905571815E+02  0.00000000000E+00 0.  1.
</event>
<event>
 7    1  0.6164995E-012  0.5930188E+02  0.7816164E-02  0.1266605E+00
        -11   -1    0    0    0    0  0.00000000000E+00  0.00000000000E+00  0.45593999997E+02  0.45594000000E+02  0.51100000000E-03 0.  1.
         11   -1    0    0    0    0 -0.00000000000E+00 -0.00000000000E+00 -0.45593999997E+02  0.45594000000E+02  0.51100000000E-03 0. -1.
    9900012    2    1    2    0    0 -0.96791408004E+01 -0.25645917259E+02 -0.16288825774E+02  0.59301879450E+02  0.49999882225E+02 0.  0.
         12    1    1    2    0    0  0.96791408004E+01  0.25645917259E+02  0.16288825774E+02  0.31886120550E+02  0.00000000000E+00 0. -1.
         11    1    3    3    0    0 -0.72661795797E+01 -0.79400469240E+01  0.71429002531E+01  0.12917535954E+02  0.51100000000E-03 0.  1.
        -11    1    3    3    0    0 -0.16055209297E+02 -0.35605991180E+00 -0.17021277768E+02  0.23401291018E+02  0.51100000000E-03 0. -1.
         12    1    3    3    0    0  0.13642248076E+02 -0.17349810423E+02 -0.64104482592E+01  0.22983052477E+02  0.00000000000E+00 0. -1.
</event>
<event>
 7    1  0.6164995E-012  0.5930195E+02  0.7816164E-02  0.1266605E+00
        -11   -1    0    0    0    0  0.00000000000E+00  0.00000000000E+00  0.45593999997E+02  0.45594000000E+02  0.51100000000E-03 0. -1.
         11   -1    0    0    0    0 -0.00000000000E+00 -0.00000000000E+00 -0.45593999997E+02  0.45594000000E+02  0.51100000000E-03 0.  1.
    9900012    2    1    2    0    0  0.14972911669E+02 -0.15856700531E+02 -0.23261492809E+02  0.59301951589E+02  0.50000013790E+02 0.  0.
         12    1    1    2    0    0 -0.14972911669E+02  0.15856700531E+02  0.23261492809E+02  0.31886048411E+02  0.00000000000E+00 0. -1.
         11    1    3    3    0    0  0.15003498673E+01 -0.19095237227E+02 -0.67640515157E+00  0.19166028767E+02  0.51100000000E-03 0. -1.
        -11    1    3    3    0    0  0.14160962367E+02 -0.10805056118E+02 -0.69810341026E+01  0.19131568945E+02  0.51100000000E-03 0.  1.
        -12    1    3    3    0    0 -0.68840056572E+00  0.14043592815E+02 -0.15604053555E+02  0.21004353878E+02  0.00000000000E+00 0.  1.
</event>
<event>
 7    1  0.6164995E-012  0.5930210E+02  0.7816164E-02  0.1266604E+00
        -11   -1    0    0    0    0  0.00000000000E+00  0.00000000000E+00  0.45593999997E+02  0.45594000000E+02  0.51100000000E-03 0.  1.
         11   -1    0    0    0    0 -0.00000000000E+00 -0.00000000000E+00 -0.45593999997E+02  0.45594000000E+02  0.51100000000E-03 0. -1.
    9900012    2    1    2    0    0  0.31527351025E+02  0.26138657748E+01  0.39880565828E+01  0.59302097908E+02  0.50000280640E+02 0.  0.
         12    1    1    2    0    0 -0.31527351025E+02 -0.26138657748E+01 -0.39880565828E+01  0.31885902092E+02  0.00000000000E+00 0. -1.
         11    1    3    3    0    0  0.56141604029E+00  0.11176836530E+02 -0.67291450800E+01  0.13058263919E+02  0.51100000000E-03 0. -1.
        -11    1    3    3    0    0  0.75146086132E+01  0.11696579790E+02  0.19616669349E+01  0.14040208646E+02  0.51100000000E-03 0.  1.
         12    1    3    3    0    0  0.23451326371E+02 -0.20259550546E+02  0.87555347280E+01  0.32203625343E+02  0.00000000000E+00 0. -1.
</event>
<event>
 7    1  0.6164995E-012  0.5930198E+02  0.7816164E-02  0.1266605E+00
        -11   -1    0    0    0    0  0.00000000000E+00  0.00000000000E+00  0.45593999997E+02  0.45594000000E+02  0.51100000000E-03 0.  1.
         11   -1    0    0    0    0 -0.00000000000E+00 -0.00000000000E+00 -0.45593999997E+02  0.45594000000E+02  0.51100000000E-03 0. -1.
    9900012    2    1    2    0    0 -0.13733335316E+02  0.28289778588E+02  0.52727932534E+01  0.59301977668E+02  0.50000061352E+02 0.  0.
         12    1    1    2    0    0  0.13733335316E+02 -0.28289778588E+02 -0.52727932534E+01  0.31886022332E+02  0.00000000000E+00 0. -1.
         11    1    3    3    0    0  0.43489486021E+01  0.47184269426E+01 -0.27135822268E+01  0.69670966349E+01  0.51100000000E-03 0.  1.
        -11    1    3    3    0    0  0.27337072305E+01 -0.44802662710E+01 -0.11281000894E+02  0.12442143003E+02  0.51100000000E-03 0. -1.
        -12    1    3    3    0    0 -0.20815991149E+02  0.28051617916E+02  0.19267376374E+02  0.39892738030E+02  0.00000000000E+00 0.  1.
</event>
<event>
 7    1  0.6164995E-012  0.5930193E+02  0.7816164E-02  0.1266605E+00
        -11   -1    0    0    0    0  0.00000000000E+00  0.00000000000E+00  0.45593999997E+02  0.45594000000E+02  0.51100000000E-03 0.  1.
         11   -1    0    0    0    0 -0.00000000000E+00 -0.00000000000E+00 -0.45593999997E+02  0.45594000000E+02  0.51100000000E-03 0. -1.
    9900012    2    1    2    0    0  0.29189015912E+02 -0.11310716930E+02  0.60655400572E+01  0.59301925554E+02  0.49999966308E+02 0.  0.
         12    1    1    2    0    0 -0.29189015912E+02  0.11310716930E+02 -0.60655400572E+01  0.31886074446E+02  0.00000000000E+00 0. -1.
         11    1    3    3    0    0 -0.90535913087E+01 -0.37348063659E+01  0.13783351869E+01  0.98902023399E+01  0.51100000000E-03 0. -1.
        -11    1    3    3    0    0  0.39842826623E+01  0.13998137729E+01 -0.10166126373E+02  0.11008365575E+02  0.51100000000E-03 0.  1.
        -12    1    3    3    0    0  0.34258324559E+02 -0.89757243371E+01  0.14853331243E+02  0.38403357639E+02  0.00000000000E+00 0.  1.
</event>
<event>
 7    1  0.6164995E-012  0.5930193E+02  0.7816164E-02  0.1266605E+00
        -11   -1    0    0    0    0  0.00000000000E+00  0.00000000000E+00  0.45593999997E+02  0.45594000000E+02  0.51100000000E-03 0.  1.
         11   -1    0    0    0    0 -0.00000000000E+00 -0.00000000000E+00 -0.45593999997E+02  0.45594000000E+02  0.51100000000E-03 0. -1.
    9900012    2    1    2    0    0 -0.28942647186E+02 -0.13066546099E+02 -0.28826875565E+01  0.59301931873E+02  0.49999977832E+02 0.  0.
         12    1    1    2    0    0  0.28942647186E+02  0.13066546099E+02  0.28826875565E+01  0.31886068127E+02  0.00000000000E+00 0. -1.
         11    1    3    3    0    0  0.54271151391E+00 -0.10523698990E+02  0.40204557573E+00  0.10545350498E+02  0.51100000000E-03 0. -1.
        -11    1    3    3    0    0 -0.16404768720E+02  0.10318555222E+01  0.17455650010E+02  0.23976673666E+02  0.51100000000E-03 0.  1.
         12    1    3    3    0    0 -0.13080589980E+02 -0.35747026305E+01 -0.20740383142E+02  0.24779907708E+02  0.00000000000E+00 0. -1.
</event>
<event>
 7    1  0.6164995E-012  0.5930194E+02  0.7816164E-02  0.1266605E+00
        -11   -1    0    0    0    0  0.00000000000E+00  0.00000000000E+00  0.45593999997E+02  0.45594000000E+02  0.51100000000E-03 0. -1.
         11   -1    0    0    0    0 -0.00000000000E+00 -0.00000000000E+00 -0.45593999997E+02  0.45594000000E+02  0.51100000000E-03 0.  1.
    9900012    2    1    2    0    0 -0.86972547792E+01 -0.33445254929E+01 -0.30494143950E+02  0.59301938677E+02  0.49999990241E+02 0.  0.
         12    1    1    2    0    0  0.86972547792E+01  0.33445254929E+01  0.30494143950E+02  0.31886061323E+02  0.00000000000E+00 0. -1.
         11    1    3    3    0    0  0.12133162489E+00 -0.90632439824E+01 -0.14388028150E+02  0.17005071807E+02  0.51100000000E-03 0. -1.
        -11    1    3    3    0    0  0.93625249067E+00  0.75347411527E+01 -0.26713762307E+02  0.27771820067E+02  0.51100000000E-03 0.  1.
         12    1    3    3    0    0 -0.97548388947E+01 -0.18160226632E+01  0.10607646508E+02  0.14525046802E+02  0.00000000000E+00 0. -1.
</event>
<event>
 7    1  0.6164995E-012  0.5930201E+02  0.7816164E-02  0.1266605E+00
        -11   -1    0    0    0    0  0.00000000000E+00  0.00000000000E+00  0.45593999997E+02  0.45594000000E+02  0.51100000000E-03 0. -1.
         11   -1    0    0    0    0 -0.00000000000E+00 -0.00000000000E+00 -0.45593999997E+02  0.45594000000E+02  0.51100000000E-03 0.  1.
    9900012    2    1    2    0    0 -0.15879287595E+02  0.27648833840E+02  0.32688883067E+00  0.59302005527E+02  0.50000112160E+02 0.  0.
         12    1    1    2    0    0  0.15879287595E+02 -0.27648833840E+02 -0.32688883067E+00  0.31885994473E+02  0.00000000000E+00 0. -1.
         11    1    3    3    0    0 -0.73473544082E+01 -0.46985632059E+01 -0.54645123739E+01  0.10291793272E+02  0.51100000000E-03 0. -1.
        -11    1    3    3    0    0 -0.11755944323E+00  0.11991671215E+02  0.19625787463E+02  0.22999685488E+02  0.51100000000E-03 0.  1.
         12    1    3    3    0    0 -0.84143737436E+01  0.20355725830E+02 -0.13834386258E+02  0.26010526767E+02  0.00000000000E+00 0. -1.
</event>
<event>
 7    1  0.6164995E-012  0.5930194E+02  0.7816164E-02  0.1266605E+00
        -11   -1    0    0    0    0  0.00000000000E+00  0.00000000000E+00  0.45593999997E+02  0.45594000000E+02  0.51100000000E-03 0.  1.
         11   -1    0    0    0    0 -0.00000000000E+00 -0.00000000000E+00 -0.45593999997E+02  0.45594000000E+02  0.51100000000E-03 0. -1.
    9900012    2    1    2    0    0  0.21534113861E+02 -0.10670390866E+02  0.20955796302E+02  0.59301941923E+02  0.49999996162E+02 0.  0.
         12    1    1    2    0    0 -0.21534113861E+02  0.10670390866E+02 -0.20955796302E+02  0.31886058077E+02  0.00000000000E+00 0. -1.
         11    1    3    3    0    0  0.23999568020E+02  0.99008926281E-01  0.20218609247E+01  0.24084787517E+02  0.51100000000E-03 0. -1.
        -11    1    3    3    0    0  0.21222895206E+01 -0.19063202625E+02  0.80965086455E+01  0.20819780490E+02  0.51100000000E-03 0.  1.
         12    1    3    3    0    0 -0.45877436792E+01  0.82938028328E+01  0.10837426732E+02  0.14397373916E+02  0.00000000000E+00 0. -1.
</event>
<event>
 7    1  0.6164995E-012  0.5930194E+02  0.7816164E-02  0.1266605E+00
        -11   -1    0    0    0    0  0.00000000000E+00  0.00000000000E+00  0.45593999997E+02  0.45594000000E+02  0.51100000000E-03 0. -1.
         11   -1    0    0    0    0 -0.00000000000E+00 -0.00000000000E+00 -0.45593999997E+02  0.45594000000E+02  0.51100000000E-03 0.  1.
    9900012    2    1    2    0    0 -0.14499765355E+02 -0.15001186098E+02 -0.24113104773E+02  0.59301943463E+02  0.49999998971E+02 0.  0.
         12    1    1    2    0    0  0.14499765355E+02  0.15001186098E+02  0.24113104773E+02  0.31886056537E+02  0.00000000000E+00 0. -1.
         11    1    3    3    0    0  0.35961261868E+01  0.71018883540E+01  0.50936690412E+01  0.94506299423E+01  0.51100000000E-03 0. -1.
        -11    1    3    3    0    0 -0.58729112153E+01 -0.48681838208E+01  0.53706485850E+01  0.93292103814E+01  0.51100000000E-03 0.  1.
        -12    1    3    3    0    0 -0.12222980326E+02 -0.17234890631E+02 -0.34577422399E+02  0.40522103140E+02  0.00000000000E+00 0.  1.
</event>
<event>
 7    1  0.6164995E-012  0.5930194E+02  0.7816164E-02  0.1266605E+00
        -11   -1    0    0    0    0  0.00000000000E+00  0.00000000000E+00  0.45593999997E+02  0.45594000000E+02  0.51100000000E-03 0.  1.
         11   -1    0    0    0    0 -0.00000000000E+00 -0.00000000000E+00 -0.45593999997E+02  0.45594000000E+02  0.51100000000E-03 0. -1.
    9900012    2    1    2    0    0 -0.13204454447E+02  0.81635653538E+01  0.27851737011E+02  0.59301942372E+02  0.49999996979E+02 0.  0.
         12    1    1    2    0    0  0.13204454447E+02 -0.81635653538E+01 -0.27851737011E+02  0.31886057628E+02  0.00000000000E+00 0. -1.
         11    1    3    3    0    0 -0.12579343406E+02  0.19513030877E+02  0.97490696188E+01  0.25180202804E+02  0.51100000000E-03 0. -1.
        -11    1    3    3    0    0 -0.14937317862E+01 -0.18399279562E+01  0.23184003104E+02  0.23304818594E+02  0.51100000000E-03 0.  1.
        -12    1    3    3    0    0  0.86862074525E+00 -0.95095375670E+01 -0.50813357113E+01  0.10816920974E+02  0.00000000000E+00 0.  1.
</event>
<event>
 7    1  0.6164995E-012  0.5930195E+02  0.7816164E-02  0.1266605E+00
        -11   -1    0    0    0    0  0.00000000000E+00  0.00000000000E+00  0.45593999997E+02  0.45594000000E+02  0.51100000000E-03 0. -1.
         11   -1    0    0    0    0 -0.00000000000E+00 -0.00000000000E+00 -0.45593999997E+02  0.45594000000E+02  0.51100000000E-03 0.  1.
    9900012    2    1    2    0    0 -0.23125518434E+02 -0.62229491783E+01 -0.21052443818E+02  0.59301951483E+02  0.50000013597E+02 0.  0.
         12    1    1    2    0    0  0.23125518434E+02  0.62229491783E+01  0.21052443818E+02  0.31886048517E+02  0.00000000000E+00 0. -1.
         11    1    3    3    0    0 -0.80290564623E+01  0.18429947259E+01 -0.24024311261E+02  0.25397439026E+02  0.51100000000E-03 0. -1.
        -11    1    3    3    0    0 -0.97536137398E+01  0.96000472172E+01 -0.38679196981E+01  0.14221627565E+02  0.51100000000E-03 0.  1.
         12    1    3    3    0    0 -0.53428482314E+01 -0.17665991121E+02  0.68397871411E+01  0.19682884892E+02  0.00000000000E+00 0. -1.
</event>
<event>
 7    1  0.6164995E-012  0.5930195E+02  0.7816164E-02  0.1266605E+00
        -11   -1    0    0    0    0  0.00000000000E+00  0.00000000000E+00  0.45593999997E+02  0.45594000000E+02  0.51100000000E-03 0. -1.
         11   -1    0    0    0    0 -0.00000000000E+00 -0.00000000000E+00 -0.45593999997E+02  0.45594000000E+02  0.51100000000E-03 0.  1.
    9900012    2    1    2    0    0  0.34365829878E+01  0.12451276802E+02 -0.29152631967E+02  0.59301947450E+02  0.50000006241E+02 0.  0.
         12    1    1    2    0    0 -0.34365829878E+01 -0.12451276802E+02  0.29152631967E+02  0.31886052550E+02  0.00000000000E+00 0. -1.
         11    1    3    3    0    0  0.28524830545E+01  0.26579072776E+02 -0.19082694312E+01  0.26799725030E+02  0.51100000000E-03 0.  1.
        -11    1    3    3    0    0 -0.67146273157E+00 -0.11640796226E+01  0.81201004685E+00  0.15701287033E+01  0.51100000000E-03 0. -1.
        -12    1    3    3    0    0  0.12555626649E+01 -0.12963716351E+02 -0.28056372582E+02  0.30932093717E+02  0.00000000000E+00 0.  1.
</event>
<event>
 7    1  0.6164995E-012  0.5930197E+02  0.7816164E-02  0.1266605E+00
        -11   -1    0    0    0    0  0.00000000000E+00  0.00000000000E+00  0.45593999997E+02  0.45594000000E+02  0.51100000000E-03 0.  1.
         11   -1    0    0    0    0 -0.00000000000E+00 -0.00000000000E+00 -0.45593999997E+02  0.45594000000E+02  0.51100000000E-03 0. -1.
    9900012    2    1    2    0    0 -0.18062506504E+02  0.80127201333E+01  0.25025213004E+02  0.59301966835E+02  0.50000041595E+02 0.  0.
         12    1    1    2    0    0  0.18062506504E+02 -0.80127201333E+01 -0.25025213004E+02  0.31886033165E+02  0.00000000000E+00 0. -1.
         11    1    3    3    0    0 -0.27615475395E+02  0.20287476176E+02  0.11158878932E+02  0.36037712888E+02  0.51100000000E-03 0.  1.
        -11    1    3    3    0    0  0.55286294179E+01 -0.51302193530E+01  0.46913652886E+00  0.75567839187E+01  0.51100000000E-03 0. -1.
        -12    1    3    3    0    0  0.40243394730E+01 -0.71445366900E+01  0.13397197542E+02  0.15707470029E+02  0.00000000000E+00 0.  1.
</event>
<event>
 7    1  0.6164995E-012  0.5930196E+02  0.7816164E-02  0.1266605E+00
        -11   -1    0    0    0    0  0.00000000000E+00  0.00000000000E+00  0.45593999997E+02  0.45594000000E+02  0.51100000000E-03 0.  1.
         11   -1    0    0    0    0 -0.00000000000E+00 -0.00000000000E+00 -0.45593999997E+02  0.45594000000E+02  0.51100000000E-03 0. -1.
    9900012    2    1    2    0    0  0.67599813441E+01 -0.30872840151E+02  0.42296832444E+01  0.59301955606E+02  0.50000021115E+02 0.  0.
         12    1    1    2    0    0 -0.67599813441E+01  0.30872840151E+02 -0.42296832444E+01  0.31886044394E+02  0.00000000000E+00 0. -1.
         11    1    3    3    0    0 -0.88821987950E+01 -0.59416933854E+01 -0.12475669334E+02  0.16426792180E+02  0.51100000000E-03 0. -1.
        -11    1    3    3    0    0  0.72337787882E+01  0.10820575559E+01 -0.42229303077E+01  0.84458004213E+01  0.51100000000E-03 0.  1.
        -12    1    3    3    0    0  0.84084013508E+01 -0.26013204322E+02  0.20928282886E+02  0.34429363005E+02  0.00000000000E+00 0.  1.
</event>
<event>
 7    1  0.6164995E-012  0.5930194E+02  0.7816164E-02  0.1266605E+00
        -11   -1    0    0    0    0  0.00000000000E+00  0.00000000000E+00  0.45593999997E+02  0.45594000000E+02  0.51100000000E-03 0. -1.
         11   -1    0    0    0    0 -0.00000000000E+00 -0.00000000000E+00 -0.45593999997E+02  0.45594000000E+02  0.51100000000E-03 0.  1.
    9900012    2    1    2    0    0 -0.15823945827E+02 -0.23487173035E+02 -0.14651837210E+02  0.59301938902E+02  0.49999990652E+02 0.  0.
         12    1    1    2    0    0  0.15823945827E+02  0.23487173035E+02  0.14651837210E+02  0.31886061098E+02  0.00000000000E+00 0. -1.
         11    1    3    3    0    0 -0.14349352959E+02 -0.19498733773E+02 -0.12469618166E+02  0.27232258932E+02  0.51100000000E-03 0. -1.
        -11    1    3    3    0    0 -0.75788957231E+01 -0.16303387480E+02  0.83238432373E+00  0.17998137893E+02  0.51100000000E-03 0.  1.
         12    1    3    3    0    0  0.61043028552E+01  0.12314948217E+02 -0.30146033679E+01  0.14071542077E+02  0.00000000000E+00 0. -1.
</event>
<event>
 7    1  0.6164995E-012  0.5930194E+02  0.7816164E-02  0.1266605E+00
        -11   -1    0    0    0    0  0.00000000000E+00  0.00000000000E+00  0.45593999997E+02  0.45594000000E+02  0.51100000000E-03 0.  1.
         11   -1    0    0    0    0 -0.00000000000E+00 -0.00000000000E+00 -0.45593999997E+02  0.45594000000E+02  0.51100000000E-03 0. -1.
    9900012    2    1    2    0    0  0.22834526168E+02 -0.32765485287E+01  0.22012942918E+02  0.59301937033E+02  0.49999987244E+02 0.  0.
         12    1    1    2    0    0 -0.22834526168E+02  0.32765485287E+01 -0.22012942918E+02  0.31886062967E+02  0.00000000000E+00 0. -1.
         11    1    3    3    0    0  0.20009876759E+02 -0.64840308551E+01  0.11652473678E+02  0.24046163251E+02  0.51100000000E-03 0. -1.
        -11    1    3    3    0    0  0.16320951500E+02  0.39683711178E+01  0.13297081530E+02  0.21422740363E+02  0.51100000000E-03 0.  1.
         12    1    3    3    0    0 -0.13496302090E+02 -0.76088879131E+00 -0.29366122893E+01  0.13833033420E+02  0.00000000000E+00 0. -1.
</event>
<event>
 7    1  0.6164995E-012  0.5930192E+02  0.7816164E-02  0.1266605E+00
        -11   -1    0    0    0    0  0.00000000000E+00  0.00000000000E+00  0.45593999997E+02  0.45594000000E+02  0.51100000000E-03 0. -1.
         11   -1    0    0    0    0 -0.00000000000E+00 -0.00000000000E+00 -0.45593999997E+02  0.45594000000E+02  0.51100000000E-03 0.  1.
    9900012    2    1    2    0    0  0.19682714423E+02  0.65370686195E+00 -0.25077588960E+02  0.59301920784E+02  0.49999957610E+02 0.  0.
         12    1    1    2    0    0 -0.19682714423E+02 -0.65370686195E+00  0.25077588960E+02  0.31886079216E+02  0.00000000000E+00 0. -1.
         11    1    3    3    0    0 -0.12893013238E+01  0.20247872708E+01 -0.23064707304E+02  0.23189281677E+02  0.51100000000E-03 0. -1.
        -11    1    3    3    0    0  0.17918181715E+02 -0.58494785802E+01 -0.13651818751E+02  0.23273370858E+02  0.51100000000E-03 0.  1.
        -12    1    3    3    0    0  0.30538340319E+01  0.44783981714E+01  0.11638937096E+02  0.12839268250E+02  0.00000000000E+00 0.  1.
</event>
<event>
 7    1  0.6164995E-012  0.5930200E+02  0.7816164E-02  0.1266605E+00
        -11   -1    0    0    0    0  0.00000000000E+00  0.00000000000E+00  0.45593999997E+02  0.45594000000E+02  0.51100000000E-03 0.  1.
         11   -1    0    0    0    0 -0.00000000000E+00 -0.00000000000E+00 -0.45593999997E+02  0.45594000000E+02  0.51100000000E-03 0. -1.
    9900012    2    1    2    0    0  0.68000315746E+01  0.30278130918E+02  0.73288094173E+01  0.59301998545E+02  0.50000099427E+02 0.  0.
         12    1    1    2    0    0 -0.68000315746E+01 -0.30278130918E+02 -0.73288094173E+01  0.31886001455E+02  0.00000000000E+00 0. -1.
         11    1    3    3    0    0 -0.30171319503E+01 -0.67179142904E+01 -0.67326806223E+01  0.99780983279E+01  0.51100000000E-03 0. -1.
        -11    1    3    3    0    0  0.72961047033E+01  0.69219724545E+01  0.16200781200E+02  0.19068617104E+02  0.51100000000E-03 0.  1.
         12    1    3    3    0    0  0.25210588215E+01  0.30074072754E+02 -0.21392911605E+01  0.30255283113E+02  0.00000000000E+00 0. -1.
</event>
<event>
 7    1  0.6164995E-012  0.5930193E+02  0.7816164E-02  0.1266605E+00
        -11   -1    0    0    0    0  0.00000000000E+00  0.00000000000E+00  0.45593999997E+02  0.45594000000E+02  0.51100000000E-03 0.  1.
         11   -1    0    0    0    0 -0.00000000000E+00 -0.00000000000E+00 -0.45593999997E+02  0.45594000000E+02  0.51100000000E-03 0. -1.
    9900012    2    1    2    0    0  0.29297682033E+01  0.28657622444E+02  0.13670349658E+02  0.59301932108E+02  0.49999978261E+02 0.  0.
         12    1    1    2    0    0 -0.29297682033E+01 -0.28657622444E+02 -0.13670349658E+02  0.31886067892E+02  0.00000000000E+00 0. -1.
         11    1    3    3    0    0 -0.17118417378E+01  0.54482945606E+01 -0.80464883741E+01  0.98671318615E+01  0.51100000000E-03 0. -1.
        -11    1    3    3    0    0  0.90994013058E+01 -0.78234208353E+01  0.14130186408E+01  0.12083113822E+02  0.51100000000E-03 0.  1.
        -12    1    3    3    0    0 -0.44577913647E+01  0.31032748719E+02  0.20303819391E+02  0.37351686424E+02  0.00000000000E+00 0.  1.
</event>
<event>
 7    1  0.6164995E-012  0.5930188E+02  0.7816164E-02  0.1266605E+00
        -11   -1    0    0    0    0  0.00000000000E+00  0.00000000000E+00  0.45593999997E+02  0.45594000000E+02  0.51100000000E-03 0.  1.
         11   -1    0    0    0    0 -0.00000000000E+00 -0.00000000000E+00 -0.45593999997E+02  0.45594000000E+02  0.51100000000E-03 0. -1.
    9900012    2    1    2    0    0  0.17732516983E+02  0.97723962408E+01  0.24632965577E+02  0.59301876373E+02  0.49999876614E+02 0.  0.
         12    1    1    2    0    0 -0.17732516983E+02 -0.97723962408E+01 -0.24632965577E+02  0.31886123627E+02  0.00000000000E+00 0. -1.
         11    1    3    3    0    0  0.50838696252E+00 -0.29431712978E+01 -0.45526978015E+01  0.54449767790E+01  0.51100000000E-03 0.  1.
        -11    1    3    3    0    0 -0.11612254530E+02 -0.19356406696E+01  0.27652487980E+01  0.12092880601E+02  0.51100000000E-03 0. -1.
        -12    1    3    3    0    0  0.28836384550E+02  0.14651208208E+02  0.26420414580E+02  0.41764018993E+02  0.00000000000E+00 0.  1.
</event>
<event>
 7    1  0.6164995E-012  0.5930196E+02  0.7816164E-02  0.1266605E+00
        -11   -1    0    0    0    0  0.00000000000E+00  0.00000000000E+00  0.45593999997E+02  0.45594000000E+02  0.51100000000E-03 0.  1.
         11   -1    0    0    0    0 -0.00000000000E+00 -0.00000000000E+00 -0.45593999997E+02  0.45594000000E+02  0.51100000000E-03 0. -1.
    9900012    2    1    2    0    0  0.20658413378E+02 -0.87041670930E+01  0.22675688423E+02  0.59301962091E+02  0.50000032943E+02 0.  0.
         12    1    1    2    0    0 -0.20658413378E+02  0.87041670930E+01 -0.22675688423E+02  0.31886037909E+02  0.00000000000E+00 0. -1.
         11    1    3    3    0    0  0.27338963343E+01 -0.12045136129E+02 -0.71205393317E+00  0.12372005278E+02  0.51100000000E-03 0. -1.
        -11    1    3    3    0    0 -0.62546767654E+01 -0.10771465827E+02  0.49259225575E+01  0.13394408192E+02  0.51100000000E-03 0.  1.
         12    1    3    3    0    0  0.24179193809E+02  0.14112434863E+02  0.18461819799E+02  0.33535548621E+02  0.00000000000E+00 0. -1.
</event>
<event>
 7    1  0.6164995E-012  0.5930184E+02  0.7816164E-02  0.1266605E+00
        -11   -1    0    0    0    0  0.00000000000E+00  0.00000000000E+00  0.45593999997E+02  0.45594000000E+02  0.51100000000E-03 0.  1.
         11   -1    0    0    0    0 -0.00000000000E+00 -0.00000000000E+00 -0.45593999997E+02  0.45594000000E+02  0.51100000000E-03 0. -1.
    9900012    2    1    2    0    0 -0.21270527075E+02 -0.19529764866E+02  0.13523309486E+02  0.59301844113E+02  0.49999817780E+02 0.  0.
         12    1    1    2    0    0  0.21270527075E+02  0.19529764866E+02 -0.13523309486E+02  0.31886155887E+02  0.00000000000E+00 0. -1.
         11    1    3    3    0    0 -0.36159488284E+00 -0.21287760648E+02 -0.46847003127E+01  0.21800135814E+02  0.51100000000E-03 0. -1.
        -11    1    3    3    0    0 -0.35241927785E+01 -0.93931391742E+01  0.12588281369E+02  0.16097075088E+02  0.51100000000E-03 0.  1.
         12    1    3    3    0    0 -0.17384739414E+02  0.11151134956E+02  0.56197284294E+01  0.21404633211E+02  0.00000000000E+00 0. -1.
</event>
<event>
 7    1  0.6164995E-012  0.5930191E+02  0.7816164E-02  0.1266605E+00
        -11   -1    0    0    0    0  0.00000000000E+00  0.00000000000E+00  0.45593999997E+02  0.45594000000E+02  0.51100000000E-03 0.  1.
         11   -1    0    0    0    0 -0.00000000000E+00 -0.00000000000E+00 -0.45593999997E+02  0.45594000000E+02  0.51100000000E-03 0. -1.
    9900012    2    1    2    0    0 -0.12043533883E+02  0.21080984606E+02  0.20670462376E+02  0.59301911573E+02  0.49999940810E+02 0.  0.
         12    1    1    2    0    0  0.12043533883E+02 -0.21080984606E+02 -0.20670462376E+02  0.31886088427E+02  0.00000000000E+00 0. -1.
         11    1    3    3    0    0 -0.13323683461E+02  0.20013626117E+02  0.64853559255E+01  0.24902321439E+02  0.51100000000E-03 0. -1.
        -11    1    3    3    0    0 -0.24973994398E+01 -0.26353381697E+01 -0.94795040334E+01  0.10151010206E+02  0.51100000000E-03 0.  1.
        -12    1    3    3    0    0  0.37775490176E+01  0.37026966591E+01  0.23664610484E+02  0.24248579927E+02  0.00000000000E+00 0.  1.
</event>
<event>
 7    1  0.6164995E-012  0.5930194E+02  0.7816164E-02  0.1266605E+00
        -11   -1    0    0    0    0  0.00000000000E+00  0.00000000000E+00  0.45593999997E+02  0.45594000000E+02  0.51100000000E-03 0. -1.
         11   -1    0    0    0    0 -0.00000000000E+00 -0.00000000000E+00 -0.45593999997E+02  0.45594000000E+02  0.51100000000E-03 0.  1.
    9900012    2    1    2    0    0 -0.18817999315E+02 -0.24860537802E+02  0.66751202759E+01  0.59301942409E+02  0.49999997048E+02 0.  0.
         12    1    1    2    0    0  0.18817999315E+02  0.24860537802E+02 -0.66751202759E+01  0.31886057591E+02  0.00000000000E+00 0. -1.
         11    1    3    3    0    0 -0.17273191308E+02  0.32238121004E+00  0.19832238934E+02  0.26301801631E+02  0.51100000000E-03 0. -1.
        -11    1    3    3    0    0 -0.76341316801E+01 -0.82599524040E+01 -0.10006862259E+01  0.11291950824E+02  0.51100000000E-03 0.  1.
         12    1    3    3    0    0  0.60893236738E+01 -0.16922966608E+02 -0.12156432432E+02  0.21708189954E+02  0.00000000000E+00 0. -1.
</event>
<event>
 7    1  0.6164995E-012  0.5930200E+02  0.7816164E-02  0.1266605E+00
        -11   -1    0    0    0    0  0.00000000000E+00  0.00000000000E+00  0.45593999997E+02  0.45594000000E+02  0.51100000000E-03 0. -1.
         11   -1    0    0    0    0 -0.00000000000E+00 -0.00000000000E+00 -0.45593999997E+02  0.45594000000E+02  0.51100000000E-03 0.  1.
    9900012    2    1    2    0    0 -0.61978017938E+01  0.26872744905E+02  0.16004987353E+02  0.59302003293E+02  0.50000108086E+02 0.  0.
         12    1    1    2    0    0  0.61978017938E+01 -0.26872744905E+02 -0.16004987353E+02  0.31885996707E+02  0.00000000000E+00 0. -1.
         11    1    3    3    0    0 -0.12000796913E+02  0.14451919654E+02  0.23857900876E+01  0.18935920966E+02  0.51100000000E-03 0. -1.
        -11    1    3    3    0    0  0.12503404748E+02  0.22121196799E+02  0.53546967354E+01  0.25968351035E+02  0.51100000000E-03 0.  1.
         12    1    3    3    0    0 -0.67004096284E+01 -0.97003715470E+01  0.82645005303E+01  0.14397731292E+02  0.00000000000E+00 0. -1.
</event>
<event>
 7    1  0.6164995E-012  0.5930196E+02  0.7816164E-02  0.1266605E+00
        -11   -1    0    0    0    0  0.00000000000E+00  0.00000000000E+00  0.45593999997E+02  0.45594000000E+02  0.51100000000E-03 0.  1.
         11   -1    0    0    0    0 -0.00000000000E+00 -0.00000000000E+00 -0.45593999997E+02  0.45594000000E+02  0.51100000000E-03 0. -1.
    9900012    2    1    2    0    0 -0.27346706516E+02  0.11902822839E+02  0.11278307881E+02  0.59301956385E+02  0.50000022536E+02 0.  0.
         12    1    1    2    0    0  0.27346706516E+02 -0.11902822839E+02 -0.11278307881E+02  0.31886043615E+02  0.00000000000E+00 0. -1.
         11    1    3    3    0    0 -0.11079124886E+01 -0.28470761570E+01  0.57212254697E+01  0.64858101932E+01  0.51100000000E-03 0. -1.
        -11    1    3    3    0    0  0.12048470834E+02  0.47500343227E+01  0.14567143543E+01  0.13032670197E+02  0.51100000000E-03 0.  1.
         12    1    3    3    0    0 -0.38287264861E+02  0.99998646730E+01  0.41003680566E+01  0.39783475994E+02  0.00000000000E+00 0. -1.
</event>
<event>
 7    1  0.6164995E-012  0.5930194E+02  0.7816164E-02  0.1266605E+00
        -11   -1    0    0    0    0  0.00000000000E+00  0.00000000000E+00  0.45593999997E+02  0.45594000000E+02  0.51100000000E-03 0.  1.
         11   -1    0    0    0    0 -0.00000000000E+00 -0.00000000000E+00 -0.45593999997E+02  0.45594000000E+02  0.51100000000E-03 0. -1.
    9900012    2    1    2    0    0 -0.29583402063E+02 -0.11605040699E+02 -0.26203269557E+01  0.59301940968E+02  0.49999994420E+02 0.  0.
         12    1    1    2    0    0  0.29583402063E+02  0.11605040699E+02  0.26203269557E+01  0.31886059032E+02  0.00000000000E+00 0. -1.
         11    1    3    3    0    0  0.53405968913E+01 -0.36758599899E+01 -0.10042793973E+02  0.11953728826E+02  0.51100000000E-03 0. -1.
        -11    1    3    3    0    0 -0.12352036908E+02 -0.18128068478E+02  0.46570952934E+01  0.22425169327E+02  0.51100000000E-03 0.  1.
        -12    1    3    3    0    0 -0.22571962047E+02  0.10198887769E+02  0.27653717234E+01  0.24923042814E+02  0.00000000000E+00 0.  1.
</event>
<event>
 7    1  0.6164995E-012  0.5930195E+02  0.7816164E-02  0.1266605E+00
        -11   -1    0    0    0    0  0.00000000000E+00  0.00000000000E+00  0.45593999997E+02  0.45594000000E+02  0.51100000000E-03 0.  1.
         11   -1    0    0    0    0 -0.00000000000E+00 -0.00000000000E+00 -0.45593999997E+02  0.45594000000E+02  0.51100000000E-03 0. -1.
    9900012    2    1    2    0    0  0.21306674924E+02 -0.23208630739E+02 -0.49096896743E+01  0.59301953055E+02  0.50000016463E+02 0.  0.
         12    1    1    2    0    0 -0.21306674924E+02  0.23208630739E+02  0.49096896743E+01  0.31886046945E+02  0.00000000000E+00 0. -1.
         11    1    3    3    0    0 -0.29045984897E+01  0.43645585242E-01 -0.42282537263E+01  0.51299831538E+01  0.51100000000E-03 0. -1.
        -11    1    3    3    0    0  0.28522734854E+02 -0.22097343336E+02 -0.15073943895E+02  0.39103232231E+02  0.51100000000E-03 0.  1.
         12    1    3    3    0    0 -0.43114614404E+01 -0.11549329884E+01  0.14392507947E+02  0.15068737670E+02  0.00000000000E+00 0. -1.
</event>
<event>
 7    1  0.6164995E-012  0.5930195E+02  0.7816164E-02  0.1266605E+00
        -11   -1    0    0    0    0  0.00000000000E+00  0.00000000000E+00  0.45593999997E+02  0.45594000000E+02  0.51100000000E-03 0. -1.
         11   -1    0    0    0    0 -0.00000000000E+00 -0.00000000000E+00 -0.45593999997E+02  0.45594000000E+02  0.51100000000E-03 0.  1.
    9900012    2    1    2    0    0 -0.27753610681E+02  0.70625732079E+01 -0.14020606905E+02  0.59301948753E+02  0.50000008617E+02 0.  0.
         12    1    1    2    0    0  0.27753610681E+02 -0.70625732079E+01  0.14020606905E+02  0.31886051247E+02  0.00000000000E+00 0. -1.
         11    1    3    3    0    0  0.30248007370E+01  0.45459571388E+00  0.67139815028E+01  0.73779146541E+01  0.51100000000E-03 0. -1.
        -11    1    3    3    0    0  0.27778438754E+01  0.12302586249E+02 -0.11720715414E+01  0.12666641109E+02  0.51100000000E-03 0.  1.
         12    1    3    3    0    0 -0.33556255294E+02 -0.56946087552E+01 -0.19562516866E+02  0.39257392990E+02  0.00000000000E+00 0. -1.
</event>
<event>
 7    1  0.6164995E-012  0.5930204E+02  0.7816164E-02  0.1266604E+00
        -11   -1    0    0    0    0  0.00000000000E+00  0.00000000000E+00  0.45593999997E+02  0.45594000000E+02  0.51100000000E-03 0. -1.
         11   -1    0    0    0    0 -0.00000000000E+00 -0.00000000000E+00 -0.45593999997E+02  0.45594000000E+02  0.51100000000E-03 0.  1.
    9900012    2    1    2    0    0 -0.25280741589E+02 -0.16624748817E+02 -0.10060639185E+02  0.59302037112E+02  0.50000169763E+02 0.  0.
         12    1    1    2    0    0  0.25280741589E+02  0.16624748817E+02  0.10060639185E+02  0.31885962888E+02  0.00000000000E+00 0. -1.
         11    1    3    3    0    0  0.14252903421E+00  0.77722102244E+01 -0.15209964806E+01  0.79209214649E+01  0.51100000000E-03 0. -1.
        -11    1    3    3    0    0 -0.10305446783E+02  0.66053001336E+01 -0.11457267031E+02  0.16766072627E+02  0.51100000000E-03 0.  1.
        -12    1    3    3    0    0 -0.15117823840E+02 -0.31002259175E+02  0.29176243263E+01  0.34615043020E+02  0.00000000000E+00 0.  1.
</event>
<event>
 7    1  0.6164995E-012  0.5930191E+02  0.7816164E-02  0.1266605E+00
        -11   -1    0    0    0    0  0.00000000000E+00  0.00000000000E+00  0.45593999997E+02  0.45594000000E+02  0.51100000000E-03 0.  1.
         11   -1    0    0    0    0 -0.00000000000E+00 -0.00000000000E+00 -0.45593999997E+02  0.45594000000E+02  0.51100000000E-03 0. -1.
    9900012    2    1    2    0    0 -0.25033152877E+02 -0.16192565433E+02 -0.11307721470E+02  0.59301913957E+02  0.49999945159E+02 0.  0.
         12    1    1    2    0    0  0.25033152877E+02  0.16192565433E+02  0.11307721470E+02  0.31886086043E+02  0.00000000000E+00 0. -1.
         11    1    3    3    0    0  0.24270545999E+01 -0.10476374280E+02 -0.30272057829E+01  0.11171794269E+02  0.51100000000E-03 0. -1.
        -11    1    3    3    0    0 -0.13517915036E+02 -0.13001985393E+02  0.12148115874E+02  0.22346417400E+02  0.51100000000E-03 0.  1.
        -12    1    3    3    0    0 -0.13942292441E+02  0.72857942393E+01 -0.20428631561E+02  0.25783702288E+02  0.00000000000E+00 0.  1.
</event>
<event>
 7    1  0.6164995E-012  0.5930192E+02  0.7816164E-02  0.1266605E+00
        -11   -1    0    0    0    0  0.00000000000E+00  0.00000000000E+00  0.45593999997E+02  0.45594000000E+02  0.51100000000E-03 0. -1.
         11   -1    0    0    0    0 -0.00000000000E+00 -0.00000000000E+00 -0.45593999997E+02  0.45594000000E+02  0.51100000000E-03 0.  1.
    9900012    2    1    2    0    0 -0.69620548578E+01  0.21896256494E+02  0.22108957702E+02  0.59301917347E+02  0.49999951340E+02 0.  0.
         12    1    1    2    0    0  0.69620548578E+01 -0.21896256494E+02 -0.22108957702E+02  0.31886082653E+02  0.00000000000E+00 0. -1.
         11    1    3    3    0    0  0.10422848533E+02  0.16637511799E+02  0.43523041765E+01  0.20109329235E+02  0.51100000000E-03 0. -1.
        -11    1    3    3    0    0  0.21178798429E+01  0.74463260037E+00 -0.70022460845E+01  0.73533219178E+01  0.51100000000E-03 0.  1.
         12    1    3    3    0    0 -0.19502783233E+02  0.45141120948E+01  0.24758899610E+02  0.31839266194E+02  0.00000000000E+00 0. -1.
</event>
<event>
 7    1  0.6164995E-012  0.5930191E+02  0.7816164E-02  0.1266605E+00
        -11   -1    0    0    0    0  0.00000000000E+00  0.00000000000E+00  0.45593999997E+02  0.45594000000E+02  0.51100000000E-03 0.  1.
         11   -1    0    0    0    0 -0.00000000000E+00 -0.00000000000E+00 -0.45593999997E+02  0.45594000000E+02  0.51100000000E-03 0. -1.
    9900012    2    1    2    0    0  0.11311800577E+01 -0.27641294995E+02  0.15855652196E+02  0.59301914259E+02  0.49999945708E+02 0.  0.
         12    1    1    2    0    0 -0.11311800577E+01  0.27641294995E+02 -0.15855652196E+02  0.31886085741E+02  0.00000000000E+00 0. -1.
         11    1    3    3    0    0 -0.10418518523E+02 -0.39265068553E+01 -0.75018475540E+01  0.13425375275E+02  0.51100000000E-03 0. -1.
        -11    1    3    3    0    0 -0.90372855888E+01 -0.17238087535E+01  0.37579090201E+01  0.99381048444E+01  0.51100000000E-03 0.  1.
         12    1    3    3    0    0  0.20586984170E+02 -0.21990979386E+02  0.19599590730E+02  0.35938434139E+02  0.00000000000E+00 0. -1.
</event>
<event>
 7    1  0.6164995E-012  0.5930195E+02  0.7816164E-02  0.1266605E+00
        -11   -1    0    0    0    0  0.00000000000E+00  0.00000000000E+00  0.45593999997E+02  0.45594000000E+02  0.51100000000E-03 0. -1.
         11   -1    0    0    0    0 -0.00000000000E+00 -0.00000000000E+00 -0.45593999997E+02  0.45594000000E+02  0.51100000000E-03 0.  1.
    9900012    2    1    2    0    0 -0.24171092584E+01 -0.28289899591E+01 -0.31668190711E+02  0.59301954396E+02  0.50000018908E+02 0.  0.
         12    1    1    2    0    0  0.24171092584E+01  0.28289899591E+01  0.31668190711E+02  0.31886045604E+02  0.00000000000E+00 0. -1.
         11    1    3    3    0    0 -0.26614798683E+01  0.34129964360E+01  0.23257260735E+01  0.49133513809E+01  0.51100000000E-03 0. -1.
        -11    1    3    3    0    0 -0.15397978456E+02 -0.15727264436E+02 -0.98929516955E+01  0.24131205538E+02  0.51100000000E-03 0.  1.
        -12    1    3    3    0    0  0.15642349066E+02  0.94852780412E+01 -0.24100965089E+02  0.30257397477E+02  0.00000000000E+00 0.  1.
</event>
<event>
 7    1  0.6164995E-012  0.5930194E+02  0.7816164E-02  0.1266605E+00
        -11   -1    0    0    0    0  0.00000000000E+00  0.00000000000E+00  0.45593999997E+02  0.45594000000E+02  0.51100000000E-03 0.  1.
         11   -1    0    0    0    0 -0.00000000000E+00 -0.00000000000E+00 -0.45593999997E+02  0.45594000000E+02  0.51100000000E-03 0. -1.
    9900012    2    1    2    0    0 -0.11201168208E+02 -0.28671659301E+02  0.83180925677E+01  0.59301939091E+02  0.49999990997E+02 0.  0.
         12    1    1    2    0    0  0.11201168208E+02  0.28671659301E+02 -0.83180925677E+01  0.31886060909E+02  0.00000000000E+00 0. -1.
         11    1    3    3    0    0 -0.47441917801E+01 -0.16237994761E+02 -0.15620218747E+02  0.23025443828E+02  0.51100000000E-03 0. -1.
        -11    1    3    3    0    0 -0.33088474977E+00 -0.12223370600E+02  0.70497339886E+00  0.12248153383E+02  0.51100000000E-03 0.  1.
        -12    1    3    3    0    0 -0.61260916786E+01 -0.21029393994E+00  0.23233337916E+02  0.24028341880E+02  0.00000000000E+00 0.  1.
</event>
<event>
 7    1  0.6164995E-012  0.5930195E+02  0.7816164E-02  0.1266605E+00
        -11   -1    0    0    0    0  0.00000000000E+00  0.00000000000E+00  0.45593999997E+02  0.45594000000E+02  0.51100000000E-03 0.  1.
         11   -1    0    0    0    0 -0.00000000000E+00 -0.00000000000E+00 -0.45593999997E+02  0.45594000000E+02  0.51100000000E-03 0. -1.
    9900012    2    1    2    0    0  0.27099379412E+02  0.16217754967E+02 -0.43964069606E+01  0.59301947644E+02  0.50000006596E+02 0.  0.
         12    1    1    2    0    0 -0.27099379412E+02 -0.16217754967E+02  0.43964069606E+01  0.31886052356E+02  0.00000000000E+00 0. -1.
         11    1    3    3    0    0  0.14107223516E+02  0.48993252321E+01 -0.64513701230E+01  0.16267677148E+02  0.51100000000E-03 0. -1.
        -11    1    3    3    0    0  0.61390587891E+01  0.25034480196E+02 -0.48329706920E+01  0.26225385555E+02  0.51100000000E-03 0.  1.
        -12    1    3    3    0    0  0.68530971061E+01 -0.13716050461E+02  0.68879338544E+01  0.16808884942E+02  0.00000000000E+00 0.  1.
</event>
<event>
 7    1  0.6164995E-012  0.5930195E+02  0.7816164E-02  0.1266605E+00
        -11   -1    0    0    0    0  0.00000000000E+00  0.00000000000E+00  0.45593999997E+02  0.45594000000E+02  0.51100000000E-03 0.  1.
         11   -1    0    0    0    0 -0.00000000000E+00 -0.00000000000E+00 -0.45593999997E+02  0.45594000000E+02  0.51100000000E-03 0. -1.
    9900012    2    1    2    0    0  0.12270225566E+02  0.35078736706E+01  0.29220825931E+02  0.59301948485E+02  0.50000008129E+02 0.  0.
         12    1    1    2    0    0 -0.12270225566E+02 -0.35078736706E+01 -0.29220825931E+02  0.31886051515E+02  0.00000000000E+00 0. -1.
         11    1    3    3    0    0  0.16601258974E+01  0.11933396213E+02 -0.91535546954E+01  0.15131078183E+02  0.51100000000E-03 0. -1.
        -11    1    3    3    0    0  0.11269636035E+02 -0.21225396172E+01  0.10379103741E+02  0.15467244923E+02  0.51100000000E-03 0.  1.
        -12    1    3    3    0    0 -0.65953636600E+00 -0.63029829252E+01  0.27995276885E+02  0.28703625378E+02  0.00000000000E+00 0.  1.
</event>
<event>
 7    1  0.6164995E-012  0.5930192E+02  0.7816164E-02  0.1266605E+00
        -11   -1    0    0    0    0  0.00000000000E+00  0.00000000000E+00  0.45593999997E+02  0.45594000000E+02  0.51100000000E-03 0.  1.
         11   -1    0    0    0    0 -0.00000000000E+00 -0.00000000000E+00 -0.45593999997E+02  0.45594000000E+02  0.51100000000E-03 0. -1.
    9900012    2    1    2    0    0 -0.26798564150E+02 -0.64519461994E+01  0.16029074358E+02  0.59301923492E+02  0.49999962548E+02 0.  0.
         12    1    1    2    0    0  0.26798564150E+02  0.64519461994E+01 -0.16029074358E+02  0.31886076508E+02  0.00000000000E+00 0. -1.
         11    1    3    3    0    0 -0.33662592445E+01  0.55417211859E+00  0.71771056696E+01  0.79466756629E+01  0.51100000000E-03 0.  1.
        -11    1    3    3    0    0 -0.27329822979E+02 -0.15486197698E+02 -0.77099096194E+01  0.32344771599E+02  0.51100000000E-03 0. -1.
         12    1    3    3    0    0  0.38975180727E+01  0.84800793800E+01  0.16561878308E+02  0.19010476230E+02  0.00000000000E+00 0. -1.
</event>
<event>
 7    1  0.6164995E-012  0.5930196E+02  0.7816164E-02  0.1266605E+00
        -11   -1    0    0    0    0  0.00000000000E+00  0.00000000000E+00  0.45593999997E+02  0.45594000000E+02  0.51100000000E-03 0.  1.
         11   -1    0    0    0    0 -0.00000000000E+00 -0.00000000000E+00 -0.45593999997E+02  0.45594000000E+02  0.51100000000E-03 0. -1.
    9900012    2    1    2    0    0 -0.81856257656E+00  0.60884683217E+01  0.31288661606E+02  0.59301955462E+02  0.50000020853E+02 0.  0.
         12    1    1    2    0    0  0.81856257656E+00 -0.60884683217E+01 -0.31288661606E+02  0.31886044538E+02  0.00000000000E+00 0. -1.
         11    1    3    3    0    0 -0.35685914380E+01  0.10358708725E+01 -0.40394087212E+01  0.54885969422E+01  0.51100000000E-03 0. -1.
        -11    1    3    3    0    0 -0.52049800615E+01 -0.13842188436E+02  0.23379569377E+01  0.14972108770E+02  0.51100000000E-03 0.  1.
        -12    1    3    3    0    0  0.79550089230E+01  0.18894785885E+02  0.32990113390E+02  0.38841249749E+02  0.00000000000E+00 0.  1.
</event>
<event>
 7    1  0.6164995E-012  0.5930197E+02  0.7816164E-02  0.1266605E+00
        -11   -1    0    0    0    0  0.00000000000E+00  0.00000000000E+00  0.45593999997E+02  0.45594000000E+02  0.51100000000E-03 0.  1.
         11   -1    0    0    0    0 -0.00000000000E+00 -0.00000000000E+00 -0.45593999997E+02  0.45594000000E+02  0.51100000000E-03 0. -1.
    9900012    2    1    2    0    0  0.63994325597E+01  0.16344759995E+02  0.26619818879E+02  0.59301973695E+02  0.50000054106E+02 0.  0.
         12    1    1    2    0    0 -0.63994325597E+01 -0.16344759995E+02 -0.26619818879E+02  0.31886026305E+02  0.00000000000E+00 0. -1.
         11    1    3    3    0    0  0.11847113261E+02  0.58533221766E+01  0.26050758544E+02  0.29210571615E+02  0.51100000000E-03 0. -1.
        -11    1    3    3    0    0  0.89303851120E+01  0.69955955253E+01  0.76549350566E+01  0.13685326667E+02  0.51100000000E-03 0.  1.
         12    1    3    3    0    0 -0.14378065813E+02  0.34958422933E+01 -0.70858747220E+01  0.16406075413E+02  0.00000000000E+00 0. -1.
</event>
<event>
 7    1  0.6164995E-012  0.5930193E+02  0.7816164E-02  0.1266605E+00
        -11   -1    0    0    0    0  0.00000000000E+00  0.00000000000E+00  0.45593999997E+02  0.45594000000E+02  0.51100000000E-03 0.  1.
         11   -1    0    0    0    0 -0.00000000000E+00 -0.00000000000E+00 -0.45593999997E+02  0.45594000000E+02  0.51100000000E-03 0. -1.
    9900012    2    1    2    0    0  0.31291856747E+02  0.60942959037E+01  0.63299662924E+00  0.59301930535E+02  0.49999975392E+02 0.  0.
         12    1    1    2    0    0 -0.31291856747E+02 -0.60942959037E+01 -0.63299662924E+00  0.31886069465E+02  0.00000000000E+00 0. -1.
         11    1    3    3    0    0  0.75623723886E+01 -0.72710524856E+01  0.17443711117E+01  0.10634872412E+02  0.51100000000E-03 0. -1.
        -11    1    3    3    0    0  0.24784093752E+01 -0.21095589577E+01  0.16634302321E+02  0.16949712859E+02  0.51100000000E-03 0.  1.
        -12    1    3    3    0    0  0.21251074983E+02  0.15474907347E+02 -0.17745676804E+02  0.31717345263E+02  0.00000000000E+00 0.  1.
</event>
<event>
 7    1  0.6164995E-012  0.5930186E+02  0.7816164E-02  0.1266605E+00
        -11   -1    0    0    0    0  0.00000000000E+00  0.00000000000E+00  0.45593999997E+02  0.45594000000E+02  0.51100000000E-03 0. -1.
         11   -1    0    0    0    0 -0.00000000000E+00 -0.00000000000E+00 -0.45593999997E+02  0.45594000000E+02  0.51100000000E-03 0.  1.
    9900012    2    1    2    0    0  0.17115476312E+02  0.75373467698E+01 -0.25825855250E+02  0.59301859984E+02  0.49999846724E+02 0.  0.
         12    1    1    2    0    0 -0.17115476312E+02 -0.75373467698E+01  0.25825855250E+02  0.31886140016E+02  0.00000000000E+00 0. -1.
         11    1    3    3    0    0  0.83469250212E+01  0.35420249776E+01  0.19267357977E+01  0.92698117213E+01  0.51100000000E-03 0. -1.
        -11    1    3    3    0    0  0.89580272630E+01 -0.90171583217E+01 -0.33481559766E+02  0.35812989840E+02  0.51100000000E-03 0.  1.
         12    1    3    3    0    0 -0.18947597250E+00  0.13012480114E+02  0.57289687182E+01  0.14219058423E+02  0.00000000000E+00 0. -1.
</event>
<event>
 7    1  0.6164995E-012  0.5930198E+02  0.7816164E-02  0.1266605E+00
        -11   -1    0    0    0    0  0.00000000000E+00  0.00000000000E+00  0.45593999997E+02  0.45594000000E+02  0.51100000000E-03 0.  1.
         11   -1    0    0    0    0 -0.00000000000E+00 -0.00000000000E+00 -0.45593999997E+02  0.45594000000E+02  0.51100000000E-03 0. -1.
    9900012    2    1    2    0    0  0.27443537287E+02 -0.15709704989E+02  0.40958110989E+01  0.59301980521E+02  0.50000066555E+02 0.  0.
         12    1    1    2    0    0 -0.27443537287E+02  0.15709704989E+02 -0.40958110989E+01  0.31886019479E+02  0.00000000000E+00 0. -1.
         11    1    3    3    0    0  0.14458994518E+01 -0.94230953604E+01 -0.17633459996E+02  0.20045554696E+02  0.51100000000E-03 0. -1.
        -11    1    3    3    0    0  0.29318441383E+01 -0.83225969547E+01  0.25374982501E+01  0.91815155477E+01  0.51100000000E-03 0.  1.
         12    1    3    3    0    0  0.23065793697E+02  0.20359873259E+01  0.19191772844E+02  0.30074910277E+02  0.00000000000E+00 0. -1.
</event>
<event>
 7    1  0.6164995E-012  0.5930194E+02  0.7816164E-02  0.1266605E+00
        -11   -1    0    0    0    0  0.00000000000E+00  0.00000000000E+00  0.45593999997E+02  0.45594000000E+02  0.51100000000E-03 0. -1.
         11   -1    0    0    0    0 -0.00000000000E+00 -0.00000000000E+00 -0.45593999997E+02  0.45594000000E+02  0.51100000000E-03 0.  1.
    9900012    2    1    2    0    0  0.16390554359E+02 -0.27159403607E+02  0.32307301120E+01  0.59301935747E+02  0.49999984898E+02 0.  0.
         12    1    1    2    0    0 -0.16390554359E+02  0.27159403607E+02 -0.32307301120E+01  0.31886064253E+02  0.00000000000E+00 0. -1.
         11    1    3    3    0    0 -0.45357150366E+01 -0.64143970089E+01 -0.97068727001E+01  0.12487616977E+02  0.51100000000E-03 0. -1.
        -11    1    3    3    0    0 -0.47081372259E+01 -0.12837784676E+02 -0.49823579329E+01  0.14553321351E+02  0.51100000000E-03 0.  1.
         12    1    3    3    0    0  0.25634406622E+02 -0.79072219219E+01  0.17919960745E+02  0.32260997419E+02  0.00000000000E+00 0. -1.
</event>
<event>
 7    1  0.6164995E-012  0.5930194E+02  0.7816164E-02  0.1266605E+00
        -11   -1    0    0    0    0  0.00000000000E+00  0.00000000000E+00  0.45593999997E+02  0.45594000000E+02  0.51100000000E-03 0.  1.
         11   -1    0    0    0    0 -0.00000000000E+00 -0.00000000000E+00 -0.45593999997E+02  0.45594000000E+02  0.51100000000E-03 0. -1.
    9900012    2    1    2    0    0 -0.18519382514E+02 -0.24634838597E+02 -0.81778905801E+01  0.59301941985E+02  0.49999996274E+02 0.  0.
         12    1    1    2    0    0  0.18519382514E+02  0.24634838597E+02  0.81778905801E+01  0.31886058015E+02  0.00000000000E+00 0. -1.
         11    1    3    3    0    0 -0.56567612167E+01 -0.87103643291E+00  0.28117708501E+01  0.63768101356E+01  0.51100000000E-03 0. -1.
        -11    1    3    3    0    0 -0.21274450758E+01  0.13084280703E+02 -0.45079579190E+01  0.14001646651E+02  0.51100000000E-03 0.  1.
        -12    1    3    3    0    0 -0.10735176221E+02 -0.36848082868E+02 -0.64817035111E+01  0.38923485198E+02  0.00000000000E+00 0.  1.
</event>
<event>
 7    1  0.6164995E-012  0.5930195E+02  0.7816164E-02  0.1266605E+00
        -11   -1    0    0    0    0  0.00000000000E+00  0.00000000000E+00  0.45593999997E+02  0.45594000000E+02  0.51100000000E-03 0. -1.
         11   -1    0    0    0    0 -0.00000000000E+00 -0.00000000000E+00 -0.45593999997E+02  0.45594000000E+02  0.51100000000E-03 0.  1.
    9900012    2    1    2    0    0  0.16116244495E+02 -0.94630325127E+01 -0.25834817790E+02  0.59301950837E+02  0.50000012419E+02 0.  0.
         12    1    1    2    0    0 -0.16116244495E+02  0.94630325127E+01  0.25834817790E+02  0.31886049163E+02  0.00000000000E+00 0. -1.
         11    1    3    3    0    0 -0.94969846818E+01 -0.15028916873E+02 -0.11836604919E+02  0.21358049459E+02  0.51100000000E-03 0. -1.
        -11    1    3    3    0    0 -0.29731793027E+01 -0.73751709041E+00  0.28368136497E+01  0.41750734806E+01  0.51100000000E-03 0.  1.
         12    1    3    3    0    0  0.28586408479E+02  0.63034014510E+01 -0.16835026521E+02  0.33768827897E+02  0.00000000000E+00 0. -1.
</event>
<event>
 7    1  0.6164995E-012  0.5930196E+02  0.7816164E-02  0.1266605E+00
        -11   -1    0    0    0    0  0.00000000000E+00  0.00000000000E+00  0.45593999997E+02  0.45594000000E+02  0.51100000000E-03 0.  1.
         11   -1    0    0    0    0 -0.00000000000E+00 -0.00000000000E+00 -0.45593999997E+02  0.45594000000E+02  0.51100000000E-03 0. -1.
    9900012    2    1    2    0    0  0.68528950396E+01  0.25634848281E+02 -0.17680840329E+02  0.59301957104E+02  0.50000023848E+02 0.  0.
         12    1    1    2    0    0 -0.68528950396E+01 -0.25634848281E+02  0.17680840329E+02  0.31886042896E+02  0.00000000000E+00 0. -1.
         11    1    3    3    0    0 -0.33513883633E+01  0.24060512415E+02 -0.11588769720E+02  0.26915416503E+02  0.51100000000E-03 0. -1.
        -11    1    3    3    0    0  0.16124121819E+02  0.11397919051E+02 -0.68291585560E+01  0.20893474339E+02  0.51100000000E-03 0.  1.
        -12    1    3    3    0    0 -0.59198384157E+01 -0.98235831849E+01  0.73708794687E+00  0.11493066262E+02  0.00000000000E+00 0.  1.
</event>
<event>
 7    1  0.6164995E-012  0.5930195E+02  0.7816164E-02  0.1266605E+00
        -11   -1    0    0    0    0  0.00000000000E+00  0.00000000000E+00  0.45593999997E+02  0.45594000000E+02  0.51100000000E-03 0.  1.
         11   -1    0    0    0    0 -0.00000000000E+00 -0.00000000000E+00 -0.45593999997E+02  0.45594000000E+02  0.51100000000E-03 0. -1.
    9900012    2    1    2    0    0  0.20540546289E+02 -0.68228341068E+00  0.24379108070E+02  0.59301945638E+02  0.50000002936E+02 0.  0.
         12    1    1    2    0    0 -0.20540546289E+02  0.68228341068E+00 -0.24379108070E+02  0.31886054362E+02  0.00000000000E+00 0. -1.
         11    1    3    3    0    0  0.11726587223E+02 -0.11138071865E+02  0.40964842642E+01  0.16683844772E+02  0.51100000000E-03 0. -1.
        -11    1    3    3    0    0  0.40104698168E+01  0.56637433025E+01 -0.96722585980E+01  0.11904387552E+02  0.51100000000E-03 0.  1.
        -12    1    3    3    0    0  0.48034892495E+01  0.47920451523E+01  0.29954882404E+02  0.30713713314E+02  0.00000000000E+00 0.  1.
</event>
<event>
 7    1  0.6164995E-012  0.5930193E+02  0.7816164E-02  0.1266605E+00
        -11   -1    0    0    0    0  0.00000000000E+00  0.00000000000E+00  0.45593999997E+02  0.45594000000E+02  0.51100000000E-03 0.  1.
         11   -1    0    0    0    0 -0.00000000000E+00 -0.00000000000E+00 -0.45593999997E+02  0.45594000000E+02  0.51100000000E-03 0. -1.
    9900012    2    1    2    0    0 -0.87168882848E+01 -0.10824952323E+02  0.28697696130E+02  0.59301929415E+02  0.49999973350E+02 0.  0.
         12    1    1    2    0    0  0.87168882848E+01  0.10824952323E+02 -0.28697696130E+02  0.31886070585E+02  0.00000000000E+00 0. -1.
         11    1    3    3    0    0  0.70112066240E+01  0.67101611389E+01 -0.50690904385E+01  0.10948925014E+02  0.51100000000E-03 0. -1.
        -11    1    3    3    0    0 -0.71222216222E+01  0.60462179426E+01  0.71364261619E+01  0.11756333224E+02  0.51100000000E-03 0.  1.
        -12    1    3    3    0    0 -0.86058732866E+01 -0.23581331404E+02  0.26630360407E+02  0.36596671177E+02  0.00000000000E+00 0.  1.
</event>
<event>
 7    1  0.6164995E-012  0.5930197E+02  0.7816164E-02  0.1266605E+00
        -11   -1    0    0    0    0  0.00000000000E+00  0.00000000000E+00  0.45593999997E+02  0.45594000000E+02  0.51100000000E-03 0.  1.
         11   -1    0    0    0    0 -0.00000000000E+00 -0.00000000000E+00 -0.45593999997E+02  0.45594000000E+02  0.51100000000E-03 0. -1.
    9900012    2    1    2    0    0  0.26767480737E+02  0.13431125518E+02  0.10946486076E+02  0.59301973043E+02  0.50000052917E+02 0.  0.
         12    1    1    2    0    0 -0.26767480737E+02 -0.13431125518E+02 -0.10946486076E+02  0.31886026957E+02  0.00000000000E+00 0. -1.
         11    1    3    3    0    0  0.83596845053E+01  0.12840295230E+02 -0.12083009556E+02  0.19512986107E+02  0.51100000000E-03 0. -1.
        -11    1    3    3    0    0  0.22179895863E+02 -0.21533441167E+01  0.74038672519E+01  0.23481948852E+02  0.51100000000E-03 0.  1.
         12    1    3    3    0    0 -0.37720996312E+01  0.27441744053E+01  0.15625628380E+02  0.16307038084E+02  0.00000000000E+00 0. -1.
</event>
<event>
 7    1  0.6164995E-012  0.5930196E+02  0.7816164E-02  0.1266605E+00
        -11   -1    0    0    0    0  0.00000000000E+00  0.00000000000E+00  0.45593999997E+02  0.45594000000E+02  0.51100000000E-03 0.  1.
         11   -1    0    0    0    0 -0.00000000000E+00 -0.00000000000E+00 -0.45593999997E+02  0.45594000000E+02  0.51100000000E-03 0. -1.
    9900012    2    1    2    0    0 -0.10390280894E+02 -0.20886066279E+02  0.21737850773E+02  0.59301955123E+02  0.50000020235E+02 0.  0.
         12    1    1    2    0    0  0.10390280894E+02  0.20886066279E+02 -0.21737850773E+02  0.31886044877E+02  0.00000000000E+00 0. -1.
         11    1    3    3    0    0  0.11422408371E+02 -0.46726454663E+01  0.13318322520E+02  0.18157167831E+02  0.51100000000E-03 0. -1.
        -11    1    3    3    0    0 -0.17108968173E+01  0.29261898222E+01  0.12624709036E+02  0.13071841236E+02  0.51100000000E-03 0.  1.
        -12    1    3    3    0    0 -0.20101792447E+02 -0.19139610635E+02 -0.42051807834E+01  0.28072946056E+02  0.00000000000E+00 0.  1.
</event>
<event>
 7    1  0.6164995E-012  0.5930193E+02  0.7816164E-02  0.1266605E+00
        -11   -1    0    0    0    0  0.00000000000E+00  0.00000000000E+00  0.45593999997E+02  0.45594000000E+02  0.51100000000E-03 0.  1.
         11   -1    0    0    0    0 -0.00000000000E+00 -0.00000000000E+00 -0.45593999997E+02  0.45594000000E+02  0.51100000000E-03 0. -1.
    9900012    2    1    2    0    0 -0.27018031509E+02  0.12762960854E+02  0.11128974209E+02  0.59301933085E+02  0.49999980044E+02 0.  0.
         12    1    1    2    0    0  0.27018031509E+02 -0.12762960854E+02 -0.11128974209E+02  0.31886066915E+02  0.00000000000E+00 0. -1.
         11    1    3    3    0    0  0.14726458032E+01  0.80796090406E+01  0.13586909281E+02  0.15876173090E+02  0.51100000000E-03 0.  1.
        -11    1    3    3    0    0 -0.13809526986E+02  0.18491203584E+02 -0.29435215411E+01  0.23265682128E+02  0.51100000000E-03 0. -1.
        -12    1    3    3    0    0 -0.14681150326E+02 -0.13807851771E+02  0.48558646876E+00  0.20160077868E+02  0.00000000000E+00 0.  1.
</event>
<event>
 7    1  0.6164995E-012  0.5930195E+02  0.7816164E-02  0.1266605E+00
        -11   -1    0    0    0    0  0.00000000000E+00  0.00000000000E+00  0.45593999997E+02  0.45594000000E+02  0.51100000000E-03 0.  1.
         11   -1    0    0    0    0 -0.00000000000E+00 -0.00000000000E+00 -0.45593999997E+02  0.45594000000E+02  0.51100000000E-03 0. -1.
    9900012    2    1    2    0    0  0.39381059475E+01  0.43494192532E+01  0.31341567378E+02  0.59301953333E+02  0.50000016971E+02 0.  0.
         12    1    1    2    0    0 -0.39381059475E+01 -0.43494192532E+01 -0.31341567378E+02  0.31886046667E+02  0.00000000000E+00 0. -1.
         11    1    3    3    0    0 -0.50124784017E+00 -0.94206333736E+01 -0.43195263992E+01  0.10375832069E+02  0.51100000000E-03 0. -1.
        -11    1    3    3    0    0 -0.11120162624E+02  0.64213651283E+01  0.50269667643E+01  0.13789936258E+02  0.51100000000E-03 0.  1.
        -12    1    3    3    0    0  0.15559516411E+02  0.73486874985E+01  0.30634127013E+02  0.35136185006E+02  0.00000000000E+00 0.  1.
</event>
<event>
 7    1  0.6164995E-012  0.5930196E+02  0.7816164E-02  0.1266605E+00
        -11   -1    0    0    0    0  0.00000000000E+00  0.00000000000E+00  0.45593999997E+02  0.45594000000E+02  0.51100000000E-03 0.  1.
         11   -1    0    0    0    0 -0.00000000000E+00 -0.00000000000E+00 -0.45593999997E+02  0.45594000000E+02  0.51100000000E-03 0. -1.
    9900012    2    1    2    0    0  0.79891990012E+01 -0.21960376936E+02  0.21694102453E+02  0.59301960154E+02  0.50000029410E+02 0.  0.
         12    1    1    2    0    0 -0.79891990012E+01  0.21960376936E+02 -0.21694102453E+02  0.31886039846E+02  0.00000000000E+00 0. -1.
         11    1    3    3    0    0  0.55052847093E+00 -0.37818846277E+01 -0.45983620551E+01  0.59791861307E+01  0.51100000000E-03 0. -1.
        -11    1    3    3    0    0  0.56362816381E+00  0.99533208911E+01 -0.45995425355E+01  0.10979165053E+02  0.51100000000E-03 0.  1.
        -12    1    3    3    0    0  0.68750423664E+01 -0.28131813199E+02  0.30892007043E+02  0.42343608970E+02  0.00000000000E+00 0.  1.
</event>
<event>
 7    1  0.6164995E-012  0.5930192E+02  0.7816164E-02  0.1266605E+00
        -11   -1    0    0    0    0  0.00000000000E+00  0.00000000000E+00  0.45593999997E+02  0.45594000000E+02  0.51100000000E-03 0.  1.
         11   -1    0    0    0    0 -0.00000000000E+00 -0.00000000000E+00 -0.45593999997E+02  0.45594000000E+02  0.51100000000E-03 0. -1.
    9900012    2    1    2    0    0 -0.21308809172E+02  0.13860058960E+01  0.23679852665E+02  0.59301924937E+02  0.49999965183E+02 0.  0.
         12    1    1    2    0    0  0.21308809172E+02 -0.13860058960E+01 -0.23679852665E+02  0.31886075063E+02  0.00000000000E+00 0. -1.
         11    1    3    3    0    0  0.40904211029E+01  0.35521638766E+01  0.12969598766E+01  0.55705940606E+01  0.51100000000E-03 0. -1.
        -11    1    3    3    0    0  0.82316536468E+01  0.96776840808E+01  0.26457439701E+01  0.12977582685E+02  0.51100000000E-03 0.  1.
        -12    1    3    3    0    0 -0.33630883922E+02 -0.11843842061E+02  0.19737148819E+02  0.40753748191E+02  0.00000000000E+00 0.  1.
</event>
<event>
 7    1  0.6164995E-012  0.5930194E+02  0.7816164E-02  0.1266605E+00
        -11   -1    0    0    0    0  0.00000000000E+00  0.00000000000E+00  0.45593999997E+02  0.45594000000E+02  0.51100000000E-03 0.  1.
         11   -1    0    0    0    0 -0.00000000000E+00 -0.00000000000E+00 -0.45593999997E+02  0.45594000000E+02  0.51100000000E-03 0. -1.
    9900012    2    1    2    0    0  0.18742534844E+01 -0.25122561174E+01  0.31731633866E+02  0.59301939649E+02  0.49999992014E+02 0.  0.
         12    1    1    2    0    0 -0.18742534844E+01  0.25122561174E+01 -0.31731633866E+02  0.31886060351E+02  0.00000000000E+00 0. -1.
         11    1    3    3    0    0  0.86916463959E+00  0.87758680612E+01 -0.22688861671E+01  0.91059953931E+01  0.51100000000E-03 0. -1.
        -11    1    3    3    0    0 -0.16179791114E+01  0.11062725228E+02  0.22033195227E+02  0.24707558318E+02  0.51100000000E-03 0.  1.
        -12    1    3    3    0    0  0.26230679562E+01 -0.22350849406E+02  0.11967324806E+02  0.25488385938E+02  0.00000000000E+00 0.  1.
</event>
<event>
 7    1  0.6164995E-012  0.5930194E+02  0.7816164E-02  0.1266605E+00
        -11   -1    0    0    0    0  0.00000000000E+00  0.00000000000E+00  0.45593999997E+02  0.45594000000E+02  0.51100000000E-03 0. -1.
         11   -1    0    0    0    0 -0.00000000000E+00 -0.00000000000E+00 -0.45593999997E+02  0.45594000000E+02  0.51100000000E-03 0.  1.
    9900012    2    1    2    0    0  0.39173214508E+01 -0.31172280825E+02  0.54465141566E+01  0.59301936969E+02  0.49999987126E+02 0.  0.
         12    1    1    2    0    0 -0.39173214508E+01  0.31172280825E+02 -0.54465141566E+01  0.31886063031E+02  0.00000000000E+00 0. -1.
         11    1    3    3    0    0  0.87909090648E+01 -0.51628054354E+01 -0.19099942947E+01  0.10372209052E+02  0.51100000000E-03 0. -1.
        -11    1    3    3    0    0  0.73196656650E+00 -0.84200985171E+01 -0.16634196292E+02  0.18658250739E+02  0.51100000000E-03 0.  1.
         12    1    3    3    0    0 -0.56055541805E+01 -0.17589376872E+02  0.23990704743E+02  0.30271477178E+02  0.00000000000E+00 0. -1.
</event>
<event>
 7    1  0.6164995E-012  0.5930196E+02  0.7816164E-02  0.1266605E+00
        -11   -1    0    0    0    0  0.00000000000E+00  0.00000000000E+00  0.45593999997E+02  0.45594000000E+02  0.51100000000E-03 0.  1.
         11   -1    0    0    0    0 -0.00000000000E+00 -0.00000000000E+00 -0.45593999997E+02  0.45594000000E+02  0.51100000000E-03 0. -1.
    9900012    2    1    2    0    0  0.19024723271E+02 -0.22681975960E+02  0.11845146073E+02  0.59301958941E+02  0.50000027197E+02 0.  0.
         12    1    1    2    0    0 -0.19024723271E+02  0.22681975960E+02 -0.11845146073E+02  0.31886041059E+02  0.00000000000E+00 0. -1.
         11    1    3    3    0    0 -0.39151667961E+01 -0.26248317202E+02 -0.50976524319E+01  0.27023855157E+02  0.51100000000E-03 0. -1.
        -11    1    3    3    0    0  0.82597906424E+01 -0.79503960439E+00 -0.13651908514E+01  0.84095169748E+01  0.51100000000E-03 0.  1.
        -12    1    3    3    0    0  0.14680099425E+02  0.43613808463E+01  0.18307989356E+02  0.23868586809E+02  0.00000000000E+00 0.  1.
</event>
<event>
 7    1  0.6164995E-012  0.5930197E+02  0.7816164E-02  0.1266605E+00
        -11   -1    0    0    0    0  0.00000000000E+00  0.00000000000E+00  0.45593999997E+02  0.45594000000E+02  0.51100000000E-03 0. -1.
         11   -1    0    0    0    0 -0.00000000000E+00 -0.00000000000E+00 -0.45593999997E+02  0.45594000000E+02  0.51100000000E-03 0.  1.
    9900012    2    1    2    0    0  0.25250058728E+02  0.25913530144E+01  0.19298664810E+02  0.59301967954E+02  0.50000043635E+02 0.  0.
         12    1    1    2    0    0 -0.25250058728E+02 -0.25913530144E+01 -0.19298664810E+02  0.31886032046E+02  0.00000000000E+00 0. -1.
         11    1    3    3    0    0  0.49711298002E+01  0.84966823331E+01  0.10591536406E+02  0.14459819704E+02  0.51100000000E-03 0. -1.
        -11    1    3    3    0    0  0.19996963643E+02  0.10218144725E+02 -0.57539733345E+01  0.23181830082E+02  0.51100000000E-03 0.  1.
        -12    1    3    3    0    0  0.28196528475E+00 -0.16123474044E+02  0.14461101738E+02  0.21660318168E+02  0.00000000000E+00 0.  1.
</event>
<event>
 7    1  0.6164995E-012  0.5930193E+02  0.7816164E-02  0.1266605E+00
        -11   -1    0    0    0    0  0.00000000000E+00  0.00000000000E+00  0.45593999997E+02  0.45594000000E+02  0.51100000000E-03 0. -1.
         11   -1    0    0    0    0 -0.00000000000E+00 -0.00000000000E+00 -0.45593999997E+02  0.45594000000E+02  0.51100000000E-03 0.  1.
    9900012    2    1    2    0    0 -0.23954343238E+02  0.61122013996E+01 -0.20138321567E+02  0.59301928410E+02  0.49999971516E+02 0.  0.
         12    1    1    2    0    0  0.23954343238E+02 -0.61122013996E+01  0.20138321567E+02  0.31886071590E+02  0.00000000000E+00 0. -1.
         11    1    3    3    0    0 -0.11442504419E+02  0.60781443431E+01 -0.11668518012E+02  0.17436429075E+02  0.51100000000E-03 0. -1.
        -11    1    3    3    0    0 -0.19897323490E+02 -0.78334312196E+01 -0.17627361949E+02  0.27712632793E+02  0.51100000000E-03 0.  1.
         12    1    3    3    0    0  0.73854846713E+01  0.78674882761E+01  0.91575583940E+01  0.14152866542E+02  0.00000000000E+00 0. -1.
</event>
<event>
 7    1  0.6164995E-012  0.5930186E+02  0.7816164E-02  0.1266605E+00
        -11   -1    0    0    0    0  0.00000000000E+00  0.00000000000E+00  0.45593999997E+02  0.45594000000E+02  0.51100000000E-03 0.  1.
         11   -1    0    0    0    0 -0.00000000000E+00 -0.00000000000E+00 -0.45593999997E+02  0.45594000000E+02  0.51100000000E-03 0. -1.
    9900012    2    1    2    0    0  0.13051090055E+02  0.60434876541E+01  0.28458233630E+02  0.59301862636E+02  0.49999851561E+02 0.  0.
         12    1    1    2    0    0 -0.13051090055E+02 -0.60434876541E+01 -0.28458233630E+02  0.31886137364E+02  0.00000000000E+00 0. -1.
         11    1    3    3    0    0  0.88119996603E+01  0.17936752452E+01 -0.21135688046E+01  0.92377368576E+01  0.51100000000E-03 0. -1.
        -11    1    3    3    0    0  0.10885189513E+02  0.14602884303E+02  0.12387666526E+01  0.18255577881E+02  0.51100000000E-03 0.  1.
        -12    1    3    3    0    0 -0.66460991181E+01 -0.10353071894E+02  0.29333035782E+02  0.31808547897E+02  0.00000000000E+00 0.  1.
</event>
<event>
 7    1  0.6164995E-012  0.5930195E+02  0.7816164E-02  0.1266605E+00
        -11   -1    0    0    0    0  0.00000000000E+00  0.00000000000E+00  0.45593999997E+02  0.45594000000E+02  0.51100000000E-03 0.  1.
         11   -1    0    0    0    0 -0.00000000000E+00 -0.00000000000E+00 -0.45593999997E+02  0.45594000000E+02  0.51100000000E-03 0. -1.
    9900012    2    1    2    0    0 -0.24357270056E+02  0.20570665100E+02 -0.53958893048E+00  0.59301952527E+02  0.50000015501E+02 0.  0.
         12    1    1    2    0    0  0.24357270056E+02 -0.20570665100E+02  0.53958893048E+00  0.31886047473E+02  0.00000000000E+00 0. -1.
         11    1    3    3    0    0 -0.12979654035E+02 -0.30568393231E+01  0.13597960822E+02  0.19045215260E+02  0.51100000000E-03 0. -1.
        -11    1    3    3    0    0 -0.13603285567E+02  0.78801188192E+01  0.39118460090E+01  0.16200252785E+02  0.51100000000E-03 0.  1.
         12    1    3    3    0    0  0.22256695468E+01  0.15747385604E+02 -0.18049395761E+02  0.24056484482E+02  0.00000000000E+00 0. -1.
</event>
<event>
 7    1  0.6164995E-012  0.5930196E+02  0.7816164E-02  0.1266605E+00
        -11   -1    0    0    0    0  0.00000000000E+00  0.00000000000E+00  0.45593999997E+02  0.45594000000E+02  0.51100000000E-03 0. -1.
         11   -1    0    0    0    0 -0.00000000000E+00 -0.00000000000E+00 -0.45593999997E+02  0.45594000000E+02  0.51100000000E-03 0.  1.
    9900012    2    1    2    0    0 -0.20226601459E+02 -0.19280685891E+02  0.15357709012E+02  0.59301961032E+02  0.50000031011E+02 0.  0.
         12    1    1    2    0    0  0.20226601459E+02  0.19280685891E+02 -0.15357709012E+02  0.31886038968E+02  0.00000000000E+00 0. -1.
         11    1    3    3    0    0 -0.10982446592E+02  0.54659384155E+01  0.17214530393E+01  0.12387655821E+02  0.51100000000E-03 0. -1.
        -11    1    3    3    0    0  0.48346586859E+01 -0.10060129020E+01  0.18271036226E+02  0.18926614900E+02  0.51100000000E-03 0.  1.
        -12    1    3    3    0    0 -0.14078813553E+02 -0.23740611404E+02 -0.46347802532E+01  0.27987690310E+02  0.00000000000E+00 0.  1.
</event>
<event>
 7    1  0.6164995E-012  0.5930198E+02  0.7816164E-02  0.1266605E+00
        -11   -1    0    0    0    0  0.00000000000E+00  0.00000000000E+00  0.45593999997E+02  0.45594000000E+02  0.51100000000E-03 0.  1.
         11   -1    0    0    0    0 -0.00000000000E+00 -0.00000000000E+00 -0.45593999997E+02  0.45594000000E+02  0.51100000000E-03 0. -1.
    9900012    2    1    2    0    0 -0.12985507854E+02 -0.47039636669E+01  0.28739647780E+02  0.59301983583E+02  0.50000072140E+02 0.  0.
         12    1    1    2    0    0  0.12985507854E+02  0.47039636669E+01 -0.28739647780E+02  0.31886016417E+02  0.00000000000E+00 0. -1.
         11    1    3    3    0    0 -0.91354990544E+01 -0.16604873278E+02  0.27708168513E+01  0.19153500616E+02  0.51100000000E-03 0. -1.
        -11    1    3    3    0    0 -0.82601140317E+01 -0.67472614721E+01  0.13829043673E+02  0.17464176773E+02  0.51100000000E-03 0.  1.
        -12    1    3    3    0    0  0.44101052318E+01  0.18648171084E+02  0.12139787256E+02  0.22684306195E+02  0.00000000000E+00 0.  1.
</event>
<event>
 7    1  0.6164995E-012  0.5930199E+02  0.7816164E-02  0.1266605E+00
        -11   -1    0    0    0    0  0.00000000000E+00  0.00000000000E+00  0.45593999997E+02  0.45594000000E+02  0.51100000000E-03 0.  1.
         11   -1    0    0    0    0 -0.00000000000E+00 -0.00000000000E+00 -0.45593999997E+02  0.45594000000E+02  0.51100000000E-03 0. -1.
    9900012    2    1    2    0    0 -0.12118475891E+02  0.12204692187E+02  0.26849689609E+02  0.59301987371E+02  0.50000079047E+02 0.  0.
         12    1    1    2    0    0  0.12118475891E+02 -0.12204692187E+02 -0.26849689609E+02  0.31886012629E+02  0.00000000000E+00 0. -1.
         11    1    3    3    0    0  0.43902182794E+01  0.88658252056E+01  0.26878450213E+01  0.10251896617E+02  0.51100000000E-03 0. -1.
        -11    1    3    3    0    0 -0.74920002498E+01  0.20013619688E+02  0.20754786959E+02  0.29789867786E+02  0.51100000000E-03 0.  1.
        -12    1    3    3    0    0 -0.90166939209E+01 -0.16674752707E+02  0.34070576286E+01  0.19260222968E+02  0.00000000000E+00 0.  1.
</event>
<event>
 7    1  0.6164995E-012  0.5930195E+02  0.7816164E-02  0.1266605E+00
        -11   -1    0    0    0    0  0.00000000000E+00  0.00000000000E+00  0.45593999997E+02  0.45594000000E+02  0.51100000000E-03 0.  1.
         11   -1    0    0    0    0 -0.00000000000E+00 -0.00000000000E+00 -0.45593999997E+02  0.45594000000E+02  0.51100000000E-03 0. -1.
    9900012    2    1    2    0    0 -0.20952913727E+02  0.23802221173E+02 -0.33391016384E+01  0.59301954052E+02  0.50000018282E+02 0.  0.
         12    1    1    2    0    0  0.20952913727E+02 -0.23802221173E+02  0.33391016384E+01  0.31886045948E+02  0.00000000000E+00 0. -1.
         11    1    3    3    0    0 -0.15396958255E+02  0.17283404724E+02 -0.22855508183E+02  0.32529319958E+02  0.51100000000E-03 0. -1.
        -11    1    3    3    0    0  0.15679089579E+01  0.50938880695E+01 -0.62007294409E+00  0.53656802814E+01  0.51100000000E-03 0.  1.
        -12    1    3    3    0    0 -0.71238644300E+01  0.14249283802E+01  0.20136479489E+02  0.21406953812E+02  0.00000000000E+00 0.  1.
</event>
<event>
 7    1  0.6164995E-012  0.5930181E+02  0.7816164E-02  0.1266605E+00
        -11   -1    0    0    0    0  0.00000000000E+00  0.00000000000E+00  0.45593999997E+02  0.45594000000E+02  0.51100000000E-03 0. -1.
         11   -1    0    0    0    0 -0.00000000000E+00 -0.00000000000E+00 -0.45593999997E+02  0.45594000000E+02  0.51100000000E-03 0.  1.
    9900012    2    1    2    0    0 -0.29483180556E+02 -0.94968758656E+01  0.75683849812E+01  0.59301811170E+02  0.49999757699E+02 0.  0.
         12    1    1    2    0    0  0.29483180556E+02  0.94968758656E+01 -0.75683849812E+01  0.31886188830E+02  0.00000000000E+00 0. -1.
         11    1    3    3    0    0  0.70160825608E+01 -0.61216312926E+01 -0.95095143346E+01  0.13309043817E+02  0.51100000000E-03 0.  1.
        -11    1    3    3    0    0 -0.88200319568E+01 -0.10726707381E+02  0.75726417611E+01  0.15817715337E+02  0.51100000000E-03 0. -1.
        -12    1    3    3    0    0 -0.27679231160E+02  0.73514628084E+01  0.95052575547E+01  0.30175052016E+02  0.00000000000E+00 0.  1.
</event>
<event>
 7    1  0.6164995E-012  0.5930194E+02  0.7816164E-02  0.1266605E+00
        -11   -1    0    0    0    0  0.00000000000E+00  0.00000000000E+00  0.45593999997E+02  0.45594000000E+02  0.51100000000E-03 0.  1.
         11   -1    0    0    0    0 -0.00000000000E+00 -0.00000000000E+00 -0.45593999997E+02  0.45594000000E+02  0.51100000000E-03 0. -1.
    9900012    2    1    2    0    0 -0.39826906032E+01 -0.11430338980E+02  0.29499258835E+02  0.59301941205E+02  0.49999994852E+02 0.  0.
         12    1    1    2    0    0  0.39826906032E+01  0.11430338980E+02 -0.29499258835E+02  0.31886058795E+02  0.00000000000E+00 0. -1.
         11    1    3    3    0    0 -0.15850680196E+01 -0.10219664227E+02 -0.17002811028E+01  0.10480693375E+02  0.51100000000E-03 0. -1.
        -11    1    3    3    0    0 -0.13330757405E+02 -0.10330767268E+01 -0.23135497698E+01  0.13569408731E+02  0.51100000000E-03 0.  1.
         12    1    3    3    0    0  0.10933134822E+02 -0.17759802601E+00  0.33513089708E+02  0.35251839099E+02  0.00000000000E+00 0. -1.
</event>
<event>
 7    1  0.6164995E-012  0.5930190E+02  0.7816164E-02  0.1266605E+00
        -11   -1    0    0    0    0  0.00000000000E+00  0.00000000000E+00  0.45593999997E+02  0.45594000000E+02  0.51100000000E-03 0. -1.
         11   -1    0    0    0    0 -0.00000000000E+00 -0.00000000000E+00 -0.45593999997E+02  0.45594000000E+02  0.51100000000E-03 0.  1.
    9900012    2    1    2    0    0  0.71275333323E+01 -0.30291999598E+02 -0.69509806596E+01  0.59301904234E+02  0.49999927426E+02 0.  0.
         12    1    1    2    0    0 -0.71275333323E+01  0.30291999598E+02  0.69509806596E+01  0.31886095766E+02  0.00000000000E+00 0. -1.
         11    1    3    3    0    0 -0.14997561287E+02 -0.95200709391E+01 -0.11954279612E+02  0.21411758371E+02  0.51100000000E-03 0.  1.
        -11    1    3    3    0    0  0.14782749864E+02 -0.12825835555E+02 -0.78524548137E+01  0.21087740469E+02  0.51100000000E-03 0. -1.
         12    1    3    3    0    0  0.73423447549E+01 -0.79460931043E+01  0.12855753766E+02  0.16802405394E+02  0.00000000000E+00 0. -1.
</event>
<event>
 7    1  0.6164995E-012  0.5930195E+02  0.7816164E-02  0.1266605E+00
        -11   -1    0    0    0    0  0.00000000000E+00  0.00000000000E+00  0.45593999997E+02  0.45594000000E+02  0.51100000000E-03 0.  1.
         11   -1    0    0    0    0 -0.00000000000E+00 -0.00000000000E+00 -0.45593999997E+02  0.45594000000E+02  0.51100000000E-03 0. -1.
    9900012    2    1    2    0    0 -0.17231593050E+00 -0.19297107353E+02  0.25383309907E+02  0.59301945575E+02  0.50000002822E+02 0.  0.
         12    1    1    2    0    0  0.17231593050E+00  0.19297107353E+02 -0.25383309907E+02  0.31886054425E+02  0.00000000000E+00 0. -1.
         11    1    3    3    0    0  0.61791636941E+01 -0.18725310439E+02  0.74664246586E+01  0.21084753080E+02  0.51100000000E-03 0. -1.
        -11    1    3    3    0    0 -0.12919255341E+02  0.51391828756E+01  0.23903793166E+02  0.27653384733E+02  0.51100000000E-03 0.  1.
         12    1    3    3    0    0  0.65677757160E+01 -0.57109797894E+01 -0.59869079180E+01  0.10563807762E+02  0.00000000000E+00 0. -1.
</event>
<event>
 7    1  0.6164995E-012  0.5930195E+02  0.7816164E-02  0.1266605E+00
        -11   -1    0    0    0    0  0.00000000000E+00  0.00000000000E+00  0.45593999997E+02  0.45594000000E+02  0.51100000000E-03 0. -1.
         11   -1    0    0    0    0 -0.00000000000E+00 -0.00000000000E+00 -0.45593999997E+02  0.45594000000E+02  0.51100000000E-03 0.  1.
    9900012    2    1    2    0    0 -0.84985586445E+01  0.80945117441E+01 -0.29647490560E+02  0.59301947941E+02  0.50000007137E+02 0.  0.
         12    1    1    2    0    0  0.84985586445E+01 -0.80945117441E+01  0.29647490560E+02  0.31886052059E+02  0.00000000000E+00 0. -1.
         11    1    3    3    0    0 -0.12156832394E+02 -0.10810413704E+02  0.32338523505E+01  0.16586483038E+02  0.51100000000E-03 0. -1.
        -11    1    3    3    0    0 -0.40798635971E+01  0.59743581430E+01 -0.24343459251E+02  0.25395713236E+02  0.51100000000E-03 0.  1.
        -12    1    3    3    0    0  0.77381373462E+01  0.12930567305E+02 -0.85378836588E+01  0.17319751667E+02  0.00000000000E+00 0.  1.
</event>
