<event>
 7    1  0.1631716E-009  0.4778727E+02  0.7816164E-02  0.1312668E+00
        -11   -1    0    0    0    0  0.00000000000E+00  0.00000000000E+00  0.45593999997E+02  0.45594000000E+02  0.51100000000E-03 0.  1.
         11   -1    0    0    0    0 -0.00000000000E+00 -0.00000000000E+00 -0.45593999997E+02  0.45594000000E+02  0.51100000000E-03 0. -1.
    9900012    2    1    2    0    0  0.32615145061E+02  0.99705835773E+01  0.26841447360E+02  0.47787268202E+02  0.19999987040E+02 0.  0.
         12    1    1    2    0    0 -0.32615145061E+02 -0.99705835773E+01 -0.26841447360E+02  0.43400731798E+02  0.00000000000E+00 0. -1.
         11    1    3    3    0    0  0.20684210370E+02  0.10781269276E+01  0.20911319851E+02  0.29432672568E+02  0.51100000000E-03 0. -1.
        -11    1    3    3    0    0 -0.46673335215E+00  0.26605049772E+01  0.32436575540E+01  0.42210711134E+01  0.51100000000E-03 0.  1.
         12    1    3    3    0    0  0.12397668043E+02  0.62319516725E+01  0.26864699544E+01  0.14133524521E+02  0.00000000000E+00 0. -1.
</event>
<event>
 7    1  0.1631716E-009  0.4778727E+02  0.7816164E-02  0.1312668E+00
        -11   -1    0    0    0    0  0.00000000000E+00  0.00000000000E+00  0.45593999997E+02  0.45594000000E+02  0.51100000000E-03 0.  1.
         11   -1    0    0    0    0 -0.00000000000E+00 -0.00000000000E+00 -0.45593999997E+02  0.45594000000E+02  0.51100000000E-03 0. -1.
    9900012    2    1    2    0    0 -0.15296800960E+02  0.80158681166E+01  0.39816791995E+02  0.47787272056E+02  0.20000004612E+02 0.  0.
         12    1    1    2    0    0  0.15296800960E+02 -0.80158681166E+01 -0.39816791995E+02  0.43400727944E+02  0.00000000000E+00 0. -1.
         11    1    3    3    0    0  0.17944826448E+01  0.15284333165E+01  0.70417027614E-01  0.23582271274E+01  0.51100000000E-03 0. -1.
        -11    1    3    3    0    0 -0.44085803363E+01  0.10500927832E+01  0.15067666522E+01  0.47758372502E+01  0.51100000000E-03 0.  1.
        -12    1    3    3    0    0 -0.12682703269E+02  0.54373420168E+01  0.38239608315E+02  0.40653207678E+02  0.00000000000E+00 0.  1.
</event>
<event>
 7    1  0.1631716E-009  0.4778725E+02  0.7816164E-02  0.1312668E+00
        -11   -1    0    0    0    0  0.00000000000E+00  0.00000000000E+00  0.45593999997E+02  0.45594000000E+02  0.51100000000E-03 0.  1.
         11   -1    0    0    0    0 -0.00000000000E+00 -0.00000000000E+00 -0.45593999997E+02  0.45594000000E+02  0.51100000000E-03 0. -1.
    9900012    2    1    2    0    0 -0.25395917168E+02  0.31589279171E+02 -0.15517400712E+02  0.47787252401E+02  0.19999914996E+02 0.  0.
         12    1    1    2    0    0  0.25395917168E+02 -0.31589279171E+02  0.15517400712E+02  0.43400747599E+02  0.00000000000E+00 0. -1.
         11    1    3    3    0    0  0.72754645679E+00 -0.19067888422E+00 -0.26034948189E+00  0.79590476661E+00  0.51100000000E-03 0. -1.
        -11    1    3    3    0    0 -0.11859207677E+02  0.18559160644E+02  0.39239635243E+00  0.22028100819E+02  0.51100000000E-03 0.  1.
         12    1    3    3    0    0 -0.14264255948E+02  0.13220797411E+02 -0.15649447582E+02  0.24963246815E+02  0.00000000000E+00 0. -1.
</event>
<event>
 7    1  0.1631716E-009  0.4778727E+02  0.7816164E-02  0.1312668E+00
        -11   -1    0    0    0    0  0.00000000000E+00  0.00000000000E+00  0.45593999997E+02  0.45594000000E+02  0.51100000000E-03 0.  1.
         11   -1    0    0    0    0 -0.00000000000E+00 -0.00000000000E+00 -0.45593999997E+02  0.45594000000E+02  0.51100000000E-03 0. -1.
    9900012    2    1    2    0    0  0.18982397567E+02  0.14586384437E+02  0.36201232617E+02  0.47787271074E+02  0.20000000134E+02 0.  0.
         12    1    1    2    0    0 -0.18982397567E+02 -0.14586384437E+02 -0.36201232617E+02  0.43400728926E+02  0.00000000000E+00 0. -1.
         11    1    3    3    0    0  0.55674182242E+01  0.65854944058E+01  0.23788567791E+02  0.25303376061E+02  0.51100000000E-03 0. -1.
        -11    1    3    3    0    0  0.92442755695E+01  0.25730921886E+00  0.94011417341E+01  0.13187278150E+02  0.51100000000E-03 0.  1.
        -12    1    3    3    0    0  0.41707037738E+01  0.77435808128E+01  0.30115230912E+01  0.92966168632E+01  0.00000000000E+00 0.  1.
</event>
<event>
 7    1  0.1631716E-009  0.4778727E+02  0.7816164E-02  0.1312668E+00
        -11   -1    0    0    0    0  0.00000000000E+00  0.00000000000E+00  0.45593999997E+02  0.45594000000E+02  0.51100000000E-03 0.  1.
         11   -1    0    0    0    0 -0.00000000000E+00 -0.00000000000E+00 -0.45593999997E+02  0.45594000000E+02  0.51100000000E-03 0. -1.
    9900012    2    1    2    0    0 -0.13113567906E+02  0.33833472520E+02  0.23810788345E+02  0.47787272269E+02  0.20000005583E+02 0.  0.
         12    1    1    2    0    0  0.13113567906E+02 -0.33833472520E+02 -0.23810788345E+02  0.43400727731E+02  0.00000000000E+00 0. -1.
         11    1    3    3    0    0 -0.90358656625E+01  0.15478248323E+02  0.83612205335E+01  0.19777083923E+02  0.51100000000E-03 0. -1.
        -11    1    3    3    0    0 -0.56904108090E+01  0.19754052391E+02  0.15691501385E+02  0.25861681635E+02  0.51100000000E-03 0.  1.
         12    1    3    3    0    0  0.16127085657E+01 -0.13988281935E+01 -0.24193357376E+00  0.21485067109E+01  0.00000000000E+00 0. -1.
</event>
<event>
 7    1  0.1631716E-009  0.4778727E+02  0.7816164E-02  0.1312668E+00
        -11   -1    0    0    0    0  0.00000000000E+00  0.00000000000E+00  0.45593999997E+02  0.45594000000E+02  0.51100000000E-03 0. -1.
         11   -1    0    0    0    0 -0.00000000000E+00 -0.00000000000E+00 -0.45593999997E+02  0.45594000000E+02  0.51100000000E-03 0.  1.
    9900012    2    1    2    0    0 -0.13215069309E+01  0.14237909122E+02 -0.40977539914E+02  0.47787271733E+02  0.20000003137E+02 0.  0.
         12    1    1    2    0    0  0.13215069309E+01 -0.14237909122E+02  0.40977539914E+02  0.43400728267E+02  0.00000000000E+00 0. -1.
         11    1    3    3    0    0  0.10258598320E+01  0.74818643708E+00 -0.12668073802E+01  0.17935920771E+01  0.51100000000E-03 0.  1.
        -11    1    3    3    0    0 -0.27712681182E+01  0.12008884010E+01 -0.30452219636E+02  0.30601629711E+02  0.51100000000E-03 0. -1.
         12    1    3    3    0    0  0.42390135530E+00  0.12288834284E+02 -0.92585128975E+01  0.15392049944E+02  0.00000000000E+00 0. -1.
</event>
<event>
 7    1  0.1631716E-009  0.4778727E+02  0.7816164E-02  0.1312668E+00
        -11   -1    0    0    0    0  0.00000000000E+00  0.00000000000E+00  0.45593999997E+02  0.45594000000E+02  0.51100000000E-03 0.  1.
         11   -1    0    0    0    0 -0.00000000000E+00 -0.00000000000E+00 -0.45593999997E+02  0.45594000000E+02  0.51100000000E-03 0. -1.
    9900012    2    1    2    0    0  0.99045487111E+00 -0.32006492778E+02  0.29295506538E+02  0.47787270926E+02  0.19999999461E+02 0.  0.
         12    1    1    2    0    0 -0.99045487111E+00  0.32006492778E+02 -0.29295506538E+02  0.43400729074E+02  0.00000000000E+00 0. -1.
         11    1    3    3    0    0  0.58542277834E+01 -0.67661120157E+01  0.12730421530E+02  0.15560073501E+02  0.51100000000E-03 0. -1.
        -11    1    3    3    0    0 -0.45342523523E+01 -0.37972031919E+01  0.55828749391E+01  0.81330614975E+01  0.51100000000E-03 0.  1.
        -12    1    3    3    0    0 -0.32952055999E+00 -0.21443177571E+02  0.10982210069E+02  0.24094135928E+02  0.00000000000E+00 0.  1.
</event>
<event>
 7    1  0.1631716E-009  0.4778727E+02  0.7816164E-02  0.1312668E+00
        -11   -1    0    0    0    0  0.00000000000E+00  0.00000000000E+00  0.45593999997E+02  0.45594000000E+02  0.51100000000E-03 0.  1.
         11   -1    0    0    0    0 -0.00000000000E+00 -0.00000000000E+00 -0.45593999997E+02  0.45594000000E+02  0.51100000000E-03 0. -1.
    9900012    2    1    2    0    0  0.79763199257E+01 -0.22083356772E+01  0.42604282915E+02  0.47787270182E+02  0.19999996067E+02 0.  0.
         12    1    1    2    0    0 -0.79763199257E+01  0.22083356772E+01 -0.42604282915E+02  0.43400729818E+02  0.00000000000E+00 0. -1.
         11    1    3    3    0    0 -0.12291584852E+01 -0.42514036414E+01  0.18817745977E+02  0.19331136216E+02  0.51100000000E-03 0. -1.
        -11    1    3    3    0    0  0.61236959503E+01 -0.38583606037E+01  0.57938199395E+01  0.92711891574E+01  0.51100000000E-03 0.  1.
         12    1    3    3    0    0  0.30817824607E+01  0.59014285680E+01  0.17992716999E+02  0.19184944808E+02  0.00000000000E+00 0. -1.
</event>
<event>
 7    1  0.1631716E-009  0.4778727E+02  0.7816164E-02  0.1312668E+00
        -11   -1    0    0    0    0  0.00000000000E+00  0.00000000000E+00  0.45593999997E+02  0.45594000000E+02  0.51100000000E-03 0. -1.
         11   -1    0    0    0    0 -0.00000000000E+00 -0.00000000000E+00 -0.45593999997E+02  0.45594000000E+02  0.51100000000E-03 0.  1.
    9900012    2    1    2    0    0 -0.24773614526E+01 -0.40200122220E+02 -0.16168980565E+02  0.47787273292E+02  0.20000010248E+02 0.  0.
         12    1    1    2    0    0  0.24773614526E+01  0.40200122220E+02  0.16168980565E+02  0.43400726708E+02  0.00000000000E+00 0. -1.
         11    1    3    3    0    0 -0.27515332573E+01 -0.26299803877E+01 -0.26475577200E+01  0.46365174698E+01  0.51100000000E-03 0. -1.
        -11    1    3    3    0    0  0.71569912904E+01 -0.25503905114E+02 -0.53166045844E+01  0.27017364508E+02  0.51100000000E-03 0.  1.
        -12    1    3    3    0    0 -0.68828194856E+01 -0.12066236718E+02 -0.82048182602E+01  0.16133391314E+02  0.00000000000E+00 0.  1.
</event>
<event>
 7    1  0.1631716E-009  0.4778727E+02  0.7816164E-02  0.1312668E+00
        -11   -1    0    0    0    0  0.00000000000E+00  0.00000000000E+00  0.45593999997E+02  0.45594000000E+02  0.51100000000E-03 0.  1.
         11   -1    0    0    0    0 -0.00000000000E+00 -0.00000000000E+00 -0.45593999997E+02  0.45594000000E+02  0.51100000000E-03 0. -1.
    9900012    2    1    2    0    0 -0.20203620257E+02 -0.87728832976E+01  0.37396167320E+02  0.47787273243E+02  0.20000010022E+02 0.  0.
         12    1    1    2    0    0  0.20203620257E+02  0.87728832976E+01 -0.37396167320E+02  0.43400726757E+02  0.00000000000E+00 0. -1.
         11    1    3    3    0    0 -0.43384100076E+01 -0.10098167910E+02  0.13649140779E+02  0.17524093152E+02  0.51100000000E-03 0. -1.
        -11    1    3    3    0    0 -0.14548989744E+02 -0.21337928379E+01  0.21077074926E+02  0.25699596537E+02  0.51100000000E-03 0.  1.
        -12    1    3    3    0    0 -0.13162205053E+01  0.34590774505E+01  0.26699516149E+01  0.45635835539E+01  0.00000000000E+00 0.  1.
</event>
<event>
 7    1  0.1631716E-009  0.4778727E+02  0.7816164E-02  0.1312668E+00
        -11   -1    0    0    0    0  0.00000000000E+00  0.00000000000E+00  0.45593999997E+02  0.45594000000E+02  0.51100000000E-03 0.  1.
         11   -1    0    0    0    0 -0.00000000000E+00 -0.00000000000E+00 -0.45593999997E+02  0.45594000000E+02  0.51100000000E-03 0. -1.
    9900012    2    1    2    0    0  0.39600339445E+02  0.17735704424E+02 -0.93872371118E+00  0.47787270769E+02  0.19999998743E+02 0.  0.
         12    1    1    2    0    0 -0.39600339445E+02 -0.17735704424E+02  0.93872371118E+00  0.43400729231E+02  0.00000000000E+00 0. -1.
         11    1    3    3    0    0  0.11149706568E+02  0.71049784928E+01 -0.23996443408E+01  0.13437074427E+02  0.51100000000E-03 0.  1.
        -11    1    3    3    0    0  0.19732136010E+01  0.30386291622E+01  0.54233657966E+01  0.65222492995E+01  0.51100000000E-03 0. -1.
         12    1    3    3    0    0  0.26477419276E+02  0.75920967686E+01 -0.39624451670E+01  0.27827947042E+02  0.00000000000E+00 0. -1.
</event>
<event>
 7    1  0.1631716E-009  0.4778727E+02  0.7816164E-02  0.1312668E+00
        -11   -1    0    0    0    0  0.00000000000E+00  0.00000000000E+00  0.45593999997E+02  0.45594000000E+02  0.51100000000E-03 0.  1.
         11   -1    0    0    0    0 -0.00000000000E+00 -0.00000000000E+00 -0.45593999997E+02  0.45594000000E+02  0.51100000000E-03 0. -1.
    9900012    2    1    2    0    0  0.29794880586E+02 -0.30978809542E+02  0.60167714333E+01  0.47787273183E+02  0.20000009752E+02 0.  0.
         12    1    1    2    0    0 -0.29794880586E+02  0.30978809542E+02 -0.60167714333E+01  0.43400726817E+02  0.00000000000E+00 0. -1.
         11    1    3    3    0    0  0.10645473162E+02 -0.27895731599E+01  0.88444936325E+00  0.11040383517E+02  0.51100000000E-03 0. -1.
        -11    1    3    3    0    0 -0.83131377591E+00 -0.66921457904E+01  0.28122983050E+01  0.73064984700E+01  0.51100000000E-03 0.  1.
         12    1    3    3    0    0  0.19980721200E+02 -0.21497090591E+02  0.23200237651E+01  0.29440391197E+02  0.00000000000E+00 0. -1.
</event>
<event>
 7    1  0.1631716E-009  0.4778727E+02  0.7816164E-02  0.1312668E+00
        -11   -1    0    0    0    0  0.00000000000E+00  0.00000000000E+00  0.45593999997E+02  0.45594000000E+02  0.51100000000E-03 0.  1.
         11   -1    0    0    0    0 -0.00000000000E+00 -0.00000000000E+00 -0.45593999997E+02  0.45594000000E+02  0.51100000000E-03 0. -1.
    9900012    2    1    2    0    0 -0.57919818388E+01  0.75455939679E+01  0.42345485662E+02  0.47787271919E+02  0.20000003989E+02 0.  0.
         12    1    1    2    0    0  0.57919818388E+01 -0.75455939679E+01 -0.42345485662E+02  0.43400728081E+02  0.00000000000E+00 0. -1.
         11    1    3    3    0    0  0.60294857179E+01 -0.71748964555E+00  0.72910543727E+01  0.94883593704E+01  0.51100000000E-03 0. -1.
        -11    1    3    3    0    0 -0.74270059093E+00 -0.79954448036E+00  0.30594527993E+01  0.32482498728E+01  0.51100000000E-03 0.  1.
        -12    1    3    3    0    0 -0.11078766966E+02  0.90626280938E+01  0.31994978490E+02  0.35050662676E+02  0.00000000000E+00 0.  1.
</event>
<event>
 7    1  0.1631716E-009  0.4778727E+02  0.7816164E-02  0.1312668E+00
        -11   -1    0    0    0    0  0.00000000000E+00  0.00000000000E+00  0.45593999997E+02  0.45594000000E+02  0.51100000000E-03 0. -1.
         11   -1    0    0    0    0 -0.00000000000E+00 -0.00000000000E+00 -0.45593999997E+02  0.45594000000E+02  0.51100000000E-03 0.  1.
    9900012    2    1    2    0    0 -0.39673296252E+02  0.17588422654E+02  0.54766939033E+00  0.47787274330E+02  0.20000014980E+02 0.  0.
         12    1    1    2    0    0  0.39673296252E+02 -0.17588422654E+02 -0.54766939033E+00  0.43400725670E+02  0.00000000000E+00 0. -1.
         11    1    3    3    0    0 -0.44405249692E+01  0.30478960663E+01 -0.30007699295E+01  0.61654320906E+01  0.51100000000E-03 0. -1.
        -11    1    3    3    0    0 -0.34609331442E+02  0.12932295992E+02  0.71467839762E+01  0.37631457903E+02  0.51100000000E-03 0.  1.
        -12    1    3    3    0    0 -0.62343984098E+00  0.16082305960E+01 -0.35983446564E+01  0.39903843363E+01  0.00000000000E+00 0.  1.
</event>
<event>
 7    1  0.1631716E-009  0.4778727E+02  0.7816164E-02  0.1312668E+00
        -11   -1    0    0    0    0  0.00000000000E+00  0.00000000000E+00  0.45593999997E+02  0.45594000000E+02  0.51100000000E-03 0.  1.
         11   -1    0    0    0    0 -0.00000000000E+00 -0.00000000000E+00 -0.45593999997E+02  0.45594000000E+02  0.51100000000E-03 0. -1.
    9900012    2    1    2    0    0  0.10823571463E+02  0.12621580270E+02  0.40089514460E+02  0.47787272387E+02  0.20000006119E+02 0.  0.
         12    1    1    2    0    0 -0.10823571463E+02 -0.12621580270E+02 -0.40089514460E+02  0.43400727613E+02  0.00000000000E+00 0. -1.
         11    1    3    3    0    0  0.70115817859E+01  0.21587708588E+01  0.53622091854E+01  0.90871259686E+01  0.51100000000E-03 0. -1.
        -11    1    3    3    0    0  0.71584633450E+01  0.11391905644E+02  0.29512600435E+02  0.32434745202E+02  0.51100000000E-03 0.  1.
        -12    1    3    3    0    0 -0.33464736684E+01 -0.92909623248E+00  0.52147048403E+01  0.62654012157E+01  0.00000000000E+00 0.  1.
</event>
<event>
 7    1  0.1631716E-009  0.4778727E+02  0.7816164E-02  0.1312668E+00
        -11   -1    0    0    0    0  0.00000000000E+00  0.00000000000E+00  0.45593999997E+02  0.45594000000E+02  0.51100000000E-03 0. -1.
         11   -1    0    0    0    0 -0.00000000000E+00 -0.00000000000E+00 -0.45593999997E+02  0.45594000000E+02  0.51100000000E-03 0.  1.
    9900012    2    1    2    0    0  0.28842174528E+02  0.26758716214E+02  0.18322764725E+02  0.47787266918E+02  0.19999981184E+02 0.  0.
         12    1    1    2    0    0 -0.28842174528E+02 -0.26758716214E+02 -0.18322764725E+02  0.43400733082E+02  0.00000000000E+00 0. -1.
         11    1    3    3    0    0  0.42165767278E+01  0.12490977357E+01 -0.49635815992E+00  0.44256226838E+01  0.51100000000E-03 0. -1.
        -11    1    3    3    0    0  0.14404904084E+02  0.24570032157E+02  0.16210853641E+02  0.32771626720E+02  0.51100000000E-03 0.  1.
        -12    1    3    3    0    0  0.10220693716E+02  0.93958632168E+00  0.26082692438E+01  0.10590017514E+02  0.00000000000E+00 0.  1.
</event>
<event>
 7    1  0.1631716E-009  0.4778727E+02  0.7816164E-02  0.1312668E+00
        -11   -1    0    0    0    0  0.00000000000E+00  0.00000000000E+00  0.45593999997E+02  0.45594000000E+02  0.51100000000E-03 0.  1.
         11   -1    0    0    0    0 -0.00000000000E+00 -0.00000000000E+00 -0.45593999997E+02  0.45594000000E+02  0.51100000000E-03 0. -1.
    9900012    2    1    2    0    0 -0.14683440975E+02  0.89437274149E+01  0.39850089548E+02  0.47787270329E+02  0.19999996739E+02 0.  0.
         12    1    1    2    0    0  0.14683440975E+02 -0.89437274149E+01 -0.39850089548E+02  0.43400729671E+02  0.00000000000E+00 0. -1.
         11    1    3    3    0    0 -0.55518874472E+01  0.12292335945E+02  0.16481567937E+02  0.21297113868E+02  0.51100000000E-03 0. -1.
        -11    1    3    3    0    0 -0.83469228097E+01  0.67684434448E+00  0.15644513842E+02  0.17744859883E+02  0.51100000000E-03 0.  1.
         12    1    3    3    0    0 -0.78463071839E+00 -0.40254528742E+01  0.77240077691E+01  0.87452965772E+01  0.00000000000E+00 0. -1.
</event>
<event>
 7    1  0.1631716E-009  0.4778727E+02  0.7816164E-02  0.1312668E+00
        -11   -1    0    0    0    0  0.00000000000E+00  0.00000000000E+00  0.45593999997E+02  0.45594000000E+02  0.51100000000E-03 0. -1.
         11   -1    0    0    0    0 -0.00000000000E+00 -0.00000000000E+00 -0.45593999997E+02  0.45594000000E+02  0.51100000000E-03 0.  1.
    9900012    2    1    2    0    0  0.18144516392E+02  0.35274105888E+02  0.17610715361E+02  0.47787270549E+02  0.19999997743E+02 0.  0.
         12    1    1    2    0    0 -0.18144516392E+02 -0.35274105888E+02 -0.17610715361E+02  0.43400729451E+02  0.00000000000E+00 0. -1.
         11    1    3    3    0    0  0.32606086123E+01  0.17846818772E+02  0.60952937662E+01  0.19138785624E+02  0.51100000000E-03 0.  1.
        -11    1    3    3    0    0  0.73966582888E+01  0.55875105417E+01 -0.16601723453E+01  0.94173775740E+01  0.51100000000E-03 0. -1.
         12    1    3    3    0    0  0.74872494912E+01  0.11839776574E+02  0.13175593940E+02  0.19231107351E+02  0.00000000000E+00 0. -1.
</event>
<event>
 7    1  0.1631716E-009  0.4778727E+02  0.7816164E-02  0.1312668E+00
        -11   -1    0    0    0    0  0.00000000000E+00  0.00000000000E+00  0.45593999997E+02  0.45594000000E+02  0.51100000000E-03 0. -1.
         11   -1    0    0    0    0 -0.00000000000E+00 -0.00000000000E+00 -0.45593999997E+02  0.45594000000E+02  0.51100000000E-03 0.  1.
    9900012    2    1    2    0    0  0.32585186356E+02 -0.22498813156E+02 -0.17766040872E+02  0.47787272223E+02  0.20000005374E+02 0.  0.
         12    1    1    2    0    0 -0.32585186356E+02  0.22498813156E+02  0.17766040872E+02  0.43400727777E+02  0.00000000000E+00 0. -1.
         11    1    3    3    0    0  0.60946769017E+01 -0.40160217402E+01 -0.79686408809E+01  0.10806144312E+02  0.51100000000E-03 0. -1.
        -11    1    3    3    0    0  0.28053245025E+02 -0.18883631111E+02 -0.10193798992E+02  0.35319819061E+02  0.51100000000E-03 0.  1.
         12    1    3    3    0    0 -0.15627355707E+01  0.40083969479E+00  0.39639900081E+00  0.16613088493E+01  0.00000000000E+00 0. -1.
</event>
<event>
 7    1  0.1631716E-009  0.4778728E+02  0.7816164E-02  0.1312668E+00
        -11   -1    0    0    0    0  0.00000000000E+00  0.00000000000E+00  0.45593999997E+02  0.45594000000E+02  0.51100000000E-03 0.  1.
         11   -1    0    0    0    0 -0.00000000000E+00 -0.00000000000E+00 -0.45593999997E+02  0.45594000000E+02  0.51100000000E-03 0. -1.
    9900012    2    1    2    0    0  0.30996266399E+02 -0.24030358672E+02  0.18584834595E+02  0.47787277131E+02  0.20000027753E+02 0.  0.
         12    1    1    2    0    0 -0.30996266399E+02  0.24030358672E+02 -0.18584834595E+02  0.43400722869E+02  0.00000000000E+00 0. -1.
         11    1    3    3    0    0  0.48321589802E+01  0.14608036985E+01  0.58020666268E+01  0.76907532309E+01  0.51100000000E-03 0. -1.
        -11    1    3    3    0    0  0.13881626086E+02 -0.13105630354E+02  0.12175514576E+02  0.22642885090E+02  0.51100000000E-03 0.  1.
         12    1    3    3    0    0  0.12282481333E+02 -0.12385532017E+02  0.60725339183E+00  0.17453638810E+02  0.00000000000E+00 0. -1.
</event>
<event>
 7    1  0.1631716E-009  0.4778728E+02  0.7816164E-02  0.1312668E+00
        -11   -1    0    0    0    0  0.00000000000E+00  0.00000000000E+00  0.45593999997E+02  0.45594000000E+02  0.51100000000E-03 0.  1.
         11   -1    0    0    0    0 -0.00000000000E+00 -0.00000000000E+00 -0.45593999997E+02  0.45594000000E+02  0.51100000000E-03 0. -1.
    9900012    2    1    2    0    0  0.20887822348E+02 -0.35621146687E+02  0.13358712221E+02  0.47787281044E+02  0.20000045591E+02 0.  0.
         12    1    1    2    0    0 -0.20887822348E+02  0.35621146687E+02 -0.13358712221E+02  0.43400718956E+02  0.00000000000E+00 0. -1.
         11    1    3    3    0    0  0.33244378862E+01 -0.57329839826E+01 -0.23942029005E+01  0.70463607908E+01  0.51100000000E-03 0. -1.
        -11    1    3    3    0    0  0.73639413061E+01 -0.25097022993E+02  0.12645488505E+02  0.29051619136E+02  0.51100000000E-03 0.  1.
         12    1    3    3    0    0  0.10199443155E+02 -0.47911397114E+01  0.31074266168E+01  0.11689301117E+02  0.00000000000E+00 0. -1.
</event>
<event>
 7    1  0.1631716E-009  0.4778727E+02  0.7816164E-02  0.1312668E+00
        -11   -1    0    0    0    0  0.00000000000E+00  0.00000000000E+00  0.45593999997E+02  0.45594000000E+02  0.51100000000E-03 0. -1.
         11   -1    0    0    0    0 -0.00000000000E+00 -0.00000000000E+00 -0.45593999997E+02  0.45594000000E+02  0.51100000000E-03 0.  1.
    9900012    2    1    2    0    0  0.25857811065E+02  0.34327062655E+02  0.60539050803E+01  0.47787269703E+02  0.19999993883E+02 0.  0.
         12    1    1    2    0    0 -0.25857811065E+02 -0.34327062655E+02 -0.60539050803E+01  0.43400730297E+02  0.00000000000E+00 0. -1.
         11    1    3    3    0    0 -0.27624999627E+01  0.30944813490E+01 -0.63100930003E+00  0.41958781991E+01  0.51100000000E-03 0. -1.
        -11    1    3    3    0    0  0.10608844532E+02  0.17318338016E+02  0.27797931244E+01  0.20498772257E+02  0.51100000000E-03 0.  1.
        -12    1    3    3    0    0  0.18011466496E+02  0.13914243290E+02  0.39051212559E+01  0.23092619247E+02  0.00000000000E+00 0.  1.
</event>
<event>
 7    1  0.1631716E-009  0.4778727E+02  0.7816164E-02  0.1312668E+00
        -11   -1    0    0    0    0  0.00000000000E+00  0.00000000000E+00  0.45593999997E+02  0.45594000000E+02  0.51100000000E-03 0.  1.
         11   -1    0    0    0    0 -0.00000000000E+00 -0.00000000000E+00 -0.45593999997E+02  0.45594000000E+02  0.51100000000E-03 0. -1.
    9900012    2    1    2    0    0  0.19017350037E+02 -0.16111964495E+02  0.35529824173E+02  0.47787269498E+02  0.19999992949E+02 0.  0.
         12    1    1    2    0    0 -0.19017350037E+02  0.16111964495E+02 -0.35529824173E+02  0.43400730502E+02  0.00000000000E+00 0. -1.
         11    1    3    3    0    0  0.24735498310E+01 -0.98599004324E+01  0.10770728604E+02  0.14810289674E+02  0.51100000000E-03 0. -1.
        -11    1    3    3    0    0  0.19884479908E+01  0.36642155043E+01  0.46106506330E+01  0.62159874674E+01  0.51100000000E-03 0.  1.
         12    1    3    3    0    0  0.14555352215E+02 -0.99162795666E+01  0.20148444937E+02  0.26760992357E+02  0.00000000000E+00 0. -1.
</event>
<event>
 7    1  0.1631716E-009  0.4778727E+02  0.7816164E-02  0.1312668E+00
        -11   -1    0    0    0    0  0.00000000000E+00  0.00000000000E+00  0.45593999997E+02  0.45594000000E+02  0.51100000000E-03 0.  1.
         11   -1    0    0    0    0 -0.00000000000E+00 -0.00000000000E+00 -0.45593999997E+02  0.45594000000E+02  0.51100000000E-03 0. -1.
    9900012    2    1    2    0    0  0.11866876620E+02  0.41746433897E+02  0.18831288766E+00  0.47787274597E+02  0.20000016196E+02 0.  0.
         12    1    1    2    0    0 -0.11866876620E+02 -0.41746433897E+02 -0.18831288766E+00  0.43400725403E+02  0.00000000000E+00 0. -1.
         11    1    3    3    0    0  0.55966120368E+01  0.28859822222E+01 -0.24289539439E+01  0.67491315886E+01  0.51100000000E-03 0. -1.
        -11    1    3    3    0    0 -0.30379802024E+01  0.10861025804E+02  0.24038487671E+01  0.11531248604E+02  0.51100000000E-03 0.  1.
         12    1    3    3    0    0  0.93082447851E+01  0.27999425871E+02  0.21341806445E+00  0.29506894404E+02  0.00000000000E+00 0. -1.
</event>
<event>
 7    1  0.1631716E-009  0.4778727E+02  0.7816164E-02  0.1312668E+00
        -11   -1    0    0    0    0  0.00000000000E+00  0.00000000000E+00  0.45593999997E+02  0.45594000000E+02  0.51100000000E-03 0.  1.
         11   -1    0    0    0    0 -0.00000000000E+00 -0.00000000000E+00 -0.45593999997E+02  0.45594000000E+02  0.51100000000E-03 0. -1.
    9900012    2    1    2    0    0 -0.23854727940E+01  0.40087529862E+02 -0.16459745430E+02  0.47787265554E+02  0.19999974965E+02 0.  0.
         12    1    1    2    0    0  0.23854727940E+01 -0.40087529862E+02  0.16459745430E+02  0.43400734446E+02  0.00000000000E+00 0. -1.
         11    1    3    3    0    0 -0.23973689107E+01 -0.10786242261E+00  0.10455003365E+01  0.26176484124E+01  0.51100000000E-03 0. -1.
        -11    1    3    3    0    0 -0.39971662159E+00  0.40691231717E+02 -0.17853158832E+02  0.44437274810E+02  0.51100000000E-03 0.  1.
        -12    1    3    3    0    0  0.41161273830E+00 -0.49583943262E+00  0.34791306514E+00  0.73234233127E+00  0.00000000000E+00 0.  1.
</event>
<event>
 7    1  0.1631716E-009  0.4778727E+02  0.7816164E-02  0.1312668E+00
        -11   -1    0    0    0    0  0.00000000000E+00  0.00000000000E+00  0.45593999997E+02  0.45594000000E+02  0.51100000000E-03 0.  1.
         11   -1    0    0    0    0 -0.00000000000E+00 -0.00000000000E+00 -0.45593999997E+02  0.45594000000E+02  0.51100000000E-03 0. -1.
    9900012    2    1    2    0    0  0.24018736369E+02 -0.16544695964E+02  0.32140268730E+02  0.47787268032E+02  0.19999986266E+02 0.  0.
         12    1    1    2    0    0 -0.24018736369E+02  0.16544695964E+02 -0.32140268730E+02  0.43400731968E+02  0.00000000000E+00 0. -1.
         11    1    3    3    0    0 -0.26772944170E+00 -0.46461657639E+00 -0.66412852133E+00  0.85358922848E+00  0.51100000000E-03 0. -1.
        -11    1    3    3    0    0  0.20033171398E+02 -0.85652972735E+01  0.31349518502E+02  0.38177016440E+02  0.51100000000E-03 0.  1.
        -12    1    3    3    0    0  0.42532944127E+01 -0.75147821140E+01  0.14548787487E+01  0.87566623639E+01  0.00000000000E+00 0.  1.
</event>
<event>
 7    1  0.1631716E-009  0.4778727E+02  0.7816164E-02  0.1312668E+00
        -11   -1    0    0    0    0  0.00000000000E+00  0.00000000000E+00  0.45593999997E+02  0.45594000000E+02  0.51100000000E-03 0.  1.
         11   -1    0    0    0    0 -0.00000000000E+00 -0.00000000000E+00 -0.45593999997E+02  0.45594000000E+02  0.51100000000E-03 0. -1.
    9900012    2    1    2    0    0  0.10713197888E+01  0.16629008466E+02  0.40074327118E+02  0.47787270252E+02  0.19999996387E+02 0.  0.
         12    1    1    2    0    0 -0.10713197888E+01 -0.16629008466E+02 -0.40074327118E+02  0.43400729748E+02  0.00000000000E+00 0. -1.
         11    1    3    3    0    0  0.43939376218E+01  0.88976604737E+01  0.25049830004E+02  0.26943812522E+02  0.51100000000E-03 0. -1.
        -11    1    3    3    0    0  0.12244190006E+01  0.80861366503E+01  0.13929671250E+02  0.16153035294E+02  0.51100000000E-03 0.  1.
        -12    1    3    3    0    0 -0.45470368336E+01 -0.35478865759E+00  0.10948258650E+01  0.46904224364E+01  0.00000000000E+00 0.  1.
</event>
<event>
 7    1  0.1631716E-009  0.4778727E+02  0.7816164E-02  0.1312668E+00
        -11   -1    0    0    0    0  0.00000000000E+00  0.00000000000E+00  0.45593999997E+02  0.45594000000E+02  0.51100000000E-03 0.  1.
         11   -1    0    0    0    0 -0.00000000000E+00 -0.00000000000E+00 -0.45593999997E+02  0.45594000000E+02  0.51100000000E-03 0. -1.
    9900012    2    1    2    0    0  0.29862126175E+02  0.31379010659E+02  0.26896652188E+01  0.47787272027E+02  0.20000004478E+02 0.  0.
         12    1    1    2    0    0 -0.29862126175E+02 -0.31379010659E+02 -0.26896652188E+01  0.43400727973E+02  0.00000000000E+00 0. -1.
         11    1    3    3    0    0 -0.92897201951E+00  0.66831191264E+01  0.10635597879E+00  0.67482132543E+01  0.51100000000E-03 0. -1.
        -11    1    3    3    0    0  0.18797246050E+02  0.18699897126E+02 -0.26461603114E+01  0.26646290102E+02  0.51100000000E-03 0.  1.
        -12    1    3    3    0    0  0.11993852145E+02  0.59959944068E+01  0.52294695514E+01  0.14392768670E+02  0.00000000000E+00 0.  1.
</event>
<event>
 7    1  0.1631716E-009  0.4778727E+02  0.7816164E-02  0.1312668E+00
        -11   -1    0    0    0    0  0.00000000000E+00  0.00000000000E+00  0.45593999997E+02  0.45594000000E+02  0.51100000000E-03 0. -1.
         11   -1    0    0    0    0 -0.00000000000E+00 -0.00000000000E+00 -0.45593999997E+02  0.45594000000E+02  0.51100000000E-03 0.  1.
    9900012    2    1    2    0    0  0.12924546364E+02  0.20647667892E+02 -0.35920096763E+02  0.47787269136E+02  0.19999991297E+02 0.  0.
         12    1    1    2    0    0 -0.12924546364E+02 -0.20647667892E+02  0.35920096763E+02  0.43400730864E+02  0.00000000000E+00 0. -1.
         11    1    3    3    0    0  0.73759871032E+01  0.10958736727E+02 -0.13986315483E+02  0.19238402154E+02  0.51100000000E-03 0. -1.
        -11    1    3    3    0    0  0.56056633294E+01  0.13404004527E+02 -0.18102044236E+02  0.23211523097E+02  0.51100000000E-03 0.  1.
         12    1    3    3    0    0 -0.57104069082E-01 -0.37150733621E+01 -0.38317370445E+01  0.53373438842E+01  0.00000000000E+00 0. -1.
</event>
<event>
 7    1  0.1631716E-009  0.4778727E+02  0.7816164E-02  0.1312668E+00
        -11   -1    0    0    0    0  0.00000000000E+00  0.00000000000E+00  0.45593999997E+02  0.45594000000E+02  0.51100000000E-03 0.  1.
         11   -1    0    0    0    0 -0.00000000000E+00 -0.00000000000E+00 -0.45593999997E+02  0.45594000000E+02  0.51100000000E-03 0. -1.
    9900012    2    1    2    0    0  0.19320611467E+02 -0.38499545057E+02  0.53030701950E+01  0.47787267857E+02  0.19999985466E+02 0.  0.
         12    1    1    2    0    0 -0.19320611467E+02  0.38499545057E+02 -0.53030701950E+01  0.43400732143E+02  0.00000000000E+00 0. -1.
         11    1    3    3    0    0  0.12204741415E+02 -0.34642767451E+02  0.51363808905E+01  0.37087187256E+02  0.51100000000E-03 0. -1.
        -11    1    3    3    0    0 -0.12757300197E+01  0.16924473056E+00 -0.47212371951E+00  0.13707778557E+01  0.51100000000E-03 0.  1.
        -12    1    3    3    0    0  0.83916000719E+01 -0.40260223367E+01  0.63881302402E+00  0.93293027447E+01  0.00000000000E+00 0.  1.
</event>
<event>
 7    1  0.1631716E-009  0.4778727E+02  0.7816164E-02  0.1312668E+00
        -11   -1    0    0    0    0  0.00000000000E+00  0.00000000000E+00  0.45593999997E+02  0.45594000000E+02  0.51100000000E-03 0. -1.
         11   -1    0    0    0    0 -0.00000000000E+00 -0.00000000000E+00 -0.45593999997E+02  0.45594000000E+02  0.51100000000E-03 0.  1.
    9900012    2    1    2    0    0 -0.25693262857E+02 -0.34268865760E+02  0.70088650691E+01  0.47787272976E+02  0.20000008805E+02 0.  0.
         12    1    1    2    0    0  0.25693262857E+02  0.34268865760E+02 -0.70088650691E+01  0.43400727024E+02  0.00000000000E+00 0. -1.
         11    1    3    3    0    0 -0.41463685494E+01 -0.47829593878E+01  0.44624613467E+01  0.77448456527E+01  0.51100000000E-03 0. -1.
        -11    1    3    3    0    0 -0.15386882779E+02 -0.28959398034E+02 -0.11966446948E+01  0.32815161968E+02  0.51100000000E-03 0.  1.
        -12    1    3    3    0    0 -0.61600115284E+01 -0.52650833734E+00  0.37430484171E+01  0.72272653550E+01  0.00000000000E+00 0.  1.
</event>
<event>
 7    1  0.1631716E-009  0.4778727E+02  0.7816164E-02  0.1312668E+00
        -11   -1    0    0    0    0  0.00000000000E+00  0.00000000000E+00  0.45593999997E+02  0.45594000000E+02  0.51100000000E-03 0. -1.
         11   -1    0    0    0    0 -0.00000000000E+00 -0.00000000000E+00 -0.45593999997E+02  0.45594000000E+02  0.51100000000E-03 0.  1.
    9900012    2    1    2    0    0 -0.14975118016E+02 -0.40593916649E+02  0.33915905168E+01  0.47787272878E+02  0.20000008360E+02 0.  0.
         12    1    1    2    0    0  0.14975118016E+02  0.40593916649E+02 -0.33915905168E+01  0.43400727122E+02  0.00000000000E+00 0. -1.
         11    1    3    3    0    0 -0.21890168667E+01 -0.14702874751E+02 -0.57693612587E+01  0.15945276742E+02  0.51100000000E-03 0. -1.
        -11    1    3    3    0    0 -0.53846976151E+01 -0.24973989068E+01  0.22840565609E+01  0.63599437372E+01  0.51100000000E-03 0.  1.
        -12    1    3    3    0    0 -0.74014035343E+01 -0.23393642991E+02  0.68768952145E+01  0.25482052399E+02  0.00000000000E+00 0.  1.
</event>
<event>
 7    1  0.1631716E-009  0.4778727E+02  0.7816164E-02  0.1312668E+00
        -11   -1    0    0    0    0  0.00000000000E+00  0.00000000000E+00  0.45593999997E+02  0.45594000000E+02  0.51100000000E-03 0.  1.
         11   -1    0    0    0    0 -0.00000000000E+00 -0.00000000000E+00 -0.45593999997E+02  0.45594000000E+02  0.51100000000E-03 0. -1.
    9900012    2    1    2    0    0 -0.31370108053E+02 -0.28432562386E+01  0.29857253100E+02  0.47787270191E+02  0.19999996109E+02 0.  0.
         12    1    1    2    0    0  0.31370108053E+02  0.28432562386E+01 -0.29857253100E+02  0.43400729809E+02  0.00000000000E+00 0. -1.
         11    1    3    3    0    0 -0.24107933527E+02 -0.92215840569E+01  0.18959108968E+02  0.32026206216E+02  0.51100000000E-03 0. -1.
        -11    1    3    3    0    0 -0.65926353110E+01  0.32613971626E+01  0.45268156200E+01  0.86366435445E+01  0.51100000000E-03 0.  1.
         12    1    3    3    0    0 -0.66953921533E+00  0.31169306556E+01  0.63713285113E+01  0.71244204306E+01  0.00000000000E+00 0. -1.
</event>
<event>
 7    1  0.1631716E-009  0.4778728E+02  0.7816164E-02  0.1312668E+00
        -11   -1    0    0    0    0  0.00000000000E+00  0.00000000000E+00  0.45593999997E+02  0.45594000000E+02  0.51100000000E-03 0.  1.
         11   -1    0    0    0    0 -0.00000000000E+00 -0.00000000000E+00 -0.45593999997E+02  0.45594000000E+02  0.51100000000E-03 0. -1.
    9900012    2    1    2    0    0  0.83350601161E+01  0.37876523729E+02  0.19481229316E+02  0.47787279123E+02  0.20000036835E+02 0.  0.
         12    1    1    2    0    0 -0.83350601161E+01 -0.37876523729E+02 -0.19481229316E+02  0.43400720877E+02  0.00000000000E+00 0. -1.
         11    1    3    3    0    0  0.11307822776E+02  0.14175284443E+02  0.24677212750E+01  0.18300141899E+02  0.51100000000E-03 0. -1.
        -11    1    3    3    0    0 -0.25227808977E+01  0.94423450883E+01  0.60446793562E+01  0.11491755871E+02  0.51100000000E-03 0.  1.
        -12    1    3    3    0    0 -0.44998176186E+00  0.14258894197E+02  0.10968828685E+02  0.17995381353E+02  0.00000000000E+00 0.  1.
</event>
<event>
 7    1  0.1631716E-009  0.4778727E+02  0.7816164E-02  0.1312668E+00
        -11   -1    0    0    0    0  0.00000000000E+00  0.00000000000E+00  0.45593999997E+02  0.45594000000E+02  0.51100000000E-03 0.  1.
         11   -1    0    0    0    0 -0.00000000000E+00 -0.00000000000E+00 -0.45593999997E+02  0.45594000000E+02  0.51100000000E-03 0. -1.
    9900012    2    1    2    0    0  0.95675994332E+00  0.10328068600E+02  0.42143077901E+02  0.47787269527E+02  0.19999993083E+02 0.  0.
         12    1    1    2    0    0 -0.95675994332E+00 -0.10328068600E+02 -0.42143077901E+02  0.43400730473E+02  0.00000000000E+00 0. -1.
         11    1    3    3    0    0  0.33381440686E+00  0.77376299676E+01  0.72820061849E+01  0.10630614465E+02  0.51100000000E-03 0. -1.
        -11    1    3    3    0    0  0.31840165523E+01 -0.33378163054E+01  0.59262817772E+01  0.75099796976E+01  0.51100000000E-03 0.  1.
         12    1    3    3    0    0 -0.25610710159E+01  0.59282549382E+01  0.28934789939E+02  0.29646675364E+02  0.00000000000E+00 0. -1.
</event>
<event>
 7    1  0.1631716E-009  0.4778727E+02  0.7816164E-02  0.1312668E+00
        -11   -1    0    0    0    0  0.00000000000E+00  0.00000000000E+00  0.45593999997E+02  0.45594000000E+02  0.51100000000E-03 0.  1.
         11   -1    0    0    0    0 -0.00000000000E+00 -0.00000000000E+00 -0.45593999997E+02  0.45594000000E+02  0.51100000000E-03 0. -1.
    9900012    2    1    2    0    0  0.80576713862E+01 -0.41151584490E+02  0.11191266470E+02  0.47787269367E+02  0.19999992353E+02 0.  0.
         12    1    1    2    0    0 -0.80576713862E+01  0.41151584490E+02 -0.11191266470E+02  0.43400730633E+02  0.00000000000E+00 0. -1.
         11    1    3    3    0    0  0.28597050556E+01 -0.24327580927E+02  0.21325639649E+01  0.24587739548E+02  0.51100000000E-03 0. -1.
        -11    1    3    3    0    0  0.73935263909E+01 -0.15964420963E+02  0.10448955633E+02  0.20462346964E+02  0.51100000000E-03 0.  1.
        -12    1    3    3    0    0 -0.21955600603E+01 -0.85958260039E+00 -0.13902531277E+01  0.27371828555E+01  0.00000000000E+00 0.  1.
</event>
<event>
 7    1  0.1631716E-009  0.4778727E+02  0.7816164E-02  0.1312668E+00
        -11   -1    0    0    0    0  0.00000000000E+00  0.00000000000E+00  0.45593999997E+02  0.45594000000E+02  0.51100000000E-03 0. -1.
         11   -1    0    0    0    0 -0.00000000000E+00 -0.00000000000E+00 -0.45593999997E+02  0.45594000000E+02  0.51100000000E-03 0.  1.
    9900012    2    1    2    0    0  0.17266298009E+02 -0.25748086749E+02 -0.30373246983E+02  0.47787272466E+02  0.20000006482E+02 0.  0.
         12    1    1    2    0    0 -0.17266298009E+02  0.25748086749E+02  0.30373246983E+02  0.43400727534E+02  0.00000000000E+00 0. -1.
         11    1    3    3    0    0  0.21981385345E+01 -0.74764372320E+00  0.14016505488E+00  0.23260332452E+01  0.51100000000E-03 0. -1.
        -11    1    3    3    0    0  0.17008920603E+02 -0.17105840314E+02 -0.16386538696E+02  0.29162163905E+02  0.51100000000E-03 0.  1.
        -12    1    3    3    0    0 -0.19407611288E+01 -0.78946027123E+01 -0.14126873342E+02  0.16299075316E+02  0.00000000000E+00 0.  1.
</event>
<event>
 7    1  0.1631716E-009  0.4778727E+02  0.7816164E-02  0.1312668E+00
        -11   -1    0    0    0    0  0.00000000000E+00  0.00000000000E+00  0.45593999997E+02  0.45594000000E+02  0.51100000000E-03 0.  1.
         11   -1    0    0    0    0 -0.00000000000E+00 -0.00000000000E+00 -0.45593999997E+02  0.45594000000E+02  0.51100000000E-03 0. -1.
    9900012    2    1    2    0    0  0.20433491971E+02  0.57446453546E+01  0.37856234233E+02  0.47787274031E+02  0.20000013615E+02 0.  0.
         12    1    1    2    0    0 -0.20433491971E+02 -0.57446453546E+01 -0.37856234233E+02  0.43400725969E+02  0.00000000000E+00 0. -1.
         11    1    3    3    0    0  0.45422843320E+01 -0.36379152738E+01  0.20333886588E+01  0.61645311412E+01  0.51100000000E-03 0. -1.
        -11    1    3    3    0    0  0.67921922473E+01  0.68686404247E+01  0.90594512285E+01  0.13243328646E+02  0.51100000000E-03 0.  1.
        -12    1    3    3    0    0  0.90990153914E+01  0.25139202036E+01  0.26763394346E+02  0.28379414243E+02  0.00000000000E+00 0.  1.
</event>
<event>
 7    1  0.1631716E-009  0.4778723E+02  0.7816164E-02  0.1312668E+00
        -11   -1    0    0    0    0  0.00000000000E+00  0.00000000000E+00  0.45593999997E+02  0.45594000000E+02  0.51100000000E-03 0.  1.
         11   -1    0    0    0    0 -0.00000000000E+00 -0.00000000000E+00 -0.45593999997E+02  0.45594000000E+02  0.51100000000E-03 0. -1.
    9900012    2    1    2    0    0  0.26598348792E+02 -0.28388697566E+02  0.19241521640E+02  0.47787234304E+02  0.19999832486E+02 0.  0.
         12    1    1    2    0    0 -0.26598348792E+02  0.28388697566E+02 -0.19241521640E+02  0.43400765696E+02  0.00000000000E+00 0. -1.
         11    1    3    3    0    0 -0.56803092525E+00 -0.40981659336E+01 -0.10945154036E+01  0.42796714105E+01  0.51100000000E-03 0. -1.
        -11    1    3    3    0    0  0.20104477289E+02 -0.18884642917E+02  0.88232989186E+01  0.28959805753E+02  0.51100000000E-03 0.  1.
         12    1    3    3    0    0  0.70619024285E+01 -0.54058887153E+01  0.11512738125E+02  0.14547757141E+02  0.00000000000E+00 0. -1.
</event>
<event>
 7    1  0.1631716E-009  0.4778727E+02  0.7816164E-02  0.1312668E+00
        -11   -1    0    0    0    0  0.00000000000E+00  0.00000000000E+00  0.45593999997E+02  0.45594000000E+02  0.51100000000E-03 0.  1.
         11   -1    0    0    0    0 -0.00000000000E+00 -0.00000000000E+00 -0.45593999997E+02  0.45594000000E+02  0.51100000000E-03 0. -1.
    9900012    2    1    2    0    0 -0.35456773150E+02  0.16553340950E+02  0.18773046561E+02  0.47787272632E+02  0.20000007241E+02 0.  0.
         12    1    1    2    0    0  0.35456773150E+02 -0.16553340950E+02 -0.18773046561E+02  0.43400727368E+02  0.00000000000E+00 0. -1.
         11    1    3    3    0    0 -0.51407415818E+01  0.15324466101E+01  0.96434059334E+01  0.11034985042E+02  0.51100000000E-03 0. -1.
        -11    1    3    3    0    0 -0.15145001726E+02  0.13003173942E+02  0.76473640280E+01  0.21376056388E+02  0.51100000000E-03 0.  1.
        -12    1    3    3    0    0 -0.15171029842E+02  0.20177203983E+01  0.14822765996E+01  0.15376231203E+02  0.00000000000E+00 0.  1.
</event>
<event>
 7    1  0.1631716E-009  0.4778727E+02  0.7816164E-02  0.1312668E+00
        -11   -1    0    0    0    0  0.00000000000E+00  0.00000000000E+00  0.45593999997E+02  0.45594000000E+02  0.51100000000E-03 0. -1.
         11   -1    0    0    0    0 -0.00000000000E+00 -0.00000000000E+00 -0.45593999997E+02  0.45594000000E+02  0.51100000000E-03 0.  1.
    9900012    2    1    2    0    0 -0.74699935245E+01  0.30213233240E+02 -0.30248690723E+02  0.47787267788E+02  0.19999985152E+02 0.  0.
         12    1    1    2    0    0  0.74699935245E+01 -0.30213233240E+02  0.30248690723E+02  0.43400732212E+02  0.00000000000E+00 0. -1.
         11    1    3    3    0    0  0.19962510911E+01  0.10617506520E+02 -0.99093204387E+01  0.14659846348E+02  0.51100000000E-03 0.  1.
        -11    1    3    3    0    0 -0.63351857745E+01  0.94324236717E+01 -0.19359612607E+02  0.22447712482E+02  0.51100000000E-03 0. -1.
         12    1    3    3    0    0 -0.31310588410E+01  0.10163303048E+02 -0.97975767730E+00  0.10679708958E+02  0.00000000000E+00 0. -1.
</event>
<event>
 7    1  0.1631716E-009  0.4778727E+02  0.7816164E-02  0.1312668E+00
        -11   -1    0    0    0    0  0.00000000000E+00  0.00000000000E+00  0.45593999997E+02  0.45594000000E+02  0.51100000000E-03 0.  1.
         11   -1    0    0    0    0 -0.00000000000E+00 -0.00000000000E+00 -0.45593999997E+02  0.45594000000E+02  0.51100000000E-03 0. -1.
    9900012    2    1    2    0    0 -0.28544592231E+00 -0.12761304353E+02  0.41481214385E+02  0.47787268266E+02  0.19999987331E+02 0.  0.
         12    1    1    2    0    0  0.28544592231E+00  0.12761304353E+02 -0.41481214385E+02  0.43400731734E+02  0.00000000000E+00 0. -1.
         11    1    3    3    0    0 -0.80584511422E+00 -0.19958481191E+01 -0.10658663178E-01  0.21524195527E+01  0.51100000000E-03 0. -1.
        -11    1    3    3    0    0 -0.10173320744E+01  0.39494325734E+01  0.69578047099E+01  0.80649878390E+01  0.51100000000E-03 0.  1.
        -12    1    3    3    0    0  0.15377312663E+01 -0.14714888808E+02  0.34534068339E+02  0.37569860874E+02  0.00000000000E+00 0.  1.
</event>
<event>
 7    1  0.1631716E-009  0.4778727E+02  0.7816164E-02  0.1312668E+00
        -11   -1    0    0    0    0  0.00000000000E+00  0.00000000000E+00  0.45593999997E+02  0.45594000000E+02  0.51100000000E-03 0.  1.
         11   -1    0    0    0    0 -0.00000000000E+00 -0.00000000000E+00 -0.45593999997E+02  0.45594000000E+02  0.51100000000E-03 0. -1.
    9900012    2    1    2    0    0 -0.19495142037E+02  0.23833096946E+02  0.30586699816E+02  0.47787270989E+02  0.19999999746E+02 0.  0.
         12    1    1    2    0    0  0.19495142037E+02 -0.23833096946E+02 -0.30586699816E+02  0.43400729011E+02  0.00000000000E+00 0. -1.
         11    1    3    3    0    0 -0.26484111454E+01  0.36208322296E+01  0.11106536520E+02  0.11978299602E+02  0.51100000000E-03 0. -1.
        -11    1    3    3    0    0 -0.16736312458E+02  0.15604800049E+02  0.20895587870E+02  0.30987731959E+02  0.51100000000E-03 0.  1.
         12    1    3    3    0    0 -0.11041843353E+00  0.46074646678E+01 -0.14154245742E+01  0.48212394278E+01  0.00000000000E+00 0. -1.
</event>
<event>
 7    1  0.1631716E-009  0.4778727E+02  0.7816164E-02  0.1312668E+00
        -11   -1    0    0    0    0  0.00000000000E+00  0.00000000000E+00  0.45593999997E+02  0.45594000000E+02  0.51100000000E-03 0.  1.
         11   -1    0    0    0    0 -0.00000000000E+00 -0.00000000000E+00 -0.45593999997E+02  0.45594000000E+02  0.51100000000E-03 0. -1.
    9900012    2    1    2    0    0 -0.21065020699E+02  0.10429414837E+02  0.36484456607E+02  0.47787269997E+02  0.19999995224E+02 0.  0.
         12    1    1    2    0    0  0.21065020699E+02 -0.10429414837E+02 -0.36484456607E+02  0.43400730003E+02  0.00000000000E+00 0. -1.
         11    1    3    3    0    0 -0.32383017649E+01  0.55239554339E+01  0.51567253285E+01  0.82214657045E+01  0.51100000000E-03 0. -1.
        -11    1    3    3    0    0 -0.44025434686E+01  0.81840823214E+01  0.71800081529E+01  0.11743683825E+02  0.51100000000E-03 0.  1.
        -12    1    3    3    0    0 -0.13424175466E+02 -0.32786229180E+01  0.24147723125E+02  0.27822120468E+02  0.00000000000E+00 0.  1.
</event>
<event>
 7    1  0.1631716E-009  0.4778727E+02  0.7816164E-02  0.1312668E+00
        -11   -1    0    0    0    0  0.00000000000E+00  0.00000000000E+00  0.45593999997E+02  0.45594000000E+02  0.51100000000E-03 0.  1.
         11   -1    0    0    0    0 -0.00000000000E+00 -0.00000000000E+00 -0.45593999997E+02  0.45594000000E+02  0.51100000000E-03 0. -1.
    9900012    2    1    2    0    0 -0.63931256912E+01 -0.32129248828E+02  0.28468622304E+02  0.47787272561E+02  0.20000006917E+02 0.  0.
         12    1    1    2    0    0  0.63931256912E+01  0.32129248828E+02 -0.28468622304E+02  0.43400727439E+02  0.00000000000E+00 0. -1.
         11    1    3    3    0    0 -0.95669821790E+01 -0.13987098333E+02  0.18395867848E+02  0.25011477804E+02  0.51100000000E-03 0. -1.
        -11    1    3    3    0    0 -0.98692547064E-01 -0.16606937091E+02  0.69645595618E+01  0.18008475503E+02  0.51100000000E-03 0.  1.
        -12    1    3    3    0    0  0.32725490349E+01 -0.15352134027E+01  0.31081948936E+01  0.47673192545E+01  0.00000000000E+00 0.  1.
</event>
<event>
 7    1  0.1631716E-009  0.4778727E+02  0.7816164E-02  0.1312668E+00
        -11   -1    0    0    0    0  0.00000000000E+00  0.00000000000E+00  0.45593999997E+02  0.45594000000E+02  0.51100000000E-03 0. -1.
         11   -1    0    0    0    0 -0.00000000000E+00 -0.00000000000E+00 -0.45593999997E+02  0.45594000000E+02  0.51100000000E-03 0.  1.
    9900012    2    1    2    0    0 -0.17169346047E+02 -0.24274667088E+02  0.31616089512E+02  0.47787273947E+02  0.20000013232E+02 0.  0.
         12    1    1    2    0    0  0.17169346047E+02  0.24274667088E+02 -0.31616089512E+02  0.43400726053E+02  0.00000000000E+00 0. -1.
         11    1    3    3    0    0 -0.71534162068E+01 -0.10605663305E+02  0.17506648054E+02  0.21682577889E+02  0.51100000000E-03 0. -1.
        -11    1    3    3    0    0 -0.99228076178E+01 -0.18799570634E+01  0.54435448993E+01  0.11472947787E+02  0.51100000000E-03 0.  1.
        -12    1    3    3    0    0 -0.93122222772E-01 -0.11789046719E+02  0.86658965591E+01  0.14631748271E+02  0.00000000000E+00 0.  1.
</event>
<event>
 7    1  0.1631716E-009  0.4778727E+02  0.7816164E-02  0.1312668E+00
        -11   -1    0    0    0    0  0.00000000000E+00  0.00000000000E+00  0.45593999997E+02  0.45594000000E+02  0.51100000000E-03 0. -1.
         11   -1    0    0    0    0 -0.00000000000E+00 -0.00000000000E+00 -0.45593999997E+02  0.45594000000E+02  0.51100000000E-03 0.  1.
    9900012    2    1    2    0    0  0.43479883632E+01  0.40603587571E+02 -0.14699206287E+02  0.47787274293E+02  0.20000014810E+02 0.  0.
         12    1    1    2    0    0 -0.43479883632E+01 -0.40603587571E+02  0.14699206287E+02  0.43400725707E+02  0.00000000000E+00 0. -1.
         11    1    3    3    0    0  0.96268994144E+00  0.64898697003E+01  0.17945542841E+01  0.68018825328E+01  0.51100000000E-03 0. -1.
        -11    1    3    3    0    0  0.27713958920E+01  0.98031898999E+01 -0.12845752743E+02  0.16395015438E+02  0.51100000000E-03 0.  1.
         12    1    3    3    0    0  0.61390252970E+00  0.24310527971E+02 -0.36480078282E+01  0.24590376322E+02  0.00000000000E+00 0. -1.
</event>
<event>
 7    1  0.1631716E-009  0.4778727E+02  0.7816164E-02  0.1312668E+00
        -11   -1    0    0    0    0  0.00000000000E+00  0.00000000000E+00  0.45593999997E+02  0.45594000000E+02  0.51100000000E-03 0.  1.
         11   -1    0    0    0    0 -0.00000000000E+00 -0.00000000000E+00 -0.45593999997E+02  0.45594000000E+02  0.51100000000E-03 0. -1.
    9900012    2    1    2    0    0 -0.33014546552E+02 -0.13280858957E+02  0.24845153928E+02  0.47787272213E+02  0.20000005329E+02 0.  0.
         12    1    1    2    0    0  0.33014546552E+02  0.13280858957E+02 -0.24845153928E+02  0.43400727787E+02  0.00000000000E+00 0. -1.
         11    1    3    3    0    0 -0.53553669824E+01  0.59258045970E+00  0.62348516649E+01  0.82404176267E+01  0.51100000000E-03 0. -1.
        -11    1    3    3    0    0 -0.19641997775E+01  0.33741531232E+01  0.27238183977E+01  0.47604807519E+01  0.51100000000E-03 0.  1.
         12    1    3    3    0    0 -0.25694979792E+02 -0.17247592540E+02  0.15886483866E+02  0.34786373835E+02  0.00000000000E+00 0. -1.
</event>
<event>
 7    1  0.1631716E-009  0.4778727E+02  0.7816164E-02  0.1312668E+00
        -11   -1    0    0    0    0  0.00000000000E+00  0.00000000000E+00  0.45593999997E+02  0.45594000000E+02  0.51100000000E-03 0.  1.
         11   -1    0    0    0    0 -0.00000000000E+00 -0.00000000000E+00 -0.45593999997E+02  0.45594000000E+02  0.51100000000E-03 0. -1.
    9900012    2    1    2    0    0  0.13354016548E+02  0.41207650115E+02 -0.26876653363E+01  0.47787265779E+02  0.19999975992E+02 0.  0.
         12    1    1    2    0    0 -0.13354016548E+02 -0.41207650115E+02  0.26876653363E+01  0.43400734221E+02  0.00000000000E+00 0. -1.
         11    1    3    3    0    0  0.29356684973E+01  0.26532133977E+02 -0.66584803251E+01  0.27511954554E+02  0.51100000000E-03 0. -1.
        -11    1    3    3    0    0  0.86496023203E+01  0.13568881772E+02  0.34849156173E+00  0.16095080598E+02  0.51100000000E-03 0.  1.
         12    1    3    3    0    0  0.17687457305E+01  0.11066343666E+01  0.36223234270E+01  0.41802306264E+01  0.00000000000E+00 0. -1.
</event>
<event>
 7    1  0.1631716E-009  0.4778727E+02  0.7816164E-02  0.1312668E+00
        -11   -1    0    0    0    0  0.00000000000E+00  0.00000000000E+00  0.45593999997E+02  0.45594000000E+02  0.51100000000E-03 0.  1.
         11   -1    0    0    0    0 -0.00000000000E+00 -0.00000000000E+00 -0.45593999997E+02  0.45594000000E+02  0.51100000000E-03 0. -1.
    9900012    2    1    2    0    0 -0.22063975567E+01  0.23646577333E+02  0.36326218537E+02  0.47787274627E+02  0.20000016334E+02 0.  0.
         12    1    1    2    0    0  0.22063975567E+01 -0.23646577333E+02 -0.36326218537E+02  0.43400725373E+02  0.00000000000E+00 0. -1.
         11    1    3    3    0    0  0.74450748508E+00 -0.28508911443E+01  0.82681420901E+01  0.87774737593E+01  0.51100000000E-03 0.  1.
        -11    1    3    3    0    0 -0.31564646182E+00  0.11143229308E+02  0.14958679561E+02  0.18655650259E+02  0.51100000000E-03 0. -1.
        -12    1    3    3    0    0 -0.26352585800E+01  0.15354239169E+02  0.13099396885E+02  0.20354150609E+02  0.00000000000E+00 0.  1.
</event>
<event>
 7    1  0.1631716E-009  0.4778727E+02  0.7816164E-02  0.1312668E+00
        -11   -1    0    0    0    0  0.00000000000E+00  0.00000000000E+00  0.45593999997E+02  0.45594000000E+02  0.51100000000E-03 0.  1.
         11   -1    0    0    0    0 -0.00000000000E+00 -0.00000000000E+00 -0.45593999997E+02  0.45594000000E+02  0.51100000000E-03 0. -1.
    9900012    2    1    2    0    0  0.35810185608E+02  0.61629036066E+00  0.24512737340E+02  0.47787268451E+02  0.19999988174E+02 0.  0.
         12    1    1    2    0    0 -0.35810185608E+02 -0.61629036066E+00 -0.24512737340E+02  0.43400731549E+02  0.00000000000E+00 0. -1.
         11    1    3    3    0    0  0.13315942051E+01 -0.30428457161E+01 -0.10123478612E+01  0.34723049452E+01  0.51100000000E-03 0. -1.
        -11    1    3    3    0    0  0.28505507722E+02  0.68583370100E+01  0.22147774192E+02  0.36744042495E+02  0.51100000000E-03 0.  1.
        -12    1    3    3    0    0  0.59730836819E+01 -0.31992009332E+01  0.33773110097E+01  0.75709210099E+01  0.00000000000E+00 0.  1.
</event>
<event>
 7    1  0.1631716E-009  0.4778727E+02  0.7816164E-02  0.1312668E+00
        -11   -1    0    0    0    0  0.00000000000E+00  0.00000000000E+00  0.45593999997E+02  0.45594000000E+02  0.51100000000E-03 0.  1.
         11   -1    0    0    0    0 -0.00000000000E+00 -0.00000000000E+00 -0.45593999997E+02  0.45594000000E+02  0.51100000000E-03 0. -1.
    9900012    2    1    2    0    0 -0.40707015513E+02 -0.98620700433E+01  0.11371101671E+02  0.47787268546E+02  0.19999988609E+02 0.  0.
         12    1    1    2    0    0  0.40707015513E+02  0.98620700433E+01 -0.11371101671E+02  0.43400731454E+02  0.00000000000E+00 0. -1.
         11    1    3    3    0    0 -0.11058736019E+02 -0.89181210790E+01 -0.79084251074E+00  0.14228631630E+02  0.51100000000E-03 0. -1.
        -11    1    3    3    0    0 -0.25451712600E+02 -0.40258414021E+01  0.82856277893E+01  0.27067484209E+02  0.51100000000E-03 0.  1.
         12    1    3    3    0    0 -0.41965668940E+01  0.30818924379E+01  0.38763163927E+01  0.64911527074E+01  0.00000000000E+00 0. -1.
</event>
<event>
 7    1  0.1631716E-009  0.4778727E+02  0.7816164E-02  0.1312668E+00
        -11   -1    0    0    0    0  0.00000000000E+00  0.00000000000E+00  0.45593999997E+02  0.45594000000E+02  0.51100000000E-03 0.  1.
         11   -1    0    0    0    0 -0.00000000000E+00 -0.00000000000E+00 -0.45593999997E+02  0.45594000000E+02  0.51100000000E-03 0. -1.
    9900012    2    1    2    0    0  0.64940538188E+01  0.68114548493E+01  0.42368084455E+02  0.47787271520E+02  0.20000002170E+02 0.  0.
         12    1    1    2    0    0 -0.64940538188E+01 -0.68114548493E+01 -0.42368084455E+02  0.43400728480E+02  0.00000000000E+00 0. -1.
         11    1    3    3    0    0 -0.28215527426E+01  0.71975961331E+01  0.70258071977E+01  0.10446459544E+02  0.51100000000E-03 0. -1.
        -11    1    3    3    0    0  0.11980320713E+01 -0.32228494991E+01  0.92697091482E+01  0.98868370924E+01  0.51100000000E-03 0.  1.
        -12    1    3    3    0    0  0.81175744901E+01  0.28367082154E+01  0.26072568109E+02  0.27453974884E+02  0.00000000000E+00 0.  1.
</event>
<event>
 7    1  0.1631716E-009  0.4778727E+02  0.7816164E-02  0.1312668E+00
        -11   -1    0    0    0    0  0.00000000000E+00  0.00000000000E+00  0.45593999997E+02  0.45594000000E+02  0.51100000000E-03 0.  1.
         11   -1    0    0    0    0 -0.00000000000E+00 -0.00000000000E+00 -0.45593999997E+02  0.45594000000E+02  0.51100000000E-03 0. -1.
    9900012    2    1    2    0    0 -0.90826720165E+01 -0.19252863982E+02  0.37821369571E+02  0.47787266150E+02  0.19999977684E+02 0.  0.
         12    1    1    2    0    0  0.90826720165E+01  0.19252863982E+02 -0.37821369571E+02  0.43400733850E+02  0.00000000000E+00 0. -1.
         11    1    3    3    0    0 -0.96249035404E+01 -0.72609451934E+01  0.16906645270E+02  0.20765229299E+02  0.51100000000E-03 0. -1.
        -11    1    3    3    0    0  0.87660263568E+00  0.15695951158E+01 -0.31800546622E+00  0.18257022611E+01  0.51100000000E-03 0.  1.
        -12    1    3    3    0    0 -0.33437111180E+00 -0.13561513905E+02  0.21232729767E+02  0.25196334590E+02  0.00000000000E+00 0.  1.
</event>
<event>
 7    1  0.1631716E-009  0.4778727E+02  0.7816164E-02  0.1312668E+00
        -11   -1    0    0    0    0  0.00000000000E+00  0.00000000000E+00  0.45593999997E+02  0.45594000000E+02  0.51100000000E-03 0.  1.
         11   -1    0    0    0    0 -0.00000000000E+00 -0.00000000000E+00 -0.45593999997E+02  0.45594000000E+02  0.51100000000E-03 0. -1.
    9900012    2    1    2    0    0 -0.11876355501E+01  0.20971402043E+02  0.37979115257E+02  0.47787269850E+02  0.19999994555E+02 0.  0.
         12    1    1    2    0    0  0.11876355501E+01 -0.20971402043E+02 -0.37979115257E+02  0.43400730150E+02  0.00000000000E+00 0. -1.
         11    1    3    3    0    0  0.22820709605E+01  0.63773729762E+01  0.17531302494E+01  0.69965848725E+01  0.51100000000E-03 0. -1.
        -11    1    3    3    0    0 -0.55853623802E+01  0.23186900717E+01  0.89083210208E+01  0.10767115688E+02  0.51100000000E-03 0.  1.
         12    1    3    3    0    0  0.21156558696E+01  0.12275338995E+02  0.27317663987E+02  0.30023569290E+02  0.00000000000E+00 0. -1.
</event>
<event>
 7    1  0.1631716E-009  0.4778727E+02  0.7816164E-02  0.1312668E+00
        -11   -1    0    0    0    0  0.00000000000E+00  0.00000000000E+00  0.45593999997E+02  0.45594000000E+02  0.51100000000E-03 0.  1.
         11   -1    0    0    0    0 -0.00000000000E+00 -0.00000000000E+00 -0.45593999997E+02  0.45594000000E+02  0.51100000000E-03 0. -1.
    9900012    2    1    2    0    0 -0.18661530266E+02 -0.14738678728E+02  0.36306223122E+02  0.47787271897E+02  0.20000003886E+02 0.  0.
         12    1    1    2    0    0  0.18661530266E+02  0.14738678728E+02 -0.36306223122E+02  0.43400728103E+02  0.00000000000E+00 0. -1.
         11    1    3    3    0    0 -0.13715938228E+02 -0.43066742830E+01  0.66527249090E+01  0.15840869731E+02  0.51100000000E-03 0. -1.
        -11    1    3    3    0    0 -0.36595851185E+01 -0.51255312829E+01  0.18180053922E+02  0.19240010266E+02  0.51100000000E-03 0.  1.
        -12    1    3    3    0    0 -0.12860069200E+01 -0.53064731624E+01  0.11473444291E+02  0.12706391900E+02  0.00000000000E+00 0.  1.
</event>
<event>
 7    1  0.1631716E-009  0.4778727E+02  0.7816164E-02  0.1312668E+00
        -11   -1    0    0    0    0  0.00000000000E+00  0.00000000000E+00  0.45593999997E+02  0.45594000000E+02  0.51100000000E-03 0.  1.
         11   -1    0    0    0    0 -0.00000000000E+00 -0.00000000000E+00 -0.45593999997E+02  0.45594000000E+02  0.51100000000E-03 0. -1.
    9900012    2    1    2    0    0  0.22625318238E+02  0.43447444969E+00  0.37034163056E+02  0.47787273892E+02  0.20000012982E+02 0.  0.
         12    1    1    2    0    0 -0.22625318238E+02 -0.43447444969E+00 -0.37034163056E+02  0.43400726108E+02  0.00000000000E+00 0. -1.
         11    1    3    3    0    0  0.97747130447E+01 -0.53665225401E+01  0.17487823569E+02  0.20740505122E+02  0.51100000000E-03 0.  1.
        -11    1    3    3    0    0  0.39633028391E+01  0.43270465598E+00 -0.92516346686E+00  0.40927900527E+01  0.51100000000E-03 0. -1.
         12    1    3    3    0    0  0.88873023545E+01  0.53682923339E+01  0.20471502954E+02  0.22953978717E+02  0.00000000000E+00 0. -1.
</event>
<event>
 7    1  0.1631716E-009  0.4778727E+02  0.7816164E-02  0.1312668E+00
        -11   -1    0    0    0    0  0.00000000000E+00  0.00000000000E+00  0.45593999997E+02  0.45594000000E+02  0.51100000000E-03 0. -1.
         11   -1    0    0    0    0 -0.00000000000E+00 -0.00000000000E+00 -0.45593999997E+02  0.45594000000E+02  0.51100000000E-03 0.  1.
    9900012    2    1    2    0    0 -0.28781449149E+02 -0.28385866926E+02 -0.15795369428E+02  0.47787274757E+02  0.20000016928E+02 0.  0.
         12    1    1    2    0    0  0.28781449149E+02  0.28385866926E+02  0.15795369428E+02  0.43400725243E+02  0.00000000000E+00 0. -1.
         11    1    3    3    0    0 -0.25255015167E+02 -0.20971768740E+02 -0.18466916270E+02  0.37665074963E+02  0.51100000000E-03 0. -1.
        -11    1    3    3    0    0 -0.18290282243E+01 -0.65168328920E+01 -0.77477354704E-01  0.67690810447E+01  0.51100000000E-03 0.  1.
         12    1    3    3    0    0 -0.16974057578E+01 -0.89726529356E+00  0.27490241971E+01  0.33531187498E+01  0.00000000000E+00 0. -1.
</event>
<event>
 7    1  0.1631716E-009  0.4778728E+02  0.7816164E-02  0.1312668E+00
        -11   -1    0    0    0    0  0.00000000000E+00  0.00000000000E+00  0.45593999997E+02  0.45594000000E+02  0.51100000000E-03 0.  1.
         11   -1    0    0    0    0 -0.00000000000E+00 -0.00000000000E+00 -0.45593999997E+02  0.45594000000E+02  0.51100000000E-03 0. -1.
    9900012    2    1    2    0    0 -0.17326332555E+02  0.24137162466E+02  0.31635714011E+02  0.47787276358E+02  0.20000024226E+02 0.  0.
         12    1    1    2    0    0  0.17326332555E+02 -0.24137162466E+02 -0.31635714011E+02  0.43400723642E+02  0.00000000000E+00 0. -1.
         11    1    3    3    0    0 -0.10023280296E+01  0.10807795537E+02  0.39186850050E+01  0.11539895939E+02  0.51100000000E-03 0. -1.
        -11    1    3    3    0    0 -0.71943759194E+00  0.22203032325E+01  0.96077982457E+01  0.98872202506E+01  0.51100000000E-03 0.  1.
        -12    1    3    3    0    0 -0.15604566933E+02  0.11109063696E+02  0.18109230760E+02  0.26360160168E+02  0.00000000000E+00 0.  1.
</event>
<event>
 7    1  0.1631716E-009  0.4778727E+02  0.7816164E-02  0.1312668E+00
        -11   -1    0    0    0    0  0.00000000000E+00  0.00000000000E+00  0.45593999997E+02  0.45594000000E+02  0.51100000000E-03 0.  1.
         11   -1    0    0    0    0 -0.00000000000E+00 -0.00000000000E+00 -0.45593999997E+02  0.45594000000E+02  0.51100000000E-03 0. -1.
    9900012    2    1    2    0    0 -0.15829093301E+02 -0.24765080742E+02  0.31933592779E+02  0.47787265367E+02  0.19999974116E+02 0.  0.
         12    1    1    2    0    0  0.15829093301E+02  0.24765080742E+02 -0.31933592779E+02  0.43400734633E+02  0.00000000000E+00 0. -1.
         11    1    3    3    0    0  0.13567140847E+01  0.26715906465E+00  0.46588171781E+01  0.48596939033E+01  0.51100000000E-03 0. -1.
        -11    1    3    3    0    0 -0.13012821064E+02 -0.74554741344E+01  0.10835486614E+02  0.18502037105E+02  0.51100000000E-03 0.  1.
        -12    1    3    3    0    0 -0.41729863220E+01 -0.17576765673E+02  0.16439288986E+02  0.24425534359E+02  0.00000000000E+00 0.  1.
</event>
<event>
 7    1  0.1631716E-009  0.4778727E+02  0.7816164E-02  0.1312668E+00
        -11   -1    0    0    0    0  0.00000000000E+00  0.00000000000E+00  0.45593999997E+02  0.45594000000E+02  0.51100000000E-03 0. -1.
         11   -1    0    0    0    0 -0.00000000000E+00 -0.00000000000E+00 -0.45593999997E+02  0.45594000000E+02  0.51100000000E-03 0.  1.
    9900012    2    1    2    0    0  0.14643202258E+02  0.90848832845E+01  0.39832961513E+02  0.47787270748E+02  0.19999998648E+02 0.  0.
         12    1    1    2    0    0 -0.14643202258E+02 -0.90848832845E+01 -0.39832961513E+02  0.43400729252E+02  0.00000000000E+00 0. -1.
         11    1    3    3    0    0  0.50858191891E+01  0.56175271505E+00  0.32190308149E+01  0.60451040177E+01  0.51100000000E-03 0. -1.
        -11    1    3    3    0    0  0.56331557943E+01 -0.46585023969E+00  0.23837146000E+01  0.61344564718E+01  0.51100000000E-03 0.  1.
         12    1    3    3    0    0  0.39242272750E+01  0.89889808091E+01  0.34230216099E+02  0.35607710258E+02  0.00000000000E+00 0. -1.
</event>
<event>
 7    1  0.1631716E-009  0.4778727E+02  0.7816164E-02  0.1312668E+00
        -11   -1    0    0    0    0  0.00000000000E+00  0.00000000000E+00  0.45593999997E+02  0.45594000000E+02  0.51100000000E-03 0.  1.
         11   -1    0    0    0    0 -0.00000000000E+00 -0.00000000000E+00 -0.45593999997E+02  0.45594000000E+02  0.51100000000E-03 0. -1.
    9900012    2    1    2    0    0 -0.32308037269E+02  0.36802024960E+01  0.28744913394E+02  0.47787271796E+02  0.20000003427E+02 0.  0.
         12    1    1    2    0    0  0.32308037269E+02 -0.36802024960E+01 -0.28744913394E+02  0.43400728204E+02  0.00000000000E+00 0. -1.
         11    1    3    3    0    0 -0.20895737300E+02  0.46842837502E+01  0.14331797886E+02  0.25767708134E+02  0.51100000000E-03 0. -1.
        -11    1    3    3    0    0 -0.94938965346E+01 -0.42807517738E+01  0.14913407075E+02  0.18189794337E+02  0.51100000000E-03 0.  1.
         12    1    3    3    0    0 -0.19184034349E+01  0.32766705196E+01 -0.50029156757E+00  0.38297693254E+01  0.00000000000E+00 0. -1.
</event>
<event>
 7    1  0.1631716E-009  0.4778728E+02  0.7816164E-02  0.1312668E+00
        -11   -1    0    0    0    0  0.00000000000E+00  0.00000000000E+00  0.45593999997E+02  0.45594000000E+02  0.51100000000E-03 0.  1.
         11   -1    0    0    0    0 -0.00000000000E+00 -0.00000000000E+00 -0.45593999997E+02  0.45594000000E+02  0.51100000000E-03 0. -1.
    9900012    2    1    2    0    0  0.42495605190E+02 -0.88170708304E+01  0.72208657118E-01  0.47787280967E+02  0.20000045242E+02 0.  0.
         12    1    1    2    0    0 -0.42495605190E+02  0.88170708304E+01 -0.72208657118E-01  0.43400719033E+02  0.00000000000E+00 0. -1.
         11    1    3    3    0    0  0.16241144226E+02 -0.12046450539E+02  0.22488731440E+01  0.20345740759E+02  0.51100000000E-03 0. -1.
        -11    1    3    3    0    0  0.16880704835E+02  0.14713775645E+01  0.19368897175E+01  0.17055048804E+02  0.51100000000E-03 0.  1.
         12    1    3    3    0    0  0.93737561288E+01  0.17580021441E+01 -0.41135542044E+01  0.10386491404E+02  0.00000000000E+00 0. -1.
</event>
<event>
 7    1  0.1631716E-009  0.4778727E+02  0.7816164E-02  0.1312668E+00
        -11   -1    0    0    0    0  0.00000000000E+00  0.00000000000E+00  0.45593999997E+02  0.45594000000E+02  0.51100000000E-03 0.  1.
         11   -1    0    0    0    0 -0.00000000000E+00 -0.00000000000E+00 -0.45593999997E+02  0.45594000000E+02  0.51100000000E-03 0. -1.
    9900012    2    1    2    0    0 -0.31864511950E+02 -0.26463230498E+02  0.12960468201E+02  0.47787269290E+02  0.19999992000E+02 0.  0.
         12    1    1    2    0    0  0.31864511950E+02  0.26463230498E+02 -0.12960468201E+02  0.43400730710E+02  0.00000000000E+00 0. -1.
         11    1    3    3    0    0 -0.19593210600E+02 -0.10814737713E+02  0.13307837070E+02  0.26037491837E+02  0.51100000000E-03 0. -1.
        -11    1    3    3    0    0  0.92012707519E+00 -0.12800683904E+01 -0.15452743203E+01  0.22075058108E+01  0.51100000000E-03 0.  1.
        -12    1    3    3    0    0 -0.13191428425E+02 -0.14368424394E+02  0.11979054519E+01  0.19542271643E+02  0.00000000000E+00 0.  1.
</event>
<event>
 7    1  0.1672319E-009  0.4778727E+02  0.7816164E-02  0.1312668E+00
        -11   -1    0    0    0    0  0.00000000000E+00  0.00000000000E+00  0.45593999997E+02  0.45594000000E+02  0.51100000000E-03 0.  1.
         11   -1    0    0    0    0 -0.00000000000E+00 -0.00000000000E+00 -0.45593999997E+02  0.45594000000E+02  0.51100000000E-03 0. -1.
    9900012    2    1    2    0    0  0.25002940186E+02  0.81161932908E+01  0.34534093836E+02  0.47787271336E+02  0.20000001331E+02 0.  0.
         12    1    1    2    0    0 -0.25002940186E+02 -0.81161932908E+01 -0.34534093836E+02  0.43400728664E+02  0.00000000000E+00 0. -1.
         11    1    3    3    0    0  0.13939085353E+02  0.93616440207E+01  0.78007798357E+01  0.18514606276E+02  0.51100000000E-03 0. -1.
        -11    1    3    3    0    0  0.54280577657E+01  0.15269956573E+01  0.12184412420E+02  0.13425923921E+02  0.51100000000E-03 0.  1.
         12    1    3    3    0    0  0.56357970671E+01 -0.27724463872E+01  0.14548901580E+02  0.15846741139E+02  0.00000000000E+00 0. -1.
</event>
<event>
 7    1  0.1631716E-009  0.4778727E+02  0.7816164E-02  0.1312668E+00
        -11   -1    0    0    0    0  0.00000000000E+00  0.00000000000E+00  0.45593999997E+02  0.45594000000E+02  0.51100000000E-03 0.  1.
         11   -1    0    0    0    0 -0.00000000000E+00 -0.00000000000E+00 -0.45593999997E+02  0.45594000000E+02  0.51100000000E-03 0. -1.
    9900012    2    1    2    0    0  0.21594847550E+02  0.37633474365E+02  0.10037321357E+01  0.47787270609E+02  0.19999998013E+02 0.  0.
         12    1    1    2    0    0 -0.21594847550E+02 -0.37633474365E+02 -0.10037321357E+01  0.43400729391E+02  0.00000000000E+00 0. -1.
         11    1    3    3    0    0  0.29503560779E+01  0.50102209146E+01 -0.65980986757E+01  0.87944198782E+01  0.51100000000E-03 0. -1.
        -11    1    3    3    0    0  0.42166128538E+01  0.14214507903E+02  0.22117029039E+01  0.14990786800E+02  0.51100000000E-03 0.  1.
        -12    1    3    3    0    0  0.14427878618E+02  0.18408745548E+02  0.53901279076E+01  0.24002063931E+02  0.00000000000E+00 0.  1.
</event>
<event>
 7    1  0.1631716E-009  0.4778727E+02  0.7816164E-02  0.1312668E+00
        -11   -1    0    0    0    0  0.00000000000E+00  0.00000000000E+00  0.45593999997E+02  0.45594000000E+02  0.51100000000E-03 0. -1.
         11   -1    0    0    0    0 -0.00000000000E+00 -0.00000000000E+00 -0.45593999997E+02  0.45594000000E+02  0.51100000000E-03 0.  1.
    9900012    2    1    2    0    0  0.49504226456E+01 -0.30815146966E+02 -0.30158633701E+02  0.47787272430E+02  0.20000006315E+02 0.  0.
         12    1    1    2    0    0 -0.49504226456E+01  0.30815146966E+02  0.30158633701E+02  0.43400727570E+02  0.00000000000E+00 0. -1.
         11    1    3    3    0    0 -0.12560629510E+01 -0.11008833851E+02 -0.91424158817E+01  0.14365092596E+02  0.51100000000E-03 0. -1.
        -11    1    3    3    0    0  0.10643371720E+02 -0.81916990986E+01 -0.92820953484E+01  0.16326132120E+02  0.51100000000E-03 0.  1.
        -12    1    3    3    0    0 -0.44368861233E+01 -0.11614614017E+02 -0.11734122471E+02  0.17096047713E+02  0.00000000000E+00 0.  1.
</event>
<event>
 7    1  0.1631716E-009  0.4778727E+02  0.7816164E-02  0.1312668E+00
        -11   -1    0    0    0    0  0.00000000000E+00  0.00000000000E+00  0.45593999997E+02  0.45594000000E+02  0.51100000000E-03 0.  1.
         11   -1    0    0    0    0 -0.00000000000E+00 -0.00000000000E+00 -0.45593999997E+02  0.45594000000E+02  0.51100000000E-03 0. -1.
    9900012    2    1    2    0    0  0.56740451847E+01 -0.42612446161E+02  0.59672317537E+01  0.47787271764E+02  0.20000003281E+02 0.  0.
         12    1    1    2    0    0 -0.56740451847E+01  0.42612446161E+02 -0.59672317537E+01  0.43400728236E+02  0.00000000000E+00 0. -1.
         11    1    3    3    0    0 -0.42715875868E+01 -0.22877819726E+01  0.30972185186E+01  0.57509277233E+01  0.51100000000E-03 0. -1.
        -11    1    3    3    0    0  0.11924058804E+01 -0.15402329002E+02  0.22734573442E+01  0.15614806403E+02  0.51100000000E-03 0.  1.
         12    1    3    3    0    0  0.87532268910E+01 -0.24922335187E+02  0.59655589100E+00  0.26421537637E+02  0.00000000000E+00 0. -1.
</event>
<event>
 7    1  0.1631716E-009  0.4778727E+02  0.7816164E-02  0.1312668E+00
        -11   -1    0    0    0    0  0.00000000000E+00  0.00000000000E+00  0.45593999997E+02  0.45594000000E+02  0.51100000000E-03 0.  1.
         11   -1    0    0    0    0 -0.00000000000E+00 -0.00000000000E+00 -0.45593999997E+02  0.45594000000E+02  0.51100000000E-03 0. -1.
    9900012    2    1    2    0    0 -0.27461318929E+02 -0.31796490284E+02  0.10884970173E+02  0.47787269506E+02  0.19999992987E+02 0.  0.
         12    1    1    2    0    0  0.27461318929E+02  0.31796490284E+02 -0.10884970173E+02  0.43400730494E+02  0.00000000000E+00 0. -1.
         11    1    3    3    0    0  0.10970350883E+01 -0.30682818285E+01  0.29409799485E+01  0.43894421835E+01  0.51100000000E-03 0. -1.
        -11    1    3    3    0    0 -0.93384799620E+00  0.40852104754E+00 -0.18120275234E+01  0.20790395699E+01  0.51100000000E-03 0.  1.
        -12    1    3    3    0    0 -0.27624506021E+02 -0.29136729503E+02  0.97560177475E+01  0.41318787753E+02  0.00000000000E+00 0.  1.
</event>
<event>
 7    1  0.1631716E-009  0.4778727E+02  0.7816164E-02  0.1312668E+00
        -11   -1    0    0    0    0  0.00000000000E+00  0.00000000000E+00  0.45593999997E+02  0.45594000000E+02  0.51100000000E-03 0. -1.
         11   -1    0    0    0    0 -0.00000000000E+00 -0.00000000000E+00 -0.45593999997E+02  0.45594000000E+02  0.51100000000E-03 0.  1.
    9900012    2    1    2    0    0  0.29739235542E+01 -0.25932876270E+02  0.34673692098E+02  0.47787271704E+02  0.20000003006E+02 0.  0.
         12    1    1    2    0    0 -0.29739235542E+01  0.25932876270E+02 -0.34673692098E+02  0.43400728296E+02  0.00000000000E+00 0. -1.
         11    1    3    3    0    0  0.38813441637E+01 -0.15668780020E+02  0.18666141777E+02  0.24677932428E+02  0.51100000000E-03 0. -1.
        -11    1    3    3    0    0  0.37720043625E+00 -0.15051939161E+01  0.13930074825E+02  0.14016236078E+02  0.51100000000E-03 0.  1.
        -12    1    3    3    0    0 -0.12846210457E+01 -0.87589023337E+01  0.20774754956E+01  0.90931031973E+01  0.00000000000E+00 0.  1.
</event>
<event>
 7    1  0.1631716E-009  0.4778727E+02  0.7816164E-02  0.1312668E+00
        -11   -1    0    0    0    0  0.00000000000E+00  0.00000000000E+00  0.45593999997E+02  0.45594000000E+02  0.51100000000E-03 0. -1.
         11   -1    0    0    0    0 -0.00000000000E+00 -0.00000000000E+00 -0.45593999997E+02  0.45594000000E+02  0.51100000000E-03 0.  1.
    9900012    2    1    2    0    0 -0.60891378230E+01  0.38727980272E+02 -0.18619593954E+02  0.47787270347E+02  0.19999996822E+02 0.  0.
         12    1    1    2    0    0  0.60891378230E+01 -0.38727980272E+02  0.18619593954E+02  0.43400729653E+02  0.00000000000E+00 0. -1.
         11    1    3    3    0    0  0.33884820567E+01  0.24607383911E+00  0.23466742791E+00  0.34055002637E+01  0.51100000000E-03 0. -1.
        -11    1    3    3    0    0 -0.60124231483E+01  0.14952984375E+02 -0.50798642776E+01  0.16898106260E+02  0.51100000000E-03 0.  1.
        -12    1    3    3    0    0 -0.34651967314E+01  0.23528922058E+02 -0.13774397104E+02  0.27483663824E+02  0.00000000000E+00 0.  1.
</event>
<event>
 7    1  0.1631716E-009  0.4778727E+02  0.7816164E-02  0.1312668E+00
        -11   -1    0    0    0    0  0.00000000000E+00  0.00000000000E+00  0.45593999997E+02  0.45594000000E+02  0.51100000000E-03 0.  1.
         11   -1    0    0    0    0 -0.00000000000E+00 -0.00000000000E+00 -0.45593999997E+02  0.45594000000E+02  0.51100000000E-03 0. -1.
    9900012    2    1    2    0    0  0.29391324985E+02 -0.55471229583E+01  0.31448414230E+02  0.47787270569E+02  0.19999997834E+02 0.  0.
         12    1    1    2    0    0 -0.29391324985E+02  0.55471229583E+01 -0.31448414230E+02  0.43400729431E+02  0.00000000000E+00 0. -1.
         11    1    3    3    0    0 -0.14361954381E+00  0.55374895923E+00  0.60174432443E+01  0.60445750837E+01  0.51100000000E-03 0. -1.
        -11    1    3    3    0    0  0.29457880746E+02 -0.49501943408E+01  0.26673955505E+02  0.40047110564E+02  0.51100000000E-03 0.  1.
        -12    1    3    3    0    0  0.77063783366E-01 -0.11506775767E+01 -0.12429845185E+01  0.16955849213E+01  0.00000000000E+00 0.  1.
</event>
<event>
 7    1  0.1631716E-009  0.4778727E+02  0.7816164E-02  0.1312668E+00
        -11   -1    0    0    0    0  0.00000000000E+00  0.00000000000E+00  0.45593999997E+02  0.45594000000E+02  0.51100000000E-03 0.  1.
         11   -1    0    0    0    0 -0.00000000000E+00 -0.00000000000E+00 -0.45593999997E+02  0.45594000000E+02  0.51100000000E-03 0. -1.
    9900012    2    1    2    0    0 -0.23087964626E+02  0.14569631100E+02  0.33738625923E+02  0.47787272585E+02  0.20000007026E+02 0.  0.
         12    1    1    2    0    0  0.23087964626E+02 -0.14569631100E+02 -0.33738625923E+02  0.43400727415E+02  0.00000000000E+00 0. -1.
         11    1    3    3    0    0 -0.66301698058E+01  0.10252622394E+02  0.15823419901E+02  0.19986396254E+02  0.51100000000E-03 0. -1.
        -11    1    3    3    0    0 -0.18116271872E+02  0.20757841587E+01  0.16812576474E+02  0.24802639262E+02  0.51100000000E-03 0.  1.
         12    1    3    3    0    0  0.16584770519E+01  0.22412245469E+01  0.11026295478E+01  0.29982370688E+01  0.00000000000E+00 0. -1.
</event>
<event>
 7    1  0.1631716E-009  0.4778726E+02  0.7816164E-02  0.1312668E+00
        -11   -1    0    0    0    0  0.00000000000E+00  0.00000000000E+00  0.45593999997E+02  0.45594000000E+02  0.51100000000E-03 0.  1.
         11   -1    0    0    0    0 -0.00000000000E+00 -0.00000000000E+00 -0.45593999997E+02  0.45594000000E+02  0.51100000000E-03 0. -1.
    9900012    2    1    2    0    0  0.97020562047E-01 -0.87160056743E+01  0.42516423275E+02  0.47787257886E+02  0.19999940005E+02 0.  0.
         12    1    1    2    0    0 -0.97020562047E-01  0.87160056743E+01 -0.42516423275E+02  0.43400742114E+02  0.00000000000E+00 0. -1.
         11    1    3    3    0    0  0.65114554727E+00  0.18492308453E+01  0.56611241627E+01  0.59909909272E+01  0.51100000000E-03 0. -1.
        -11    1    3    3    0    0 -0.67607124863E+00 -0.55217625100E+01  0.10798214203E+01  0.56668287526E+01  0.51100000000E-03 0.  1.
        -12    1    3    3    0    0  0.12194626340E+00 -0.50434740097E+01  0.35775477692E+02  0.36129438206E+02  0.00000000000E+00 0.  1.
</event>
<event>
 7    1  0.1631716E-009  0.4778729E+02  0.7816164E-02  0.1312668E+00
        -11   -1    0    0    0    0  0.00000000000E+00  0.00000000000E+00  0.45593999997E+02  0.45594000000E+02  0.51100000000E-03 0.  1.
         11   -1    0    0    0    0 -0.00000000000E+00 -0.00000000000E+00 -0.45593999997E+02  0.45594000000E+02  0.51100000000E-03 0. -1.
    9900012    2    1    2    0    0 -0.40708477798E+02  0.15029595432E+02 -0.74367432263E+00  0.47787286239E+02  0.20000069276E+02 0.  0.
         12    1    1    2    0    0  0.40708477798E+02 -0.15029595432E+02  0.74367432263E+00  0.43400713761E+02  0.00000000000E+00 0. -1.
         11    1    3    3    0    0 -0.22704631396E+02  0.19370566335E+01  0.25360616248E+01  0.22927801553E+02  0.51100000000E-03 0. -1.
        -11    1    3    3    0    0 -0.10851747265E+02  0.10153328914E+02  0.26749794576E+01  0.15099868281E+02  0.51100000000E-03 0.  1.
         12    1    3    3    0    0 -0.71520991371E+01  0.29392098851E+01 -0.59547154051E+01  0.97596164049E+01  0.00000000000E+00 0. -1.
</event>
<event>
 7    1  0.1631716E-009  0.4778727E+02  0.7816164E-02  0.1312668E+00
        -11   -1    0    0    0    0  0.00000000000E+00  0.00000000000E+00  0.45593999997E+02  0.45594000000E+02  0.51100000000E-03 0.  1.
         11   -1    0    0    0    0 -0.00000000000E+00 -0.00000000000E+00 -0.45593999997E+02  0.45594000000E+02  0.51100000000E-03 0. -1.
    9900012    2    1    2    0    0 -0.31173085602E+01  0.12691353296E+02  0.41386418909E+02  0.47787265775E+02  0.19999975977E+02 0.  0.
         12    1    1    2    0    0  0.31173085602E+01 -0.12691353296E+02 -0.41386418909E+02  0.43400734225E+02  0.00000000000E+00 0. -1.
         11    1    3    3    0    0 -0.48361089106E+01 -0.25921649321E+00  0.48113028221E+01  0.68266959572E+01  0.51100000000E-03 0. -1.
        -11    1    3    3    0    0 -0.48142842902E+00 -0.25385839995E+01  0.76660441664E+01  0.80897722760E+01  0.51100000000E-03 0.  1.
        -12    1    3    3    0    0  0.22002287794E+01  0.15489153789E+02  0.28909071920E+02  0.32870797542E+02  0.00000000000E+00 0.  1.
</event>
<event>
 7    1  0.1631716E-009  0.4778726E+02  0.7816164E-02  0.1312668E+00
        -11   -1    0    0    0    0  0.00000000000E+00  0.00000000000E+00  0.45593999997E+02  0.45594000000E+02  0.51100000000E-03 0. -1.
         11   -1    0    0    0    0 -0.00000000000E+00 -0.00000000000E+00 -0.45593999997E+02  0.45594000000E+02  0.51100000000E-03 0.  1.
    9900012    2    1    2    0    0 -0.40936465343E+02 -0.65210126648E+01 -0.12857150018E+02  0.47787261441E+02  0.19999956213E+02 0.  0.
         12    1    1    2    0    0  0.40936465343E+02  0.65210126648E+01  0.12857150018E+02  0.43400738559E+02  0.00000000000E+00 0. -1.
         11    1    3    3    0    0 -0.18778337244E+02 -0.49219249825E+01 -0.20859920156E+01  0.19524411851E+02  0.51100000000E-03 0. -1.
        -11    1    3    3    0    0 -0.11636522273E+01 -0.46252198789E+01 -0.31876161851E+01  0.57365183377E+01  0.51100000000E-03 0.  1.
        -12    1    3    3    0    0 -0.20994475871E+02  0.30261321966E+01 -0.75835418170E+01  0.22526331252E+02  0.00000000000E+00 0.  1.
</event>
<event>
 7    1  0.2217285E-009  0.4778727E+02  0.7816164E-02  0.1312668E+00
        -11   -1    0    0    0    0  0.00000000000E+00  0.00000000000E+00  0.45593999997E+02  0.45594000000E+02  0.51100000000E-03 0. -1.
         11   -1    0    0    0    0 -0.00000000000E+00 -0.00000000000E+00 -0.45593999997E+02  0.45594000000E+02  0.51100000000E-03 0.  1.
    9900012    2    1    2    0    0 -0.23512012536E+01  0.11920311980E+02 -0.41665346859E+02  0.47787272887E+02  0.20000008403E+02 0.  0.
         12    1    1    2    0    0  0.23512012536E+01 -0.11920311980E+02  0.41665346859E+02  0.43400727113E+02  0.00000000000E+00 0. -1.
         11    1    3    3    0    0  0.95283456121E+00 -0.32939427792E+01 -0.75138406179E+01  0.82592828881E+01  0.51100000000E-03 0. -1.
        -11    1    3    3    0    0  0.68348272339E+00  0.11308051377E+02 -0.31243450770E+02  0.33233904237E+02  0.51100000000E-03 0.  1.
         12    1    3    3    0    0 -0.39875185382E+01  0.39062033826E+01 -0.29080554708E+01  0.62940857621E+01  0.00000000000E+00 0. -1.
</event>
<event>
 7    1  0.1631716E-009  0.4778727E+02  0.7816164E-02  0.1312668E+00
        -11   -1    0    0    0    0  0.00000000000E+00  0.00000000000E+00  0.45593999997E+02  0.45594000000E+02  0.51100000000E-03 0.  1.
         11   -1    0    0    0    0 -0.00000000000E+00 -0.00000000000E+00 -0.45593999997E+02  0.45594000000E+02  0.51100000000E-03 0. -1.
    9900012    2    1    2    0    0 -0.21163557757E+01 -0.42531359068E+02  0.83802091288E+01  0.47787269925E+02  0.19999994897E+02 0.  0.
         12    1    1    2    0    0  0.21163557757E+01  0.42531359068E+02 -0.83802091288E+01  0.43400730075E+02  0.00000000000E+00 0. -1.
         11    1    3    3    0    0 -0.20193842849E+00 -0.21364373118E+00 -0.21020966796E+00  0.36140163032E+00  0.51100000000E-03 0. -1.
        -11    1    3    3    0    0  0.85283536861E+01 -0.20405512830E+02  0.16385684585E+01  0.22176624570E+02  0.51100000000E-03 0.  1.
         12    1    3    3    0    0 -0.10442771033E+02 -0.21912202507E+02  0.69518503383E+01  0.25249243725E+02  0.00000000000E+00 0. -1.
</event>
<event>
 7    1  0.1631716E-009  0.4778727E+02  0.7816164E-02  0.1312668E+00
        -11   -1    0    0    0    0  0.00000000000E+00  0.00000000000E+00  0.45593999997E+02  0.45594000000E+02  0.51100000000E-03 0. -1.
         11   -1    0    0    0    0 -0.00000000000E+00 -0.00000000000E+00 -0.45593999997E+02  0.45594000000E+02  0.51100000000E-03 0.  1.
    9900012    2    1    2    0    0  0.34178529357E+02 -0.11441351337E+02 -0.24177408605E+02  0.47787268713E+02  0.19999989368E+02 0.  0.
         12    1    1    2    0    0 -0.34178529357E+02  0.11441351337E+02  0.24177408605E+02  0.43400731287E+02  0.00000000000E+00 0. -1.
         11    1    3    3    0    0  0.16743403359E+02 -0.35679880480E+00 -0.81520039055E+01  0.18625896740E+02  0.51100000000E-03 0. -1.
        -11    1    3    3    0    0 -0.97075469249E-01  0.21827902340E+00 -0.60224255429E+01  0.60271617748E+01  0.51100000000E-03 0.  1.
        -12    1    3    3    0    0  0.17532201467E+02 -0.11302831556E+02 -0.10002979157E+02  0.23134210198E+02  0.00000000000E+00 0.  1.
</event>
<event>
 7    1  0.1631716E-009  0.4778727E+02  0.7816164E-02  0.1312668E+00
        -11   -1    0    0    0    0  0.00000000000E+00  0.00000000000E+00  0.45593999997E+02  0.45594000000E+02  0.51100000000E-03 0.  1.
         11   -1    0    0    0    0 -0.00000000000E+00 -0.00000000000E+00 -0.45593999997E+02  0.45594000000E+02  0.51100000000E-03 0. -1.
    9900012    2    1    2    0    0 -0.33718334091E+02  0.23970385489E+02  0.13119369054E+02  0.47787270989E+02  0.19999999745E+02 0.  0.
         12    1    1    2    0    0  0.33718334091E+02 -0.23970385489E+02 -0.13119369054E+02  0.43400729011E+02  0.00000000000E+00 0. -1.
         11    1    3    3    0    0 -0.10793506370E+01  0.26395746827E+01 -0.36692032665E+01  0.46470856647E+01  0.51100000000E-03 0. -1.
        -11    1    3    3    0    0 -0.13233565450E+02  0.43178041338E+01  0.63902817556E+01  0.15316866137E+02  0.51100000000E-03 0.  1.
         12    1    3    3    0    0 -0.19405418004E+02  0.17013006672E+02  0.10398290565E+02  0.27823319187E+02  0.00000000000E+00 0. -1.
</event>
<event>
 7    1  0.1631716E-009  0.4778727E+02  0.7816164E-02  0.1312668E+00
        -11   -1    0    0    0    0  0.00000000000E+00  0.00000000000E+00  0.45593999997E+02  0.45594000000E+02  0.51100000000E-03 0.  1.
         11   -1    0    0    0    0 -0.00000000000E+00 -0.00000000000E+00 -0.45593999997E+02  0.45594000000E+02  0.51100000000E-03 0. -1.
    9900012    2    1    2    0    0  0.25115579122E+02  0.35006694864E+02 -0.52309227848E+01  0.47787267828E+02  0.19999985333E+02 0.  0.
         12    1    1    2    0    0 -0.25115579122E+02 -0.35006694864E+02  0.52309227848E+01  0.43400732172E+02  0.00000000000E+00 0. -1.
         11    1    3    3    0    0  0.12192152554E+01  0.78839277756E+01  0.22185480548E+01  0.82803839731E+01  0.51100000000E-03 0. -1.
        -11    1    3    3    0    0  0.93764964281E+01  0.21078092460E+02 -0.45536855834E+01  0.23514691571E+02  0.51100000000E-03 0.  1.
         12    1    3    3    0    0  0.14519867438E+02  0.60446746281E+01 -0.28957852562E+01  0.15992192283E+02  0.00000000000E+00 0. -1.
</event>
<event>
 7    1  0.1631716E-009  0.4778727E+02  0.7816164E-02  0.1312668E+00
        -11   -1    0    0    0    0  0.00000000000E+00  0.00000000000E+00  0.45593999997E+02  0.45594000000E+02  0.51100000000E-03 0.  1.
         11   -1    0    0    0    0 -0.00000000000E+00 -0.00000000000E+00 -0.45593999997E+02  0.45594000000E+02  0.51100000000E-03 0. -1.
    9900012    2    1    2    0    0  0.32077391134E+00  0.73360241582E+01  0.42775033529E+02  0.47787266829E+02  0.19999980779E+02 0.  0.
         12    1    1    2    0    0 -0.32077391134E+00 -0.73360241582E+01 -0.42775033529E+02  0.43400733171E+02  0.00000000000E+00 0. -1.
         11    1    3    3    0    0 -0.30681722678E+01  0.20820262458E+01  0.31059289736E+02  0.31279833655E+02  0.51100000000E-03 0.  1.
        -11    1    3    3    0    0  0.27517742971E+01 -0.25779794572E+01  0.38756854749E+01  0.54073263287E+01  0.51100000000E-03 0. -1.
         12    1    3    3    0    0  0.63717188208E+00  0.78319773696E+01  0.78400583187E+01  0.11100106845E+02  0.00000000000E+00 0. -1.
</event>
<event>
 7    1  0.1631716E-009  0.4778727E+02  0.7816164E-02  0.1312668E+00
        -11   -1    0    0    0    0  0.00000000000E+00  0.00000000000E+00  0.45593999997E+02  0.45594000000E+02  0.51100000000E-03 0.  1.
         11   -1    0    0    0    0 -0.00000000000E+00 -0.00000000000E+00 -0.45593999997E+02  0.45594000000E+02  0.51100000000E-03 0. -1.
    9900012    2    1    2    0    0  0.90294692624E+01 -0.15465342905E+02  0.39533722734E+02  0.47787269827E+02  0.19999994450E+02 0.  0.
         12    1    1    2    0    0 -0.90294692624E+01  0.15465342905E+02 -0.39533722734E+02  0.43400730173E+02  0.00000000000E+00 0. -1.
         11    1    3    3    0    0  0.79369661994E+01  0.27174434650E+00  0.15797194843E+02  0.17681081489E+02  0.51100000000E-03 0. -1.
        -11    1    3    3    0    0  0.52570733905E+01 -0.10126835072E+02  0.13008504857E+02  0.17303491210E+02  0.51100000000E-03 0.  1.
        -12    1    3    3    0    0 -0.41645703275E+01 -0.56102521793E+01  0.10728023034E+02  0.12802697128E+02  0.00000000000E+00 0.  1.
</event>
<event>
 7    1  0.1631716E-009  0.4778727E+02  0.7816164E-02  0.1312668E+00
        -11   -1    0    0    0    0  0.00000000000E+00  0.00000000000E+00  0.45593999997E+02  0.45594000000E+02  0.51100000000E-03 0.  1.
         11   -1    0    0    0    0 -0.00000000000E+00 -0.00000000000E+00 -0.45593999997E+02  0.45594000000E+02  0.51100000000E-03 0. -1.
    9900012    2    1    2    0    0 -0.24929696551E+02 -0.88869087676E+01  0.34397042723E+02  0.47787268835E+02  0.19999989928E+02 0.  0.
         12    1    1    2    0    0  0.24929696551E+02  0.88869087676E+01 -0.34397042723E+02  0.43400731165E+02  0.00000000000E+00 0. -1.
         11    1    3    3    0    0 -0.10747025401E+02  0.69053582820E+00  0.16630411670E+02  0.19812773337E+02  0.51100000000E-03 0. -1.
        -11    1    3    3    0    0 -0.10135735467E+02 -0.11269185168E+02  0.18061253381E+02  0.23578306592E+02  0.51100000000E-03 0.  1.
        -12    1    3    3    0    0 -0.40469356830E+01  0.16917405721E+01 -0.29462232852E+00  0.43961889066E+01  0.00000000000E+00 0.  1.
</event>
<event>
 7    1  0.1631716E-009  0.4778727E+02  0.7816164E-02  0.1312668E+00
        -11   -1    0    0    0    0  0.00000000000E+00  0.00000000000E+00  0.45593999997E+02  0.45594000000E+02  0.51100000000E-03 0.  1.
         11   -1    0    0    0    0 -0.00000000000E+00 -0.00000000000E+00 -0.45593999997E+02  0.45594000000E+02  0.51100000000E-03 0. -1.
    9900012    2    1    2    0    0 -0.28995811690E+02  0.34172205331E+01  0.32112124716E+02  0.47787273676E+02  0.20000011996E+02 0.  0.
         12    1    1    2    0    0  0.28995811690E+02 -0.34172205331E+01 -0.32112124716E+02  0.43400726324E+02  0.00000000000E+00 0. -1.
         11    1    3    3    0    0 -0.27160212001E+01 -0.59563214618E-01 -0.15581714015E+01  0.31318073558E+01  0.51100000000E-03 0. -1.
        -11    1    3    3    0    0 -0.89840893066E+01  0.64389906953E+01  0.18035310573E+02  0.21152940447E+02  0.51100000000E-03 0.  1.
         12    1    3    3    0    0 -0.17295701183E+02 -0.29622069475E+01  0.15634985545E+02  0.23502525872E+02  0.00000000000E+00 0. -1.
</event>
<event>
 7    1  0.1631716E-009  0.4778727E+02  0.7816164E-02  0.1312668E+00
        -11   -1    0    0    0    0  0.00000000000E+00  0.00000000000E+00  0.45593999997E+02  0.45594000000E+02  0.51100000000E-03 0.  1.
         11   -1    0    0    0    0 -0.00000000000E+00 -0.00000000000E+00 -0.45593999997E+02  0.45594000000E+02  0.51100000000E-03 0. -1.
    9900012    2    1    2    0    0 -0.20413241594E+02 -0.34158534246E+02  0.17323901744E+02  0.47787268833E+02  0.19999989916E+02 0.  0.
         12    1    1    2    0    0  0.20413241594E+02  0.34158534246E+02 -0.17323901744E+02  0.43400731167E+02  0.00000000000E+00 0. -1.
         11    1    3    3    0    0  0.29102053797E+01 -0.43411146186E+01  0.12339581443E+00  0.52277909553E+01  0.51100000000E-03 0. -1.
        -11    1    3    3    0    0 -0.92136577052E+01 -0.11419532214E+02  0.19357801882E+01  0.14800150320E+02  0.51100000000E-03 0.  1.
        -12    1    3    3    0    0 -0.14109789269E+02 -0.18397887413E+02  0.15264725742E+02  0.27759327558E+02  0.00000000000E+00 0.  1.
</event>
<event>
 7    1  0.1631716E-009  0.4778727E+02  0.7816164E-02  0.1312668E+00
        -11   -1    0    0    0    0  0.00000000000E+00  0.00000000000E+00  0.45593999997E+02  0.45594000000E+02  0.51100000000E-03 0. -1.
         11   -1    0    0    0    0 -0.00000000000E+00 -0.00000000000E+00 -0.45593999997E+02  0.45594000000E+02  0.51100000000E-03 0.  1.
    9900012    2    1    2    0    0  0.13824064362E+01  0.22279547753E+02 -0.37220072609E+02  0.47787273040E+02  0.20000009100E+02 0.  0.
         12    1    1    2    0    0 -0.13824064362E+01 -0.22279547753E+02  0.37220072609E+02  0.43400726960E+02  0.00000000000E+00 0. -1.
         11    1    3    3    0    0  0.75268441590E+00  0.86859200002E+01 -0.42475092668E+01  0.96980964788E+01  0.51100000000E-03 0. -1.
        -11    1    3    3    0    0 -0.31294907264E+01  0.15036035059E+01 -0.86881573141E+00  0.35790189641E+01  0.51100000000E-03 0.  1.
        -12    1    3    3    0    0  0.37592127466E+01  0.12090024247E+02 -0.32103747611E+02  0.34510157597E+02  0.00000000000E+00 0.  1.
</event>
<event>
 7    1  0.1631716E-009  0.4778727E+02  0.7816164E-02  0.1312668E+00
        -11   -1    0    0    0    0  0.00000000000E+00  0.00000000000E+00  0.45593999997E+02  0.45594000000E+02  0.51100000000E-03 0.  1.
         11   -1    0    0    0    0 -0.00000000000E+00 -0.00000000000E+00 -0.45593999997E+02  0.45594000000E+02  0.51100000000E-03 0. -1.
    9900012    2    1    2    0    0 -0.55420494539E+01 -0.41130143354E+02  0.12697252874E+02  0.47787271492E+02  0.20000002042E+02 0.  0.
         12    1    1    2    0    0  0.55420494539E+01  0.41130143354E+02 -0.12697252874E+02  0.43400728508E+02  0.00000000000E+00 0. -1.
         11    1    3    3    0    0 -0.58056534716E+01 -0.13195200903E+02  0.69415169119E+01  0.16000112387E+02  0.51100000000E-03 0. -1.
        -11    1    3    3    0    0  0.69722544638E+01 -0.13463445521E+02  0.43558251267E+01  0.15774977350E+02  0.51100000000E-03 0.  1.
        -12    1    3    3    0    0 -0.67086504461E+01 -0.14471496930E+02  0.13999108350E+01  0.16012181755E+02  0.00000000000E+00 0.  1.
</event>
<event>
 7    1  0.1631716E-009  0.4778727E+02  0.7816164E-02  0.1312668E+00
        -11   -1    0    0    0    0  0.00000000000E+00  0.00000000000E+00  0.45593999997E+02  0.45594000000E+02  0.51100000000E-03 0.  1.
         11   -1    0    0    0    0 -0.00000000000E+00 -0.00000000000E+00 -0.45593999997E+02  0.45594000000E+02  0.51100000000E-03 0. -1.
    9900012    2    1    2    0    0  0.33052057861E+02  0.27371076463E+02  0.64814508599E+01  0.47787267738E+02  0.19999984926E+02 0.  0.
         12    1    1    2    0    0 -0.33052057861E+02 -0.27371076463E+02 -0.64814508599E+01  0.43400732262E+02  0.00000000000E+00 0. -1.
         11    1    3    3    0    0  0.10837922377E+02  0.40766447781E+00  0.68602925507E+00  0.10867262220E+02  0.51100000000E-03 0. -1.
        -11    1    3    3    0    0  0.21528964878E+02  0.25859584920E+02  0.29323176229E+01  0.33775922605E+02  0.51100000000E-03 0.  1.
        -12    1    3    3    0    0  0.68517060688E+00  0.11038270656E+01  0.28631039820E+01  0.31440829128E+01  0.00000000000E+00 0.  1.
</event>
<event>
 7    1  0.2380777E-009  0.4778726E+02  0.7816164E-02  0.1312668E+00
        -11   -1    0    0    0    0  0.00000000000E+00  0.00000000000E+00  0.45593999997E+02  0.45594000000E+02  0.51100000000E-03 0. -1.
         11   -1    0    0    0    0 -0.00000000000E+00 -0.00000000000E+00 -0.45593999997E+02  0.45594000000E+02  0.51100000000E-03 0.  1.
    9900012    2    1    2    0    0  0.11426562586E+02 -0.31875683093E+02  0.27147722336E+02  0.47787258840E+02  0.19999944355E+02 0.  0.
         12    1    1    2    0    0 -0.11426562586E+02  0.31875683093E+02 -0.27147722336E+02  0.43400741160E+02  0.00000000000E+00 0. -1.
         11    1    3    3    0    0  0.55100305656E+01 -0.18693548207E+02  0.76152712156E+01  0.20923707543E+02  0.51100000000E-03 0. -1.
        -11    1    3    3    0    0  0.70392459777E+01 -0.14764072149E+02  0.18393683735E+02  0.24614150645E+02  0.51100000000E-03 0.  1.
         12    1    3    3    0    0 -0.11227139572E+01  0.15819372631E+01  0.11387673855E+01  0.22494006518E+01  0.00000000000E+00 0. -1.
</event>
<event>
 7    1  0.1631716E-009  0.4778727E+02  0.7816164E-02  0.1312668E+00
        -11   -1    0    0    0    0  0.00000000000E+00  0.00000000000E+00  0.45593999997E+02  0.45594000000E+02  0.51100000000E-03 0. -1.
         11   -1    0    0    0    0 -0.00000000000E+00 -0.00000000000E+00 -0.45593999997E+02  0.45594000000E+02  0.51100000000E-03 0.  1.
    9900012    2    1    2    0    0  0.25428482566E+02 -0.16791343818E+02  0.30904146217E+02  0.47787271824E+02  0.20000003555E+02 0.  0.
         12    1    1    2    0    0 -0.25428482566E+02  0.16791343818E+02 -0.30904146217E+02  0.43400728176E+02  0.00000000000E+00 0. -1.
         11    1    3    3    0    0  0.99049127697E+01  0.12034160378E+01  0.77315633182E+01  0.12622700929E+02  0.51100000000E-03 0. -1.
        -11    1    3    3    0    0  0.14175044029E+02 -0.16600235991E+02  0.24500091723E+02  0.32813933060E+02  0.51100000000E-03 0.  1.
         12    1    3    3    0    0  0.13485257670E+01 -0.13945238646E+01 -0.13275088243E+01  0.23506378351E+01  0.00000000000E+00 0. -1.
</event>
<event>
 7    1  0.1631716E-009  0.4778728E+02  0.7816164E-02  0.1312668E+00
        -11   -1    0    0    0    0  0.00000000000E+00  0.00000000000E+00  0.45593999997E+02  0.45594000000E+02  0.51100000000E-03 0. -1.
         11   -1    0    0    0    0 -0.00000000000E+00 -0.00000000000E+00 -0.45593999997E+02  0.45594000000E+02  0.51100000000E-03 0.  1.
    9900012    2    1    2    0    0 -0.10906771019E+02  0.25407537241E+02 -0.33453283630E+02  0.47787276638E+02  0.20000025502E+02 0.  0.
         12    1    1    2    0    0  0.10906771019E+02 -0.25407537241E+02  0.33453283630E+02  0.43400723362E+02  0.00000000000E+00 0. -1.
         11    1    3    3    0    0 -0.10086340008E+02  0.57602731784E+01 -0.71826655148E+01  0.13656708462E+02  0.51100000000E-03 0. -1.
        -11    1    3    3    0    0 -0.47982634552E+01  0.13442591203E+02 -0.19134546472E+02  0.23871687402E+02  0.51100000000E-03 0.  1.
        -12    1    3    3    0    0  0.39778324444E+01  0.62046728594E+01 -0.71360716431E+01  0.10258880774E+02  0.00000000000E+00 0.  1.
</event>
<event>
 7    1  0.1631716E-009  0.4778727E+02  0.7816164E-02  0.1312668E+00
        -11   -1    0    0    0    0  0.00000000000E+00  0.00000000000E+00  0.45593999997E+02  0.45594000000E+02  0.51100000000E-03 0.  1.
         11   -1    0    0    0    0 -0.00000000000E+00 -0.00000000000E+00 -0.45593999997E+02  0.45594000000E+02  0.51100000000E-03 0. -1.
    9900012    2    1    2    0    0 -0.21524695073E+02  0.37524334541E+02  0.34978999829E+01  0.47787268612E+02  0.19999988912E+02 0.  0.
         12    1    1    2    0    0  0.21524695073E+02 -0.37524334541E+02 -0.34978999829E+01  0.43400731388E+02  0.00000000000E+00 0. -1.
         11    1    3    3    0    0 -0.71925012517E+00  0.12718874399E+02  0.27554603159E+01  0.13033788725E+02  0.51100000000E-03 0. -1.
        -11    1    3    3    0    0 -0.16787982078E+02  0.25632299367E+02  0.80705196392E+00  0.30651304152E+02  0.51100000000E-03 0.  1.
         12    1    3    3    0    0 -0.40174628699E+01 -0.82683922534E+00 -0.64612296938E-01  0.41021757354E+01  0.00000000000E+00 0. -1.
</event>
<event>
 7    1  0.1931364E-009  0.4778727E+02  0.7816164E-02  0.1312668E+00
        -11   -1    0    0    0    0  0.00000000000E+00  0.00000000000E+00  0.45593999997E+02  0.45594000000E+02  0.51100000000E-03 0. -1.
         11   -1    0    0    0    0 -0.00000000000E+00 -0.00000000000E+00 -0.45593999997E+02  0.45594000000E+02  0.51100000000E-03 0.  1.
    9900012    2    1    2    0    0 -0.14937894355E+02 -0.40173966416E+02 -0.68216539803E+01  0.47787271569E+02  0.20000002390E+02 0.  0.
         12    1    1    2    0    0  0.14937894355E+02  0.40173966416E+02  0.68216539803E+01  0.43400728431E+02  0.00000000000E+00 0. -1.
         11    1    3    3    0    0 -0.56803953363E+01 -0.14548652786E+02  0.63801829230E+01  0.16871186190E+02  0.51100000000E-03 0. -1.
        -11    1    3    3    0    0 -0.55329688352E+01 -0.15249086728E+02 -0.43972678422E+01  0.16807270894E+02  0.51100000000E-03 0.  1.
         12    1    3    3    0    0 -0.37245301839E+01 -0.10376226901E+02 -0.88045690611E+01  0.14108814484E+02  0.00000000000E+00 0. -1.
</event>
<event>
 7    1  0.1631716E-009  0.4778727E+02  0.7816164E-02  0.1312668E+00
        -11   -1    0    0    0    0  0.00000000000E+00  0.00000000000E+00  0.45593999997E+02  0.45594000000E+02  0.51100000000E-03 0.  1.
         11   -1    0    0    0    0 -0.00000000000E+00 -0.00000000000E+00 -0.45593999997E+02  0.45594000000E+02  0.51100000000E-03 0. -1.
    9900012    2    1    2    0    0 -0.23366987874E+02 -0.27631482205E+01  0.36468783902E+02  0.47787270632E+02  0.19999998120E+02 0.  0.
         12    1    1    2    0    0  0.23366987874E+02  0.27631482205E+01 -0.36468783902E+02  0.43400729368E+02  0.00000000000E+00 0. -1.
         11    1    3    3    0    0 -0.63578961874E+01  0.12865650372E+01  0.54112657506E+00  0.65092942595E+01  0.51100000000E-03 0. -1.
        -11    1    3    3    0    0 -0.92985767724E+00 -0.39258973785E-02  0.12730970616E+02  0.12764884010E+02  0.51100000000E-03 0.  1.
         12    1    3    3    0    0 -0.16079234009E+02 -0.40457873603E+01  0.23196686711E+02  0.28513092362E+02  0.00000000000E+00 0. -1.
</event>
<event>
 7    1  0.2216953E-009  0.4778727E+02  0.7816164E-02  0.1312668E+00
        -11   -1    0    0    0    0  0.00000000000E+00  0.00000000000E+00  0.45593999997E+02  0.45594000000E+02  0.51100000000E-03 0.  1.
         11   -1    0    0    0    0 -0.00000000000E+00 -0.00000000000E+00 -0.45593999997E+02  0.45594000000E+02  0.51100000000E-03 0. -1.
    9900012    2    1    2    0    0 -0.11181945495E+02  0.30352735466E+02  0.28936119518E+02  0.47787268807E+02  0.19999989799E+02 0.  0.
         12    1    1    2    0    0  0.11181945495E+02 -0.30352735466E+02 -0.28936119518E+02  0.43400731193E+02  0.00000000000E+00 0. -1.
         11    1    3    3    0    0 -0.51976678149E+01  0.96072277712E+01  0.17301945387E+02  0.20461473325E+02  0.51100000000E-03 0. -1.
        -11    1    3    3    0    0 -0.87096505676E+01  0.19192427202E+02  0.11854340804E+02  0.24181246268E+02  0.51100000000E-03 0.  1.
         12    1    3    3    0    0  0.27253728879E+01  0.15530804930E+01 -0.22016667432E+00  0.31445492141E+01  0.00000000000E+00 0. -1.
</event>
<event>
 7    1  0.1631716E-009  0.4778727E+02  0.7816164E-02  0.1312668E+00
        -11   -1    0    0    0    0  0.00000000000E+00  0.00000000000E+00  0.45593999997E+02  0.45594000000E+02  0.51100000000E-03 0.  1.
         11   -1    0    0    0    0 -0.00000000000E+00 -0.00000000000E+00 -0.45593999997E+02  0.45594000000E+02  0.51100000000E-03 0. -1.
    9900012    2    1    2    0    0 -0.29639961117E+02 -0.31683148690E+02  0.11287640944E+01  0.47787270579E+02  0.19999997876E+02 0.  0.
         12    1    1    2    0    0  0.29639961117E+02  0.31683148690E+02 -0.11287640944E+01  0.43400729421E+02  0.00000000000E+00 0. -1.
         11    1    3    3    0    0  0.10170622224E+00 -0.50129230519E+01 -0.27504307317E+01  0.57187945540E+01  0.51100000000E-03 0. -1.
        -11    1    3    3    0    0 -0.47391023392E+01 -0.11589581346E+02  0.29052198486E+01  0.12853707223E+02  0.51100000000E-03 0.  1.
         12    1    3    3    0    0 -0.25002565000E+02 -0.15080644292E+02  0.97397497757E+00  0.29214768801E+02  0.00000000000E+00 0. -1.
</event>
<event>
 7    1  0.1631716E-009  0.4778727E+02  0.7816164E-02  0.1312668E+00
        -11   -1    0    0    0    0  0.00000000000E+00  0.00000000000E+00  0.45593999997E+02  0.45594000000E+02  0.51100000000E-03 0.  1.
         11   -1    0    0    0    0 -0.00000000000E+00 -0.00000000000E+00 -0.45593999997E+02  0.45594000000E+02  0.51100000000E-03 0. -1.
    9900012    2    1    2    0    0  0.40352970426E+02  0.10410612127E+02  0.12119408345E+02  0.47787272751E+02  0.20000007783E+02 0.  0.
         12    1    1    2    0    0 -0.40352970426E+02 -0.10410612127E+02 -0.12119408345E+02  0.43400727249E+02  0.00000000000E+00 0. -1.
         11    1    3    3    0    0  0.12280367402E+02  0.58100609959E+01  0.13151022391E+01  0.13648945984E+02  0.51100000000E-03 0. -1.
        -11    1    3    3    0    0  0.23927253901E+02 -0.64182037161E-01  0.29527539331E+01  0.24108843909E+02  0.51100000000E-03 0.  1.
         12    1    3    3    0    0  0.41453491224E+01  0.46647331686E+01  0.78515521727E+01  0.10029482858E+02  0.00000000000E+00 0. -1.
</event>
<event>
 7    1  0.1631716E-009  0.4778727E+02  0.7816164E-02  0.1312668E+00
        -11   -1    0    0    0    0  0.00000000000E+00  0.00000000000E+00  0.45593999997E+02  0.45594000000E+02  0.51100000000E-03 0.  1.
         11   -1    0    0    0    0 -0.00000000000E+00 -0.00000000000E+00 -0.45593999997E+02  0.45594000000E+02  0.51100000000E-03 0. -1.
    9900012    2    1    2    0    0  0.34837344061E+02  0.21124639516E+02  0.14957681210E+02  0.47787272320E+02  0.20000005818E+02 0.  0.
         12    1    1    2    0    0 -0.34837344061E+02 -0.21124639516E+02 -0.14957681210E+02  0.43400727680E+02  0.00000000000E+00 0. -1.
         11    1    3    3    0    0  0.62332182181E+01  0.49685406089E+01  0.32987327544E+01  0.86267631927E+01  0.51100000000E-03 0. -1.
        -11    1    3    3    0    0  0.15143364020E+02  0.15487774014E+02  0.13551923541E+02  0.25550875712E+02  0.51100000000E-03 0.  1.
         12    1    3    3    0    0  0.13460761824E+02  0.66832489281E+00 -0.18929750849E+01  0.13609633416E+02  0.00000000000E+00 0. -1.
</event>
<event>
 7    1  0.1631716E-009  0.4778727E+02  0.7816164E-02  0.1312668E+00
        -11   -1    0    0    0    0  0.00000000000E+00  0.00000000000E+00  0.45593999997E+02  0.45594000000E+02  0.51100000000E-03 0.  1.
         11   -1    0    0    0    0 -0.00000000000E+00 -0.00000000000E+00 -0.45593999997E+02  0.45594000000E+02  0.51100000000E-03 0. -1.
    9900012    2    1    2    0    0  0.85085030437E+01  0.38129827646E+02 -0.18903559643E+02  0.47787274804E+02  0.20000017141E+02 0.  0.
         12    1    1    2    0    0 -0.85085030437E+01 -0.38129827646E+02  0.18903559643E+02  0.43400725196E+02  0.00000000000E+00 0. -1.
         11    1    3    3    0    0 -0.55338510649E+01  0.91956024948E+01 -0.91784682309E+01  0.14121858666E+02  0.51100000000E-03 0. -1.
        -11    1    3    3    0    0  0.48720220536E+01  0.12269791342E+02 -0.43413632974E+01  0.13897187269E+02  0.51100000000E-03 0.  1.
         12    1    3    3    0    0  0.91703320549E+01  0.16664433810E+02 -0.53837281148E+01  0.19768228869E+02  0.00000000000E+00 0. -1.
</event>
<event>
 7    1  0.1631716E-009  0.4778727E+02  0.7816164E-02  0.1312668E+00
        -11   -1    0    0    0    0  0.00000000000E+00  0.00000000000E+00  0.45593999997E+02  0.45594000000E+02  0.51100000000E-03 0.  1.
         11   -1    0    0    0    0 -0.00000000000E+00 -0.00000000000E+00 -0.45593999997E+02  0.45594000000E+02  0.51100000000E-03 0. -1.
    9900012    2    1    2    0    0 -0.10141366306E+02  0.67464426217E+01  0.41656468921E+02  0.47787271878E+02  0.20000003799E+02 0.  0.
         12    1    1    2    0    0  0.10141366306E+02 -0.67464426217E+01 -0.41656468921E+02  0.43400728122E+02  0.00000000000E+00 0. -1.
         11    1    3    3    0    0 -0.13916015562E+01 -0.16418111359E+01  0.23851103078E+02  0.23948010711E+02  0.51100000000E-03 0. -1.
        -11    1    3    3    0    0 -0.53840406577E+01  0.84298703322E+01  0.17862934291E+02  0.20472787533E+02  0.51100000000E-03 0.  1.
        -12    1    3    3    0    0 -0.33657240921E+01 -0.41616574609E-01 -0.57568448373E-01  0.33664736342E+01  0.00000000000E+00 0.  1.
</event>
<event>
 7    1  0.1631716E-009  0.4778728E+02  0.7816164E-02  0.1312668E+00
        -11   -1    0    0    0    0  0.00000000000E+00  0.00000000000E+00  0.45593999997E+02  0.45594000000E+02  0.51100000000E-03 0. -1.
         11   -1    0    0    0    0 -0.00000000000E+00 -0.00000000000E+00 -0.45593999997E+02  0.45594000000E+02  0.51100000000E-03 0.  1.
    9900012    2    1    2    0    0 -0.18775086515E+02  0.38807086729E+02 -0.50128830980E+01  0.47787275916E+02  0.20000022211E+02 0.  0.
         12    1    1    2    0    0  0.18775086515E+02 -0.38807086729E+02  0.50128830980E+01  0.43400724084E+02  0.00000000000E+00 0. -1.
         11    1    3    3    0    0 -0.21840053620E+01 -0.13791986900E+01  0.31160020697E+00  0.26017615951E+01  0.51100000000E-03 0. -1.
        -11    1    3    3    0    0 -0.51741986784E+01  0.22683299235E+02  0.11897872659E+01  0.23296351434E+02  0.51100000000E-03 0.  1.
        -12    1    3    3    0    0 -0.11416882475E+02  0.17502986185E+02 -0.65142705709E+01  0.21889162887E+02  0.00000000000E+00 0.  1.
</event>
<event>
 7    1  0.1631716E-009  0.4778727E+02  0.7816164E-02  0.1312668E+00
        -11   -1    0    0    0    0  0.00000000000E+00  0.00000000000E+00  0.45593999997E+02  0.45594000000E+02  0.51100000000E-03 0. -1.
         11   -1    0    0    0    0 -0.00000000000E+00 -0.00000000000E+00 -0.45593999997E+02  0.45594000000E+02  0.51100000000E-03 0.  1.
    9900012    2    1    2    0    0  0.28810396543E+02  0.31557667872E+02 -0.75959213768E+01  0.47787269913E+02  0.19999994843E+02 0.  0.
         12    1    1    2    0    0 -0.28810396543E+02 -0.31557667872E+02  0.75959213768E+01  0.43400730087E+02  0.00000000000E+00 0. -1.
         11    1    3    3    0    0  0.82407011569E+01  0.33480525011E+01  0.20204824037E+01  0.91214560523E+01  0.51100000000E-03 0. -1.
        -11    1    3    3    0    0  0.21720942906E+02  0.21822775827E+02 -0.93179163860E+01  0.32169185124E+02  0.51100000000E-03 0.  1.
         12    1    3    3    0    0 -0.11512475203E+01  0.63868395444E+01 -0.29848739461E+00  0.64966287368E+01  0.00000000000E+00 0. -1.
</event>
<event>
 7    1  0.1631716E-009  0.4778726E+02  0.7816164E-02  0.1312668E+00
        -11   -1    0    0    0    0  0.00000000000E+00  0.00000000000E+00  0.45593999997E+02  0.45594000000E+02  0.51100000000E-03 0.  1.
         11   -1    0    0    0    0 -0.00000000000E+00 -0.00000000000E+00 -0.45593999997E+02  0.45594000000E+02  0.51100000000E-03 0. -1.
    9900012    2    1    2    0    0 -0.36970762544E+02 -0.57874344099E+01  0.21983911666E+02  0.47787262077E+02  0.19999959112E+02 0.  0.
         12    1    1    2    0    0  0.36970762544E+02  0.57874344099E+01 -0.21983911666E+02  0.43400737923E+02  0.00000000000E+00 0. -1.
         11    1    3    3    0    0 -0.26163564688E+01 -0.37906838698E+01  0.69759160621E+01  0.83593068216E+01  0.51100000000E-03 0. -1.
        -11    1    3    3    0    0 -0.16235895251E+02 -0.41200527193E+01  0.16782673950E+01  0.16834361013E+02  0.51100000000E-03 0.  1.
         12    1    3    3    0    0 -0.18118510824E+02  0.21233021791E+01  0.13329728209E+02  0.22593594242E+02  0.00000000000E+00 0. -1.
</event>
<event>
 7    1  0.1631716E-009  0.4778730E+02  0.7816164E-02  0.1312668E+00
        -11   -1    0    0    0    0  0.00000000000E+00  0.00000000000E+00  0.45593999997E+02  0.45594000000E+02  0.51100000000E-03 0. -1.
         11   -1    0    0    0    0 -0.00000000000E+00 -0.00000000000E+00 -0.45593999997E+02  0.45594000000E+02  0.51100000000E-03 0.  1.
    9900012    2    1    2    0    0 -0.33998331276E+02  0.24556400470E+00 -0.26975425494E+02  0.47787304017E+02  0.20000150334E+02 0.  0.
         12    1    1    2    0    0  0.33998331276E+02 -0.24556400470E+00  0.26975425494E+02  0.43400695983E+02  0.00000000000E+00 0. -1.
         11    1    3    3    0    0 -0.22819941521E+02  0.49217633309E-01 -0.19647151256E+02  0.30112500828E+02  0.51100000000E-03 0. -1.
        -11    1    3    3    0    0 -0.11030094703E+02 -0.12488546378E+01 -0.95896953402E+00  0.11141914104E+02  0.51100000000E-03 0.  1.
         12    1    3    3    0    0 -0.14829505197E+00  0.14452010092E+01 -0.63693047043E+01  0.65328890849E+01  0.00000000000E+00 0. -1.
</event>
<event>
 7    1  0.3183048E-009  0.4778727E+02  0.7816164E-02  0.1312668E+00
        -11   -1    0    0    0    0  0.00000000000E+00  0.00000000000E+00  0.45593999997E+02  0.45594000000E+02  0.51100000000E-03 0. -1.
         11   -1    0    0    0    0 -0.00000000000E+00 -0.00000000000E+00 -0.45593999997E+02  0.45594000000E+02  0.51100000000E-03 0.  1.
    9900012    2    1    2    0    0  0.34703743902E+02 -0.12219168721E+02 -0.23020979975E+02  0.47787269084E+02  0.19999991060E+02 0.  0.
         12    1    1    2    0    0 -0.34703743902E+02  0.12219168721E+02  0.23020979975E+02  0.43400730916E+02  0.00000000000E+00 0. -1.
         11    1    3    3    0    0 -0.95336580965E+00  0.11784481654E+01 -0.13123534679E+01  0.20049733991E+01  0.51100000000E-03 0. -1.
        -11    1    3    3    0    0  0.16813764055E+02 -0.10494472224E+02 -0.17076779453E+02  0.26162052780E+02  0.51100000000E-03 0.  1.
         12    1    3    3    0    0  0.18843345657E+02 -0.29031446623E+01 -0.46318470545E+01  0.19620242904E+02  0.00000000000E+00 0. -1.
</event>
<event>
 7    1  0.1631716E-009  0.4778726E+02  0.7816164E-02  0.1312668E+00
        -11   -1    0    0    0    0  0.00000000000E+00  0.00000000000E+00  0.45593999997E+02  0.45594000000E+02  0.51100000000E-03 0. -1.
         11   -1    0    0    0    0 -0.00000000000E+00 -0.00000000000E+00 -0.45593999997E+02  0.45594000000E+02  0.51100000000E-03 0.  1.
    9900012    2    1    2    0    0 -0.27573653762E+02  0.37671834983E+01  0.33303539786E+02  0.47787264804E+02  0.19999971545E+02 0.  0.
         12    1    1    2    0    0  0.27573653762E+02 -0.37671834983E+01 -0.33303539786E+02  0.43400735196E+02  0.00000000000E+00 0. -1.
         11    1    3    3    0    0 -0.28298465740E+01 -0.52972799880E+01  0.28304703172E+01  0.66393350105E+01  0.51100000000E-03 0. -1.
        -11    1    3    3    0    0 -0.13874601984E+02  0.16747240433E+01  0.19699727367E+02  0.24153437425E+02  0.51100000000E-03 0.  1.
        -12    1    3    3    0    0 -0.10869205205E+02  0.73897394430E+01  0.10773342102E+02  0.16994492368E+02  0.00000000000E+00 0.  1.
</event>
<event>
 7    1  0.1631716E-009  0.4778727E+02  0.7816164E-02  0.1312668E+00
        -11   -1    0    0    0    0  0.00000000000E+00  0.00000000000E+00  0.45593999997E+02  0.45594000000E+02  0.51100000000E-03 0.  1.
         11   -1    0    0    0    0 -0.00000000000E+00 -0.00000000000E+00 -0.45593999997E+02  0.45594000000E+02  0.51100000000E-03 0. -1.
    9900012    2    1    2    0    0 -0.42022209819E+02  0.29986294327E+01  0.10429080976E+02  0.47787266981E+02  0.19999981473E+02 0.  0.
         12    1    1    2    0    0  0.42022209819E+02 -0.29986294327E+01 -0.10429080976E+02  0.43400733019E+02  0.00000000000E+00 0. -1.
         11    1    3    3    0    0 -0.28155463087E+02  0.34470411501E+01  0.28998633882E+00  0.28367169169E+02  0.51100000000E-03 0. -1.
        -11    1    3    3    0    0 -0.41661519988E+01  0.41033275258E+01  0.36256817754E+01  0.68803842814E+01  0.51100000000E-03 0.  1.
         12    1    3    3    0    0 -0.97005947340E+01 -0.45517392432E+01  0.65134128618E+01  0.12539713531E+02  0.00000000000E+00 0. -1.
</event>
<event>
 7    1  0.1631716E-009  0.4778727E+02  0.7816164E-02  0.1312668E+00
        -11   -1    0    0    0    0  0.00000000000E+00  0.00000000000E+00  0.45593999997E+02  0.45594000000E+02  0.51100000000E-03 0.  1.
         11   -1    0    0    0    0 -0.00000000000E+00 -0.00000000000E+00 -0.45593999997E+02  0.45594000000E+02  0.51100000000E-03 0. -1.
    9900012    2    1    2    0    0  0.17425787707E+02  0.17832664713E+02  0.35524093735E+02  0.47787271393E+02  0.20000001589E+02 0.  0.
         12    1    1    2    0    0 -0.17425787707E+02 -0.17832664713E+02 -0.35524093735E+02  0.43400728607E+02  0.00000000000E+00 0. -1.
         11    1    3    3    0    0  0.51357681003E+01  0.15245652170E+01  0.12796056756E+01  0.55079764003E+01  0.51100000000E-03 0. -1.
        -11    1    3    3    0    0 -0.44832946446E+00 -0.13218780416E+01 -0.32812809279E+00  0.14338860387E+01  0.51100000000E-03 0.  1.
        -12    1    3    3    0    0  0.12738349071E+02  0.17629977537E+02  0.34572616152E+02  0.40845408954E+02  0.00000000000E+00 0.  1.
</event>
<event>
 7    1  0.1631716E-009  0.4778727E+02  0.7816164E-02  0.1312668E+00
        -11   -1    0    0    0    0  0.00000000000E+00  0.00000000000E+00  0.45593999997E+02  0.45594000000E+02  0.51100000000E-03 0.  1.
         11   -1    0    0    0    0 -0.00000000000E+00 -0.00000000000E+00 -0.45593999997E+02  0.45594000000E+02  0.51100000000E-03 0. -1.
    9900012    2    1    2    0    0 -0.15980621597E+02  0.30037648521E+01  0.40239537579E+02  0.47787271268E+02  0.20000001018E+02 0.  0.
         12    1    1    2    0    0  0.15980621597E+02 -0.30037648521E+01 -0.40239537579E+02  0.43400728732E+02  0.00000000000E+00 0. -1.
         11    1    3    3    0    0 -0.55543598454E+01 -0.27510920040E+01  0.50328448930E+01  0.79842938626E+01  0.51100000000E-03 0. -1.
        -11    1    3    3    0    0  0.14273158185E+01  0.38338436221E+01  0.20064273108E+02  0.20477076036E+02  0.51100000000E-03 0.  1.
        -12    1    3    3    0    0 -0.11853577570E+02  0.19210132341E+01  0.15142419578E+02  0.19325901369E+02  0.00000000000E+00 0.  1.
</event>
<event>
 7    1  0.1631716E-009  0.4778727E+02  0.7816164E-02  0.1312668E+00
        -11   -1    0    0    0    0  0.00000000000E+00  0.00000000000E+00  0.45593999997E+02  0.45594000000E+02  0.51100000000E-03 0.  1.
         11   -1    0    0    0    0 -0.00000000000E+00 -0.00000000000E+00 -0.45593999997E+02  0.45594000000E+02  0.51100000000E-03 0. -1.
    9900012    2    1    2    0    0  0.99380049466E+01 -0.40478220537E+02 -0.12098481636E+02  0.47787268001E+02  0.19999986123E+02 0.  0.
         12    1    1    2    0    0 -0.99380049466E+01  0.40478220537E+02  0.12098481636E+02  0.43400731999E+02  0.00000000000E+00 0. -1.
         11    1    3    3    0    0  0.25792772322E+01 -0.47051006126E+01  0.28069216673E+01  0.60555307217E+01  0.51100000000E-03 0. -1.
        -11    1    3    3    0    0  0.56086546919E+01 -0.74544009539E+01  0.69209077624E+00  0.93543621342E+01  0.51100000000E-03 0.  1.
        -12    1    3    3    0    0  0.17500730226E+01 -0.28318718971E+02 -0.15597494079E+02  0.32377375145E+02  0.00000000000E+00 0.  1.
</event>
<event>
 7    1  0.1631716E-009  0.4778728E+02  0.7816164E-02  0.1312668E+00
        -11   -1    0    0    0    0  0.00000000000E+00  0.00000000000E+00  0.45593999997E+02  0.45594000000E+02  0.51100000000E-03 0. -1.
         11   -1    0    0    0    0 -0.00000000000E+00 -0.00000000000E+00 -0.45593999997E+02  0.45594000000E+02  0.51100000000E-03 0.  1.
    9900012    2    1    2    0    0 -0.34989490275E+01  0.41183465168E+02  0.13240179780E+02  0.47787276410E+02  0.20000024462E+02 0.  0.
         12    1    1    2    0    0  0.34989490275E+01 -0.41183465168E+02 -0.13240179780E+02  0.43400723590E+02  0.00000000000E+00 0. -1.
         11    1    3    3    0    0 -0.48472727595E+01  0.24111295752E+02  0.61224126540E+01  0.25344320330E+02  0.51100000000E-03 0. -1.
        -11    1    3    3    0    0 -0.49155259312E+01  0.12326395548E+02  0.31482939649E+01  0.13638701461E+02  0.51100000000E-03 0.  1.
         12    1    3    3    0    0  0.62638496632E+01  0.47457738688E+01  0.39694731610E+01  0.88042546188E+01  0.00000000000E+00 0. -1.
</event>
<event>
 7    1  0.1631716E-009  0.4778727E+02  0.7816164E-02  0.1312668E+00
        -11   -1    0    0    0    0  0.00000000000E+00  0.00000000000E+00  0.45593999997E+02  0.45594000000E+02  0.51100000000E-03 0. -1.
         11   -1    0    0    0    0 -0.00000000000E+00 -0.00000000000E+00 -0.45593999997E+02  0.45594000000E+02  0.51100000000E-03 0.  1.
    9900012    2    1    2    0    0 -0.38966562203E+02  0.52903919940E+01 -0.18364149072E+02  0.47787272028E+02  0.20000004484E+02 0.  0.
         12    1    1    2    0    0  0.38966562203E+02 -0.52903919940E+01  0.18364149072E+02  0.43400727972E+02  0.00000000000E+00 0. -1.
         11    1    3    3    0    0 -0.37206550275E+01  0.45888911999E+00  0.38577622440E+01  0.53792362702E+01  0.51100000000E-03 0. -1.
        -11    1    3    3    0    0 -0.16612849994E+02  0.22768462052E+01 -0.68323292929E+01  0.18106671074E+02  0.51100000000E-03 0.  1.
        -12    1    3    3    0    0 -0.18633057182E+02  0.25546566688E+01 -0.15389582023E+02  0.24301364684E+02  0.00000000000E+00 0.  1.
</event>
<event>
 7    1  0.1634897E-009  0.4778728E+02  0.7816164E-02  0.1312668E+00
        -11   -1    0    0    0    0  0.00000000000E+00  0.00000000000E+00  0.45593999997E+02  0.45594000000E+02  0.51100000000E-03 0. -1.
         11   -1    0    0    0    0 -0.00000000000E+00 -0.00000000000E+00 -0.45593999997E+02  0.45594000000E+02  0.51100000000E-03 0.  1.
    9900012    2    1    2    0    0 -0.93876649159E+01  0.36792190519E+02 -0.21019729593E+02  0.47787279178E+02  0.20000037084E+02 0.  0.
         12    1    1    2    0    0  0.93876649159E+01 -0.36792190519E+02  0.21019729593E+02  0.43400720822E+02  0.00000000000E+00 0. -1.
         11    1    3    3    0    0 -0.12281726254E+02  0.27071723825E+02 -0.20565420372E+02  0.36147690742E+02  0.51100000000E-03 0. -1.
        -11    1    3    3    0    0  0.17876277642E+01  0.81786564987E+01 -0.26085034037E+01  0.87687128710E+01  0.51100000000E-03 0.  1.
         12    1    3    3    0    0  0.11064335736E+01  0.15418101954E+01  0.21541941835E+01  0.28708755653E+01  0.00000000000E+00 0. -1.
</event>
<event>
 7    1  0.1631716E-009  0.4778727E+02  0.7816164E-02  0.1312668E+00
        -11   -1    0    0    0    0  0.00000000000E+00  0.00000000000E+00  0.45593999997E+02  0.45594000000E+02  0.51100000000E-03 0.  1.
         11   -1    0    0    0    0 -0.00000000000E+00 -0.00000000000E+00 -0.45593999997E+02  0.45594000000E+02  0.51100000000E-03 0. -1.
    9900012    2    1    2    0    0  0.29208277661E+02 -0.28808732410E+02  0.14161806232E+02  0.47787270712E+02  0.19999998483E+02 0.  0.
         12    1    1    2    0    0 -0.29208277661E+02  0.28808732410E+02 -0.14161806232E+02  0.43400729288E+02  0.00000000000E+00 0. -1.
         11    1    3    3    0    0  0.22306621611E+01  0.10431668790E+01  0.28695621582E+01  0.37813275520E+01  0.51100000000E-03 0. -1.
        -11    1    3    3    0    0  0.23359783438E+01 -0.45674740761E+01 -0.29702464396E+01  0.59279826612E+01  0.51100000000E-03 0.  1.
        -12    1    3    3    0    0  0.24641637157E+02 -0.25284425213E+02  0.14262490513E+02  0.38077960499E+02  0.00000000000E+00 0.  1.
</event>
<event>
 7    1  0.1631716E-009  0.4778727E+02  0.7816164E-02  0.1312668E+00
        -11   -1    0    0    0    0  0.00000000000E+00  0.00000000000E+00  0.45593999997E+02  0.45594000000E+02  0.51100000000E-03 0.  1.
         11   -1    0    0    0    0 -0.00000000000E+00 -0.00000000000E+00 -0.45593999997E+02  0.45594000000E+02  0.51100000000E-03 0. -1.
    9900012    2    1    2    0    0  0.16152306156E+02  0.26369057956E+02  0.30453230905E+02  0.47787268621E+02  0.19999988952E+02 0.  0.
         12    1    1    2    0    0 -0.16152306156E+02 -0.26369057956E+02 -0.30453230905E+02  0.43400731379E+02  0.00000000000E+00 0. -1.
         11    1    3    3    0    0 -0.99285598145E+00  0.94738823229E+01  0.74866743620E+01  0.12115713043E+02  0.51100000000E-03 0. -1.
        -11    1    3    3    0    0  0.94078683614E+01  0.79030816399E+01  0.19952049421E+02  0.23431836523E+02  0.51100000000E-03 0.  1.
         12    1    3    3    0    0  0.77372937763E+01  0.89920939935E+01  0.30145071220E+01  0.12239719055E+02  0.00000000000E+00 0. -1.
</event>
<event>
 7    1  0.1631716E-009  0.4778727E+02  0.7816164E-02  0.1312668E+00
        -11   -1    0    0    0    0  0.00000000000E+00  0.00000000000E+00  0.45593999997E+02  0.45594000000E+02  0.51100000000E-03 0.  1.
         11   -1    0    0    0    0 -0.00000000000E+00 -0.00000000000E+00 -0.45593999997E+02  0.45594000000E+02  0.51100000000E-03 0. -1.
    9900012    2    1    2    0    0  0.40907029102E+02 -0.14347276900E+02  0.20961473442E+01  0.47787271687E+02  0.20000002930E+02 0.  0.
         12    1    1    2    0    0 -0.40907029102E+02  0.14347276900E+02 -0.20961473442E+01  0.43400728313E+02  0.00000000000E+00 0. -1.
         11    1    3    3    0    0  0.39730092132E+01 -0.49690064019E+01 -0.86047033541E+00  0.64199872499E+01  0.51100000000E-03 0. -1.
        -11    1    3    3    0    0  0.76261271376E+01 -0.89867694661E+01 -0.81774944924E+00  0.11814760047E+02  0.51100000000E-03 0.  1.
        -12    1    3    3    0    0  0.29307892751E+02 -0.39150103208E+00  0.37743671288E+01  0.29552524390E+02  0.00000000000E+00 0.  1.
</event>
<event>
 7    1  0.1631716E-009  0.4778726E+02  0.7816164E-02  0.1312668E+00
        -11   -1    0    0    0    0  0.00000000000E+00  0.00000000000E+00  0.45593999997E+02  0.45594000000E+02  0.51100000000E-03 0. -1.
         11   -1    0    0    0    0 -0.00000000000E+00 -0.00000000000E+00 -0.45593999997E+02  0.45594000000E+02  0.51100000000E-03 0.  1.
    9900012    2    1    2    0    0 -0.12786865425E+02 -0.90756992407E+01 -0.40469145700E+02  0.47787262705E+02  0.19999961976E+02 0.  0.
         12    1    1    2    0    0  0.12786865425E+02  0.90756992407E+01  0.40469145700E+02  0.43400737295E+02  0.00000000000E+00 0. -1.
         11    1    3    3    0    0  0.19594520117E+01 -0.39420525331E+01 -0.10805977995E+02  0.11668264269E+02  0.51100000000E-03 0. -1.
        -11    1    3    3    0    0 -0.70596613329E+01  0.40647218667E+01 -0.15915323421E+02  0.17878990515E+02  0.51100000000E-03 0.  1.
         12    1    3    3    0    0 -0.76866561041E+01 -0.91983685744E+01 -0.13747844284E+02  0.18240007921E+02  0.00000000000E+00 0. -1.
</event>
<event>
 7    1  0.1631716E-009  0.4778727E+02  0.7816164E-02  0.1312668E+00
        -11   -1    0    0    0    0  0.00000000000E+00  0.00000000000E+00  0.45593999997E+02  0.45594000000E+02  0.51100000000E-03 0. -1.
         11   -1    0    0    0    0 -0.00000000000E+00 -0.00000000000E+00 -0.45593999997E+02  0.45594000000E+02  0.51100000000E-03 0.  1.
    9900012    2    1    2    0    0 -0.99770480863E+01 -0.33019121242E+02 -0.26340457117E+02  0.47787268010E+02  0.19999986165E+02 0.  0.
         12    1    1    2    0    0  0.99770480863E+01  0.33019121242E+02  0.26340457117E+02  0.43400731990E+02  0.00000000000E+00 0. -1.
         11    1    3    3    0    0 -0.32152563815E+01  0.46262963189E+00 -0.43037862189E+01  0.53920752827E+01  0.51100000000E-03 0. -1.
        -11    1    3    3    0    0 -0.39927831759E+01 -0.19779097126E+02 -0.19740210972E+02  0.28228193886E+02  0.51100000000E-03 0.  1.
        -12    1    3    3    0    0 -0.27690085289E+01 -0.13702653748E+02 -0.22964599264E+01  0.14166998841E+02  0.00000000000E+00 0.  1.
</event>
<event>
 7    1  0.1631716E-009  0.4778727E+02  0.7816164E-02  0.1312668E+00
        -11   -1    0    0    0    0  0.00000000000E+00  0.00000000000E+00  0.45593999997E+02  0.45594000000E+02  0.51100000000E-03 0. -1.
         11   -1    0    0    0    0 -0.00000000000E+00 -0.00000000000E+00 -0.45593999997E+02  0.45594000000E+02  0.51100000000E-03 0.  1.
    9900012    2    1    2    0    0 -0.20294365266E+01 -0.24533914478E+02 -0.35743417658E+02  0.47787268692E+02  0.19999989274E+02 0.  0.
         12    1    1    2    0    0  0.20294365266E+01  0.24533914478E+02  0.35743417658E+02  0.43400731308E+02  0.00000000000E+00 0. -1.
         11    1    3    3    0    0 -0.24926287009E+01 -0.58182837299E+01 -0.19956032882E+01  0.66368709606E+01  0.51100000000E-03 0. -1.
        -11    1    3    3    0    0  0.14974336191E+01 -0.20981866798E+02 -0.29625947204E+02  0.36334250918E+02  0.51100000000E-03 0.  1.
         12    1    3    3    0    0 -0.10342414448E+01  0.22662360499E+01 -0.41218671653E+01  0.48161468134E+01  0.00000000000E+00 0. -1.
</event>
<event>
 7    1  0.1631716E-009  0.4778728E+02  0.7816164E-02  0.1312668E+00
        -11   -1    0    0    0    0  0.00000000000E+00  0.00000000000E+00  0.45593999997E+02  0.45594000000E+02  0.51100000000E-03 0.  1.
         11   -1    0    0    0    0 -0.00000000000E+00 -0.00000000000E+00 -0.45593999997E+02  0.45594000000E+02  0.51100000000E-03 0. -1.
    9900012    2    1    2    0    0  0.14144165404E+02  0.40000578283E+02  0.91388580609E+01  0.47787281059E+02  0.20000045658E+02 0.  0.
         12    1    1    2    0    0 -0.14144165404E+02 -0.40000578283E+02 -0.91388580609E+01  0.43400718941E+02  0.00000000000E+00 0. -1.
         11    1    3    3    0    0 -0.27156848383E+00  0.23650743577E+01  0.33490650729E+01  0.41089613386E+01  0.51100000000E-03 0. -1.
        -11    1    3    3    0    0  0.50187946387E+01  0.20052405390E+02  0.10511729783E+02  0.23190164399E+02  0.51100000000E-03 0.  1.
         12    1    3    3    0    0  0.93969392492E+01  0.17583098536E+02 -0.47219367951E+01  0.20488155321E+02  0.00000000000E+00 0. -1.
</event>
<event>
 7    1  0.1631716E-009  0.4778727E+02  0.7816164E-02  0.1312668E+00
        -11   -1    0    0    0    0  0.00000000000E+00  0.00000000000E+00  0.45593999997E+02  0.45594000000E+02  0.51100000000E-03 0. -1.
         11   -1    0    0    0    0 -0.00000000000E+00 -0.00000000000E+00 -0.45593999997E+02  0.45594000000E+02  0.51100000000E-03 0.  1.
    9900012    2    1    2    0    0 -0.12006473837E+02  0.41248409836E+02  0.61673786141E+01  0.47787270894E+02  0.19999999314E+02 0.  0.
         12    1    1    2    0    0  0.12006473837E+02 -0.41248409836E+02 -0.61673786141E+01  0.43400729106E+02  0.00000000000E+00 0. -1.
         11    1    3    3    0    0 -0.23099250364E+00  0.20673129198E+02  0.36475498858E+01  0.20993719271E+02  0.51100000000E-03 0. -1.
        -11    1    3    3    0    0 -0.95921801090E+01  0.19434556001E+02 -0.18767173112E+01  0.21753941122E+02  0.51100000000E-03 0.  1.
         12    1    3    3    0    0 -0.21833012239E+01  0.11407246367E+01  0.43965460395E+01  0.50396105016E+01  0.00000000000E+00 0. -1.
</event>
<event>
 7    1  0.1631716E-009  0.4778727E+02  0.7816164E-02  0.1312668E+00
        -11   -1    0    0    0    0  0.00000000000E+00  0.00000000000E+00  0.45593999997E+02  0.45594000000E+02  0.51100000000E-03 0.  1.
         11   -1    0    0    0    0 -0.00000000000E+00 -0.00000000000E+00 -0.45593999997E+02  0.45594000000E+02  0.51100000000E-03 0. -1.
    9900012    2    1    2    0    0 -0.29871121759E+02  0.26883089764E+02  0.16390202897E+02  0.47787272110E+02  0.20000004856E+02 0.  0.
         12    1    1    2    0    0  0.29871121759E+02 -0.26883089764E+02 -0.16390202897E+02  0.43400727890E+02  0.00000000000E+00 0. -1.
         11    1    3    3    0    0 -0.24205887666E+02  0.25133541335E+02  0.20298050224E+02  0.40368685152E+02  0.51100000000E-03 0.  1.
        -11    1    3    3    0    0 -0.28060139834E+00  0.23049502758E+00 -0.11006818266E+01  0.11590366030E+01  0.51100000000E-03 0. -1.
         12    1    3    3    0    0 -0.53846326949E+01  0.15190534015E+01 -0.28071655005E+01  0.62595503547E+01  0.00000000000E+00 0. -1.
</event>
<event>
 7    1  0.1631716E-009  0.4778726E+02  0.7816164E-02  0.1312668E+00
        -11   -1    0    0    0    0  0.00000000000E+00  0.00000000000E+00  0.45593999997E+02  0.45594000000E+02  0.51100000000E-03 0. -1.
         11   -1    0    0    0    0 -0.00000000000E+00 -0.00000000000E+00 -0.45593999997E+02  0.45594000000E+02  0.51100000000E-03 0.  1.
    9900012    2    1    2    0    0  0.36888766474E+02  0.18808017762E+01  0.22788278560E+02  0.47787260986E+02  0.19999954138E+02 0.  0.
         12    1    1    2    0    0 -0.36888766474E+02 -0.18808017762E+01 -0.22788278560E+02  0.43400739014E+02  0.00000000000E+00 0. -1.
         11    1    3    3    0    0  0.19124983620E+02  0.26340783740E+01  0.10407425432E+02  0.21932119636E+02  0.51100000000E-03 0. -1.
        -11    1    3    3    0    0  0.21341531121E+01 -0.54581193017E+01  0.97156718188E+00  0.59405066170E+01  0.51100000000E-03 0.  1.
         12    1    3    3    0    0  0.15629629742E+02  0.47048427039E+01  0.11409285946E+02  0.19914634733E+02  0.00000000000E+00 0. -1.
</event>
<event>
 7    1  0.1631716E-009  0.4778727E+02  0.7816164E-02  0.1312668E+00
        -11   -1    0    0    0    0  0.00000000000E+00  0.00000000000E+00  0.45593999997E+02  0.45594000000E+02  0.51100000000E-03 0.  1.
         11   -1    0    0    0    0 -0.00000000000E+00 -0.00000000000E+00 -0.45593999997E+02  0.45594000000E+02  0.51100000000E-03 0. -1.
    9900012    2    1    2    0    0 -0.22094038106E+02 -0.21971781764E+02  0.30211215302E+02  0.47787271392E+02  0.20000001585E+02 0.  0.
         12    1    1    2    0    0  0.22094038106E+02  0.21971781764E+02 -0.30211215302E+02  0.43400728608E+02  0.00000000000E+00 0. -1.
         11    1    3    3    0    0 -0.59059332373E+01 -0.26469479808E+01 -0.17017620357E+01  0.66919634865E+01  0.51100000000E-03 0. -1.
        -11    1    3    3    0    0 -0.86837779666E+01 -0.10712288781E+02  0.12722638697E+02  0.18762373687E+02  0.51100000000E-03 0.  1.
        -12    1    3    3    0    0 -0.75043269016E+01 -0.86125450018E+01  0.19190338641E+02  0.22332934218E+02  0.00000000000E+00 0.  1.
</event>
<event>
 7    1  0.1631716E-009  0.4778727E+02  0.7816164E-02  0.1312668E+00
        -11   -1    0    0    0    0  0.00000000000E+00  0.00000000000E+00  0.45593999997E+02  0.45594000000E+02  0.51100000000E-03 0. -1.
         11   -1    0    0    0    0 -0.00000000000E+00 -0.00000000000E+00 -0.45593999997E+02  0.45594000000E+02  0.51100000000E-03 0.  1.
    9900012    2    1    2    0    0 -0.54657288775E+00 -0.27073836077E+02 -0.33916542352E+02  0.47787272046E+02  0.20000004566E+02 0.  0.
         12    1    1    2    0    0  0.54657288775E+00  0.27073836077E+02  0.33916542352E+02  0.43400727954E+02  0.00000000000E+00 0. -1.
         11    1    3    3    0    0  0.41708786187E+01 -0.10654189421E+02 -0.18858806229E+02  0.22058162964E+02  0.51100000000E-03 0. -1.
        -11    1    3    3    0    0  0.15637585060E+01 -0.12571665184E+02 -0.12836813754E+02  0.18035406671E+02  0.51100000000E-03 0.  1.
         12    1    3    3    0    0 -0.62812100124E+01 -0.38479814711E+01 -0.22209223682E+01  0.76937024109E+01  0.00000000000E+00 0. -1.
</event>
<event>
 7    1  0.1631716E-009  0.4778727E+02  0.7816164E-02  0.1312668E+00
        -11   -1    0    0    0    0  0.00000000000E+00  0.00000000000E+00  0.45593999997E+02  0.45594000000E+02  0.51100000000E-03 0. -1.
         11   -1    0    0    0    0 -0.00000000000E+00 -0.00000000000E+00 -0.45593999997E+02  0.45594000000E+02  0.51100000000E-03 0.  1.
    9900012    2    1    2    0    0 -0.42867122724E+01 -0.29961564994E+00 -0.43187470717E+02  0.47787270760E+02  0.19999998703E+02 0.  0.
         12    1    1    2    0    0  0.42867122724E+01  0.29961564994E+00  0.43187470717E+02  0.43400729240E+02  0.00000000000E+00 0. -1.
         11    1    3    3    0    0  0.77469289458E+00 -0.65587776273E+01 -0.91640639752E+01  0.11295918814E+02  0.51100000000E-03 0. -1.
        -11    1    3    3    0    0 -0.61313913643E+01  0.16210305752E+01 -0.89446619780E+01  0.10964883873E+02  0.51100000000E-03 0.  1.
        -12    1    3    3    0    0  0.10699861973E+01  0.46381314022E+01 -0.25078744764E+02  0.25526468073E+02  0.00000000000E+00 0.  1.
</event>
<event>
 7    1  0.1631716E-009  0.4778727E+02  0.7816164E-02  0.1312668E+00
        -11   -1    0    0    0    0  0.00000000000E+00  0.00000000000E+00  0.45593999997E+02  0.45594000000E+02  0.51100000000E-03 0.  1.
         11   -1    0    0    0    0 -0.00000000000E+00 -0.00000000000E+00 -0.45593999997E+02  0.45594000000E+02  0.51100000000E-03 0. -1.
    9900012    2    1    2    0    0 -0.21371311812E+02 -0.24891708236E+01  0.37692095497E+02  0.47787274166E+02  0.20000014232E+02 0.  0.
         12    1    1    2    0    0  0.21371311812E+02  0.24891708236E+01 -0.37692095497E+02  0.43400725834E+02  0.00000000000E+00 0. -1.
         11    1    3    3    0    0  0.13228335414E+01 -0.19504384439E+01  0.96922639567E+00  0.25482344415E+01  0.51100000000E-03 0. -1.
        -11    1    3    3    0    0 -0.29952411741E+00 -0.28604247052E+01  0.94260906656E+01  0.98550966351E+01  0.51100000000E-03 0.  1.
        -12    1    3    3    0    0 -0.22394621236E+02  0.23216923255E+01  0.27296778436E+02  0.35383943089E+02  0.00000000000E+00 0.  1.
</event>
<event>
 7    1  0.1631716E-009  0.4778727E+02  0.7816164E-02  0.1312668E+00
        -11   -1    0    0    0    0  0.00000000000E+00  0.00000000000E+00  0.45593999997E+02  0.45594000000E+02  0.51100000000E-03 0. -1.
         11   -1    0    0    0    0 -0.00000000000E+00 -0.00000000000E+00 -0.45593999997E+02  0.45594000000E+02  0.51100000000E-03 0.  1.
    9900012    2    1    2    0    0 -0.22056220308E+02  0.30810424071E+02  0.21162798988E+02  0.47787272509E+02  0.20000006677E+02 0.  0.
         12    1    1    2    0    0  0.22056220308E+02 -0.30810424071E+02 -0.21162798988E+02  0.43400727491E+02  0.00000000000E+00 0. -1.
         11    1    3    3    0    0 -0.10526717816E+02  0.14989118159E+02  0.19902388354E+02  0.27047929932E+02  0.51100000000E-03 0. -1.
        -11    1    3    3    0    0 -0.55836175691E+01  0.25914308182E+01 -0.21851691826E+00  0.61595493949E+01  0.51100000000E-03 0.  1.
        -12    1    3    3    0    0 -0.59458849227E+01  0.13229875094E+02  0.14789275528E+01  0.14579793182E+02  0.00000000000E+00 0.  1.
</event>
<event>
 7    1  0.1631716E-009  0.4778726E+02  0.7816164E-02  0.1312668E+00
        -11   -1    0    0    0    0  0.00000000000E+00  0.00000000000E+00  0.45593999997E+02  0.45594000000E+02  0.51100000000E-03 0.  1.
         11   -1    0    0    0    0 -0.00000000000E+00 -0.00000000000E+00 -0.45593999997E+02  0.45594000000E+02  0.51100000000E-03 0. -1.
    9900012    2    1    2    0    0  0.32224339096E+02  0.14617501259E+02  0.25130550930E+02  0.47787263102E+02  0.19999963789E+02 0.  0.
         12    1    1    2    0    0 -0.32224339096E+02 -0.14617501259E+02 -0.25130550930E+02  0.43400736898E+02  0.00000000000E+00 0. -1.
         11    1    3    3    0    0  0.22695448553E+01  0.52830497060E+01  0.11942359599E+01  0.58726184820E+01  0.51100000000E-03 0. -1.
        -11    1    3    3    0    0  0.15977407772E+02  0.36497182449E+01  0.20837815034E+02  0.26510611800E+02  0.51100000000E-03 0.  1.
        -12    1    3    3    0    0  0.13977386469E+02  0.56847333082E+01  0.30984999361E+01  0.15404032820E+02  0.00000000000E+00 0.  1.
</event>
<event>
 7    1  0.1631716E-009  0.4778727E+02  0.7816164E-02  0.1312668E+00
        -11   -1    0    0    0    0  0.00000000000E+00  0.00000000000E+00  0.45593999997E+02  0.45594000000E+02  0.51100000000E-03 0. -1.
         11   -1    0    0    0    0 -0.00000000000E+00 -0.00000000000E+00 -0.45593999997E+02  0.45594000000E+02  0.51100000000E-03 0.  1.
    9900012    2    1    2    0    0  0.20911480769E+02 -0.24531259235E+02 -0.29061152429E+02  0.47787270881E+02  0.19999999255E+02 0.  0.
         12    1    1    2    0    0 -0.20911480769E+02  0.24531259235E+02  0.29061152429E+02  0.43400729119E+02  0.00000000000E+00 0. -1.
         11    1    3    3    0    0 -0.11897828434E+01  0.47631406679E+00 -0.10189500790E+01  0.16372897817E+01  0.51100000000E-03 0. -1.
        -11    1    3    3    0    0  0.22888268224E+02 -0.16919376190E+02 -0.20654239240E+02  0.35167253401E+02  0.51100000000E-03 0.  1.
        -12    1    3    3    0    0 -0.78700461240E+00 -0.80881971118E+01 -0.73879631098E+01  0.10982727698E+02  0.00000000000E+00 0.  1.
</event>
<event>
 7    1  0.1631716E-009  0.4778727E+02  0.7816164E-02  0.1312668E+00
        -11   -1    0    0    0    0  0.00000000000E+00  0.00000000000E+00  0.45593999997E+02  0.45594000000E+02  0.51100000000E-03 0.  1.
         11   -1    0    0    0    0 -0.00000000000E+00 -0.00000000000E+00 -0.45593999997E+02  0.45594000000E+02  0.51100000000E-03 0. -1.
    9900012    2    1    2    0    0 -0.10551018772E+01  0.10326560806E+02  0.42141098439E+02  0.47787271024E+02  0.19999999906E+02 0.  0.
         12    1    1    2    0    0  0.10551018772E+01 -0.10326560806E+02 -0.42141098439E+02  0.43400728976E+02  0.00000000000E+00 0. -1.
         11    1    3    3    0    0  0.12690827202E+01 -0.15920348076E+01  0.10994140028E+02  0.11181067078E+02  0.51100000000E-03 0. -1.
        -11    1    3    3    0    0 -0.40546979829E+01  0.83755553682E+01  0.58230980050E+01  0.10977202471E+02  0.51100000000E-03 0.  1.
        -12    1    3    3    0    0  0.17305133855E+01  0.35430402457E+01  0.25323860406E+02  0.25629001475E+02  0.00000000000E+00 0.  1.
</event>
<event>
 7    1  0.1631716E-009  0.4778727E+02  0.7816164E-02  0.1312668E+00
        -11   -1    0    0    0    0  0.00000000000E+00  0.00000000000E+00  0.45593999997E+02  0.45594000000E+02  0.51100000000E-03 0.  1.
         11   -1    0    0    0    0 -0.00000000000E+00 -0.00000000000E+00 -0.45593999997E+02  0.45594000000E+02  0.51100000000E-03 0. -1.
    9900012    2    1    2    0    0 -0.26803148444E+02 -0.26715377056E+02  0.21248606056E+02  0.47787269625E+02  0.19999993529E+02 0.  0.
         12    1    1    2    0    0  0.26803148444E+02  0.26715377056E+02 -0.21248606056E+02  0.43400730375E+02  0.00000000000E+00 0. -1.
         11    1    3    3    0    0 -0.20940518000E+01  0.88533077670E+00  0.34367279825E+01  0.41206750675E+01  0.51100000000E-03 0. -1.
        -11    1    3    3    0    0 -0.12195412177E+02 -0.22091670866E+02  0.15987958877E+02  0.29872810868E+02  0.51100000000E-03 0.  1.
        -12    1    3    3    0    0 -0.12513684468E+02 -0.55090369659E+01  0.18239191957E+01  0.13793783690E+02  0.00000000000E+00 0.  1.
</event>
<event>
 7    1  0.1631716E-009  0.4778726E+02  0.7816164E-02  0.1312668E+00
        -11   -1    0    0    0    0  0.00000000000E+00  0.00000000000E+00  0.45593999997E+02  0.45594000000E+02  0.51100000000E-03 0.  1.
         11   -1    0    0    0    0 -0.00000000000E+00 -0.00000000000E+00 -0.45593999997E+02  0.45594000000E+02  0.51100000000E-03 0. -1.
    9900012    2    1    2    0    0  0.21500460992E+02 -0.22648815310E+02  0.30139439976E+02  0.47787256921E+02  0.19999935603E+02 0.  0.
         12    1    1    2    0    0 -0.21500460992E+02  0.22648815310E+02 -0.30139439976E+02  0.43400743079E+02  0.00000000000E+00 0. -1.
         11    1    3    3    0    0  0.10214779602E+01 -0.24907476288E+00 -0.63269691520E+00  0.12270945800E+01  0.51100000000E-03 0. -1.
        -11    1    3    3    0    0  0.20879840188E+02 -0.17566679519E+02  0.17465981634E+02  0.32397784959E+02  0.51100000000E-03 0.  1.
        -12    1    3    3    0    0 -0.40085715587E+00 -0.48330610281E+01  0.13306155257E+02  0.14162377381E+02  0.00000000000E+00 0.  1.
</event>
<event>
 7    1  0.1631716E-009  0.4778727E+02  0.7816164E-02  0.1312668E+00
        -11   -1    0    0    0    0  0.00000000000E+00  0.00000000000E+00  0.45593999997E+02  0.45594000000E+02  0.51100000000E-03 0.  1.
         11   -1    0    0    0    0 -0.00000000000E+00 -0.00000000000E+00 -0.45593999997E+02  0.45594000000E+02  0.51100000000E-03 0. -1.
    9900012    2    1    2    0    0 -0.36326815194E+02  0.17679320683E+02  0.15856462576E+02  0.47787270889E+02  0.19999999290E+02 0.  0.
         12    1    1    2    0    0  0.36326815194E+02 -0.17679320683E+02 -0.15856462576E+02  0.43400729111E+02  0.00000000000E+00 0. -1.
         11    1    3    3    0    0 -0.15630938393E+02  0.75381591440E+01  0.98174264867E+01  0.19938203063E+02  0.51100000000E-03 0. -1.
        -11    1    3    3    0    0 -0.18928522858E+02  0.83172558527E+01 -0.65895302089E+00  0.20685742478E+02  0.51100000000E-03 0.  1.
         12    1    3    3    0    0 -0.17673539432E+01  0.18239056862E+01  0.66979891102E+01  0.71633253474E+01  0.00000000000E+00 0. -1.
</event>
<event>
 7    1  0.1631716E-009  0.4778727E+02  0.7816164E-02  0.1312668E+00
        -11   -1    0    0    0    0  0.00000000000E+00  0.00000000000E+00  0.45593999997E+02  0.45594000000E+02  0.51100000000E-03 0.  1.
         11   -1    0    0    0    0 -0.00000000000E+00 -0.00000000000E+00 -0.45593999997E+02  0.45594000000E+02  0.51100000000E-03 0. -1.
    9900012    2    1    2    0    0  0.12860640659E+02 -0.37301760071E+02  0.18077776541E+02  0.47787269738E+02  0.19999994043E+02 0.  0.
         12    1    1    2    0    0 -0.12860640659E+02  0.37301760071E+02 -0.18077776541E+02  0.43400730262E+02  0.00000000000E+00 0. -1.
         11    1    3    3    0    0  0.68749450875E+01 -0.25001689674E+02  0.12575395778E+02  0.28818222286E+02  0.51100000000E-03 0. -1.
        -11    1    3    3    0    0 -0.33707098857E+01 -0.57805149857E+01  0.27719843800E+01  0.72429231874E+01  0.51100000000E-03 0.  1.
         12    1    3    3    0    0  0.93564054575E+01 -0.65195554116E+01  0.27303963833E+01  0.11726124264E+02  0.00000000000E+00 0. -1.
</event>
<event>
 7    1  0.1631716E-009  0.4778728E+02  0.7816164E-02  0.1312668E+00
        -11   -1    0    0    0    0  0.00000000000E+00  0.00000000000E+00  0.45593999997E+02  0.45594000000E+02  0.51100000000E-03 0.  1.
         11   -1    0    0    0    0 -0.00000000000E+00 -0.00000000000E+00 -0.45593999997E+02  0.45594000000E+02  0.51100000000E-03 0. -1.
    9900012    2    1    2    0    0  0.24488133731E+02  0.35295601253E+02  0.61785722126E+01  0.47787275167E+02  0.20000018797E+02 0.  0.
         12    1    1    2    0    0 -0.24488133731E+02 -0.35295601253E+02 -0.61785722126E+01  0.43400724833E+02  0.00000000000E+00 0. -1.
         11    1    3    3    0    0  0.75691766346E+01  0.13461964975E+02 -0.37883313531E+01  0.15901836077E+02  0.51100000000E-03 0. -1.
        -11    1    3    3    0    0  0.14776847218E+02  0.91958279720E+01  0.47043147559E+01  0.18029116545E+02  0.51100000000E-03 0.  1.
        -12    1    3    3    0    0  0.21421098782E+01  0.12637808305E+02  0.52625888099E+01  0.13856322545E+02  0.00000000000E+00 0.  1.
</event>
<event>
 7    1  0.1631716E-009  0.4778729E+02  0.7816164E-02  0.1312668E+00
        -11   -1    0    0    0    0  0.00000000000E+00  0.00000000000E+00  0.45593999997E+02  0.45594000000E+02  0.51100000000E-03 0.  1.
         11   -1    0    0    0    0 -0.00000000000E+00 -0.00000000000E+00 -0.45593999997E+02  0.45594000000E+02  0.51100000000E-03 0. -1.
    9900012    2    1    2    0    0 -0.33935433949E+02  0.21352441912E+02  0.16615699426E+02  0.47787286638E+02  0.20000071098E+02 0.  0.
         12    1    1    2    0    0  0.33935433949E+02 -0.21352441912E+02 -0.16615699426E+02  0.43400713362E+02  0.00000000000E+00 0. -1.
         11    1    3    3    0    0  0.74009299046E+00  0.43562469233E+01 -0.16180776833E+01  0.47056137263E+01  0.51100000000E-03 0. -1.
        -11    1    3    3    0    0 -0.16372891887E+02  0.54045064220E+01  0.63661160741E+01  0.18379546037E+02  0.51100000000E-03 0.  1.
         12    1    3    3    0    0 -0.18302635052E+02  0.11591688567E+02  0.11867661035E+02  0.24702126874E+02  0.00000000000E+00 0. -1.
</event>
<event>
 7    1  0.1631716E-009  0.4778727E+02  0.7816164E-02  0.1312668E+00
        -11   -1    0    0    0    0  0.00000000000E+00  0.00000000000E+00  0.45593999997E+02  0.45594000000E+02  0.51100000000E-03 0.  1.
         11   -1    0    0    0    0 -0.00000000000E+00 -0.00000000000E+00 -0.45593999997E+02  0.45594000000E+02  0.51100000000E-03 0. -1.
    9900012    2    1    2    0    0  0.28231778885E+02  0.15800567577E+02  0.28929785823E+02  0.47787265184E+02  0.19999973281E+02 0.  0.
         12    1    1    2    0    0 -0.28231778885E+02 -0.15800567577E+02 -0.28929785823E+02  0.43400734816E+02  0.00000000000E+00 0. -1.
         11    1    3    3    0    0  0.95207940166E+01  0.25845544732E+01  0.91205163502E+01  0.13435373433E+02  0.51100000000E-03 0. -1.
        -11    1    3    3    0    0  0.11928493162E+02 -0.13301524549E+01  0.89918903765E+01  0.14997077964E+02  0.51100000000E-03 0.  1.
         12    1    3    3    0    0  0.67824917070E+01  0.14546165558E+02  0.10817379096E+02  0.19354813787E+02  0.00000000000E+00 0. -1.
</event>
<event>
 7    1  0.1631716E-009  0.4778727E+02  0.7816164E-02  0.1312668E+00
        -11   -1    0    0    0    0  0.00000000000E+00  0.00000000000E+00  0.45593999997E+02  0.45594000000E+02  0.51100000000E-03 0. -1.
         11   -1    0    0    0    0 -0.00000000000E+00 -0.00000000000E+00 -0.45593999997E+02  0.45594000000E+02  0.51100000000E-03 0.  1.
    9900012    2    1    2    0    0 -0.37480349405E+01 -0.75659823942E+01 -0.42571486350E+02  0.47787270679E+02  0.19999998335E+02 0.  0.
         12    1    1    2    0    0  0.37480349405E+01  0.75659823942E+01  0.42571486350E+02  0.43400729321E+02  0.00000000000E+00 0. -1.
         11    1    3    3    0    0 -0.96188906288E+01 -0.10101296930E+01 -0.15212100572E+02  0.18026409044E+02  0.51100000000E-03 0. -1.
        -11    1    3    3    0    0 -0.26328037242E+00 -0.47399347556E+01 -0.16376289374E+02  0.17050488320E+02  0.51100000000E-03 0.  1.
         12    1    3    3    0    0  0.61341360608E+01 -0.18159179457E+01 -0.10983096404E+02  0.12710373316E+02  0.00000000000E+00 0. -1.
</event>
<event>
 7    1  0.1631716E-009  0.4778726E+02  0.7816164E-02  0.1312668E+00
        -11   -1    0    0    0    0  0.00000000000E+00  0.00000000000E+00  0.45593999997E+02  0.45594000000E+02  0.51100000000E-03 0. -1.
         11   -1    0    0    0    0 -0.00000000000E+00 -0.00000000000E+00 -0.45593999997E+02  0.45594000000E+02  0.51100000000E-03 0.  1.
    9900012    2    1    2    0    0  0.22319009310E+02  0.34918165222E+02  0.12892144090E+02  0.47787264772E+02  0.19999971402E+02 0.  0.
         12    1    1    2    0    0 -0.22319009310E+02 -0.34918165222E+02 -0.12892144090E+02  0.43400735228E+02  0.00000000000E+00 0. -1.
         11    1    3    3    0    0  0.77393019775E+01  0.91452842284E+01 -0.16098165372E+01  0.12088197891E+02  0.51100000000E-03 0.  1.
        -11    1    3    3    0    0  0.14115135582E+02  0.24048341782E+02  0.16977485448E+02  0.32646512943E+02  0.51100000000E-03 0. -1.
        -12    1    3    3    0    0  0.46457175082E+00  0.17245392119E+01 -0.24755248203E+01  0.30525539375E+01  0.00000000000E+00 0.  1.
</event>
<event>
 7    1  0.1631716E-009  0.4778728E+02  0.7816164E-02  0.1312668E+00
        -11   -1    0    0    0    0  0.00000000000E+00  0.00000000000E+00  0.45593999997E+02  0.45594000000E+02  0.51100000000E-03 0.  1.
         11   -1    0    0    0    0 -0.00000000000E+00 -0.00000000000E+00 -0.45593999997E+02  0.45594000000E+02  0.51100000000E-03 0. -1.
    9900012    2    1    2    0    0  0.98506714703E+01  0.12925480340E+02  0.40243247841E+02  0.47787276881E+02  0.20000026611E+02 0.  0.
         12    1    1    2    0    0 -0.98506714703E+01 -0.12925480340E+02 -0.40243247841E+02  0.43400723119E+02  0.00000000000E+00 0. -1.
         11    1    3    3    0    0  0.49844462154E+00  0.28887985528E+01 -0.63170018090E+00  0.29987746663E+01  0.51100000000E-03 0. -1.
        -11    1    3    3    0    0 -0.48334110815E+00  0.67233390352E+01  0.88560815316E+01  0.11129559145E+02  0.51100000000E-03 0.  1.
        -12    1    3    3    0    0  0.98355679570E+01  0.33133427525E+01  0.32018866490E+02  0.33658943070E+02  0.00000000000E+00 0.  1.
</event>
<event>
 7    1  0.1631716E-009  0.4778726E+02  0.7816164E-02  0.1312668E+00
        -11   -1    0    0    0    0  0.00000000000E+00  0.00000000000E+00  0.45593999997E+02  0.45594000000E+02  0.51100000000E-03 0. -1.
         11   -1    0    0    0    0 -0.00000000000E+00 -0.00000000000E+00 -0.45593999997E+02  0.45594000000E+02  0.51100000000E-03 0.  1.
    9900012    2    1    2    0    0 -0.26828660955E+01  0.29989963645E+02 -0.31257452188E+02  0.47787262596E+02  0.19999961481E+02 0.  0.
         12    1    1    2    0    0  0.26828660955E+01 -0.29989963645E+02  0.31257452188E+02  0.43400737404E+02  0.00000000000E+00 0. -1.
         11    1    3    3    0    0 -0.24253958451E+01  0.87673369314E+01  0.16988959727E+00  0.90982198594E+01  0.51100000000E-03 0. -1.
        -11    1    3    3    0    0 -0.29907863643E+00 -0.29991774593E+00  0.17132370030E+00  0.45689249993E+00  0.51100000000E-03 0.  1.
        -12    1    3    3    0    0  0.41608386026E-01  0.21522544459E+02 -0.31598665486E+02  0.38232150237E+02  0.00000000000E+00 0.  1.
</event>
<event>
 7    1  0.1631716E-009  0.4778728E+02  0.7816164E-02  0.1312668E+00
        -11   -1    0    0    0    0  0.00000000000E+00  0.00000000000E+00  0.45593999997E+02  0.45594000000E+02  0.51100000000E-03 0.  1.
         11   -1    0    0    0    0 -0.00000000000E+00 -0.00000000000E+00 -0.45593999997E+02  0.45594000000E+02  0.51100000000E-03 0. -1.
    9900012    2    1    2    0    0  0.28141392803E+02 -0.14565580439E+02  0.29656849500E+02  0.47787275988E+02  0.20000022542E+02 0.  0.
         12    1    1    2    0    0 -0.28141392803E+02  0.14565580439E+02 -0.29656849500E+02  0.43400724012E+02  0.00000000000E+00 0. -1.
         11    1    3    3    0    0  0.56833789803E+01  0.39646667819E+00  0.35477089836E+00  0.57082260915E+01  0.51100000000E-03 0. -1.
        -11    1    3    3    0    0 -0.39859776229E+00  0.16507224470E+01  0.59675167685E+00  0.17999659992E+01  0.51100000000E-03 0.  1.
        -12    1    3    3    0    0  0.22856611585E+02 -0.16612769564E+02  0.28705326925E+02  0.40279083898E+02  0.00000000000E+00 0.  1.
</event>
<event>
 7    1  0.1631716E-009  0.4778727E+02  0.7816164E-02  0.1312668E+00
        -11   -1    0    0    0    0  0.00000000000E+00  0.00000000000E+00  0.45593999997E+02  0.45594000000E+02  0.51100000000E-03 0.  1.
         11   -1    0    0    0    0 -0.00000000000E+00 -0.00000000000E+00 -0.45593999997E+02  0.45594000000E+02  0.51100000000E-03 0. -1.
    9900012    2    1    2    0    0  0.98454957157E+01  0.82393440563E+01  0.41458443304E+02  0.47787273076E+02  0.20000009263E+02 0.  0.
         12    1    1    2    0    0 -0.98454957157E+01 -0.82393440563E+01 -0.41458443304E+02  0.43400726924E+02  0.00000000000E+00 0. -1.
         11    1    3    3    0    0 -0.16317221089E+01 -0.68254924894E+00  0.34998074902E+00  0.18030189416E+01  0.51100000000E-03 0. -1.
        -11    1    3    3    0    0  0.58418112922E+01  0.11645956746E+02  0.34518116851E+02  0.36895195608E+02  0.51100000000E-03 0.  1.
        -12    1    3    3    0    0  0.56354065323E+01 -0.27240634411E+01  0.65903457031E+01  0.90890585267E+01  0.00000000000E+00 0.  1.
</event>
<event>
 7    1  0.1631716E-009  0.4778727E+02  0.7816164E-02  0.1312668E+00
        -11   -1    0    0    0    0  0.00000000000E+00  0.00000000000E+00  0.45593999997E+02  0.45594000000E+02  0.51100000000E-03 0.  1.
         11   -1    0    0    0    0 -0.00000000000E+00 -0.00000000000E+00 -0.45593999997E+02  0.45594000000E+02  0.51100000000E-03 0. -1.
    9900012    2    1    2    0    0  0.25136799214E+02  0.50727248186E+01  0.35014740446E+02  0.47787271201E+02  0.20000000713E+02 0.  0.
         12    1    1    2    0    0 -0.25136799214E+02 -0.50727248186E+01 -0.35014740446E+02  0.43400728799E+02  0.00000000000E+00 0. -1.
         11    1    3    3    0    0  0.10309713738E+02 -0.43903833453E+01  0.13456574817E+02  0.17511284057E+02  0.51100000000E-03 0. -1.
        -11    1    3    3    0    0  0.14615297637E+02  0.64428362344E+01  0.22030793090E+02  0.27211631855E+02  0.51100000000E-03 0.  1.
         12    1    3    3    0    0  0.21178783867E+00  0.30202719295E+01 -0.47262746124E+00  0.30643552884E+01  0.00000000000E+00 0. -1.
</event>
<event>
 7    1  0.1631716E-009  0.4778727E+02  0.7816164E-02  0.1312668E+00
        -11   -1    0    0    0    0  0.00000000000E+00  0.00000000000E+00  0.45593999997E+02  0.45594000000E+02  0.51100000000E-03 0.  1.
         11   -1    0    0    0    0 -0.00000000000E+00 -0.00000000000E+00 -0.45593999997E+02  0.45594000000E+02  0.51100000000E-03 0. -1.
    9900012    2    1    2    0    0  0.21305281476E+02  0.24629979868E+02  0.28689236750E+02  0.47787271523E+02  0.20000002182E+02 0.  0.
         12    1    1    2    0    0 -0.21305281476E+02 -0.24629979868E+02 -0.28689236750E+02  0.43400728477E+02  0.00000000000E+00 0. -1.
         11    1    3    3    0    0  0.12990473032E+02  0.10756023114E+02  0.12493962109E+02  0.20989128430E+02  0.51100000000E-03 0. -1.
        -11    1    3    3    0    0  0.16537518702E+01  0.13320818531E+02  0.14780578240E+02  0.19966086120E+02  0.51100000000E-03 0.  1.
         12    1    3    3    0    0  0.66610565737E+01  0.55313822290E+00  0.14146964008E+01  0.68320569727E+01  0.00000000000E+00 0. -1.
</event>
<event>
 7    1  0.1631716E-009  0.4778725E+02  0.7816164E-02  0.1312668E+00
        -11   -1    0    0    0    0  0.00000000000E+00  0.00000000000E+00  0.45593999997E+02  0.45594000000E+02  0.51100000000E-03 0.  1.
         11   -1    0    0    0    0 -0.00000000000E+00 -0.00000000000E+00 -0.45593999997E+02  0.45594000000E+02  0.51100000000E-03 0. -1.
    9900012    2    1    2    0    0 -0.31266563972E+02  0.41249540337E+00  0.30097453670E+02  0.47787252397E+02  0.19999914979E+02 0.  0.
         12    1    1    2    0    0  0.31266563972E+02 -0.41249540337E+00 -0.30097453670E+02  0.43400747603E+02  0.00000000000E+00 0. -1.
         11    1    3    3    0    0 -0.22050560556E+01 -0.12097615279E+01 -0.12628858582E+01  0.28143695768E+01  0.51100000000E-03 0. -1.
        -11    1    3    3    0    0 -0.22109828897E+02 -0.45286964654E+01  0.18914224741E+02  0.29446587635E+02  0.51100000000E-03 0.  1.
        -12    1    3    3    0    0 -0.69516790191E+01  0.61509533967E+01  0.12446114787E+02  0.15526295185E+02  0.00000000000E+00 0.  1.
</event>
<event>
 7    1  0.1631716E-009  0.4778727E+02  0.7816164E-02  0.1312668E+00
        -11   -1    0    0    0    0  0.00000000000E+00  0.00000000000E+00  0.45593999997E+02  0.45594000000E+02  0.51100000000E-03 0.  1.
         11   -1    0    0    0    0 -0.00000000000E+00 -0.00000000000E+00 -0.45593999997E+02  0.45594000000E+02  0.51100000000E-03 0. -1.
    9900012    2    1    2    0    0 -0.35508255122E+01  0.15816939880E+02  0.40259648401E+02  0.47787271454E+02  0.20000001868E+02 0.  0.
         12    1    1    2    0    0  0.35508255122E+01 -0.15816939880E+02 -0.40259648401E+02  0.43400728546E+02  0.00000000000E+00 0. -1.
         11    1    3    3    0    0 -0.42572318008E+01  0.56477105924E+01  0.29758398143E+01  0.76730880617E+01  0.51100000000E-03 0. -1.
        -11    1    3    3    0    0 -0.26115196221E+01  0.61971813955E+01  0.83510839387E+01  0.10722205706E+02  0.51100000000E-03 0.  1.
        -12    1    3    3    0    0  0.33179259107E+01  0.39720478916E+01  0.28932724648E+02  0.29391977687E+02  0.00000000000E+00 0.  1.
</event>
<event>
 7    1  0.1631716E-009  0.4778727E+02  0.7816164E-02  0.1312668E+00
        -11   -1    0    0    0    0  0.00000000000E+00  0.00000000000E+00  0.45593999997E+02  0.45594000000E+02  0.51100000000E-03 0.  1.
         11   -1    0    0    0    0 -0.00000000000E+00 -0.00000000000E+00 -0.45593999997E+02  0.45594000000E+02  0.51100000000E-03 0. -1.
    9900012    2    1    2    0    0 -0.12014871149E+02 -0.95296288066E+01  0.40601138721E+02  0.47787269368E+02  0.19999992356E+02 0.  0.
         12    1    1    2    0    0  0.12014871149E+02  0.95296288066E+01 -0.40601138721E+02  0.43400730632E+02  0.00000000000E+00 0. -1.
         11    1    3    3    0    0 -0.11644627070E+02 -0.10248444149E+02  0.30062059469E+02  0.33828321963E+02  0.51100000000E-03 0. -1.
        -11    1    3    3    0    0  0.22693911605E+01 -0.34998121170E+01  0.45639722632E+01  0.61829332985E+01  0.51100000000E-03 0.  1.
         12    1    3    3    0    0 -0.26396352400E+01  0.42186274598E+01  0.59751069894E+01  0.77760141062E+01  0.00000000000E+00 0. -1.
</event>
<event>
 7    1  0.1631716E-009  0.4778726E+02  0.7816164E-02  0.1312668E+00
        -11   -1    0    0    0    0  0.00000000000E+00  0.00000000000E+00  0.45593999997E+02  0.45594000000E+02  0.51100000000E-03 0. -1.
         11   -1    0    0    0    0 -0.00000000000E+00 -0.00000000000E+00 -0.45593999997E+02  0.45594000000E+02  0.51100000000E-03 0.  1.
    9900012    2    1    2    0    0  0.52026932632E+01  0.21228043647E+02 -0.37495687907E+02  0.47787257311E+02  0.19999937385E+02 0.  0.
         12    1    1    2    0    0 -0.52026932632E+01 -0.21228043647E+02  0.37495687907E+02  0.43400742689E+02  0.00000000000E+00 0. -1.
         11    1    3    3    0    0  0.49467620791E+01  0.26874775635E+01 -0.22602873833E+02  0.23293408864E+02  0.51100000000E-03 0. -1.
        -11    1    3    3    0    0  0.29433506868E+01  0.75514425442E+01 -0.55671300771E+01  0.98326260643E+01  0.51100000000E-03 0.  1.
         12    1    3    3    0    0 -0.26874195028E+01  0.10989123540E+02 -0.93256839974E+01  0.14661222383E+02  0.00000000000E+00 0. -1.
</event>
<event>
 7    1  0.1631716E-009  0.4778725E+02  0.7816164E-02  0.1312668E+00
        -11   -1    0    0    0    0  0.00000000000E+00  0.00000000000E+00  0.45593999997E+02  0.45594000000E+02  0.51100000000E-03 0. -1.
         11   -1    0    0    0    0 -0.00000000000E+00 -0.00000000000E+00 -0.45593999997E+02  0.45594000000E+02  0.51100000000E-03 0.  1.
    9900012    2    1    2    0    0  0.19088809951E+02  0.37092942789E+02 -0.11973132752E+02  0.47787251412E+02  0.19999910489E+02 0.  0.
         12    1    1    2    0    0 -0.19088809951E+02 -0.37092942789E+02  0.11973132752E+02  0.43400748588E+02  0.00000000000E+00 0. -1.
         11    1    3    3    0    0 -0.59016573313E+00  0.10714025500E+02 -0.24532055204E+01  0.11007127491E+02  0.51100000000E-03 0. -1.
        -11    1    3    3    0    0  0.28123367217E+01  0.13143324410E+02 -0.71093930899E+01  0.15205251880E+02  0.51100000000E-03 0.  1.
        -12    1    3    3    0    0  0.16866638963E+02  0.13235592879E+02 -0.24105341418E+01  0.21574872041E+02  0.00000000000E+00 0.  1.
</event>
<event>
 7    1  0.1631716E-009  0.4778727E+02  0.7816164E-02  0.1312668E+00
        -11   -1    0    0    0    0  0.00000000000E+00  0.00000000000E+00  0.45593999997E+02  0.45594000000E+02  0.51100000000E-03 0.  1.
         11   -1    0    0    0    0 -0.00000000000E+00 -0.00000000000E+00 -0.45593999997E+02  0.45594000000E+02  0.51100000000E-03 0. -1.
    9900012    2    1    2    0    0 -0.75064183864E+01 -0.41965326996E+02 -0.81356210505E+01  0.47787270551E+02  0.19999997749E+02 0.  0.
         12    1    1    2    0    0  0.75064183864E+01  0.41965326996E+02  0.81356210505E+01  0.43400729449E+02  0.00000000000E+00 0. -1.
         11    1    3    3    0    0 -0.25039872578E+01 -0.45343887810E+00 -0.15083450233E+01  0.29581521215E+01  0.51100000000E-03 0. -1.
        -11    1    3    3    0    0  0.84133969826E+00 -0.23587741512E+02  0.27689475449E+01  0.23764605465E+02  0.51100000000E-03 0.  1.
         12    1    3    3    0    0 -0.58437708268E+01 -0.17924146605E+02 -0.93962235722E+01  0.21064512964E+02  0.00000000000E+00 0. -1.
</event>
<event>
 7    1  0.1631716E-009  0.4778727E+02  0.7816164E-02  0.1312668E+00
        -11   -1    0    0    0    0  0.00000000000E+00  0.00000000000E+00  0.45593999997E+02  0.45594000000E+02  0.51100000000E-03 0.  1.
         11   -1    0    0    0    0 -0.00000000000E+00 -0.00000000000E+00 -0.45593999997E+02  0.45594000000E+02  0.51100000000E-03 0. -1.
    9900012    2    1    2    0    0 -0.33727708630E+02  0.85711229892E+00  0.27300742582E+02  0.47787268250E+02  0.19999987259E+02 0.  0.
         12    1    1    2    0    0  0.33727708630E+02 -0.85711229892E+00 -0.27300742582E+02  0.43400731750E+02  0.00000000000E+00 0. -1.
         11    1    3    3    0    0 -0.59095783013E+01  0.31848065848E+01  0.14975117765E+01  0.68781284129E+01  0.51100000000E-03 0. -1.
        -11    1    3    3    0    0 -0.70199777338E+01 -0.75104076698E+01  0.75331322950E+01  0.12744975213E+02  0.51100000000E-03 0.  1.
        -12    1    3    3    0    0 -0.20798152595E+02  0.51827133839E+01  0.18270098510E+02  0.28164164624E+02  0.00000000000E+00 0.  1.
</event>
<event>
 7    1  0.1631716E-009  0.4778729E+02  0.7816164E-02  0.1312668E+00
        -11   -1    0    0    0    0  0.00000000000E+00  0.00000000000E+00  0.45593999997E+02  0.45594000000E+02  0.51100000000E-03 0. -1.
         11   -1    0    0    0    0 -0.00000000000E+00 -0.00000000000E+00 -0.45593999997E+02  0.45594000000E+02  0.51100000000E-03 0.  1.
    9900012    2    1    2    0    0  0.23486476318E+02  0.23982688692E+02 -0.27510690093E+02  0.47787285765E+02  0.20000067118E+02 0.  0.
         12    1    1    2    0    0 -0.23486476318E+02 -0.23982688692E+02  0.27510690093E+02  0.43400714235E+02  0.00000000000E+00 0. -1.
         11    1    3    3    0    0  0.22383252649E+01  0.18646438051E+01 -0.11373570196E+02  0.11740745112E+02  0.51100000000E-03 0. -1.
        -11    1    3    3    0    0  0.53592688106E+01  0.65227914129E+01  0.17952322686E+00  0.84439800362E+01  0.51100000000E-03 0.  1.
        -12    1    3    3    0    0  0.15888882242E+02  0.15595253474E+02 -0.16316643123E+02  0.27602560617E+02  0.00000000000E+00 0.  1.
</event>
<event>
 7    1  0.1631716E-009  0.4778727E+02  0.7816164E-02  0.1312668E+00
        -11   -1    0    0    0    0  0.00000000000E+00  0.00000000000E+00  0.45593999997E+02  0.45594000000E+02  0.51100000000E-03 0.  1.
         11   -1    0    0    0    0 -0.00000000000E+00 -0.00000000000E+00 -0.45593999997E+02  0.45594000000E+02  0.51100000000E-03 0. -1.
    9900012    2    1    2    0    0 -0.46035718814E+01 -0.24594970125E+02  0.35461496272E+02  0.47787272502E+02  0.20000006646E+02 0.  0.
         12    1    1    2    0    0  0.46035718814E+01  0.24594970125E+02 -0.35461496272E+02  0.43400727498E+02  0.00000000000E+00 0. -1.
         11    1    3    3    0    0  0.43861461840E+01 -0.94817851528E+01  0.13940748036E+02  0.17420877822E+02  0.51100000000E-03 0.  1.
        -11    1    3    3    0    0 -0.40763701300E+01 -0.37047615419E+00  0.10628189070E+02  0.11389137333E+02  0.51100000000E-03 0. -1.
         12    1    3    3    0    0 -0.49133479354E+01 -0.14742708818E+02  0.10892559165E+02  0.18977257346E+02  0.00000000000E+00 0. -1.
</event>
<event>
 7    1  0.1631716E-009  0.4778727E+02  0.7816164E-02  0.1312668E+00
        -11   -1    0    0    0    0  0.00000000000E+00  0.00000000000E+00  0.45593999997E+02  0.45594000000E+02  0.51100000000E-03 0. -1.
         11   -1    0    0    0    0 -0.00000000000E+00 -0.00000000000E+00 -0.45593999997E+02  0.45594000000E+02  0.51100000000E-03 0.  1.
    9900012    2    1    2    0    0 -0.41699666015E+02  0.59266407008E+01 -0.10470748187E+02  0.47787265175E+02  0.19999973240E+02 0.  0.
         12    1    1    2    0    0  0.41699666015E+02 -0.59266407008E+01  0.10470748187E+02  0.43400734825E+02  0.00000000000E+00 0. -1.
         11    1    3    3    0    0 -0.10480566949E+02  0.35178721122E+01  0.33100884604E+01  0.11540121041E+02  0.51100000000E-03 0. -1.
        -11    1    3    3    0    0 -0.83263426898E+01  0.50068985017E+01 -0.77581409611E+01  0.12433252456E+02  0.51100000000E-03 0.  1.
        -12    1    3    3    0    0 -0.22892756376E+02 -0.25981299131E+01 -0.60226956866E+01  0.23813891678E+02  0.00000000000E+00 0.  1.
</event>
<event>
 7    1  0.1631716E-009  0.4778727E+02  0.7816164E-02  0.1312668E+00
        -11   -1    0    0    0    0  0.00000000000E+00  0.00000000000E+00  0.45593999997E+02  0.45594000000E+02  0.51100000000E-03 0. -1.
         11   -1    0    0    0    0 -0.00000000000E+00 -0.00000000000E+00 -0.45593999997E+02  0.45594000000E+02  0.51100000000E-03 0.  1.
    9900012    2    1    2    0    0  0.98659464024E+01 -0.28975957721E+02 -0.30768171863E+02  0.47787269314E+02  0.19999992109E+02 0.  0.
         12    1    1    2    0    0 -0.98659464024E+01  0.28975957721E+02  0.30768171863E+02  0.43400730686E+02  0.00000000000E+00 0. -1.
         11    1    3    3    0    0 -0.30690109249E+01 -0.63305154951E+01 -0.56583432922E+01  0.90283499912E+01  0.51100000000E-03 0. -1.
        -11    1    3    3    0    0  0.90293592266E+01 -0.22890579045E+02 -0.24630781465E+02  0.34816423322E+02  0.51100000000E-03 0.  1.
        -12    1    3    3    0    0  0.39055981007E+01  0.24513681916E+00 -0.47904710592E+00  0.39424960005E+01  0.00000000000E+00 0.  1.
</event>
<event>
 7    1  0.1631716E-009  0.4778727E+02  0.7816164E-02  0.1312668E+00
        -11   -1    0    0    0    0  0.00000000000E+00  0.00000000000E+00  0.45593999997E+02  0.45594000000E+02  0.51100000000E-03 0.  1.
         11   -1    0    0    0    0 -0.00000000000E+00 -0.00000000000E+00 -0.45593999997E+02  0.45594000000E+02  0.51100000000E-03 0. -1.
    9900012    2    1    2    0    0  0.33161836282E+02 -0.64691666285E+01  0.27240881858E+02  0.47787272508E+02  0.20000006671E+02 0.  0.
         12    1    1    2    0    0 -0.33161836282E+02  0.64691666285E+01 -0.27240881858E+02  0.43400727492E+02  0.00000000000E+00 0. -1.
         11    1    3    3    0    0  0.48446505475E+01  0.24628157348E+01  0.27102622506E+01  0.60730241230E+01  0.51100000000E-03 0. -1.
        -11    1    3    3    0    0  0.25237952673E+02 -0.12771543841E+02  0.17963634590E+02  0.33507592500E+02  0.51100000000E-03 0.  1.
         12    1    3    3    0    0  0.30792330617E+01  0.38395614775E+01  0.65669850180E+01  0.82066558850E+01  0.00000000000E+00 0. -1.
</event>
<event>
 7    1  0.1631716E-009  0.4778725E+02  0.7816164E-02  0.1312668E+00
        -11   -1    0    0    0    0  0.00000000000E+00  0.00000000000E+00  0.45593999997E+02  0.45594000000E+02  0.51100000000E-03 0.  1.
         11   -1    0    0    0    0 -0.00000000000E+00 -0.00000000000E+00 -0.45593999997E+02  0.45594000000E+02  0.51100000000E-03 0. -1.
    9900012    2    1    2    0    0  0.19483548535E+02 -0.37932732751E+02 -0.80699731376E+01  0.47787247197E+02  0.19999891268E+02 0.  0.
         12    1    1    2    0    0 -0.19483548535E+02  0.37932732751E+02  0.80699731376E+01  0.43400752803E+02  0.00000000000E+00 0. -1.
         11    1    3    3    0    0 -0.35816704525E+00 -0.99842336377E+01  0.34889979616E+01  0.10582358527E+02  0.51100000000E-03 0. -1.
        -11    1    3    3    0    0  0.11194639887E+02 -0.22533522101E+02 -0.82048190441E+01  0.26465045556E+02  0.51100000000E-03 0.  1.
        -12    1    3    3    0    0  0.86470756934E+01 -0.54149770125E+01 -0.33541520551E+01  0.10739843113E+02  0.00000000000E+00 0.  1.
</event>
<event>
 7    1  0.1631716E-009  0.4778727E+02  0.7816164E-02  0.1312668E+00
        -11   -1    0    0    0    0  0.00000000000E+00  0.00000000000E+00  0.45593999997E+02  0.45594000000E+02  0.51100000000E-03 0. -1.
         11   -1    0    0    0    0 -0.00000000000E+00 -0.00000000000E+00 -0.45593999997E+02  0.45594000000E+02  0.51100000000E-03 0.  1.
    9900012    2    1    2    0    0 -0.23840758825E+02 -0.30878253129E+02 -0.19020383445E+02  0.47787270927E+02  0.19999999465E+02 0.  0.
         12    1    1    2    0    0  0.23840758825E+02  0.30878253129E+02  0.19020383445E+02  0.43400729073E+02  0.00000000000E+00 0. -1.
         11    1    3    3    0    0  0.11061243987E+01  0.14963431424E+01 -0.30808408079E+01  0.35991852314E+01  0.51100000000E-03 0. -1.
        -11    1    3    3    0    0 -0.13407385659E+02 -0.13648874945E+02 -0.60031107986E+01  0.20052110038E+02  0.51100000000E-03 0.  1.
        -12    1    3    3    0    0 -0.11539497565E+02 -0.18725721327E+02 -0.99364318386E+01  0.24135975658E+02  0.00000000000E+00 0.  1.
</event>
<event>
 7    1  0.1631716E-009  0.4778727E+02  0.7816164E-02  0.1312668E+00
        -11   -1    0    0    0    0  0.00000000000E+00  0.00000000000E+00  0.45593999997E+02  0.45594000000E+02  0.51100000000E-03 0. -1.
         11   -1    0    0    0    0 -0.00000000000E+00 -0.00000000000E+00 -0.45593999997E+02  0.45594000000E+02  0.51100000000E-03 0.  1.
    9900012    2    1    2    0    0 -0.39726082934E+02 -0.15341776217E+02  0.83720681294E+01  0.47787270887E+02  0.19999999281E+02 0.  0.
         12    1    1    2    0    0  0.39726082934E+02  0.15341776217E+02 -0.83720681294E+01  0.43400729113E+02  0.00000000000E+00 0. -1.
         11    1    3    3    0    0 -0.10382599229E+01 -0.23368465009E+01 -0.10542062028E+01  0.27658970001E+01  0.51100000000E-03 0. -1.
        -11    1    3    3    0    0 -0.40055144810E+02 -0.10996349102E+02  0.94183921101E+01  0.42591553500E+02  0.51100000000E-03 0.  1.
         12    1    3    3    0    0  0.13673217985E+01 -0.20085806141E+01  0.78822220510E-02  0.24298203871E+01  0.00000000000E+00 0. -1.
</event>
<event>
 7    1  0.1631716E-009  0.4778727E+02  0.7816164E-02  0.1312668E+00
        -11   -1    0    0    0    0  0.00000000000E+00  0.00000000000E+00  0.45593999997E+02  0.45594000000E+02  0.51100000000E-03 0. -1.
         11   -1    0    0    0    0 -0.00000000000E+00 -0.00000000000E+00 -0.45593999997E+02  0.45594000000E+02  0.51100000000E-03 0.  1.
    9900012    2    1    2    0    0 -0.29933109994E+02 -0.24701707832E+02  0.19428276332E+02  0.47787269995E+02  0.19999995214E+02 0.  0.
         12    1    1    2    0    0  0.29933109994E+02  0.24701707832E+02 -0.19428276332E+02  0.43400730005E+02  0.00000000000E+00 0. -1.
         11    1    3    3    0    0 -0.16002060749E+02 -0.67630097732E+01  0.10138370901E+02  0.20114442926E+02  0.51100000000E-03 0. -1.
        -11    1    3    3    0    0 -0.12715020291E+02 -0.18094159732E+02  0.11662900554E+02  0.25001872070E+02  0.51100000000E-03 0.  1.
         12    1    3    3    0    0 -0.12160289539E+01  0.15546167347E+00 -0.23729951235E+01  0.26709549987E+01  0.00000000000E+00 0. -1.
</event>
<event>
 7    1  0.1631716E-009  0.4778727E+02  0.7816164E-02  0.1312668E+00
        -11   -1    0    0    0    0  0.00000000000E+00  0.00000000000E+00  0.45593999997E+02  0.45594000000E+02  0.51100000000E-03 0.  1.
         11   -1    0    0    0    0 -0.00000000000E+00 -0.00000000000E+00 -0.45593999997E+02  0.45594000000E+02  0.51100000000E-03 0. -1.
    9900012    2    1    2    0    0 -0.18472305950E+02 -0.24553564948E+01  0.39196537283E+02  0.47787269620E+02  0.19999993504E+02 0.  0.
         12    1    1    2    0    0  0.18472305950E+02  0.24553564948E+01 -0.39196537283E+02  0.43400730380E+02  0.00000000000E+00 0. -1.
         11    1    3    3    0    0 -0.11156811659E+02  0.35062228452E+00  0.33271236299E+02  0.35093767929E+02  0.51100000000E-03 0.  1.
        -11    1    3    3    0    0 -0.85814649381E+01 -0.33234127050E+01  0.64401263281E+01  0.11232178768E+02  0.51100000000E-03 0. -1.
        -12    1    3    3    0    0  0.12659706476E+01  0.51743392562E+00 -0.51482534428E+00  0.14613229222E+01  0.00000000000E+00 0.  1.
</event>
<event>
 7    1  0.1631716E-009  0.4778727E+02  0.7816164E-02  0.1312668E+00
        -11   -1    0    0    0    0  0.00000000000E+00  0.00000000000E+00  0.45593999997E+02  0.45594000000E+02  0.51100000000E-03 0.  1.
         11   -1    0    0    0    0 -0.00000000000E+00 -0.00000000000E+00 -0.45593999997E+02  0.45594000000E+02  0.51100000000E-03 0. -1.
    9900012    2    1    2    0    0  0.13451748743E+00  0.38842072923E+02  0.19362300690E+02  0.47787269454E+02  0.19999992748E+02 0.  0.
         12    1    1    2    0    0 -0.13451748743E+00 -0.38842072923E+02 -0.19362300690E+02  0.43400730546E+02  0.00000000000E+00 0. -1.
         11    1    3    3    0    0  0.29330499282E-01  0.83914643554E+01 -0.23359843017E+01  0.87105887990E+01  0.51100000000E-03 0. -1.
        -11    1    3    3    0    0  0.95570431496E+00  0.26897269106E+02  0.13519720920E+02  0.30119085479E+02  0.51100000000E-03 0.  1.
        -12    1    3    3    0    0 -0.85051732681E+00  0.35533394619E+01  0.81785640718E+01  0.89575951757E+01  0.00000000000E+00 0.  1.
</event>
<event>
 7    1  0.1631716E-009  0.4778727E+02  0.7816164E-02  0.1312668E+00
        -11   -1    0    0    0    0  0.00000000000E+00  0.00000000000E+00  0.45593999997E+02  0.45594000000E+02  0.51100000000E-03 0.  1.
         11   -1    0    0    0    0 -0.00000000000E+00 -0.00000000000E+00 -0.45593999997E+02  0.45594000000E+02  0.51100000000E-03 0. -1.
    9900012    2    1    2    0    0  0.13007701304E+02 -0.40755094085E+02  0.73106109415E+01  0.47787273975E+02  0.20000013364E+02 0.  0.
         12    1    1    2    0    0 -0.13007701304E+02  0.40755094085E+02 -0.73106109415E+01  0.43400726025E+02  0.00000000000E+00 0. -1.
         11    1    3    3    0    0  0.49381330464E-01 -0.19179305327E+02  0.51614039596E+01  0.19861729089E+02  0.51100000000E-03 0.  1.
        -11    1    3    3    0    0  0.99709273189E+01 -0.14565703777E+02  0.68927335424E+01  0.18949641001E+02  0.51100000000E-03 0. -1.
         12    1    3    3    0    0  0.29873926548E+01 -0.70100849815E+01 -0.47435265605E+01  0.89759038850E+01  0.00000000000E+00 0. -1.
</event>
<event>
 7    1  0.1631716E-009  0.4778727E+02  0.7816164E-02  0.1312668E+00
        -11   -1    0    0    0    0  0.00000000000E+00  0.00000000000E+00  0.45593999997E+02  0.45594000000E+02  0.51100000000E-03 0.  1.
         11   -1    0    0    0    0 -0.00000000000E+00 -0.00000000000E+00 -0.45593999997E+02  0.45594000000E+02  0.51100000000E-03 0. -1.
    9900012    2    1    2    0    0 -0.32516358804E+02  0.26414726579E+02  0.11338948957E+02  0.47787272661E+02  0.20000007370E+02 0.  0.
         12    1    1    2    0    0  0.32516358804E+02 -0.26414726579E+02 -0.11338948957E+02  0.43400727339E+02  0.00000000000E+00 0. -1.
         11    1    3    3    0    0  0.25646480359E+00  0.42767576078E+01 -0.14885626068E+01  0.45356640889E+01  0.51100000000E-03 0. -1.
        -11    1    3    3    0    0 -0.23590158680E+02  0.19547597787E+02  0.52845887188E+01  0.31089082392E+02  0.51100000000E-03 0.  1.
         12    1    3    3    0    0 -0.91826649273E+01  0.25903711848E+01  0.75429228448E+01  0.12162526180E+02  0.00000000000E+00 0. -1.
</event>
<event>
 7    1  0.1631716E-009  0.4778727E+02  0.7816164E-02  0.1312668E+00
        -11   -1    0    0    0    0  0.00000000000E+00  0.00000000000E+00  0.45593999997E+02  0.45594000000E+02  0.51100000000E-03 0.  1.
         11   -1    0    0    0    0 -0.00000000000E+00 -0.00000000000E+00 -0.45593999997E+02  0.45594000000E+02  0.51100000000E-03 0. -1.
    9900012    2    1    2    0    0 -0.15870536995E+02  0.12246931718E+02  0.38493660829E+02  0.47787271837E+02  0.20000003615E+02 0.  0.
         12    1    1    2    0    0  0.15870536995E+02 -0.12246931718E+02 -0.38493660829E+02  0.43400728163E+02  0.00000000000E+00 0. -1.
         11    1    3    3    0    0 -0.95265917541E+01 -0.12666179515E+01  0.13443477285E+02  0.16525354860E+02  0.51100000000E-03 0. -1.
        -11    1    3    3    0    0 -0.67933837515E+01  0.13345767532E+02  0.14984397698E+02  0.21184705531E+02  0.51100000000E-03 0.  1.
         12    1    3    3    0    0  0.44943851080E+00  0.16778213779E+00  0.10065785846E+02  0.10077211446E+02  0.00000000000E+00 0. -1.
</event>
<event>
 7    1  0.2243184E-009  0.4778727E+02  0.7816164E-02  0.1312668E+00
        -11   -1    0    0    0    0  0.00000000000E+00  0.00000000000E+00  0.45593999997E+02  0.45594000000E+02  0.51100000000E-03 0. -1.
         11   -1    0    0    0    0 -0.00000000000E+00 -0.00000000000E+00 -0.45593999997E+02  0.45594000000E+02  0.51100000000E-03 0.  1.
    9900012    2    1    2    0    0 -0.25126647553E+02 -0.12454044121E+02 -0.33123576317E+02  0.47787274888E+02  0.20000017525E+02 0.  0.
         12    1    1    2    0    0  0.25126647553E+02  0.12454044121E+02  0.33123576317E+02  0.43400725112E+02  0.00000000000E+00 0. -1.
         11    1    3    3    0    0 -0.19105589091E+02 -0.11997765543E+02 -0.13560380208E+02  0.26322116636E+02  0.51100000000E-03 0. -1.
        -11    1    3    3    0    0 -0.63651995685E+01  0.49090989673E+00 -0.10100345345E+02  0.11948796359E+02  0.51100000000E-03 0.  1.
         12    1    3    3    0    0  0.34414110651E+00 -0.94718847422E+00 -0.94628507637E+01  0.95163618933E+01  0.00000000000E+00 0. -1.
</event>
<event>
 7    1  0.1631716E-009  0.4778727E+02  0.7816164E-02  0.1312668E+00
        -11   -1    0    0    0    0  0.00000000000E+00  0.00000000000E+00  0.45593999997E+02  0.45594000000E+02  0.51100000000E-03 0.  1.
         11   -1    0    0    0    0 -0.00000000000E+00 -0.00000000000E+00 -0.45593999997E+02  0.45594000000E+02  0.51100000000E-03 0. -1.
    9900012    2    1    2    0    0 -0.78756511426E+01  0.21799290176E+02  0.36693166513E+02  0.47787269570E+02  0.19999993277E+02 0.  0.
         12    1    1    2    0    0  0.78756511426E+01 -0.21799290176E+02 -0.36693166513E+02  0.43400730430E+02  0.00000000000E+00 0. -1.
         11    1    3    3    0    0 -0.82532913180E+01  0.81863480931E+01  0.15227731123E+02  0.19157685353E+02  0.51100000000E-03 0.  1.
        -11    1    3    3    0    0  0.58773127822E+01  0.27050341711E+01  0.97674226005E+01  0.11715910546E+02  0.51100000000E-03 0. -1.
         12    1    3    3    0    0 -0.54996726068E+01  0.10907907912E+02  0.11698012790E+02  0.16913673670E+02  0.00000000000E+00 0. -1.
</event>
<event>
 7    1  0.1631716E-009  0.4778727E+02  0.7816164E-02  0.1312668E+00
        -11   -1    0    0    0    0  0.00000000000E+00  0.00000000000E+00  0.45593999997E+02  0.45594000000E+02  0.51100000000E-03 0.  1.
         11   -1    0    0    0    0 -0.00000000000E+00 -0.00000000000E+00 -0.45593999997E+02  0.45594000000E+02  0.51100000000E-03 0. -1.
    9900012    2    1    2    0    0 -0.28203379983E+02  0.12687608705E+02  0.30450240949E+02  0.47787271539E+02  0.20000002255E+02 0.  0.
         12    1    1    2    0    0  0.28203379983E+02 -0.12687608705E+02 -0.30450240949E+02  0.43400728461E+02  0.00000000000E+00 0. -1.
         11    1    3    3    0    0 -0.22953218592E+01  0.37643804720E+01 -0.16906770861E+01  0.47220177939E+01  0.51100000000E-03 0. -1.
        -11    1    3    3    0    0 -0.94488958639E+01  0.67660524204E+01  0.17030527639E+02  0.20617952622E+02  0.51100000000E-03 0.  1.
        -12    1    3    3    0    0 -0.16459162260E+02  0.21571758121E+01  0.15110390396E+02  0.22447301123E+02  0.00000000000E+00 0.  1.
</event>
<event>
 7    1  0.1631716E-009  0.4778727E+02  0.7816164E-02  0.1312668E+00
        -11   -1    0    0    0    0  0.00000000000E+00  0.00000000000E+00  0.45593999997E+02  0.45594000000E+02  0.51100000000E-03 0. -1.
         11   -1    0    0    0    0 -0.00000000000E+00 -0.00000000000E+00 -0.45593999997E+02  0.45594000000E+02  0.51100000000E-03 0.  1.
    9900012    2    1    2    0    0 -0.26026078740E+02  0.32132375219E+02  0.13182465742E+02  0.47787265965E+02  0.19999976839E+02 0.  0.
         12    1    1    2    0    0  0.26026078740E+02 -0.32132375219E+02 -0.13182465742E+02  0.43400734035E+02  0.00000000000E+00 0. -1.
         11    1    3    3    0    0 -0.62754403933E+01  0.30931250776E+01  0.64047358502E+01  0.94852104061E+01  0.51100000000E-03 0. -1.
        -11    1    3    3    0    0 -0.20277123422E+02  0.21358719380E+02  0.26582929984E+01  0.29570646759E+02  0.51100000000E-03 0.  1.
         12    1    3    3    0    0  0.52648507545E+00  0.76805307618E+01  0.41194368930E+01  0.87314088000E+01  0.00000000000E+00 0. -1.
</event>
<event>
 7    1  0.1631716E-009  0.4778727E+02  0.7816164E-02  0.1312668E+00
        -11   -1    0    0    0    0  0.00000000000E+00  0.00000000000E+00  0.45593999997E+02  0.45594000000E+02  0.51100000000E-03 0. -1.
         11   -1    0    0    0    0 -0.00000000000E+00 -0.00000000000E+00 -0.45593999997E+02  0.45594000000E+02  0.51100000000E-03 0.  1.
    9900012    2    1    2    0    0 -0.33542914784E+02  0.16171445009E+02 -0.22293063120E+02  0.47787269256E+02  0.19999991844E+02 0.  0.
         12    1    1    2    0    0  0.33542914784E+02 -0.16171445009E+02  0.22293063120E+02  0.43400730744E+02  0.00000000000E+00 0. -1.
         11    1    3    3    0    0 -0.13943283223E+02  0.52447652730E+01 -0.19572269754E+02  0.24596675657E+02  0.51100000000E-03 0. -1.
        -11    1    3    3    0    0 -0.14006279386E+01  0.10117438043E+01 -0.17258361124E+01  0.24421086577E+01  0.51100000000E-03 0.  1.
        -12    1    3    3    0    0 -0.18199003623E+02  0.99149359318E+01 -0.99495725312E+00  0.20748484941E+02  0.00000000000E+00 0.  1.
</event>
<event>
 7    1  0.1631716E-009  0.4778727E+02  0.7816164E-02  0.1312668E+00
        -11   -1    0    0    0    0  0.00000000000E+00  0.00000000000E+00  0.45593999997E+02  0.45594000000E+02  0.51100000000E-03 0.  1.
         11   -1    0    0    0    0 -0.00000000000E+00 -0.00000000000E+00 -0.45593999997E+02  0.45594000000E+02  0.51100000000E-03 0. -1.
    9900012    2    1    2    0    0 -0.24121809955E+02  0.26014363860E+02  0.25000290512E+02  0.47787269957E+02  0.19999995043E+02 0.  0.
         12    1    1    2    0    0  0.24121809955E+02 -0.26014363860E+02 -0.25000290512E+02  0.43400730043E+02  0.00000000000E+00 0. -1.
         11    1    3    3    0    0 -0.10809529289E+02  0.45667475688E+01  0.12519434609E+02  0.17159176845E+02  0.51100000000E-03 0. -1.
        -11    1    3    3    0    0 -0.13535374482E+02  0.11050182576E+02  0.90443750235E+01  0.19675203104E+02  0.51100000000E-03 0.  1.
         12    1    3    3    0    0  0.22309381618E+00  0.10397433715E+02  0.34364808801E+01  0.10952890009E+02  0.00000000000E+00 0. -1.
</event>
<event>
 7    1  0.1631716E-009  0.4778726E+02  0.7816164E-02  0.1312668E+00
        -11   -1    0    0    0    0  0.00000000000E+00  0.00000000000E+00  0.45593999997E+02  0.45594000000E+02  0.51100000000E-03 0.  1.
         11   -1    0    0    0    0 -0.00000000000E+00 -0.00000000000E+00 -0.45593999997E+02  0.45594000000E+02  0.51100000000E-03 0. -1.
    9900012    2    1    2    0    0  0.40255006568E+02 -0.15377175791E+02 -0.51673077010E+01  0.47787260859E+02  0.19999953560E+02 0.  0.
         12    1    1    2    0    0 -0.40255006568E+02  0.15377175791E+02  0.51673077010E+01  0.43400739141E+02  0.00000000000E+00 0. -1.
         11    1    3    3    0    0  0.10541331569E+02 -0.34273278208E+00 -0.29752482872E+00  0.10551097492E+02  0.51100000000E-03 0. -1.
        -11    1    3    3    0    0  0.14220135718E+02 -0.21752244167E+01  0.44373546947E+01  0.15054367408E+02  0.51100000000E-03 0.  1.
         12    1    3    3    0    0  0.15493539281E+02 -0.12859218593E+02 -0.93071375669E+01  0.22181795959E+02  0.00000000000E+00 0. -1.
</event>
<event>
 7    1  0.1631716E-009  0.4778729E+02  0.7816164E-02  0.1312668E+00
        -11   -1    0    0    0    0  0.00000000000E+00  0.00000000000E+00  0.45593999997E+02  0.45594000000E+02  0.51100000000E-03 0.  1.
         11   -1    0    0    0    0 -0.00000000000E+00 -0.00000000000E+00 -0.45593999997E+02  0.45594000000E+02  0.51100000000E-03 0. -1.
    9900012    2    1    2    0    0  0.20780674238E+02  0.11213049824E+02  0.36415001155E+02  0.47787294738E+02  0.20000108026E+02 0.  0.
         12    1    1    2    0    0 -0.20780674238E+02 -0.11213049824E+02 -0.36415001155E+02  0.43400705262E+02  0.00000000000E+00 0. -1.
         11    1    3    3    0    0  0.76098757603E+01  0.11004368850E+02  0.12315490803E+02  0.18184544449E+02  0.51100000000E-03 0. -1.
        -11    1    3    3    0    0  0.83991275787E+01  0.29695175716E+01  0.21944247986E+02  0.23683610337E+02  0.51100000000E-03 0.  1.
         12    1    3    3    0    0  0.47716708992E+01 -0.27608365974E+01  0.21552623671E+01  0.59191399509E+01  0.00000000000E+00 0. -1.
</event>
<event>
 7    1  0.1631716E-009  0.4778727E+02  0.7816164E-02  0.1312668E+00
        -11   -1    0    0    0    0  0.00000000000E+00  0.00000000000E+00  0.45593999997E+02  0.45594000000E+02  0.51100000000E-03 0.  1.
         11   -1    0    0    0    0 -0.00000000000E+00 -0.00000000000E+00 -0.45593999997E+02  0.45594000000E+02  0.51100000000E-03 0. -1.
    9900012    2    1    2    0    0 -0.40721348720E+02 -0.13887287971E+02 -0.57042277671E+01  0.47787271629E+02  0.20000002663E+02 0.  0.
         12    1    1    2    0    0  0.40721348720E+02  0.13887287971E+02  0.57042277671E+01  0.43400728371E+02  0.00000000000E+00 0. -1.
         11    1    3    3    0    0 -0.28835141743E+02 -0.87249909177E+01  0.29614049074E+01  0.30271451652E+02  0.51100000000E-03 0.  1.
        -11    1    3    3    0    0 -0.12508843056E+02 -0.58582321727E+01 -0.67262867174E+01  0.15363364607E+02  0.51100000000E-03 0. -1.
        -12    1    3    3    0    0  0.62263607867E+00  0.69593511919E+00 -0.19393459572E+01  0.21524553696E+01  0.00000000000E+00 0.  1.
</event>
<event>
 7    1  0.1631716E-009  0.4778727E+02  0.7816164E-02  0.1312668E+00
        -11   -1    0    0    0    0  0.00000000000E+00  0.00000000000E+00  0.45593999997E+02  0.45594000000E+02  0.51100000000E-03 0. -1.
         11   -1    0    0    0    0 -0.00000000000E+00 -0.00000000000E+00 -0.45593999997E+02  0.45594000000E+02  0.51100000000E-03 0.  1.
    9900012    2    1    2    0    0  0.39429271158E+02 -0.15937390921E+02 -0.86576766256E+01  0.47787271688E+02  0.20000002936E+02 0.  0.
         12    1    1    2    0    0 -0.39429271158E+02  0.15937390921E+02  0.86576766256E+01  0.43400728312E+02  0.00000000000E+00 0. -1.
         11    1    3    3    0    0  0.64725894624E+01 -0.24963711183E+01  0.59107624999E+01  0.91139122609E+01  0.51100000000E-03 0. -1.
        -11    1    3    3    0    0  0.12860619217E+02 -0.45371996107E+01 -0.35805070111E+01  0.14099707007E+02  0.51100000000E-03 0.  1.
        -12    1    3    3    0    0  0.20096062478E+02 -0.89038201923E+01 -0.10987932114E+02  0.24573652421E+02  0.00000000000E+00 0.  1.
</event>
<event>
 7    1  0.1631716E-009  0.4778727E+02  0.7816164E-02  0.1312668E+00
        -11   -1    0    0    0    0  0.00000000000E+00  0.00000000000E+00  0.45593999997E+02  0.45594000000E+02  0.51100000000E-03 0. -1.
         11   -1    0    0    0    0 -0.00000000000E+00 -0.00000000000E+00 -0.45593999997E+02  0.45594000000E+02  0.51100000000E-03 0.  1.
    9900012    2    1    2    0    0  0.34857927622E+02 -0.31855094827E+01 -0.25659321984E+02  0.47787269667E+02  0.19999993719E+02 0.  0.
         12    1    1    2    0    0 -0.34857927622E+02  0.31855094827E+01  0.25659321984E+02  0.43400730333E+02  0.00000000000E+00 0. -1.
         11    1    3    3    0    0  0.13760615414E+02 -0.31406658708E+01 -0.14740543114E+01  0.14191235150E+02  0.51100000000E-03 0. -1.
        -11    1    3    3    0    0  0.17351612700E+02  0.32010105871E+01 -0.14999344463E+02  0.23158265622E+02  0.51100000000E-03 0.  1.
        -12    1    3    3    0    0  0.37456995080E+01 -0.32458541990E+01 -0.91859232097E+01  0.10437768895E+02  0.00000000000E+00 0.  1.
</event>
<event>
 7    1  0.1631716E-009  0.4778727E+02  0.7816164E-02  0.1312668E+00
        -11   -1    0    0    0    0  0.00000000000E+00  0.00000000000E+00  0.45593999997E+02  0.45594000000E+02  0.51100000000E-03 0. -1.
         11   -1    0    0    0    0 -0.00000000000E+00 -0.00000000000E+00 -0.45593999997E+02  0.45594000000E+02  0.51100000000E-03 0.  1.
    9900012    2    1    2    0    0  0.27831565282E+02  0.32563504231E+02  0.69746330686E+01  0.47787270279E+02  0.19999996510E+02 0.  0.
         12    1    1    2    0    0 -0.27831565282E+02 -0.32563504231E+02 -0.69746330686E+01  0.43400729721E+02  0.00000000000E+00 0. -1.
         11    1    3    3    0    0  0.13367607010E+02  0.71869069481E+01  0.96139682223E-04  0.15177106079E+02  0.51100000000E-03 0. -1.
        -11    1    3    3    0    0  0.14453222221E+02  0.25376017050E+02  0.38160479630E+01  0.29451656934E+02  0.51100000000E-03 0.  1.
         12    1    3    3    0    0  0.10736051649E-01  0.58023343429E-03  0.31584889659E+01  0.31585072657E+01  0.00000000000E+00 0. -1.
</event>
<event>
 7    1  0.1631716E-009  0.4778727E+02  0.7816164E-02  0.1312668E+00
        -11   -1    0    0    0    0  0.00000000000E+00  0.00000000000E+00  0.45593999997E+02  0.45594000000E+02  0.51100000000E-03 0.  1.
         11   -1    0    0    0    0 -0.00000000000E+00 -0.00000000000E+00 -0.45593999997E+02  0.45594000000E+02  0.51100000000E-03 0. -1.
    9900012    2    1    2    0    0  0.28980938751E+02 -0.13097310953E+02  0.29532843646E+02  0.47787271678E+02  0.20000002887E+02 0.  0.
         12    1    1    2    0    0 -0.28980938751E+02  0.13097310953E+02 -0.29532843646E+02  0.43400728322E+02  0.00000000000E+00 0. -1.
         11    1    3    3    0    0  0.14159999231E+02  0.65184956592E+00  0.46299769473E+01  0.14911980850E+02  0.51100000000E-03 0. -1.
        -11    1    3    3    0    0  0.15815366325E+01 -0.52265251498E+01  0.43325888634E+01  0.69705917813E+01  0.51100000000E-03 0.  1.
         12    1    3    3    0    0  0.13239402887E+02 -0.85226353688E+01  0.20570277835E+02  0.25904699046E+02  0.00000000000E+00 0. -1.
</event>
<event>
 7    1  0.1631716E-009  0.4778726E+02  0.7816164E-02  0.1312668E+00
        -11   -1    0    0    0    0  0.00000000000E+00  0.00000000000E+00  0.45593999997E+02  0.45594000000E+02  0.51100000000E-03 0. -1.
         11   -1    0    0    0    0 -0.00000000000E+00 -0.00000000000E+00 -0.45593999997E+02  0.45594000000E+02  0.51100000000E-03 0.  1.
    9900012    2    1    2    0    0 -0.75361555336E+01  0.42741398926E+02 -0.56007370967E-01  0.47787263149E+02  0.19999964004E+02 0.  0.
         12    1    1    2    0    0  0.75361555336E+01 -0.42741398926E+02  0.56007370967E-01  0.43400736851E+02  0.00000000000E+00 0. -1.
         11    1    3    3    0    0  0.13265079474E+01  0.33970341312E+01  0.53219463527E+01  0.64515562049E+01  0.51100000000E-03 0. -1.
        -11    1    3    3    0    0 -0.39467093764E+01  0.73015798739E+01  0.78635020780E+00  0.83371416245E+01  0.51100000000E-03 0.  1.
        -12    1    3    3    0    0 -0.49159541045E+01  0.32042784921E+02 -0.61643039315E+01  0.32998565320E+02  0.00000000000E+00 0.  1.
</event>
<event>
 7    1  0.1631716E-009  0.4778727E+02  0.7816164E-02  0.1312668E+00
        -11   -1    0    0    0    0  0.00000000000E+00  0.00000000000E+00  0.45593999997E+02  0.45594000000E+02  0.51100000000E-03 0.  1.
         11   -1    0    0    0    0 -0.00000000000E+00 -0.00000000000E+00 -0.45593999997E+02  0.45594000000E+02  0.51100000000E-03 0. -1.
    9900012    2    1    2    0    0 -0.40610015845E+02  0.31648357711E+01  0.14981106435E+02  0.47787272789E+02  0.20000007955E+02 0.  0.
         12    1    1    2    0    0  0.40610015845E+02 -0.31648357711E+01 -0.14981106435E+02  0.43400727211E+02  0.00000000000E+00 0. -1.
         11    1    3    3    0    0 -0.66450287799E+01 -0.10172383595E+01  0.80548530599E+01  0.10491512734E+02  0.51100000000E-03 0. -1.
        -11    1    3    3    0    0 -0.33746599620E+02  0.50788213376E+01  0.87686055752E+01  0.35235150859E+02  0.51100000000E-03 0.  1.
         12    1    3    3    0    0 -0.21838744546E+00 -0.89674720698E+00 -0.18423522003E+01  0.20606091962E+01  0.00000000000E+00 0. -1.
</event>
<event>
 7    1  0.1631716E-009  0.4778727E+02  0.7816164E-02  0.1312668E+00
        -11   -1    0    0    0    0  0.00000000000E+00  0.00000000000E+00  0.45593999997E+02  0.45594000000E+02  0.51100000000E-03 0.  1.
         11   -1    0    0    0    0 -0.00000000000E+00 -0.00000000000E+00 -0.45593999997E+02  0.45594000000E+02  0.51100000000E-03 0. -1.
    9900012    2    1    2    0    0 -0.35596691421E+02  0.20788317124E+02 -0.13577363518E+02  0.47787269948E+02  0.19999994999E+02 0.  0.
         12    1    1    2    0    0  0.35596691421E+02 -0.20788317124E+02  0.13577363518E+02  0.43400730052E+02  0.00000000000E+00 0. -1.
         11    1    3    3    0    0 -0.88284071239E+01  0.12412724146E+02 -0.13729194266E+01  0.15293835395E+02  0.51100000000E-03 0. -1.
        -11    1    3    3    0    0 -0.24232961649E+02  0.10460013234E+02 -0.12487505148E+02  0.29199076907E+02  0.51100000000E-03 0.  1.
         12    1    3    3    0    0 -0.25353226484E+01 -0.20844202564E+01  0.28306105599E+00  0.32943576458E+01  0.00000000000E+00 0. -1.
</event>
<event>
 7    1  0.1631716E-009  0.4778727E+02  0.7816164E-02  0.1312668E+00
        -11   -1    0    0    0    0  0.00000000000E+00  0.00000000000E+00  0.45593999997E+02  0.45594000000E+02  0.51100000000E-03 0.  1.
         11   -1    0    0    0    0 -0.00000000000E+00 -0.00000000000E+00 -0.45593999997E+02  0.45594000000E+02  0.51100000000E-03 0. -1.
    9900012    2    1    2    0    0  0.40299197801E+01  0.39327518510E+02  0.17908910255E+02  0.47787273829E+02  0.20000012696E+02 0.  0.
         12    1    1    2    0    0 -0.40299197801E+01 -0.39327518510E+02 -0.17908910255E+02  0.43400726171E+02  0.00000000000E+00 0. -1.
         11    1    3    3    0    0 -0.33606261517E+01  0.17987421184E+02  0.12741857553E+02  0.22297893693E+02  0.51100000000E-03 0. -1.
        -11    1    3    3    0    0 -0.18535359166E+01  0.84696167910E+01  0.41458212622E+01  0.96102985479E+01  0.51100000000E-03 0.  1.
         12    1    3    3    0    0  0.92440818484E+01  0.12870480535E+02  0.10212314406E+01  0.15879081588E+02  0.00000000000E+00 0. -1.
</event>
<event>
 7    1  0.1631716E-009  0.4778726E+02  0.7816164E-02  0.1312668E+00
        -11   -1    0    0    0    0  0.00000000000E+00  0.00000000000E+00  0.45593999997E+02  0.45594000000E+02  0.51100000000E-03 0.  1.
         11   -1    0    0    0    0 -0.00000000000E+00 -0.00000000000E+00 -0.45593999997E+02  0.45594000000E+02  0.51100000000E-03 0. -1.
    9900012    2    1    2    0    0  0.10022138185E+02 -0.40495231004E+01  0.42033110835E+02  0.47787259250E+02  0.19999946226E+02 0.  0.
         12    1    1    2    0    0 -0.10022138185E+02  0.40495231004E+01 -0.42033110835E+02  0.43400740750E+02  0.00000000000E+00 0. -1.
         11    1    3    3    0    0  0.94925335492E+00 -0.69588182613E+01  0.25574939224E+02  0.26521759936E+02  0.51100000000E-03 0. -1.
        -11    1    3    3    0    0  0.84941546133E-03  0.41040492190E+01  0.69371720155E+01  0.80602466803E+01  0.51100000000E-03 0.  1.
         12    1    3    3    0    0  0.90720354151E+01 -0.11947540581E+01  0.95209995956E+01  0.13205252634E+02  0.00000000000E+00 0. -1.
</event>
<event>
 7    1  0.1829515E-009  0.4778728E+02  0.7816164E-02  0.1312668E+00
        -11   -1    0    0    0    0  0.00000000000E+00  0.00000000000E+00  0.45593999997E+02  0.45594000000E+02  0.51100000000E-03 0. -1.
         11   -1    0    0    0    0 -0.00000000000E+00 -0.00000000000E+00 -0.45593999997E+02  0.45594000000E+02  0.51100000000E-03 0.  1.
    9900012    2    1    2    0    0  0.22187934693E+02  0.16853324201E+02 -0.33275875988E+02  0.47787275290E+02  0.20000019358E+02 0.  0.
         12    1    1    2    0    0 -0.22187934693E+02 -0.16853324201E+02  0.33275875988E+02  0.43400724710E+02  0.00000000000E+00 0. -1.
         11    1    3    3    0    0  0.82733547214E+01 -0.64084422642E+00 -0.43099932946E+01  0.93506749558E+01  0.51100000000E-03 0. -1.
        -11    1    3    3    0    0  0.12142222759E+02  0.13877692174E+02 -0.14608786670E+02  0.23525317465E+02  0.51100000000E-03 0.  1.
         12    1    3    3    0    0  0.17723572129E+01  0.36164762533E+01 -0.14357096024E+02  0.14911282869E+02  0.00000000000E+00 0. -1.
</event>
<event>
 7    1  0.1631716E-009  0.4778727E+02  0.7816164E-02  0.1312668E+00
        -11   -1    0    0    0    0  0.00000000000E+00  0.00000000000E+00  0.45593999997E+02  0.45594000000E+02  0.51100000000E-03 0.  1.
         11   -1    0    0    0    0 -0.00000000000E+00 -0.00000000000E+00 -0.45593999997E+02  0.45594000000E+02  0.51100000000E-03 0. -1.
    9900012    2    1    2    0    0 -0.37911264588E+01  0.50683924730E+01  0.42936721347E+02  0.47787270950E+02  0.19999999569E+02 0.  0.
         12    1    1    2    0    0  0.37911264588E+01 -0.50683924730E+01 -0.42936721347E+02  0.43400729050E+02  0.00000000000E+00 0. -1.
         11    1    3    3    0    0  0.57296345058E+01  0.51452088735E+01  0.28919987797E+02  0.29927705899E+02  0.51100000000E-03 0.  1.
        -11    1    3    3    0    0 -0.51312204965E+01  0.32742568366E+00  0.11912937997E+02  0.12975157931E+02  0.51100000000E-03 0. -1.
        -12    1    3    3    0    0 -0.43895404681E+01 -0.40424208417E+00  0.21037955523E+01  0.48844071196E+01  0.00000000000E+00 0.  1.
</event>
<event>
 7    1  0.1631716E-009  0.4778726E+02  0.7816164E-02  0.1312668E+00
        -11   -1    0    0    0    0  0.00000000000E+00  0.00000000000E+00  0.45593999997E+02  0.45594000000E+02  0.51100000000E-03 0. -1.
         11   -1    0    0    0    0 -0.00000000000E+00 -0.00000000000E+00 -0.45593999997E+02  0.45594000000E+02  0.51100000000E-03 0.  1.
    9900012    2    1    2    0    0  0.28190521300E+02  0.32417893399E+02 -0.61642923933E+01  0.47787264933E+02  0.19999972137E+02 0.  0.
         12    1    1    2    0    0 -0.28190521300E+02 -0.32417893399E+02  0.61642923933E+01  0.43400735067E+02  0.00000000000E+00 0. -1.
         11    1    3    3    0    0  0.13524635599E+01  0.76788670697E+01  0.17653653502E+01  0.79944150653E+01  0.51100000000E-03 0. -1.
        -11    1    3    3    0    0  0.11057287782E+02  0.21845274216E+01 -0.50609708982E+00  0.11282371544E+02  0.51100000000E-03 0.  1.
        -12    1    3    3    0    0  0.15780769958E+02  0.22554498908E+02 -0.74235606537E+01  0.28510478324E+02  0.00000000000E+00 0.  1.
</event>
<event>
 7    1  0.1631716E-009  0.4778727E+02  0.7816164E-02  0.1312668E+00
        -11   -1    0    0    0    0  0.00000000000E+00  0.00000000000E+00  0.45593999997E+02  0.45594000000E+02  0.51100000000E-03 0.  1.
         11   -1    0    0    0    0 -0.00000000000E+00 -0.00000000000E+00 -0.45593999997E+02  0.45594000000E+02  0.51100000000E-03 0. -1.
    9900012    2    1    2    0    0  0.38944699100E+02  0.18615785653E+02  0.45150972296E+01  0.47787272281E+02  0.20000005640E+02 0.  0.
         12    1    1    2    0    0 -0.38944699100E+02 -0.18615785653E+02 -0.45150972296E+01  0.43400727719E+02  0.00000000000E+00 0. -1.
         11    1    3    3    0    0  0.13372590222E+02  0.32263093979E+01 -0.46535345219E+01  0.14522073729E+02  0.51100000000E-03 0. -1.
        -11    1    3    3    0    0  0.25676956844E+02  0.12500604018E+02  0.64086645306E+01  0.29268450504E+02  0.51100000000E-03 0.  1.
         12    1    3    3    0    0 -0.10484796596E+00  0.28888722371E+01  0.27599672210E+01  0.39967480480E+01  0.00000000000E+00 0. -1.
</event>
<event>
 7    1  0.1631716E-009  0.4778727E+02  0.7816164E-02  0.1312668E+00
        -11   -1    0    0    0    0  0.00000000000E+00  0.00000000000E+00  0.45593999997E+02  0.45594000000E+02  0.51100000000E-03 0.  1.
         11   -1    0    0    0    0 -0.00000000000E+00 -0.00000000000E+00 -0.45593999997E+02  0.45594000000E+02  0.51100000000E-03 0. -1.
    9900012    2    1    2    0    0  0.58746433365E+01  0.28511092044E+02  0.32190523462E+02  0.47787267233E+02  0.19999982624E+02 0.  0.
         12    1    1    2    0    0 -0.58746433365E+01 -0.28511092044E+02 -0.32190523462E+02  0.43400732767E+02  0.00000000000E+00 0. -1.
         11    1    3    3    0    0 -0.21131361091E+01  0.36198750624E+01  0.29527603135E+01  0.51271467127E+01  0.51100000000E-03 0. -1.
        -11    1    3    3    0    0  0.13084793646E+02  0.19235059612E+02  0.23960280768E+02  0.33396023682E+02  0.51100000000E-03 0.  1.
        -12    1    3    3    0    0 -0.50970142005E+01  0.56561573701E+01  0.52774823808E+01  0.92640968386E+01  0.00000000000E+00 0.  1.
</event>
<event>
 7    1  0.1631716E-009  0.4778727E+02  0.7816164E-02  0.1312668E+00
        -11   -1    0    0    0    0  0.00000000000E+00  0.00000000000E+00  0.45593999997E+02  0.45594000000E+02  0.51100000000E-03 0.  1.
         11   -1    0    0    0    0 -0.00000000000E+00 -0.00000000000E+00 -0.45593999997E+02  0.45594000000E+02  0.51100000000E-03 0. -1.
    9900012    2    1    2    0    0  0.15046427750E+01  0.16584406062E+02  0.40078884469E+02  0.47787268963E+02  0.19999990509E+02 0.  0.
         12    1    1    2    0    0 -0.15046427750E+01 -0.16584406062E+02 -0.40078884469E+02  0.43400731037E+02  0.00000000000E+00 0. -1.
         11    1    3    3    0    0  0.31676392642E+01  0.11324574850E+01  0.17975027895E+02  0.18287100004E+02  0.51100000000E-03 0. -1.
        -11    1    3    3    0    0  0.28709871839E+01  0.14591371099E+02  0.17741407512E+02  0.23149691547E+02  0.51100000000E-03 0.  1.
         12    1    3    3    0    0 -0.45339836731E+01  0.86057747776E+00  0.43624490615E+01  0.63504774117E+01  0.00000000000E+00 0. -1.
</event>
<event>
 7    1  0.1631716E-009  0.4778727E+02  0.7816164E-02  0.1312668E+00
        -11   -1    0    0    0    0  0.00000000000E+00  0.00000000000E+00  0.45593999997E+02  0.45594000000E+02  0.51100000000E-03 0. -1.
         11   -1    0    0    0    0 -0.00000000000E+00 -0.00000000000E+00 -0.45593999997E+02  0.45594000000E+02  0.51100000000E-03 0.  1.
    9900012    2    1    2    0    0  0.40362863694E+01  0.33028315120E+02 -0.27865064985E+02  0.47787273579E+02  0.20000011554E+02 0.  0.
         12    1    1    2    0    0 -0.40362863694E+01 -0.33028315120E+02  0.27865064985E+02  0.43400726421E+02  0.00000000000E+00 0. -1.
         11    1    3    3    0    0  0.25953157755E+01  0.45027034062E+01  0.26910651684E+00  0.52040772974E+01  0.51100000000E-03 0. -1.
        -11    1    3    3    0    0 -0.12952206060E+01  0.99760459702E+01 -0.17435069896E+01  0.10209745663E+02  0.51100000000E-03 0.  1.
        -12    1    3    3    0    0  0.27361911999E+01  0.18549565743E+02 -0.26390664512E+02  0.32373450618E+02  0.00000000000E+00 0.  1.
</event>
<event>
 7    1  0.1631716E-009  0.4778727E+02  0.7816164E-02  0.1312668E+00
        -11   -1    0    0    0    0  0.00000000000E+00  0.00000000000E+00  0.45593999997E+02  0.45594000000E+02  0.51100000000E-03 0. -1.
         11   -1    0    0    0    0 -0.00000000000E+00 -0.00000000000E+00 -0.45593999997E+02  0.45594000000E+02  0.51100000000E-03 0.  1.
    9900012    2    1    2    0    0  0.26436634992E+02  0.30256415198E+02 -0.16409661830E+02  0.47787270379E+02  0.19999996965E+02 0.  0.
         12    1    1    2    0    0 -0.26436634992E+02 -0.30256415198E+02  0.16409661830E+02  0.43400729621E+02  0.00000000000E+00 0. -1.
         11    1    3    3    0    0 -0.39615303824E-01  0.80845902787E+01 -0.19096638351E+01  0.83071647131E+01  0.51100000000E-03 0. -1.
        -11    1    3    3    0    0  0.82871060906E+01  0.41270906196E+00 -0.42662791937E+01  0.93299300397E+01  0.51100000000E-03 0.  1.
        -12    1    3    3    0    0  0.18189144205E+02  0.21759115857E+02 -0.10233718801E+02  0.30150175626E+02  0.00000000000E+00 0.  1.
</event>
<event>
 7    1  0.1631716E-009  0.4778727E+02  0.7816164E-02  0.1312668E+00
        -11   -1    0    0    0    0  0.00000000000E+00  0.00000000000E+00  0.45593999997E+02  0.45594000000E+02  0.51100000000E-03 0.  1.
         11   -1    0    0    0    0 -0.00000000000E+00 -0.00000000000E+00 -0.45593999997E+02  0.45594000000E+02  0.51100000000E-03 0. -1.
    9900012    2    1    2    0    0 -0.28554395479E+02  0.28863109747E+02  0.15335926356E+02  0.47787271405E+02  0.20000001642E+02 0.  0.
         12    1    1    2    0    0  0.28554395479E+02 -0.28863109747E+02 -0.15335926356E+02  0.43400728595E+02  0.00000000000E+00 0. -1.
         11    1    3    3    0    0  0.28825476909E+00  0.10980674851E+01  0.46258503129E+01  0.47631223364E+01  0.51100000000E-03 0. -1.
        -11    1    3    3    0    0 -0.78794095490E+01  0.87366294211E+01 -0.20975742097E+01  0.11950464690E+02  0.51100000000E-03 0.  1.
        -12    1    3    3    0    0 -0.20963240699E+02  0.19028412841E+02  0.12807650252E+02  0.31073684378E+02  0.00000000000E+00 0.  1.
</event>
<event>
 7    1  0.1631716E-009  0.4778727E+02  0.7816164E-02  0.1312668E+00
        -11   -1    0    0    0    0  0.00000000000E+00  0.00000000000E+00  0.45593999997E+02  0.45594000000E+02  0.51100000000E-03 0. -1.
         11   -1    0    0    0    0 -0.00000000000E+00 -0.00000000000E+00 -0.45593999997E+02  0.45594000000E+02  0.51100000000E-03 0.  1.
    9900012    2    1    2    0    0 -0.26569213543E+01 -0.42145340127E+02 -0.10016697962E+02  0.47787272315E+02  0.20000005792E+02 0.  0.
         12    1    1    2    0    0  0.26569213543E+01  0.42145340127E+02  0.10016697962E+02  0.43400727685E+02  0.00000000000E+00 0. -1.
         11    1    3    3    0    0  0.45083721192E+00 -0.69647369043E+01  0.20248261000E+01  0.72670995131E+01  0.51100000000E-03 0. -1.
        -11    1    3    3    0    0  0.45004774113E+01 -0.14109798803E+02  0.55256805419E+00  0.14820460550E+02  0.51100000000E-03 0.  1.
        -12    1    3    3    0    0 -0.76082359775E+01 -0.21070804420E+02 -0.12594092116E+02  0.25699712252E+02  0.00000000000E+00 0.  1.
</event>
<event>
 7    1  0.1631716E-009  0.4778727E+02  0.7816164E-02  0.1312668E+00
        -11   -1    0    0    0    0  0.00000000000E+00  0.00000000000E+00  0.45593999997E+02  0.45594000000E+02  0.51100000000E-03 0.  1.
         11   -1    0    0    0    0 -0.00000000000E+00 -0.00000000000E+00 -0.45593999997E+02  0.45594000000E+02  0.51100000000E-03 0. -1.
    9900012    2    1    2    0    0 -0.20037150390E+02 -0.36619937812E+02 -0.11879217302E+02  0.47787273683E+02  0.20000012029E+02 0.  0.
         12    1    1    2    0    0  0.20037150390E+02  0.36619937812E+02  0.11879217302E+02  0.43400726317E+02  0.00000000000E+00 0. -1.
         11    1    3    3    0    0 -0.20597132064E+01 -0.36661759389E+01 -0.41398291427E+01  0.59009702676E+01  0.51100000000E-03 0. -1.
        -11    1    3    3    0    0 -0.10097233401E+02 -0.30981359224E+02 -0.86454053856E+01  0.33712635261E+02  0.51100000000E-03 0.  1.
         12    1    3    3    0    0 -0.78802037832E+01 -0.19724026495E+01  0.90601722588E+00  0.81736681539E+01  0.00000000000E+00 0. -1.
</event>
<event>
 7    1  0.1631716E-009  0.4778727E+02  0.7816164E-02  0.1312668E+00
        -11   -1    0    0    0    0  0.00000000000E+00  0.00000000000E+00  0.45593999997E+02  0.45594000000E+02  0.51100000000E-03 0. -1.
         11   -1    0    0    0    0 -0.00000000000E+00 -0.00000000000E+00 -0.45593999997E+02  0.45594000000E+02  0.51100000000E-03 0.  1.
    9900012    2    1    2    0    0 -0.31583746382E+02 -0.16044528638E+02 -0.25073161666E+02  0.47787269930E+02  0.19999994917E+02 0.  0.
         12    1    1    2    0    0  0.31583746382E+02  0.16044528638E+02  0.25073161666E+02  0.43400730070E+02  0.00000000000E+00 0. -1.
         11    1    3    3    0    0 -0.19866433476E+02 -0.41526905687E+01 -0.16007098609E+02  0.25848543946E+02  0.51100000000E-03 0. -1.
        -11    1    3    3    0    0 -0.98038582309E+01 -0.11215101670E+02 -0.11464312080E+02  0.18796930426E+02  0.51100000000E-03 0.  1.
         12    1    3    3    0    0 -0.19134546756E+01 -0.67673639843E+00  0.23982490234E+01  0.31417955578E+01  0.00000000000E+00 0. -1.
</event>
<event>
 7    1  0.1631716E-009  0.4778727E+02  0.7816164E-02  0.1312668E+00
        -11   -1    0    0    0    0  0.00000000000E+00  0.00000000000E+00  0.45593999997E+02  0.45594000000E+02  0.51100000000E-03 0. -1.
         11   -1    0    0    0    0 -0.00000000000E+00 -0.00000000000E+00 -0.45593999997E+02  0.45594000000E+02  0.51100000000E-03 0.  1.
    9900012    2    1    2    0    0  0.93428006529E+01 -0.26418196850E+02 -0.33142330367E+02  0.47787272921E+02  0.20000008557E+02 0.  0.
         12    1    1    2    0    0 -0.93428006529E+01  0.26418196850E+02  0.33142330367E+02  0.43400727079E+02  0.00000000000E+00 0. -1.
         11    1    3    3    0    0  0.11723241696E+01  0.24383050233E+01 -0.42322853160E+01  0.50231379239E+01  0.51100000000E-03 0. -1.
        -11    1    3    3    0    0  0.78593751485E+01 -0.11123758024E+02 -0.10469815225E+02  0.17179196763E+02  0.51100000000E-03 0.  1.
        -12    1    3    3    0    0  0.31110133481E+00 -0.17732743849E+02 -0.18440229826E+02  0.25584938235E+02  0.00000000000E+00 0.  1.
</event>
<event>
 7    1  0.1631716E-009  0.4778727E+02  0.7816164E-02  0.1312668E+00
        -11   -1    0    0    0    0  0.00000000000E+00  0.00000000000E+00  0.45593999997E+02  0.45594000000E+02  0.51100000000E-03 0.  1.
         11   -1    0    0    0    0 -0.00000000000E+00 -0.00000000000E+00 -0.45593999997E+02  0.45594000000E+02  0.51100000000E-03 0. -1.
    9900012    2    1    2    0    0 -0.10775625523E+02 -0.68390931501E+01  0.41481755220E+02  0.47787270551E+02  0.19999997751E+02 0.  0.
         12    1    1    2    0    0  0.10775625523E+02  0.68390931501E+01 -0.41481755220E+02  0.43400729449E+02  0.00000000000E+00 0. -1.
         11    1    3    3    0    0 -0.23991998132E+01  0.20721763124E+01  0.19241931622E+01  0.37084490019E+01  0.51100000000E-03 0. -1.
        -11    1    3    3    0    0 -0.10497929484E+02 -0.84119382572E+00  0.16674823521E+02  0.19722166975E+02  0.51100000000E-03 0.  1.
        -12    1    3    3    0    0  0.21215037738E+01 -0.80700756368E+01  0.22882738538E+02  0.24356654574E+02  0.00000000000E+00 0.  1.
</event>
<event>
 7    1  0.1631716E-009  0.4778727E+02  0.7816164E-02  0.1312668E+00
        -11   -1    0    0    0    0  0.00000000000E+00  0.00000000000E+00  0.45593999997E+02  0.45594000000E+02  0.51100000000E-03 0. -1.
         11   -1    0    0    0    0 -0.00000000000E+00 -0.00000000000E+00 -0.45593999997E+02  0.45594000000E+02  0.51100000000E-03 0.  1.
    9900012    2    1    2    0    0  0.25090421671E+02 -0.25915558947E+02 -0.24134574418E+02  0.47787272615E+02  0.20000007161E+02 0.  0.
         12    1    1    2    0    0 -0.25090421671E+02  0.25915558947E+02  0.24134574418E+02  0.43400727385E+02  0.00000000000E+00 0. -1.
         11    1    3    3    0    0  0.18502369564E+01  0.23745584589E+01 -0.28076044681E+01  0.41163755635E+01  0.51100000000E-03 0. -1.
        -11    1    3    3    0    0  0.11357395274E+02 -0.11916114331E+02 -0.37795315590E+01  0.16889910220E+02  0.51100000000E-03 0.  1.
         12    1    3    3    0    0  0.11882789441E+02 -0.16374003075E+02 -0.17547438391E+02  0.26780986832E+02  0.00000000000E+00 0. -1.
</event>
<event>
 7    1  0.1631716E-009  0.4778728E+02  0.7816164E-02  0.1312668E+00
        -11   -1    0    0    0    0  0.00000000000E+00  0.00000000000E+00  0.45593999997E+02  0.45594000000E+02  0.51100000000E-03 0.  1.
         11   -1    0    0    0    0 -0.00000000000E+00 -0.00000000000E+00 -0.45593999997E+02  0.45594000000E+02  0.51100000000E-03 0. -1.
    9900012    2    1    2    0    0 -0.19408751664E+02 -0.33891173581E+02  0.18929121163E+02  0.47787275169E+02  0.20000018806E+02 0.  0.
         12    1    1    2    0    0  0.19408751664E+02  0.33891173581E+02 -0.18929121163E+02  0.43400724831E+02  0.00000000000E+00 0. -1.
         11    1    3    3    0    0  0.71296949103E+00 -0.14681483029E+01  0.79802496895E+00  0.18167633436E+01  0.51100000000E-03 0. -1.
        -11    1    3    3    0    0 -0.11894890305E+02 -0.14603272284E+02  0.18415245872E+02  0.26341322244E+02  0.51100000000E-03 0.  1.
         12    1    3    3    0    0 -0.82268308504E+01 -0.17819752993E+02 -0.28414967753E+00  0.19629189582E+02  0.00000000000E+00 0. -1.
</event>
<event>
 7    1  0.1631716E-009  0.4778727E+02  0.7816164E-02  0.1312668E+00
        -11   -1    0    0    0    0  0.00000000000E+00  0.00000000000E+00  0.45593999997E+02  0.45594000000E+02  0.51100000000E-03 0.  1.
         11   -1    0    0    0    0 -0.00000000000E+00 -0.00000000000E+00 -0.45593999997E+02  0.45594000000E+02  0.51100000000E-03 0. -1.
    9900012    2    1    2    0    0 -0.34626904674E+02 -0.20876321329E+02  0.15772760117E+02  0.47787270959E+02  0.19999999611E+02 0.  0.
         12    1    1    2    0    0  0.34626904674E+02  0.20876321329E+02 -0.15772760117E+02  0.43400729041E+02  0.00000000000E+00 0. -1.
         11    1    3    3    0    0 -0.11583960305E+02 -0.87022190291E+00  0.51690706849E+01  0.12714743982E+02  0.51100000000E-03 0. -1.
        -11    1    3    3    0    0 -0.13927314699E+02 -0.12828486957E+02 -0.59882978835E+00  0.18944623768E+02  0.51100000000E-03 0.  1.
         12    1    3    3    0    0 -0.91156296697E+01 -0.71776124692E+01  0.11202519221E+02  0.16127903209E+02  0.00000000000E+00 0. -1.
</event>
<event>
 7    1  0.1631716E-009  0.4778727E+02  0.7816164E-02  0.1312668E+00
        -11   -1    0    0    0    0  0.00000000000E+00  0.00000000000E+00  0.45593999997E+02  0.45594000000E+02  0.51100000000E-03 0. -1.
         11   -1    0    0    0    0 -0.00000000000E+00 -0.00000000000E+00 -0.45593999997E+02  0.45594000000E+02  0.51100000000E-03 0.  1.
    9900012    2    1    2    0    0  0.16745793141E+02 -0.34509811827E+02 -0.20304553319E+02  0.47787267452E+02  0.19999983619E+02 0.  0.
         12    1    1    2    0    0 -0.16745793141E+02  0.34509811827E+02  0.20304553319E+02  0.43400732548E+02  0.00000000000E+00 0. -1.
         11    1    3    3    0    0  0.22396103711E+01 -0.52373514415E+01 -0.10155169401E+02  0.11643589247E+02  0.51100000000E-03 0. -1.
        -11    1    3    3    0    0  0.15541203518E+01 -0.52195425817E+01  0.25550680437E+01  0.60155870702E+01  0.51100000000E-03 0.  1.
        -12    1    3    3    0    0  0.12952062418E+02 -0.24052917803E+02 -0.12704451962E+02  0.30128091134E+02  0.00000000000E+00 0.  1.
</event>
<event>
 7    1  0.1631716E-009  0.4778727E+02  0.7816164E-02  0.1312668E+00
        -11   -1    0    0    0    0  0.00000000000E+00  0.00000000000E+00  0.45593999997E+02  0.45594000000E+02  0.51100000000E-03 0.  1.
         11   -1    0    0    0    0 -0.00000000000E+00 -0.00000000000E+00 -0.45593999997E+02  0.45594000000E+02  0.51100000000E-03 0. -1.
    9900012    2    1    2    0    0  0.10201598532E+02  0.21779028726E+02  0.36127893102E+02  0.47787269997E+02  0.19999995223E+02 0.  0.
         12    1    1    2    0    0 -0.10201598532E+02 -0.21779028726E+02 -0.36127893102E+02  0.43400730003E+02  0.00000000000E+00 0. -1.
         11    1    3    3    0    0  0.19199137551E+01  0.24656830013E+01  0.14901328320E+02  0.15225480205E+02  0.51100000000E-03 0. -1.
        -11    1    3    3    0    0  0.11658266563E+02  0.14705824650E+02  0.17989039630E+02  0.25995807450E+02  0.51100000000E-03 0.  1.
         12    1    3    3    0    0 -0.33765817861E+01  0.46075210747E+01  0.32375251509E+01  0.65659823419E+01  0.00000000000E+00 0. -1.
</event>
<event>
 7    1  0.1631716E-009  0.4778729E+02  0.7816164E-02  0.1312668E+00
        -11   -1    0    0    0    0  0.00000000000E+00  0.00000000000E+00  0.45593999997E+02  0.45594000000E+02  0.51100000000E-03 0.  1.
         11   -1    0    0    0    0 -0.00000000000E+00 -0.00000000000E+00 -0.45593999997E+02  0.45594000000E+02  0.51100000000E-03 0. -1.
    9900012    2    1    2    0    0  0.18949564438E+02  0.26291689848E+02 -0.28866636442E+02  0.47787289788E+02  0.20000085457E+02 0.  0.
         12    1    1    2    0    0 -0.18949564438E+02 -0.26291689848E+02  0.28866636442E+02  0.43400710212E+02  0.00000000000E+00 0. -1.
         11    1    3    3    0    0  0.30574647725E+01  0.33979518803E+01 -0.43612430221E-02  0.45710159809E+01  0.51100000000E-03 0. -1.
        -11    1    3    3    0    0  0.11755247119E+02  0.24924128262E+02 -0.24719973993E+02  0.37019928673E+02  0.51100000000E-03 0.  1.
        -12    1    3    3    0    0  0.41368525460E+01 -0.20303902943E+01 -0.41423012061E+01  0.61963451337E+01  0.00000000000E+00 0.  1.
</event>
<event>
 7    1  0.1631716E-009  0.4778727E+02  0.7816164E-02  0.1312668E+00
        -11   -1    0    0    0    0  0.00000000000E+00  0.00000000000E+00  0.45593999997E+02  0.45594000000E+02  0.51100000000E-03 0.  1.
         11   -1    0    0    0    0 -0.00000000000E+00 -0.00000000000E+00 -0.45593999997E+02  0.45594000000E+02  0.51100000000E-03 0. -1.
    9900012    2    1    2    0    0  0.16903894459E+02  0.25471135698E+01  0.39892275965E+02  0.47787272851E+02  0.20000008235E+02 0.  0.
         12    1    1    2    0    0 -0.16903894459E+02 -0.25471135698E+01 -0.39892275965E+02  0.43400727149E+02  0.00000000000E+00 0. -1.
         11    1    3    3    0    0  0.50125486066E+01 -0.31133305925E+01  0.10513181052E+02  0.12055929952E+02  0.51100000000E-03 0. -1.
        -11    1    3    3    0    0  0.12922111549E+02 -0.15743903546E+01  0.18233851897E+02  0.22403861880E+02  0.51100000000E-03 0.  1.
         12    1    3    3    0    0 -0.10307656971E+01  0.72348345169E+01  0.11145243017E+02  0.13327481019E+02  0.00000000000E+00 0. -1.
</event>
<event>
 7    1  0.1631716E-009  0.4778727E+02  0.7816164E-02  0.1312668E+00
        -11   -1    0    0    0    0  0.00000000000E+00  0.00000000000E+00  0.45593999997E+02  0.45594000000E+02  0.51100000000E-03 0.  1.
         11   -1    0    0    0    0 -0.00000000000E+00 -0.00000000000E+00 -0.45593999997E+02  0.45594000000E+02  0.51100000000E-03 0. -1.
    9900012    2    1    2    0    0  0.34777156188E+02  0.16432368644E+02  0.20103477247E+02  0.47787272712E+02  0.20000007601E+02 0.  0.
         12    1    1    2    0    0 -0.34777156188E+02 -0.16432368644E+02 -0.20103477247E+02  0.43400727288E+02  0.00000000000E+00 0. -1.
         11    1    3    3    0    0  0.22378753465E+02  0.37892769363E+01  0.12654695976E+02  0.25986699615E+02  0.51100000000E-03 0. -1.
        -11    1    3    3    0    0  0.12440302213E+02  0.85927530883E+01  0.23695070080E+01  0.15303956629E+02  0.51100000000E-03 0.  1.
        -12    1    3    3    0    0 -0.41899489903E-01  0.40503386195E+01  0.50792742624E+01  0.64966164680E+01  0.00000000000E+00 0.  1.
</event>
<event>
 7    1  0.2482594E-009  0.4778727E+02  0.7816164E-02  0.1312668E+00
        -11   -1    0    0    0    0  0.00000000000E+00  0.00000000000E+00  0.45593999997E+02  0.45594000000E+02  0.51100000000E-03 0. -1.
         11   -1    0    0    0    0 -0.00000000000E+00 -0.00000000000E+00 -0.45593999997E+02  0.45594000000E+02  0.51100000000E-03 0.  1.
    9900012    2    1    2    0    0  0.30092116478E+02 -0.25737746204E+02 -0.17766721435E+02  0.47787269080E+02  0.19999991045E+02 0.  0.
         12    1    1    2    0    0 -0.30092116478E+02  0.25737746204E+02  0.17766721435E+02  0.43400730920E+02  0.00000000000E+00 0. -1.
         11    1    3    3    0    0  0.13907644232E+02 -0.53872331495E+01 -0.14265983387E+02  0.20638874275E+02  0.51100000000E-03 0. -1.
        -11    1    3    3    0    0  0.11763422524E+02 -0.93210256413E+01 -0.25952715945E+01  0.15231384159E+02  0.51100000000E-03 0.  1.
         12    1    3    3    0    0  0.44210497223E+01 -0.11029487414E+02 -0.90546645351E+00  0.11917010647E+02  0.00000000000E+00 0. -1.
</event>
<event>
 7    1  0.1631716E-009  0.4778727E+02  0.7816164E-02  0.1312668E+00
        -11   -1    0    0    0    0  0.00000000000E+00  0.00000000000E+00  0.45593999997E+02  0.45594000000E+02  0.51100000000E-03 0.  1.
         11   -1    0    0    0    0 -0.00000000000E+00 -0.00000000000E+00 -0.45593999997E+02  0.45594000000E+02  0.51100000000E-03 0. -1.
    9900012    2    1    2    0    0 -0.78912216668E+01 -0.42607832565E+02 -0.24340874651E+01  0.47787267782E+02  0.19999985125E+02 0.  0.
         12    1    1    2    0    0  0.78912216668E+01  0.42607832565E+02  0.24340874651E+01  0.43400732218E+02  0.00000000000E+00 0. -1.
         11    1    3    3    0    0  0.26105018342E+01 -0.19068821105E+02 -0.34188807965E+01  0.19547976988E+02  0.51100000000E-03 0. -1.
        -11    1    3    3    0    0  0.76071459915E+00 -0.11258611947E+02 -0.15307111534E+01  0.11387629541E+02  0.51100000000E-03 0.  1.
        -12    1    3    3    0    0 -0.11262438100E+02 -0.12280399513E+02  0.25155044848E+01  0.16851661253E+02  0.00000000000E+00 0.  1.
</event>
<event>
 7    1  0.1631716E-009  0.4778727E+02  0.7816164E-02  0.1312668E+00
        -11   -1    0    0    0    0  0.00000000000E+00  0.00000000000E+00  0.45593999997E+02  0.45594000000E+02  0.51100000000E-03 0.  1.
         11   -1    0    0    0    0 -0.00000000000E+00 -0.00000000000E+00 -0.45593999997E+02  0.45594000000E+02  0.51100000000E-03 0. -1.
    9900012    2    1    2    0    0  0.90097089443E+00 -0.43091061644E+02  0.50962988641E+01  0.47787267238E+02  0.19999982646E+02 0.  0.
         12    1    1    2    0    0 -0.90097089443E+00  0.43091061644E+02 -0.50962988641E+01  0.43400732762E+02  0.00000000000E+00 0. -1.
         11    1    3    3    0    0 -0.36889269464E+01 -0.99623737659E+01  0.51203392585E+01  0.11793004174E+02  0.51100000000E-03 0. -1.
        -11    1    3    3    0    0 -0.12188282425E+00 -0.20980532341E+02 -0.57607646905E+01  0.21757389614E+02  0.51100000000E-03 0.  1.
         12    1    3    3    0    0  0.47117806651E+01 -0.12148155537E+02  0.57367242961E+01  0.14236873450E+02  0.00000000000E+00 0. -1.
</event>
<event>
 7    1  0.1631716E-009  0.4778727E+02  0.7816164E-02  0.1312668E+00
        -11   -1    0    0    0    0  0.00000000000E+00  0.00000000000E+00  0.45593999997E+02  0.45594000000E+02  0.51100000000E-03 0.  1.
         11   -1    0    0    0    0 -0.00000000000E+00 -0.00000000000E+00 -0.45593999997E+02  0.45594000000E+02  0.51100000000E-03 0. -1.
    9900012    2    1    2    0    0  0.11291431146E+02  0.31606895518E+02 -0.27516020575E+02  0.47787266712E+02  0.19999980249E+02 0.  0.
         12    1    1    2    0    0 -0.11291431146E+02 -0.31606895518E+02  0.27516020575E+02  0.43400733288E+02  0.00000000000E+00 0. -1.
         11    1    3    3    0    0  0.27934535920E+01  0.46538436120E+01 -0.13816325165E+02  0.14844274474E+02  0.51100000000E-03 0. -1.
        -11    1    3    3    0    0  0.34393314006E+01  0.40371144380E+01 -0.65138163820E+01  0.83998272356E+01  0.51100000000E-03 0.  1.
        -12    1    3    3    0    0  0.50586461533E+01  0.22915937468E+02 -0.71858790279E+01  0.24543165003E+02  0.00000000000E+00 0.  1.
</event>
<event>
 7    1  0.1631716E-009  0.4778727E+02  0.7816164E-02  0.1312668E+00
        -11   -1    0    0    0    0  0.00000000000E+00  0.00000000000E+00  0.45593999997E+02  0.45594000000E+02  0.51100000000E-03 0.  1.
         11   -1    0    0    0    0 -0.00000000000E+00 -0.00000000000E+00 -0.45593999997E+02  0.45594000000E+02  0.51100000000E-03 0. -1.
    9900012    2    1    2    0    0  0.33476222130E+02 -0.20152316963E+01  0.27548223160E+02  0.47787271825E+02  0.20000003558E+02 0.  0.
         12    1    1    2    0    0 -0.33476222130E+02  0.20152316963E+01 -0.27548223160E+02  0.43400728175E+02  0.00000000000E+00 0. -1.
         11    1    3    3    0    0  0.40866312095E+01 -0.57666554246E+01  0.78920471638E+01  0.10594304042E+02  0.51100000000E-03 0.  1.
        -11    1    3    3    0    0  0.22829569025E+02  0.13870105165E+01  0.19750640321E+02  0.30219212653E+02  0.51100000000E-03 0. -1.
         12    1    3    3    0    0  0.65600218955E+01  0.23644132119E+01 -0.94464324483E-01  0.69737551301E+01  0.00000000000E+00 0. -1.
</event>
<event>
 7    1  0.1631716E-009  0.4778727E+02  0.7816164E-02  0.1312668E+00
        -11   -1    0    0    0    0  0.00000000000E+00  0.00000000000E+00  0.45593999997E+02  0.45594000000E+02  0.51100000000E-03 0. -1.
         11   -1    0    0    0    0 -0.00000000000E+00 -0.00000000000E+00 -0.45593999997E+02  0.45594000000E+02  0.51100000000E-03 0.  1.
    9900012    2    1    2    0    0 -0.26704214619E+02  0.30935590173E+02 -0.14611551169E+02  0.47787271373E+02  0.20000001498E+02 0.  0.
         12    1    1    2    0    0  0.26704214619E+02 -0.30935590173E+02  0.14611551169E+02  0.43400728627E+02  0.00000000000E+00 0. -1.
         11    1    3    3    0    0 -0.72212744985E+01  0.17546715740E+01 -0.16214196538E+01  0.76062263752E+01  0.51100000000E-03 0. -1.
        -11    1    3    3    0    0 -0.16721826142E+02  0.30334045715E+02 -0.13442642246E+02  0.37154790132E+02  0.51100000000E-03 0.  1.
         12    1    3    3    0    0 -0.27611139794E+01 -0.11531271154E+01  0.45251073107E+00  0.30262548658E+01  0.00000000000E+00 0. -1.
</event>
<event>
 7    1  0.1631716E-009  0.4778727E+02  0.7816164E-02  0.1312668E+00
        -11   -1    0    0    0    0  0.00000000000E+00  0.00000000000E+00  0.45593999997E+02  0.45594000000E+02  0.51100000000E-03 0.  1.
         11   -1    0    0    0    0 -0.00000000000E+00 -0.00000000000E+00 -0.45593999997E+02  0.45594000000E+02  0.51100000000E-03 0. -1.
    9900012    2    1    2    0    0  0.13784849033E+02 -0.29180974039E+02  0.29018477378E+02  0.47787270305E+02  0.19999996630E+02 0.  0.
         12    1    1    2    0    0 -0.13784849033E+02  0.29180974039E+02 -0.29018477378E+02  0.43400729695E+02  0.00000000000E+00 0. -1.
         11    1    3    3    0    0  0.46925259632E+01 -0.12537670284E+02  0.57525285753E+01  0.14570674705E+02  0.51100000000E-03 0. -1.
        -11    1    3    3    0    0  0.97621209707E+01 -0.18540652221E+02  0.18158107224E+02  0.27726731665E+02  0.51100000000E-03 0.  1.
         12    1    3    3    0    0 -0.66979790118E+00  0.18973484668E+01  0.51078415788E+01  0.54898639353E+01  0.00000000000E+00 0. -1.
</event>
<event>
 7    1  0.1631716E-009  0.4778727E+02  0.7816164E-02  0.1312668E+00
        -11   -1    0    0    0    0  0.00000000000E+00  0.00000000000E+00  0.45593999997E+02  0.45594000000E+02  0.51100000000E-03 0. -1.
         11   -1    0    0    0    0 -0.00000000000E+00 -0.00000000000E+00 -0.45593999997E+02  0.45594000000E+02  0.51100000000E-03 0.  1.
    9900012    2    1    2    0    0  0.35428429654E+02  0.31899266872E+01  0.24865125264E+02  0.47787265969E+02  0.19999976861E+02 0.  0.
         12    1    1    2    0    0 -0.35428429654E+02 -0.31899266872E+01 -0.24865125264E+02  0.43400734031E+02  0.00000000000E+00 0. -1.
         11    1    3    3    0    0  0.29168648032E+01  0.10287820430E+01  0.97872295173E+01  0.10264324364E+02  0.51100000000E-03 0. -1.
        -11    1    3    3    0    0  0.52034291597E+01 -0.18406853588E+01  0.66978155439E+01  0.86789706147E+01  0.51100000000E-03 0.  1.
        -12    1    3    3    0    0  0.27308135691E+02  0.40018300030E+01  0.83800802029E+01  0.28843970990E+02  0.00000000000E+00 0.  1.
</event>
<event>
 7    1  0.1631716E-009  0.4778728E+02  0.7816164E-02  0.1312668E+00
        -11   -1    0    0    0    0  0.00000000000E+00  0.00000000000E+00  0.45593999997E+02  0.45594000000E+02  0.51100000000E-03 0.  1.
         11   -1    0    0    0    0 -0.00000000000E+00 -0.00000000000E+00 -0.45593999997E+02  0.45594000000E+02  0.51100000000E-03 0. -1.
    9900012    2    1    2    0    0  0.39793129260E+01 -0.11484038977E+02  0.41664188048E+02  0.47787278252E+02  0.20000032861E+02 0.  0.
         12    1    1    2    0    0 -0.39793129260E+01  0.11484038977E+02 -0.41664188048E+02  0.43400721748E+02  0.00000000000E+00 0. -1.
         11    1    3    3    0    0  0.94949427648E+01 -0.49202589719E+01  0.14103148420E+02  0.17699200040E+02  0.51100000000E-03 0. -1.
        -11    1    3    3    0    0 -0.21818929120E+01 -0.61940395160E+01  0.85372706253E+01  0.10770876111E+02  0.51100000000E-03 0.  1.
        -12    1    3    3    0    0 -0.33337369268E+01 -0.36974048869E+00  0.19023769003E+02  0.19317202101E+02  0.00000000000E+00 0.  1.
</event>
<event>
 7    1  0.1631716E-009  0.4778727E+02  0.7816164E-02  0.1312668E+00
        -11   -1    0    0    0    0  0.00000000000E+00  0.00000000000E+00  0.45593999997E+02  0.45594000000E+02  0.51100000000E-03 0. -1.
         11   -1    0    0    0    0 -0.00000000000E+00 -0.00000000000E+00 -0.45593999997E+02  0.45594000000E+02  0.51100000000E-03 0.  1.
    9900012    2    1    2    0    0 -0.22880912789E+02  0.49231994160E+01 -0.36549267250E+02  0.47787274210E+02  0.20000014435E+02 0.  0.
         12    1    1    2    0    0  0.22880912789E+02 -0.49231994160E+01  0.36549267250E+02  0.43400725790E+02  0.00000000000E+00 0. -1.
         11    1    3    3    0    0  0.13463325653E-01  0.53231475104E+01 -0.53145535181E+01  0.75220050543E+01  0.51100000000E-03 0. -1.
        -11    1    3    3    0    0 -0.11962099550E+02  0.12351309675E+01 -0.24576644083E+02  0.27361082011E+02  0.51100000000E-03 0.  1.
        -12    1    3    3    0    0 -0.10932276565E+02 -0.16350790619E+01 -0.66580696487E+01  0.12904187145E+02  0.00000000000E+00 0.  1.
</event>
<event>
 7    1  0.1631716E-009  0.4778727E+02  0.7816164E-02  0.1312668E+00
        -11   -1    0    0    0    0  0.00000000000E+00  0.00000000000E+00  0.45593999997E+02  0.45594000000E+02  0.51100000000E-03 0.  1.
         11   -1    0    0    0    0 -0.00000000000E+00 -0.00000000000E+00 -0.45593999997E+02  0.45594000000E+02  0.51100000000E-03 0. -1.
    9900012    2    1    2    0    0  0.34138871556E+02 -0.22683522946E+02  0.14269485714E+02  0.47787274351E+02  0.20000015075E+02 0.  0.
         12    1    1    2    0    0 -0.34138871556E+02  0.22683522946E+02 -0.14269485714E+02  0.43400725649E+02  0.00000000000E+00 0. -1.
         11    1    3    3    0    0  0.17897911037E+01 -0.23542625841E+00 -0.34822118357E+01  0.39223178413E+01  0.51100000000E-03 0. -1.
        -11    1    3    3    0    0  0.22459505539E+01 -0.17035203322E+01  0.38071021402E+01  0.47371196290E+01  0.51100000000E-03 0.  1.
         12    1    3    3    0    0  0.30103129898E+02 -0.20744576355E+02  0.13944595409E+02  0.39127836881E+02  0.00000000000E+00 0. -1.
</event>
<event>
 7    1  0.1631716E-009  0.4778728E+02  0.7816164E-02  0.1312668E+00
        -11   -1    0    0    0    0  0.00000000000E+00  0.00000000000E+00  0.45593999997E+02  0.45594000000E+02  0.51100000000E-03 0.  1.
         11   -1    0    0    0    0 -0.00000000000E+00 -0.00000000000E+00 -0.45593999997E+02  0.45594000000E+02  0.51100000000E-03 0. -1.
    9900012    2    1    2    0    0 -0.11872896240E+02  0.19838851753E+02  0.36729779511E+02  0.47787281032E+02  0.20000045539E+02 0.  0.
         12    1    1    2    0    0  0.11872896240E+02 -0.19838851753E+02 -0.36729779511E+02  0.43400718968E+02  0.00000000000E+00 0. -1.
         11    1    3    3    0    0 -0.77657379757E+01  0.12876834058E+01  0.80578477100E+01  0.11264711485E+02  0.51100000000E-03 0. -1.
        -11    1    3    3    0    0 -0.34445433563E+01  0.15150646498E+01  0.79590422895E+00  0.38462661932E+01  0.51100000000E-03 0.  1.
        -12    1    3    3    0    0 -0.66261490768E+00  0.17036103698E+02  0.27876027572E+02  0.32676303354E+02  0.00000000000E+00 0.  1.
</event>
<event>
 7    1  0.1631716E-009  0.4778728E+02  0.7816164E-02  0.1312668E+00
        -11   -1    0    0    0    0  0.00000000000E+00  0.00000000000E+00  0.45593999997E+02  0.45594000000E+02  0.51100000000E-03 0.  1.
         11   -1    0    0    0    0 -0.00000000000E+00 -0.00000000000E+00 -0.45593999997E+02  0.45594000000E+02  0.51100000000E-03 0. -1.
    9900012    2    1    2    0    0 -0.42257307671E+01  0.39290238405E+02  0.17945551282E+02  0.47787280590E+02  0.20000043524E+02 0.  0.
         12    1    1    2    0    0  0.42257307671E+01 -0.39290238405E+02 -0.17945551282E+02  0.43400719410E+02  0.00000000000E+00 0. -1.
         11    1    3    3    0    0 -0.36925147171E+01  0.41179381929E+01  0.57576378898E+01  0.79838884153E+01  0.51100000000E-03 0.  1.
        -11    1    3    3    0    0 -0.29999394874E+01  0.20903917718E+01 -0.14530528062E+01  0.39345568246E+01  0.51100000000E-03 0. -1.
         12    1    3    3    0    0  0.24667234374E+01  0.33081908441E+02  0.13640966198E+02  0.35868835351E+02  0.00000000000E+00 0. -1.
</event>
<event>
 7    1  0.1631716E-009  0.4778727E+02  0.7816164E-02  0.1312668E+00
        -11   -1    0    0    0    0  0.00000000000E+00  0.00000000000E+00  0.45593999997E+02  0.45594000000E+02  0.51100000000E-03 0.  1.
         11   -1    0    0    0    0 -0.00000000000E+00 -0.00000000000E+00 -0.45593999997E+02  0.45594000000E+02  0.51100000000E-03 0. -1.
    9900012    2    1    2    0    0  0.26397140443E+01  0.38494867196E+02  0.19869578945E+02  0.47787273530E+02  0.20000011333E+02 0.  0.
         12    1    1    2    0    0 -0.26397140443E+01 -0.38494867196E+02 -0.19869578945E+02  0.43400726470E+02  0.00000000000E+00 0. -1.
         11    1    3    3    0    0  0.16492496448E+01  0.17267457143E+01 -0.25310404847E+01  0.34796323583E+01  0.51100000000E-03 0. -1.
        -11    1    3    3    0    0 -0.16917524775E+01  0.10951368684E+02  0.12032511363E+02  0.16357745335E+02  0.51100000000E-03 0.  1.
        -12    1    3    3    0    0  0.26822168770E+01  0.25816752798E+02  0.10368108067E+02  0.27949895837E+02  0.00000000000E+00 0.  1.
</event>
<event>
 7    1  0.1631716E-009  0.4778727E+02  0.7816164E-02  0.1312668E+00
        -11   -1    0    0    0    0  0.00000000000E+00  0.00000000000E+00  0.45593999997E+02  0.45594000000E+02  0.51100000000E-03 0.  1.
         11   -1    0    0    0    0 -0.00000000000E+00 -0.00000000000E+00 -0.45593999997E+02  0.45594000000E+02  0.51100000000E-03 0. -1.
    9900012    2    1    2    0    0 -0.30132701003E+02 -0.23477281865E+02  0.20602447108E+02  0.47787271200E+02  0.20000000707E+02 0.  0.
         12    1    1    2    0    0  0.30132701003E+02  0.23477281865E+02 -0.20602447108E+02  0.43400728800E+02  0.00000000000E+00 0. -1.
         11    1    3    3    0    0 -0.18921469779E+02 -0.14903242237E+02  0.17523811188E+02  0.29786114325E+02  0.51100000000E-03 0. -1.
        -11    1    3    3    0    0 -0.22417963985E+01 -0.21212638954E+01  0.58458254924E+01  0.66105285382E+01  0.51100000000E-03 0.  1.
         12    1    3    3    0    0 -0.89694348263E+01 -0.64527757328E+01 -0.27671895725E+01  0.11390628336E+02  0.00000000000E+00 0. -1.
</event>
<event>
 7    1  0.1631716E-009  0.4778727E+02  0.7816164E-02  0.1312668E+00
        -11   -1    0    0    0    0  0.00000000000E+00  0.00000000000E+00  0.45593999997E+02  0.45594000000E+02  0.51100000000E-03 0. -1.
         11   -1    0    0    0    0 -0.00000000000E+00 -0.00000000000E+00 -0.45593999997E+02  0.45594000000E+02  0.51100000000E-03 0.  1.
    9900012    2    1    2    0    0  0.26570347179E+02  0.23385134798E+01 -0.34236983249E+02  0.47787274010E+02  0.20000013520E+02 0.  0.
         12    1    1    2    0    0 -0.26570347179E+02 -0.23385134798E+01  0.34236983249E+02  0.43400725990E+02  0.00000000000E+00 0. -1.
         11    1    3    3    0    0  0.14063784590E+02  0.23558302567E+01 -0.13054697474E+02  0.19333005447E+02  0.51100000000E-03 0. -1.
        -11    1    3    3    0    0  0.76341990960E+01 -0.69027102481E+01 -0.13997792399E+02  0.17374308531E+02  0.51100000000E-03 0.  1.
        -12    1    3    3    0    0  0.48723634927E+01  0.68853934712E+01 -0.71844933750E+01  0.11079960032E+02  0.00000000000E+00 0.  1.
</event>
<event>
 7    1  0.1631716E-009  0.4778728E+02  0.7816164E-02  0.1312668E+00
        -11   -1    0    0    0    0  0.00000000000E+00  0.00000000000E+00  0.45593999997E+02  0.45594000000E+02  0.51100000000E-03 0.  1.
         11   -1    0    0    0    0 -0.00000000000E+00 -0.00000000000E+00 -0.45593999997E+02  0.45594000000E+02  0.51100000000E-03 0. -1.
    9900012    2    1    2    0    0 -0.29256434757E+02 -0.21777270980E+02  0.23525175202E+02  0.47787281408E+02  0.20000047252E+02 0.  0.
         12    1    1    2    0    0  0.29256434757E+02  0.21777270980E+02 -0.23525175202E+02  0.43400718592E+02  0.00000000000E+00 0. -1.
         11    1    3    3    0    0 -0.13405813098E+01 -0.56125941007E+01  0.42044002949E+01  0.71397025770E+01  0.51100000000E-03 0. -1.
        -11    1    3    3    0    0 -0.21170554439E+02 -0.73758023266E+01  0.57795482543E+01  0.23151630904E+02  0.51100000000E-03 0.  1.
         12    1    3    3    0    0 -0.67452990076E+01 -0.87888745530E+01  0.13541226653E+02  0.17495947927E+02  0.00000000000E+00 0. -1.
</event>
<event>
 7    1  0.1631716E-009  0.4778727E+02  0.7816164E-02  0.1312668E+00
        -11   -1    0    0    0    0  0.00000000000E+00  0.00000000000E+00  0.45593999997E+02  0.45594000000E+02  0.51100000000E-03 0.  1.
         11   -1    0    0    0    0 -0.00000000000E+00 -0.00000000000E+00 -0.45593999997E+02  0.45594000000E+02  0.51100000000E-03 0. -1.
    9900012    2    1    2    0    0  0.46324565072E+01 -0.42876359190E+02  0.48766187195E+01  0.47787271426E+02  0.20000001738E+02 0.  0.
         12    1    1    2    0    0 -0.46324565072E+01  0.42876359190E+02 -0.48766187195E+01  0.43400728574E+02  0.00000000000E+00 0. -1.
         11    1    3    3    0    0  0.87006623464E+01 -0.18227712897E+02  0.48064037478E+01  0.20761805316E+02  0.51100000000E-03 0. -1.
        -11    1    3    3    0    0 -0.26528540128E+01 -0.53936965271E+00 -0.90668412298E+00  0.28549308915E+01  0.51100000000E-03 0.  1.
        -12    1    3    3    0    0 -0.14153518264E+01 -0.24109276640E+02  0.97689909466E+00  0.24170535218E+02  0.00000000000E+00 0.  1.
</event>
<event>
 7    1  0.1631716E-009  0.4778728E+02  0.7816164E-02  0.1312668E+00
        -11   -1    0    0    0    0  0.00000000000E+00  0.00000000000E+00  0.45593999997E+02  0.45594000000E+02  0.51100000000E-03 0.  1.
         11   -1    0    0    0    0 -0.00000000000E+00 -0.00000000000E+00 -0.45593999997E+02  0.45594000000E+02  0.51100000000E-03 0. -1.
    9900012    2    1    2    0    0  0.27933481205E+02 -0.26044329617E+02  0.20616411495E+02  0.47787275348E+02  0.20000019621E+02 0.  0.
         12    1    1    2    0    0 -0.27933481205E+02  0.26044329617E+02 -0.20616411495E+02  0.43400724652E+02  0.00000000000E+00 0. -1.
         11    1    3    3    0    0  0.71308075430E+01 -0.16884048211E+02  0.11368288548E+02  0.21567509940E+02  0.51100000000E-03 0.  1.
        -11    1    3    3    0    0  0.14303210720E+02 -0.10477362448E+02  0.53152614412E+01  0.18509699220E+02  0.51100000000E-03 0. -1.
         12    1    3    3    0    0  0.64994629421E+01  0.13170810424E+01  0.39328615059E+01  0.77100661886E+01  0.00000000000E+00 0. -1.
</event>
<event>
 7    1  0.1631716E-009  0.4778727E+02  0.7816164E-02  0.1312668E+00
        -11   -1    0    0    0    0  0.00000000000E+00  0.00000000000E+00  0.45593999997E+02  0.45594000000E+02  0.51100000000E-03 0.  1.
         11   -1    0    0    0    0 -0.00000000000E+00 -0.00000000000E+00 -0.45593999997E+02  0.45594000000E+02  0.51100000000E-03 0. -1.
    9900012    2    1    2    0    0  0.31432225204E+02 -0.90520871700E+00  0.29913532183E+02  0.47787267382E+02  0.19999983302E+02 0.  0.
         12    1    1    2    0    0 -0.31432225204E+02  0.90520871700E+00 -0.29913532183E+02  0.43400732618E+02  0.00000000000E+00 0. -1.
         11    1    3    3    0    0  0.23373435271E+01 -0.23811741464E+01 -0.15487126456E+01  0.36785426733E+01  0.51100000000E-03 0. -1.
        -11    1    3    3    0    0  0.52197196507E+01  0.55028403734E+00  0.12659395774E+02  0.13704327323E+02  0.51100000000E-03 0.  1.
        -12    1    3    3    0    0  0.23875162026E+02  0.92568139202E+00  0.18802849055E+02  0.30404397386E+02  0.00000000000E+00 0.  1.
</event>
<event>
 7    1  0.1631716E-009  0.4778727E+02  0.7816164E-02  0.1312668E+00
        -11   -1    0    0    0    0  0.00000000000E+00  0.00000000000E+00  0.45593999997E+02  0.45594000000E+02  0.51100000000E-03 0.  1.
         11   -1    0    0    0    0 -0.00000000000E+00 -0.00000000000E+00 -0.45593999997E+02  0.45594000000E+02  0.51100000000E-03 0. -1.
    9900012    2    1    2    0    0 -0.19028270382E+02 -0.57562998687E+01 -0.38579959948E+02  0.47787269920E+02  0.19999994873E+02 0.  0.
         12    1    1    2    0    0  0.19028270382E+02  0.57562998687E+01  0.38579959948E+02  0.43400730080E+02  0.00000000000E+00 0. -1.
         11    1    3    3    0    0 -0.17964390901E+01 -0.31531947232E-01 -0.92862584120E+01  0.94584767919E+01  0.51100000000E-03 0.  1.
        -11    1    3    3    0    0  0.25362063248E+01 -0.11639308399E+01 -0.11813472940E+00  0.27930330463E+01  0.51100000000E-03 0. -1.
         12    1    3    3    0    0 -0.19768037616E+02 -0.45608370815E+01 -0.29175566807E+02  0.35535760082E+02  0.00000000000E+00 0. -1.
</event>
<event>
 7    1  0.1631716E-009  0.4778727E+02  0.7816164E-02  0.1312668E+00
        -11   -1    0    0    0    0  0.00000000000E+00  0.00000000000E+00  0.45593999997E+02  0.45594000000E+02  0.51100000000E-03 0.  1.
         11   -1    0    0    0    0 -0.00000000000E+00 -0.00000000000E+00 -0.45593999997E+02  0.45594000000E+02  0.51100000000E-03 0. -1.
    9900012    2    1    2    0    0 -0.36506069760E+02  0.21051696955E+02 -0.10380570027E+02  0.47787270650E+02  0.19999998203E+02 0.  0.
         12    1    1    2    0    0  0.36506069760E+02 -0.21051696955E+02  0.10380570027E+02  0.43400729350E+02  0.00000000000E+00 0. -1.
         11    1    3    3    0    0 -0.13998722876E+02  0.18690822053E+02 -0.45203831003E+01  0.23785393308E+02  0.51100000000E-03 0. -1.
        -11    1    3    3    0    0 -0.10384037486E+02  0.73179550327E+00  0.65242084343E-01  0.10409995963E+02  0.51100000000E-03 0.  1.
         12    1    3    3    0    0 -0.12123309398E+02  0.16290793985E+01 -0.59254290111E+01  0.13591881379E+02  0.00000000000E+00 0. -1.
</event>
<event>
 7    1  0.1631716E-009  0.4778727E+02  0.7816164E-02  0.1312668E+00
        -11   -1    0    0    0    0  0.00000000000E+00  0.00000000000E+00  0.45593999997E+02  0.45594000000E+02  0.51100000000E-03 0.  1.
         11   -1    0    0    0    0 -0.00000000000E+00 -0.00000000000E+00 -0.45593999997E+02  0.45594000000E+02  0.51100000000E-03 0. -1.
    9900012    2    1    2    0    0  0.33380297126E+01 -0.39299863780E+02  0.18110811724E+02  0.47787271472E+02  0.20000001949E+02 0.  0.
         12    1    1    2    0    0 -0.33380297126E+01  0.39299863780E+02 -0.18110811724E+02  0.43400728528E+02  0.00000000000E+00 0. -1.
         11    1    3    3    0    0 -0.45869670924E+01 -0.38471348788E+01  0.49583564488E+01  0.77734170618E+01  0.51100000000E-03 0. -1.
        -11    1    3    3    0    0  0.37212794937E+00 -0.21702773239E+02  0.47579983950E+01  0.22221327468E+02  0.51100000000E-03 0.  1.
        -12    1    3    3    0    0  0.75528688556E+01 -0.13749955662E+02  0.83944568801E+01  0.17792526942E+02  0.00000000000E+00 0.  1.
</event>
<event>
 7    1  0.1631716E-009  0.4778727E+02  0.7816164E-02  0.1312668E+00
        -11   -1    0    0    0    0  0.00000000000E+00  0.00000000000E+00  0.45593999997E+02  0.45594000000E+02  0.51100000000E-03 0.  1.
         11   -1    0    0    0    0 -0.00000000000E+00 -0.00000000000E+00 -0.45593999997E+02  0.45594000000E+02  0.51100000000E-03 0. -1.
    9900012    2    1    2    0    0 -0.62861475684E+01 -0.33117951109E+02  0.27336953196E+02  0.47787270203E+02  0.19999996163E+02 0.  0.
         12    1    1    2    0    0  0.62861475684E+01  0.33117951109E+02 -0.27336953196E+02  0.43400729797E+02  0.00000000000E+00 0. -1.
         11    1    3    3    0    0 -0.47075988246E+01 -0.36353466090E+01  0.12182116426E+01  0.60713484111E+01  0.51100000000E-03 0. -1.
        -11    1    3    3    0    0  0.58016019257E+01 -0.10070340613E+02  0.75640044189E+01  0.13866668961E+02  0.51100000000E-03 0.  1.
        -12    1    3    3    0    0 -0.73801506695E+01 -0.19412263887E+02  0.18554737134E+02  0.27849252831E+02  0.00000000000E+00 0.  1.
</event>
<event>
 7    1  0.1631716E-009  0.4778727E+02  0.7816164E-02  0.1312668E+00
        -11   -1    0    0    0    0  0.00000000000E+00  0.00000000000E+00  0.45593999997E+02  0.45594000000E+02  0.51100000000E-03 0.  1.
         11   -1    0    0    0    0 -0.00000000000E+00 -0.00000000000E+00 -0.45593999997E+02  0.45594000000E+02  0.51100000000E-03 0. -1.
    9900012    2    1    2    0    0  0.74359485198E+01 -0.40950364568E+02  0.12304373021E+02  0.47787270927E+02  0.19999999465E+02 0.  0.
         12    1    1    2    0    0 -0.74359485198E+01  0.40950364568E+02 -0.12304373021E+02  0.43400729073E+02  0.00000000000E+00 0. -1.
         11    1    3    3    0    0  0.20201715858E+01 -0.74663916770E+01  0.70867436660E+01  0.10490473486E+02  0.51100000000E-03 0.  1.
        -11    1    3    3    0    0 -0.28818417233E+01 -0.22656795879E+02  0.44093358150E+00  0.22843595030E+02  0.51100000000E-03 0. -1.
         12    1    3    3    0    0  0.82976186572E+01 -0.10827177012E+02  0.47766957731E+01  0.14453202411E+02  0.00000000000E+00 0. -1.
</event>
<event>
 7    1  0.1631716E-009  0.4778727E+02  0.7816164E-02  0.1312668E+00
        -11   -1    0    0    0    0  0.00000000000E+00  0.00000000000E+00  0.45593999997E+02  0.45594000000E+02  0.51100000000E-03 0.  1.
         11   -1    0    0    0    0 -0.00000000000E+00 -0.00000000000E+00 -0.45593999997E+02  0.45594000000E+02  0.51100000000E-03 0. -1.
    9900012    2    1    2    0    0 -0.86783524794E+01  0.40576577729E+02  0.12722047955E+02  0.47787274590E+02  0.20000016167E+02 0.  0.
         12    1    1    2    0    0  0.86783524794E+01 -0.40576577729E+02 -0.12722047955E+02  0.43400725410E+02  0.00000000000E+00 0. -1.
         11    1    3    3    0    0 -0.97606425715E+00  0.47470811761E+01 -0.22675958333E+01  0.53506515725E+01  0.51100000000E-03 0. -1.
        -11    1    3    3    0    0 -0.11183469455E+02  0.33938719397E+02  0.13275452177E+02  0.38120129776E+02  0.51100000000E-03 0.  1.
         12    1    3    3    0    0  0.34811812327E+01  0.18907771551E+01  0.17141916116E+01  0.43164932418E+01  0.00000000000E+00 0. -1.
</event>
<event>
 7    1  0.1631716E-009  0.4778727E+02  0.7816164E-02  0.1312668E+00
        -11   -1    0    0    0    0  0.00000000000E+00  0.00000000000E+00  0.45593999997E+02  0.45594000000E+02  0.51100000000E-03 0.  1.
         11   -1    0    0    0    0 -0.00000000000E+00 -0.00000000000E+00 -0.45593999997E+02  0.45594000000E+02  0.51100000000E-03 0. -1.
    9900012    2    1    2    0    0  0.36881627793E+01 -0.20843368150E+02  0.37888981198E+02  0.47787269168E+02  0.19999991446E+02 0.  0.
         12    1    1    2    0    0 -0.36881627793E+01  0.20843368150E+02 -0.37888981198E+02  0.43400730832E+02  0.00000000000E+00 0. -1.
         11    1    3    3    0    0  0.34788113711E+01 -0.62976965217E+01  0.70495024197E+01  0.10072665718E+02  0.51100000000E-03 0.  1.
        -11    1    3    3    0    0  0.50556709641E+01  0.54921210988E+00  0.37188469836E+01  0.63001004744E+01  0.51100000000E-03 0. -1.
        -12    1    3    3    0    0 -0.48463195560E+01 -0.15094883738E+02  0.27120631795E+02  0.31414502976E+02  0.00000000000E+00 0.  1.
</event>
<event>
 7    1  0.1631716E-009  0.4778727E+02  0.7816164E-02  0.1312668E+00
        -11   -1    0    0    0    0  0.00000000000E+00  0.00000000000E+00  0.45593999997E+02  0.45594000000E+02  0.51100000000E-03 0.  1.
         11   -1    0    0    0    0 -0.00000000000E+00 -0.00000000000E+00 -0.45593999997E+02  0.45594000000E+02  0.51100000000E-03 0. -1.
    9900012    2    1    2    0    0  0.27997519582E+02  0.23350743632E+02  0.23547930561E+02  0.47787269999E+02  0.19999995233E+02 0.  0.
         12    1    1    2    0    0 -0.27997519582E+02 -0.23350743632E+02 -0.23547930561E+02  0.43400730001E+02  0.00000000000E+00 0. -1.
         11    1    3    3    0    0  0.83437057054E+01  0.10164673055E+02  0.57877584153E+01  0.14367886099E+02  0.51100000000E-03 0. -1.
        -11    1    3    3    0    0  0.50009515032E+01  0.87839664594E+01  0.17394570462E+00  0.10109294736E+02  0.51100000000E-03 0.  1.
         12    1    3    3    0    0  0.14652862373E+02  0.44021041179E+01  0.17586226441E+02  0.23310089164E+02  0.00000000000E+00 0. -1.
</event>
<event>
 7    1  0.1631716E-009  0.4778727E+02  0.7816164E-02  0.1312668E+00
        -11   -1    0    0    0    0  0.00000000000E+00  0.00000000000E+00  0.45593999997E+02  0.45594000000E+02  0.51100000000E-03 0. -1.
         11   -1    0    0    0    0 -0.00000000000E+00 -0.00000000000E+00 -0.45593999997E+02  0.45594000000E+02  0.51100000000E-03 0.  1.
    9900012    2    1    2    0    0  0.57431431623E+01  0.79177623389E+01 -0.42284141294E+02  0.47787271218E+02  0.20000000790E+02 0.  0.
         12    1    1    2    0    0 -0.57431431623E+01 -0.79177623389E+01  0.42284141294E+02  0.43400728782E+02  0.00000000000E+00 0. -1.
         11    1    3    3    0    0  0.71523294080E+01  0.70518839917E+00 -0.26648722825E+02  0.27600861130E+02  0.51100000000E-03 0. -1.
        -11    1    3    3    0    0 -0.28539784084E+01 -0.19538853948E+01 -0.48749523821E+01  0.59772921864E+01  0.51100000000E-03 0.  1.
        -12    1    3    3    0    0  0.14447921627E+01  0.91664593346E+01 -0.10760466087E+02  0.14209117902E+02  0.00000000000E+00 0.  1.
</event>
<event>
 7    1  0.1631716E-009  0.4778727E+02  0.7816164E-02  0.1312668E+00
        -11   -1    0    0    0    0  0.00000000000E+00  0.00000000000E+00  0.45593999997E+02  0.45594000000E+02  0.51100000000E-03 0.  1.
         11   -1    0    0    0    0 -0.00000000000E+00 -0.00000000000E+00 -0.45593999997E+02  0.45594000000E+02  0.51100000000E-03 0. -1.
    9900012    2    1    2    0    0  0.32713176313E+02  0.28182014317E+02  0.43869553263E+01  0.47787271752E+02  0.20000003224E+02 0.  0.
         12    1    1    2    0    0 -0.32713176313E+02 -0.28182014317E+02 -0.43869553263E+01  0.43400728248E+02  0.00000000000E+00 0. -1.
         11    1    3    3    0    0  0.19896388236E+02  0.14658946824E+02 -0.64208263047E+01  0.25533859824E+02  0.51100000000E-03 0. -1.
        -11    1    3    3    0    0  0.36055930478E+01  0.17903759739E+01  0.45561422751E+01  0.60798174353E+01  0.51100000000E-03 0.  1.
         12    1    3    3    0    0  0.92111950287E+01  0.11732691520E+02  0.62516393559E+01  0.16173594492E+02  0.00000000000E+00 0. -1.
</event>
<event>
 7    1  0.1631716E-009  0.4778727E+02  0.7816164E-02  0.1312668E+00
        -11   -1    0    0    0    0  0.00000000000E+00  0.00000000000E+00  0.45593999997E+02  0.45594000000E+02  0.51100000000E-03 0.  1.
         11   -1    0    0    0    0 -0.00000000000E+00 -0.00000000000E+00 -0.45593999997E+02  0.45594000000E+02  0.51100000000E-03 0. -1.
    9900012    2    1    2    0    0  0.17345661903E+02 -0.18274684927E+01  0.39741810276E+02  0.47787272910E+02  0.20000008505E+02 0.  0.
         12    1    1    2    0    0 -0.17345661903E+02  0.18274684927E+01 -0.39741810276E+02  0.43400727090E+02  0.00000000000E+00 0. -1.
         11    1    3    3    0    0 -0.21106063313E+01 -0.27848339211E+01  0.58465360812E+01  0.68111631506E+01  0.51100000000E-03 0. -1.
        -11    1    3    3    0    0  0.58435900162E+01  0.49461717506E+01  0.18608441419E+02  0.20121785496E+02  0.51100000000E-03 0.  1.
        -12    1    3    3    0    0  0.13612678218E+02 -0.39888063222E+01  0.15286832776E+02  0.20854324263E+02  0.00000000000E+00 0.  1.
</event>
<event>
 7    1  0.1631716E-009  0.4778727E+02  0.7816164E-02  0.1312668E+00
        -11   -1    0    0    0    0  0.00000000000E+00  0.00000000000E+00  0.45593999997E+02  0.45594000000E+02  0.51100000000E-03 0. -1.
         11   -1    0    0    0    0 -0.00000000000E+00 -0.00000000000E+00 -0.45593999997E+02  0.45594000000E+02  0.51100000000E-03 0.  1.
    9900012    2    1    2    0    0  0.21844288255E+02  0.36459970700E+02 -0.87818490667E+01  0.47787271137E+02  0.20000000422E+02 0.  0.
         12    1    1    2    0    0 -0.21844288255E+02 -0.36459970700E+02  0.87818490667E+01  0.43400728863E+02  0.00000000000E+00 0. -1.
         11    1    3    3    0    0  0.25975327818E+01 -0.90449834030E+00 -0.37259780702E+01  0.46312208585E+01  0.51100000000E-03 0. -1.
        -11    1    3    3    0    0  0.31010716228E+01  0.11965015772E+02  0.11917473408E+01  0.12417669251E+02  0.51100000000E-03 0.  1.
        -12    1    3    3    0    0  0.16145683851E+02  0.25399453268E+02 -0.62476183373E+01  0.30738381028E+02  0.00000000000E+00 0.  1.
</event>
<event>
 7    1  0.1631716E-009  0.4778728E+02  0.7816164E-02  0.1312668E+00
        -11   -1    0    0    0    0  0.00000000000E+00  0.00000000000E+00  0.45593999997E+02  0.45594000000E+02  0.51100000000E-03 0.  1.
         11   -1    0    0    0    0 -0.00000000000E+00 -0.00000000000E+00 -0.45593999997E+02  0.45594000000E+02  0.51100000000E-03 0. -1.
    9900012    2    1    2    0    0  0.14629262878E+02  0.38768434312E+02  0.12907969975E+02  0.47787279727E+02  0.20000039586E+02 0.  0.
         12    1    1    2    0    0 -0.14629262878E+02 -0.38768434312E+02 -0.12907969975E+02  0.43400720273E+02  0.00000000000E+00 0. -1.
         11    1    3    3    0    0  0.31720168495E+01  0.28423590678E+02  0.13728370432E+02  0.31724286484E+02  0.51100000000E-03 0.  1.
        -11    1    3    3    0    0  0.63775243832E+01  0.59760748081E+01  0.17016734524E+01  0.89040429115E+01  0.51100000000E-03 0. -1.
        -12    1    3    3    0    0  0.50797216453E+01  0.43687688255E+01 -0.25220739091E+01  0.71589503314E+01  0.00000000000E+00 0.  1.
</event>
<event>
 7    1  0.1631716E-009  0.4778727E+02  0.7816164E-02  0.1312668E+00
        -11   -1    0    0    0    0  0.00000000000E+00  0.00000000000E+00  0.45593999997E+02  0.45594000000E+02  0.51100000000E-03 0.  1.
         11   -1    0    0    0    0 -0.00000000000E+00 -0.00000000000E+00 -0.45593999997E+02  0.45594000000E+02  0.51100000000E-03 0. -1.
    9900012    2    1    2    0    0 -0.10112000334E+02 -0.16601780680E+01  0.42173622173E+02  0.47787272481E+02  0.20000006551E+02 0.  0.
         12    1    1    2    0    0  0.10112000334E+02  0.16601780680E+01 -0.42173622173E+02  0.43400727519E+02  0.00000000000E+00 0. -1.
         11    1    3    3    0    0 -0.92217067016E+01  0.54621981816E+00  0.13251445108E+02  0.16153607284E+02  0.51100000000E-03 0. -1.
        -11    1    3    3    0    0  0.33862689311E+01 -0.11748389590E+01  0.15412823699E+01  0.39016170312E+01  0.51100000000E-03 0.  1.
        -12    1    3    3    0    0 -0.42765625632E+01 -0.10315589271E+01  0.27380894695E+02  0.27732048166E+02  0.00000000000E+00 0.  1.
</event>
<event>
 7    1  0.1631716E-009  0.4778728E+02  0.7816164E-02  0.1312668E+00
        -11   -1    0    0    0    0  0.00000000000E+00  0.00000000000E+00  0.45593999997E+02  0.45594000000E+02  0.51100000000E-03 0.  1.
         11   -1    0    0    0    0 -0.00000000000E+00 -0.00000000000E+00 -0.45593999997E+02  0.45594000000E+02  0.51100000000E-03 0. -1.
    9900012    2    1    2    0    0 -0.20651614167E+01  0.24537002652E+02  0.35739241662E+02  0.47787276672E+02  0.20000025656E+02 0.  0.
         12    1    1    2    0    0  0.20651614167E+01 -0.24537002652E+02 -0.35739241662E+02  0.43400723328E+02  0.00000000000E+00 0. -1.
         11    1    3    3    0    0  0.15231177622E+01  0.86667978544E+01  0.25941385054E+01  0.91740300639E+01  0.51100000000E-03 0. -1.
        -11    1    3    3    0    0  0.29087509543E+01  0.46476114887E+01  0.17245284042E+02  0.18095882034E+02  0.51100000000E-03 0.  1.
        -12    1    3    3    0    0 -0.64970301333E+01  0.11222593309E+02  0.15899819115E+02  0.20517364573E+02  0.00000000000E+00 0.  1.
</event>
<event>
 7    1  0.1631716E-009  0.4778727E+02  0.7816164E-02  0.1312668E+00
        -11   -1    0    0    0    0  0.00000000000E+00  0.00000000000E+00  0.45593999997E+02  0.45594000000E+02  0.51100000000E-03 0.  1.
         11   -1    0    0    0    0 -0.00000000000E+00 -0.00000000000E+00 -0.45593999997E+02  0.45594000000E+02  0.51100000000E-03 0. -1.
    9900012    2    1    2    0    0  0.89146308977E+01  0.37548616567E+02  0.19855831437E+02  0.47787270833E+02  0.19999999038E+02 0.  0.
         12    1    1    2    0    0 -0.89146308977E+01 -0.37548616567E+02 -0.19855831437E+02  0.43400729167E+02  0.00000000000E+00 0. -1.
         11    1    3    3    0    0  0.51894864898E+01  0.62055998086E+01  0.15849799863E+00  0.80910667337E+01  0.51100000000E-03 0. -1.
        -11    1    3    3    0    0  0.81550576605E+01  0.26962629481E+02  0.17050641517E+02  0.32927385721E+02  0.51100000000E-03 0.  1.
         12    1    3    3    0    0 -0.44299132526E+01  0.43803872772E+01  0.26466919214E+01  0.67688183792E+01  0.00000000000E+00 0. -1.
</event>
<event>
 7    1  0.1631716E-009  0.4778728E+02  0.7816164E-02  0.1312668E+00
        -11   -1    0    0    0    0  0.00000000000E+00  0.00000000000E+00  0.45593999997E+02  0.45594000000E+02  0.51100000000E-03 0.  1.
         11   -1    0    0    0    0 -0.00000000000E+00 -0.00000000000E+00 -0.45593999997E+02  0.45594000000E+02  0.51100000000E-03 0. -1.
    9900012    2    1    2    0    0  0.40097243023E+02  0.14664340904E+02  0.77968259365E+01  0.47787282415E+02  0.20000051845E+02 0.  0.
         12    1    1    2    0    0 -0.40097243023E+02 -0.14664340904E+02 -0.77968259365E+01  0.43400717585E+02  0.00000000000E+00 0. -1.
         11    1    3    3    0    0 -0.15687614624E+01  0.17486184164E+01  0.15003316373E+01  0.27874135278E+01  0.51100000000E-03 0. -1.
        -11    1    3    3    0    0  0.22053114601E+02  0.73220945972E+01  0.78972347281E+01  0.24542193250E+02  0.51100000000E-03 0.  1.
        -12    1    3    3    0    0  0.19612889884E+02  0.55936278902E+01 -0.16007404289E+01  0.20457675638E+02  0.00000000000E+00 0.  1.
</event>
<event>
 7    1  0.1631716E-009  0.4778727E+02  0.7816164E-02  0.1312668E+00
        -11   -1    0    0    0    0  0.00000000000E+00  0.00000000000E+00  0.45593999997E+02  0.45594000000E+02  0.51100000000E-03 0.  1.
         11   -1    0    0    0    0 -0.00000000000E+00 -0.00000000000E+00 -0.45593999997E+02  0.45594000000E+02  0.51100000000E-03 0. -1.
    9900012    2    1    2    0    0  0.12323519275E+02 -0.27640289162E+02  0.31108984486E+02  0.47787266964E+02  0.19999981396E+02 0.  0.
         12    1    1    2    0    0 -0.12323519275E+02  0.27640289162E+02 -0.31108984486E+02  0.43400733036E+02  0.00000000000E+00 0. -1.
         11    1    3    3    0    0  0.61635316993E+01 -0.97332215865E+01  0.25511259120E+01  0.11799702078E+02  0.51100000000E-03 0. -1.
        -11    1    3    3    0    0  0.83693333611E+01 -0.15967950812E+02  0.19937788370E+02  0.26880040911E+02  0.51100000000E-03 0.  1.
        -12    1    3    3    0    0 -0.22093457859E+01 -0.19391167644E+01  0.86200702037E+01  0.91075239744E+01  0.00000000000E+00 0.  1.
</event>
<event>
 7    1  0.1631716E-009  0.4778727E+02  0.7816164E-02  0.1312668E+00
        -11   -1    0    0    0    0  0.00000000000E+00  0.00000000000E+00  0.45593999997E+02  0.45594000000E+02  0.51100000000E-03 0. -1.
         11   -1    0    0    0    0 -0.00000000000E+00 -0.00000000000E+00 -0.45593999997E+02  0.45594000000E+02  0.51100000000E-03 0.  1.
    9900012    2    1    2    0    0  0.35592604696E+02 -0.24780764992E+02  0.16441811151E+01  0.47787272423E+02  0.20000006287E+02 0.  0.
         12    1    1    2    0    0 -0.35592604696E+02  0.24780764992E+02 -0.16441811151E+01  0.43400727577E+02  0.00000000000E+00 0. -1.
         11    1    3    3    0    0  0.68849069165E+01 -0.53004382455E+01  0.70962909061E+01  0.11218463965E+02  0.51100000000E-03 0. -1.
        -11    1    3    3    0    0  0.55814792236E+01 -0.96855079546E+00 -0.39537225993E+01  0.69081780246E+01  0.51100000000E-03 0.  1.
        -12    1    3    3    0    0  0.23126218556E+02 -0.18511775951E+02 -0.14983871917E+01  0.29660630434E+02  0.00000000000E+00 0.  1.
</event>
<event>
 7    1  0.1631716E-009  0.4778727E+02  0.7816164E-02  0.1312668E+00
        -11   -1    0    0    0    0  0.00000000000E+00  0.00000000000E+00  0.45593999997E+02  0.45594000000E+02  0.51100000000E-03 0. -1.
         11   -1    0    0    0    0 -0.00000000000E+00 -0.00000000000E+00 -0.45593999997E+02  0.45594000000E+02  0.51100000000E-03 0.  1.
    9900012    2    1    2    0    0  0.28825006243E+00  0.43141969053E+02  0.47234347492E+01  0.47787269387E+02  0.19999992444E+02 0.  0.
         12    1    1    2    0    0 -0.28825006243E+00 -0.43141969053E+02 -0.47234347492E+01  0.43400730613E+02  0.00000000000E+00 0. -1.
         11    1    3    3    0    0 -0.10341431647E+01 -0.60408815353E+00 -0.58736656162E+00  0.13339319028E+01  0.51100000000E-03 0. -1.
        -11    1    3    3    0    0 -0.11383695258E+01  0.67924739869E+01  0.64001599079E+01  0.94018952955E+01  0.51100000000E-03 0.  1.
        -12    1    3    3    0    0  0.24607627529E+01  0.36953583220E+02 -0.10893585972E+01  0.37051442189E+02  0.00000000000E+00 0.  1.
</event>
<event>
 7    1  0.1631716E-009  0.4778724E+02  0.7816164E-02  0.1312668E+00
        -11   -1    0    0    0    0  0.00000000000E+00  0.00000000000E+00  0.45593999997E+02  0.45594000000E+02  0.51100000000E-03 0.  1.
         11   -1    0    0    0    0 -0.00000000000E+00 -0.00000000000E+00 -0.45593999997E+02  0.45594000000E+02  0.51100000000E-03 0. -1.
    9900012    2    1    2    0    0  0.27179382511E+02 -0.21349291520E+02  0.26250995402E+02  0.47787241462E+02  0.19999865119E+02 0.  0.
         12    1    1    2    0    0 -0.27179382511E+02  0.21349291520E+02 -0.26250995402E+02  0.43400758538E+02  0.00000000000E+00 0. -1.
         11    1    3    3    0    0  0.25338817066E+02 -0.92907799920E+01  0.13645245130E+02  0.30241808115E+02  0.51100000000E-03 0. -1.
        -11    1    3    3    0    0  0.42920101730E+00 -0.35620195736E+01  0.38938018370E+01  0.52947039542E+01  0.51100000000E-03 0.  1.
         12    1    3    3    0    0  0.14113644273E+01 -0.84964919547E+01  0.87119484360E+01  0.12250729392E+02  0.00000000000E+00 0. -1.
</event>
<event>
 7    1  0.1631716E-009  0.4778727E+02  0.7816164E-02  0.1312668E+00
        -11   -1    0    0    0    0  0.00000000000E+00  0.00000000000E+00  0.45593999997E+02  0.45594000000E+02  0.51100000000E-03 0. -1.
         11   -1    0    0    0    0 -0.00000000000E+00 -0.00000000000E+00 -0.45593999997E+02  0.45594000000E+02  0.51100000000E-03 0.  1.
    9900012    2    1    2    0    0 -0.30394106838E+02 -0.30931649652E+02  0.17477512336E+01  0.47787270571E+02  0.19999997839E+02 0.  0.
         12    1    1    2    0    0  0.30394106838E+02  0.30931649652E+02 -0.17477512336E+01  0.43400729429E+02  0.00000000000E+00 0. -1.
         11    1    3    3    0    0  0.46838355767E+00  0.91354241706E+00 -0.25799480898E+00  0.10585388455E+01  0.51100000000E-03 0. -1.
        -11    1    3    3    0    0 -0.13086359803E+02 -0.46462090326E+01 -0.18447396357E+01  0.14008680732E+02  0.51100000000E-03 0.  1.
        -12    1    3    3    0    0 -0.17776130593E+02 -0.27198983036E+02  0.38504856783E+01  0.32720050993E+02  0.00000000000E+00 0.  1.
</event>
<event>
 7    1  0.1631716E-009  0.4778727E+02  0.7816164E-02  0.1312668E+00
        -11   -1    0    0    0    0  0.00000000000E+00  0.00000000000E+00  0.45593999997E+02  0.45594000000E+02  0.51100000000E-03 0. -1.
         11   -1    0    0    0    0 -0.00000000000E+00 -0.00000000000E+00 -0.45593999997E+02  0.45594000000E+02  0.51100000000E-03 0.  1.
    9900012    2    1    2    0    0  0.19447728718E+02 -0.20514907436E+02 -0.32932468508E+02  0.47787273492E+02  0.20000011158E+02 0.  0.
         12    1    1    2    0    0 -0.19447728718E+02  0.20514907436E+02  0.32932468508E+02  0.43400726508E+02  0.00000000000E+00 0. -1.
         11    1    3    3    0    0 -0.12057841647E+01 -0.25568712745E+01 -0.43427968445E+01  0.51818327703E+01  0.51100000000E-03 0.  1.
        -11    1    3    3    0    0  0.16182088626E+02 -0.12288838173E+02 -0.99673626278E+01  0.22632362978E+02  0.51100000000E-03 0. -1.
        -12    1    3    3    0    0  0.44714242569E+01 -0.56691979885E+01 -0.18622309036E+02  0.19973077743E+02  0.00000000000E+00 0.  1.
</event>
<event>
 7    1  0.1631716E-009  0.4778727E+02  0.7816164E-02  0.1312668E+00
        -11   -1    0    0    0    0  0.00000000000E+00  0.00000000000E+00  0.45593999997E+02  0.45594000000E+02  0.51100000000E-03 0. -1.
         11   -1    0    0    0    0 -0.00000000000E+00 -0.00000000000E+00 -0.45593999997E+02  0.45594000000E+02  0.51100000000E-03 0.  1.
    9900012    2    1    2    0    0  0.38193501303E+02 -0.10778798545E+02 -0.17569776635E+02  0.47787273153E+02  0.20000009613E+02 0.  0.
         12    1    1    2    0    0 -0.38193501303E+02  0.10778798545E+02  0.17569776635E+02  0.43400726847E+02  0.00000000000E+00 0. -1.
         11    1    3    3    0    0  0.58498151607E+00  0.15228336237E+01 -0.24828302899E+01  0.29708032801E+01  0.51100000000E-03 0. -1.
        -11    1    3    3    0    0  0.22926971646E+02 -0.41078903058E+01 -0.17534813785E+01  0.23357985547E+02  0.51100000000E-03 0.  1.
         12    1    3    3    0    0  0.14681548141E+02 -0.81937418625E+01 -0.13333464967E+02  0.21458484325E+02  0.00000000000E+00 0. -1.
</event>
<event>
 7    1  0.1631716E-009  0.4778727E+02  0.7816164E-02  0.1312668E+00
        -11   -1    0    0    0    0  0.00000000000E+00  0.00000000000E+00  0.45593999997E+02  0.45594000000E+02  0.51100000000E-03 0.  1.
         11   -1    0    0    0    0 -0.00000000000E+00 -0.00000000000E+00 -0.45593999997E+02  0.45594000000E+02  0.51100000000E-03 0. -1.
    9900012    2    1    2    0    0  0.17353393233E+02 -0.80993442393E+01  0.38947190408E+02  0.47787271037E+02  0.19999999967E+02 0.  0.
         12    1    1    2    0    0 -0.17353393233E+02  0.80993442393E+01 -0.38947190408E+02  0.43400728963E+02  0.00000000000E+00 0. -1.
         11    1    3    3    0    0  0.44533217511E+01  0.36560541927E+01  0.15423047206E+02  0.16464179064E+02  0.51100000000E-03 0. -1.
        -11    1    3    3    0    0  0.88772153181E+01 -0.90089729975E+01  0.23221824054E+02  0.26442761938E+02  0.51100000000E-03 0.  1.
         12    1    3    3    0    0  0.40228561636E+01 -0.27464254345E+01  0.30231914822E+00  0.48803300347E+01  0.00000000000E+00 0. -1.
</event>
<event>
 7    1  0.1631716E-009  0.4778727E+02  0.7816164E-02  0.1312668E+00
        -11   -1    0    0    0    0  0.00000000000E+00  0.00000000000E+00  0.45593999997E+02  0.45594000000E+02  0.51100000000E-03 0.  1.
         11   -1    0    0    0    0 -0.00000000000E+00 -0.00000000000E+00 -0.45593999997E+02  0.45594000000E+02  0.51100000000E-03 0. -1.
    9900012    2    1    2    0    0  0.61430271035E+01  0.15263854050E+02  0.40160944501E+02  0.47787268605E+02  0.19999988876E+02 0.  0.
         12    1    1    2    0    0 -0.61430271035E+01 -0.15263854050E+02 -0.40160944501E+02  0.43400731395E+02  0.00000000000E+00 0. -1.
         11    1    3    3    0    0 -0.11859859915E+01  0.20947202022E+01 -0.80956442682E+00  0.25396476763E+01  0.51100000000E-03 0. -1.
        -11    1    3    3    0    0  0.64719014159E+00  0.20262557151E+01  0.22859115195E+02  0.22957868260E+02  0.51100000000E-03 0.  1.
        -12    1    3    3    0    0  0.66818229534E+01  0.11142878133E+02  0.18111393733E+02  0.22289752668E+02  0.00000000000E+00 0.  1.
</event>
<event>
 7    1  0.1631716E-009  0.4778728E+02  0.7816164E-02  0.1312668E+00
        -11   -1    0    0    0    0  0.00000000000E+00  0.00000000000E+00  0.45593999997E+02  0.45594000000E+02  0.51100000000E-03 0. -1.
         11   -1    0    0    0    0 -0.00000000000E+00 -0.00000000000E+00 -0.45593999997E+02  0.45594000000E+02  0.51100000000E-03 0.  1.
    9900012    2    1    2    0    0  0.37724101441E+02 -0.19587984377E+02 -0.87650145061E+01  0.47787280642E+02  0.20000043758E+02 0.  0.
         12    1    1    2    0    0 -0.37724101441E+02  0.19587984377E+02  0.87650145061E+01  0.43400719358E+02  0.00000000000E+00 0. -1.
         11    1    3    3    0    0 -0.75640767778E+00  0.66048916689E+00  0.13328289597E+01  0.16687815350E+01  0.51100000000E-03 0. -1.
        -11    1    3    3    0    0  0.26740634779E+02 -0.84467071805E+01 -0.37050604814E+01  0.28286673258E+02  0.51100000000E-03 0.  1.
        -12    1    3    3    0    0  0.11739874340E+02 -0.11801766364E+02 -0.63927829844E+01  0.17831825849E+02  0.00000000000E+00 0.  1.
</event>
<event>
 7    1  0.1631716E-009  0.4778727E+02  0.7816164E-02  0.1312668E+00
        -11   -1    0    0    0    0  0.00000000000E+00  0.00000000000E+00  0.45593999997E+02  0.45594000000E+02  0.51100000000E-03 0.  1.
         11   -1    0    0    0    0 -0.00000000000E+00 -0.00000000000E+00 -0.45593999997E+02  0.45594000000E+02  0.51100000000E-03 0. -1.
    9900012    2    1    2    0    0 -0.21183143509E+02  0.67958224116E+01  0.37265458657E+02  0.47787272125E+02  0.20000004927E+02 0.  0.
         12    1    1    2    0    0  0.21183143509E+02 -0.67958224116E+01 -0.37265458657E+02  0.43400727875E+02  0.00000000000E+00 0. -1.
         11    1    3    3    0    0  0.49787207302E+00  0.14040675760E+01  0.15638296582E+02  0.15709092992E+02  0.51100000000E-03 0. -1.
        -11    1    3    3    0    0 -0.96854622517E+01  0.63917632493E+01  0.95787293035E+01  0.15047088482E+02  0.51100000000E-03 0.  1.
        -12    1    3    3    0    0 -0.11995553331E+02 -0.10000084136E+01  0.12048432771E+02  0.17031090651E+02  0.00000000000E+00 0.  1.
</event>
<event>
 7    1  0.1631716E-009  0.4778727E+02  0.7816164E-02  0.1312668E+00
        -11   -1    0    0    0    0  0.00000000000E+00  0.00000000000E+00  0.45593999997E+02  0.45594000000E+02  0.51100000000E-03 0.  1.
         11   -1    0    0    0    0 -0.00000000000E+00 -0.00000000000E+00 -0.45593999997E+02  0.45594000000E+02  0.51100000000E-03 0. -1.
    9900012    2    1    2    0    0  0.88895781934E+01  0.43794756224E+01  0.42254222844E+02  0.47787265498E+02  0.19999974712E+02 0.  0.
         12    1    1    2    0    0 -0.88895781934E+01 -0.43794756224E+01 -0.42254222844E+02  0.43400734502E+02  0.00000000000E+00 0. -1.
         11    1    3    3    0    0  0.84748451727E+01  0.26281639374E+01  0.19316098635E+02  0.21256573410E+02  0.51100000000E-03 0. -1.
        -11    1    3    3    0    0 -0.11436945955E+01  0.73287207660E+01  0.14637629653E+02  0.16409704066E+02  0.51100000000E-03 0.  1.
         12    1    3    3    0    0  0.15584276163E+01 -0.55774090810E+01  0.83004945550E+01  0.10120988022E+02  0.00000000000E+00 0. -1.
</event>
<event>
 7    1  0.1631716E-009  0.4778727E+02  0.7816164E-02  0.1312668E+00
        -11   -1    0    0    0    0  0.00000000000E+00  0.00000000000E+00  0.45593999997E+02  0.45594000000E+02  0.51100000000E-03 0.  1.
         11   -1    0    0    0    0 -0.00000000000E+00 -0.00000000000E+00 -0.45593999997E+02  0.45594000000E+02  0.51100000000E-03 0. -1.
    9900012    2    1    2    0    0 -0.17239085757E+02  0.26583263810E+02  0.29660871404E+02  0.47787270916E+02  0.19999999416E+02 0.  0.
         12    1    1    2    0    0  0.17239085757E+02 -0.26583263810E+02 -0.29660871404E+02  0.43400729084E+02  0.00000000000E+00 0. -1.
         11    1    3    3    0    0 -0.34733031293E+01  0.23304079601E+01  0.12067898206E+02  0.12772188664E+02  0.51100000000E-03 0. -1.
        -11    1    3    3    0    0 -0.86967171921E+01  0.56231231667E+01  0.29047301385E+01  0.10755922160E+02  0.51100000000E-03 0.  1.
        -12    1    3    3    0    0 -0.50690654361E+01  0.18629732683E+02  0.14688243060E+02  0.24259160093E+02  0.00000000000E+00 0.  1.
</event>
<event>
 7    1  0.1631716E-009  0.4778733E+02  0.7816164E-02  0.1312668E+00
        -11   -1    0    0    0    0  0.00000000000E+00  0.00000000000E+00  0.45593999997E+02  0.45594000000E+02  0.51100000000E-03 0.  1.
         11   -1    0    0    0    0 -0.00000000000E+00 -0.00000000000E+00 -0.45593999997E+02  0.45594000000E+02  0.51100000000E-03 0. -1.
    9900012    2    1    2    0    0  0.37403286501E+02  0.20483024561E+02  0.80658755304E+01  0.47787326223E+02  0.20000251581E+02 0.  0.
         12    1    1    2    0    0 -0.37403286501E+02 -0.20483024561E+02 -0.80658755304E+01  0.43400673777E+02  0.00000000000E+00 0. -1.
         11    1    3    3    0    0  0.24456921224E+02  0.20086790117E+02 -0.53141990244E+00  0.31652844112E+02  0.51100000000E-03 0. -1.
        -11    1    3    3    0    0  0.50869679939E+01  0.21354665816E+01  0.43976769339E+01  0.70552833797E+01  0.51100000000E-03 0.  1.
         12    1    3    3    0    0  0.78593972825E+01 -0.17392321385E+01  0.41996184990E+01  0.90791987318E+01  0.00000000000E+00 0. -1.
</event>
<event>
 7    1  0.1631716E-009  0.4778727E+02  0.7816164E-02  0.1312668E+00
        -11   -1    0    0    0    0  0.00000000000E+00  0.00000000000E+00  0.45593999997E+02  0.45594000000E+02  0.51100000000E-03 0.  1.
         11   -1    0    0    0    0 -0.00000000000E+00 -0.00000000000E+00 -0.45593999997E+02  0.45594000000E+02  0.51100000000E-03 0. -1.
    9900012    2    1    2    0    0 -0.39135256460E+02  0.11884875044E+02 -0.14519112547E+02  0.47787272101E+02  0.20000004818E+02 0.  0.
         12    1    1    2    0    0  0.39135256460E+02 -0.11884875044E+02  0.14519112547E+02  0.43400727899E+02  0.00000000000E+00 0. -1.
         11    1    3    3    0    0  0.40056357211E+00 -0.14870293419E+01 -0.46879179821E+00  0.16098054076E+01  0.51100000000E-03 0.  1.
        -11    1    3    3    0    0 -0.18327095044E+02  0.11752131512E+02 -0.11866042597E+02  0.24795119984E+02  0.51100000000E-03 0. -1.
        -12    1    3    3    0    0 -0.21208724988E+02  0.16197728740E+01 -0.21842781521E+01  0.21382346710E+02  0.00000000000E+00 0.  1.
</event>
<event>
 7    1  0.1631716E-009  0.4778727E+02  0.7816164E-02  0.1312668E+00
        -11   -1    0    0    0    0  0.00000000000E+00  0.00000000000E+00  0.45593999997E+02  0.45594000000E+02  0.51100000000E-03 0. -1.
         11   -1    0    0    0    0 -0.00000000000E+00 -0.00000000000E+00 -0.45593999997E+02  0.45594000000E+02  0.51100000000E-03 0.  1.
    9900012    2    1    2    0    0 -0.18714281451E+02  0.12977205118E+02 -0.36945786187E+02  0.47787270745E+02  0.19999998635E+02 0.  0.
         12    1    1    2    0    0  0.18714281451E+02 -0.12977205118E+02  0.36945786187E+02  0.43400729255E+02  0.00000000000E+00 0. -1.
         11    1    3    3    0    0 -0.19362444112E+01  0.66538067289E-01  0.14430134361E+01  0.24157313121E+01  0.51100000000E-03 0. -1.
        -11    1    3    3    0    0 -0.72106263240E+01 -0.26011236173E+00 -0.17193984248E+02  0.18646551558E+02  0.51100000000E-03 0.  1.
        -12    1    3    3    0    0 -0.95674107158E+01  0.13170779412E+02 -0.21194815375E+02  0.26724987875E+02  0.00000000000E+00 0.  1.
</event>
<event>
 7    1  0.1631716E-009  0.4778727E+02  0.7816164E-02  0.1312668E+00
        -11   -1    0    0    0    0  0.00000000000E+00  0.00000000000E+00  0.45593999997E+02  0.45594000000E+02  0.51100000000E-03 0. -1.
         11   -1    0    0    0    0 -0.00000000000E+00 -0.00000000000E+00 -0.45593999997E+02  0.45594000000E+02  0.51100000000E-03 0.  1.
    9900012    2    1    2    0    0  0.12533842632E+02  0.31830918268E+02 -0.26708029178E+02  0.47787269690E+02  0.19999993825E+02 0.  0.
         12    1    1    2    0    0 -0.12533842632E+02 -0.31830918268E+02  0.26708029178E+02  0.43400730310E+02  0.00000000000E+00 0. -1.
         11    1    3    3    0    0  0.78669791820E+01  0.12925169163E+02 -0.91181413112E+01  0.17666065226E+02  0.51100000000E-03 0. -1.
        -11    1    3    3    0    0 -0.30108743225E-01  0.48042655569E+01 -0.14041049795E+02  0.14840247763E+02  0.51100000000E-03 0.  1.
         12    1    3    3    0    0  0.46969721927E+01  0.14101483547E+02 -0.35488380717E+01  0.15280956700E+02  0.00000000000E+00 0. -1.
</event>
<event>
 7    1  0.1631716E-009  0.4778727E+02  0.7816164E-02  0.1312668E+00
        -11   -1    0    0    0    0  0.00000000000E+00  0.00000000000E+00  0.45593999997E+02  0.45594000000E+02  0.51100000000E-03 0. -1.
         11   -1    0    0    0    0 -0.00000000000E+00 -0.00000000000E+00 -0.45593999997E+02  0.45594000000E+02  0.51100000000E-03 0.  1.
    9900012    2    1    2    0    0 -0.79267574585E+01  0.29642682752E+02 -0.30693666016E+02  0.47787271227E+02  0.20000000830E+02 0.  0.
         12    1    1    2    0    0  0.79267574585E+01 -0.29642682752E+02  0.30693666016E+02  0.43400728773E+02  0.00000000000E+00 0. -1.
         11    1    3    3    0    0  0.24517234210E+01  0.11177448230E+01 -0.28543054698E+01  0.39252211656E+01  0.51100000000E-03 0. -1.
        -11    1    3    3    0    0 -0.11081614814E+02  0.25989629036E+02 -0.29422467841E+02  0.40791477277E+02  0.51100000000E-03 0.  1.
        -12    1    3    3    0    0  0.70313393494E+00  0.25353088927E+01  0.15831072948E+01  0.30705727835E+01  0.00000000000E+00 0.  1.
</event>
<event>
 7    1  0.1631716E-009  0.4778727E+02  0.7816164E-02  0.1312668E+00
        -11   -1    0    0    0    0  0.00000000000E+00  0.00000000000E+00  0.45593999997E+02  0.45594000000E+02  0.51100000000E-03 0. -1.
         11   -1    0    0    0    0 -0.00000000000E+00 -0.00000000000E+00 -0.45593999997E+02  0.45594000000E+02  0.51100000000E-03 0.  1.
    9900012    2    1    2    0    0  0.41114111833E+02  0.48378102747E+01  0.13032597397E+02  0.47787271953E+02  0.20000004142E+02 0.  0.
         12    1    1    2    0    0 -0.41114111833E+02 -0.48378102747E+01 -0.13032597397E+02  0.43400728047E+02  0.00000000000E+00 0. -1.
         11    1    3    3    0    0  0.21844292050E+02 -0.83755748265E+00  0.12336993994E+02  0.25101315081E+02  0.51100000000E-03 0. -1.
        -11    1    3    3    0    0  0.11970890524E+01 -0.22896713580E+01 -0.11928797028E+01  0.28458003045E+01  0.51100000000E-03 0.  1.
        -12    1    3    3    0    0  0.18072730731E+02  0.79650391154E+01  0.18884831056E+01  0.19840156567E+02  0.00000000000E+00 0.  1.
</event>
<event>
 7    1  0.1631716E-009  0.4778727E+02  0.7816164E-02  0.1312668E+00
        -11   -1    0    0    0    0  0.00000000000E+00  0.00000000000E+00  0.45593999997E+02  0.45594000000E+02  0.51100000000E-03 0.  1.
         11   -1    0    0    0    0 -0.00000000000E+00 -0.00000000000E+00 -0.45593999997E+02  0.45594000000E+02  0.51100000000E-03 0. -1.
    9900012    2    1    2    0    0  0.16127965306E+02 -0.12735331981E+02  0.38227258706E+02  0.47787271276E+02  0.20000001057E+02 0.  0.
         12    1    1    2    0    0 -0.16127965306E+02  0.12735331981E+02 -0.38227258706E+02  0.43400728724E+02  0.00000000000E+00 0. -1.
         11    1    3    3    0    0  0.30070492402E+01 -0.80119506321E+01  0.15220732043E+02  0.17461511454E+02  0.51100000000E-03 0. -1.
        -11    1    3    3    0    0  0.15639202248E+02 -0.60514995709E+01  0.18267754523E+02  0.24797502890E+02  0.51100000000E-03 0.  1.
         12    1    3    3    0    0 -0.25182861829E+01  0.13281182222E+01  0.47387721407E+01  0.55282569325E+01  0.00000000000E+00 0. -1.
</event>
<event>
 7    1  0.1631716E-009  0.4778727E+02  0.7816164E-02  0.1312668E+00
        -11   -1    0    0    0    0  0.00000000000E+00  0.00000000000E+00  0.45593999997E+02  0.45594000000E+02  0.51100000000E-03 0.  1.
         11   -1    0    0    0    0 -0.00000000000E+00 -0.00000000000E+00 -0.45593999997E+02  0.45594000000E+02  0.51100000000E-03 0. -1.
    9900012    2    1    2    0    0  0.47006663195E+01 -0.33368805637E+02  0.27350502025E+02  0.47787269424E+02  0.19999992613E+02 0.  0.
         12    1    1    2    0    0 -0.47006663195E+01  0.33368805637E+02 -0.27350502025E+02  0.43400730576E+02  0.00000000000E+00 0. -1.
         11    1    3    3    0    0 -0.46968932915E+01 -0.52265479088E+01  0.53271221059E+01  0.88179271843E+01  0.51100000000E-03 0. -1.
        -11    1    3    3    0    0  0.29307042461E+01 -0.23089059665E+02  0.12574707429E+02  0.26454053957E+02  0.51100000000E-03 0.  1.
         12    1    3    3    0    0  0.64668553649E+01 -0.50531980633E+01  0.94486724904E+01  0.12515288283E+02  0.00000000000E+00 0. -1.
</event>
<event>
 7    1  0.1631716E-009  0.4778727E+02  0.7816164E-02  0.1312668E+00
        -11   -1    0    0    0    0  0.00000000000E+00  0.00000000000E+00  0.45593999997E+02  0.45594000000E+02  0.51100000000E-03 0.  1.
         11   -1    0    0    0    0 -0.00000000000E+00 -0.00000000000E+00 -0.45593999997E+02  0.45594000000E+02  0.51100000000E-03 0. -1.
    9900012    2    1    2    0    0  0.36381704184E+02  0.22974974509E+01  0.23552412614E+02  0.47787273810E+02  0.20000012610E+02 0.  0.
         12    1    1    2    0    0 -0.36381704184E+02 -0.22974974509E+01 -0.23552412614E+02  0.43400726190E+02  0.00000000000E+00 0. -1.
         11    1    3    3    0    0  0.32184350702E+01  0.43213377575E+01 -0.57212621358E+00  0.54184511607E+01  0.51100000000E-03 0. -1.
        -11    1    3    3    0    0  0.20528490725E+02 -0.47861366654E+01  0.10380331248E+02  0.23496325515E+02  0.51100000000E-03 0.  1.
         12    1    3    3    0    0  0.12634778389E+02  0.27622963588E+01  0.13744207579E+02  0.18872497134E+02  0.00000000000E+00 0. -1.
</event>
<event>
 7    1  0.1755428E-009  0.4778727E+02  0.7816164E-02  0.1312668E+00
        -11   -1    0    0    0    0  0.00000000000E+00  0.00000000000E+00  0.45593999997E+02  0.45594000000E+02  0.51100000000E-03 0. -1.
         11   -1    0    0    0    0 -0.00000000000E+00 -0.00000000000E+00 -0.45593999997E+02  0.45594000000E+02  0.51100000000E-03 0.  1.
    9900012    2    1    2    0    0  0.12052942398E+01 -0.40539873704E+02 -0.15449564262E+02  0.47787272702E+02  0.20000007557E+02 0.  0.
         12    1    1    2    0    0 -0.12052942398E+01  0.40539873704E+02  0.15449564262E+02  0.43400727298E+02  0.00000000000E+00 0. -1.
         11    1    3    3    0    0 -0.16846659926E+01 -0.45147277661E+01  0.13243482761E+01  0.49974758555E+01  0.51100000000E-03 0. -1.
        -11    1    3    3    0    0  0.72231616870E+01 -0.17625438321E+02 -0.14099126109E+02  0.23698428177E+02  0.51100000000E-03 0.  1.
        -12    1    3    3    0    0 -0.43332014546E+01 -0.18399707617E+02 -0.26747864295E+01  0.19091368670E+02  0.00000000000E+00 0.  1.
</event>
<event>
 7    1  0.1631716E-009  0.4778727E+02  0.7816164E-02  0.1312668E+00
        -11   -1    0    0    0    0  0.00000000000E+00  0.00000000000E+00  0.45593999997E+02  0.45594000000E+02  0.51100000000E-03 0.  1.
         11   -1    0    0    0    0 -0.00000000000E+00 -0.00000000000E+00 -0.45593999997E+02  0.45594000000E+02  0.51100000000E-03 0. -1.
    9900012    2    1    2    0    0 -0.28522157132E+02 -0.29425206328E+02  0.14292197559E+02  0.47787272748E+02  0.20000007767E+02 0.  0.
         12    1    1    2    0    0  0.28522157132E+02  0.29425206328E+02 -0.14292197559E+02  0.43400727252E+02  0.00000000000E+00 0. -1.
         11    1    3    3    0    0 -0.19019643982E+02 -0.11115575470E+02  0.22318877149E+01  0.22142362075E+02  0.51100000000E-03 0. -1.
        -11    1    3    3    0    0  0.15181475637E+00  0.46470891722E+00  0.23630009848E+01  0.24130428951E+01  0.51100000000E-03 0.  1.
        -12    1    3    3    0    0 -0.96543279066E+01 -0.18774339775E+02  0.96973088594E+01  0.23231867778E+02  0.00000000000E+00 0.  1.
</event>
<event>
 7    1  0.1631716E-009  0.4778727E+02  0.7816164E-02  0.1312668E+00
        -11   -1    0    0    0    0  0.00000000000E+00  0.00000000000E+00  0.45593999997E+02  0.45594000000E+02  0.51100000000E-03 0.  1.
         11   -1    0    0    0    0 -0.00000000000E+00 -0.00000000000E+00 -0.45593999997E+02  0.45594000000E+02  0.51100000000E-03 0. -1.
    9900012    2    1    2    0    0  0.13860189619E+02  0.41125918958E+02  0.42116125615E+00  0.47787269093E+02  0.19999991103E+02 0.  0.
         12    1    1    2    0    0 -0.13860189619E+02 -0.41125918958E+02 -0.42116125615E+00  0.43400730907E+02  0.00000000000E+00 0. -1.
         11    1    3    3    0    0 -0.32063795169E+00  0.84229729816E+01 -0.44362330318E+01  0.95252005920E+01  0.51100000000E-03 0. -1.
        -11    1    3    3    0    0  0.20805055357E+01  0.19424781376E+02  0.54692884460E+01  0.20287034065E+02  0.51100000000E-03 0.  1.
         12    1    3    3    0    0  0.12100322035E+02  0.13278164601E+02 -0.61189415807E+00  0.17975034436E+02  0.00000000000E+00 0. -1.
</event>
<event>
 7    1  0.1631716E-009  0.4778727E+02  0.7816164E-02  0.1312668E+00
        -11   -1    0    0    0    0  0.00000000000E+00  0.00000000000E+00  0.45593999997E+02  0.45594000000E+02  0.51100000000E-03 0.  1.
         11   -1    0    0    0    0 -0.00000000000E+00 -0.00000000000E+00 -0.45593999997E+02  0.45594000000E+02  0.51100000000E-03 0. -1.
    9900012    2    1    2    0    0  0.18168065947E+02  0.23161092609E+02  0.31892136002E+02  0.47787272242E+02  0.20000005462E+02 0.  0.
         12    1    1    2    0    0 -0.18168065947E+02 -0.23161092609E+02 -0.31892136002E+02  0.43400727758E+02  0.00000000000E+00 0. -1.
         11    1    3    3    0    0 -0.20470898894E+01  0.21199120749E+01  0.49270741192E+01  0.57411378539E+01  0.51100000000E-03 0. -1.
        -11    1    3    3    0    0  0.13806935417E+02  0.20055532060E+02  0.25769752888E+02  0.35453293161E+02  0.51100000000E-03 0.  1.
         12    1    3    3    0    0  0.64082204189E+01  0.98564847366E+00  0.11953089956E+01  0.65928412271E+01  0.00000000000E+00 0. -1.
</event>
<event>
 7    1  0.1631716E-009  0.4778727E+02  0.7816164E-02  0.1312668E+00
        -11   -1    0    0    0    0  0.00000000000E+00  0.00000000000E+00  0.45593999997E+02  0.45594000000E+02  0.51100000000E-03 0. -1.
         11   -1    0    0    0    0 -0.00000000000E+00 -0.00000000000E+00 -0.45593999997E+02  0.45594000000E+02  0.51100000000E-03 0.  1.
    9900012    2    1    2    0    0  0.33080907936E+02 -0.20269193984E+02  0.19453449212E+02  0.47787269812E+02  0.19999994380E+02 0.  0.
         12    1    1    2    0    0 -0.33080907936E+02  0.20269193984E+02 -0.19453449212E+02  0.43400730188E+02  0.00000000000E+00 0. -1.
         11    1    3    3    0    0  0.16456960240E+02 -0.56116284351E+01 -0.70294695479E+00  0.17401610520E+02  0.51100000000E-03 0. -1.
        -11    1    3    3    0    0  0.97969859546E+01 -0.90687626005E+01  0.87366688588E+01  0.15954710023E+02  0.51100000000E-03 0.  1.
        -12    1    3    3    0    0  0.68269617420E+01 -0.55888029481E+01  0.11419727308E+02  0.14430949269E+02  0.00000000000E+00 0.  1.
</event>
<event>
 7    1  0.1631716E-009  0.4778727E+02  0.7816164E-02  0.1312668E+00
        -11   -1    0    0    0    0  0.00000000000E+00  0.00000000000E+00  0.45593999997E+02  0.45594000000E+02  0.51100000000E-03 0. -1.
         11   -1    0    0    0    0 -0.00000000000E+00 -0.00000000000E+00 -0.45593999997E+02  0.45594000000E+02  0.51100000000E-03 0.  1.
    9900012    2    1    2    0    0  0.12340161463E+02  0.38127882533E+02  0.16661581659E+02  0.47787270573E+02  0.19999997851E+02 0.  0.
         12    1    1    2    0    0 -0.12340161463E+02 -0.38127882533E+02 -0.16661581659E+02  0.43400729427E+02  0.00000000000E+00 0. -1.
         11    1    3    3    0    0 -0.15852245188E+01  0.18807938509E+02  0.10748563265E+01  0.18905205741E+02  0.51100000000E-03 0. -1.
        -11    1    3    3    0    0  0.64393757015E+01  0.65750916240E+01  0.37177007938E+01  0.99256581013E+01  0.51100000000E-03 0.  1.
         12    1    3    3    0    0  0.74860102807E+01  0.12744852400E+02  0.11869024539E+02  0.18956406730E+02  0.00000000000E+00 0. -1.
</event>
<event>
 7    1  0.1631716E-009  0.4778727E+02  0.7816164E-02  0.1312668E+00
        -11   -1    0    0    0    0  0.00000000000E+00  0.00000000000E+00  0.45593999997E+02  0.45594000000E+02  0.51100000000E-03 0.  1.
         11   -1    0    0    0    0 -0.00000000000E+00 -0.00000000000E+00 -0.45593999997E+02  0.45594000000E+02  0.51100000000E-03 0. -1.
    9900012    2    1    2    0    0  0.29280877252E+02  0.28092707727E+02  0.15396525964E+02  0.47787274064E+02  0.20000013765E+02 0.  0.
         12    1    1    2    0    0 -0.29280877252E+02 -0.28092707727E+02 -0.15396525964E+02  0.43400725936E+02  0.00000000000E+00 0. -1.
         11    1    3    3    0    0  0.32756484685E+01  0.36788941082E+01 -0.30942223214E+01  0.58170737303E+01  0.51100000000E-03 0. -1.
        -11    1    3    3    0    0  0.90160979809E+01  0.16735804290E+02  0.10083475891E+02  0.21518681520E+02  0.51100000000E-03 0.  1.
         12    1    3    3    0    0  0.16989130802E+02  0.76780093282E+01  0.84072723944E+01  0.20451518814E+02  0.00000000000E+00 0. -1.
</event>
<event>
 7    1  0.1631716E-009  0.4778727E+02  0.7816164E-02  0.1312668E+00
        -11   -1    0    0    0    0  0.00000000000E+00  0.00000000000E+00  0.45593999997E+02  0.45594000000E+02  0.51100000000E-03 0. -1.
         11   -1    0    0    0    0 -0.00000000000E+00 -0.00000000000E+00 -0.45593999997E+02  0.45594000000E+02  0.51100000000E-03 0.  1.
    9900012    2    1    2    0    0  0.21288334956E+02 -0.86551077414E+01 -0.36817377899E+02  0.47787269470E+02  0.19999992820E+02 0.  0.
         12    1    1    2    0    0 -0.21288334956E+02  0.86551077414E+01  0.36817377899E+02  0.43400730530E+02  0.00000000000E+00 0. -1.
         11    1    3    3    0    0  0.93656851822E+00 -0.95035615093E+00 -0.79964628211E+01  0.81070188919E+01  0.51100000000E-03 0. -1.
        -11    1    3    3    0    0  0.10488754798E+02 -0.80983841342E+00 -0.24887636344E+02  0.27019701303E+02  0.51100000000E-03 0.  1.
         12    1    3    3    0    0  0.98630116406E+01 -0.68949131771E+01 -0.39332787339E+01  0.12660549275E+02  0.00000000000E+00 0. -1.
</event>
<event>
 7    1  0.1631716E-009  0.4778728E+02  0.7816164E-02  0.1312668E+00
        -11   -1    0    0    0    0  0.00000000000E+00  0.00000000000E+00  0.45593999997E+02  0.45594000000E+02  0.51100000000E-03 0. -1.
         11   -1    0    0    0    0 -0.00000000000E+00 -0.00000000000E+00 -0.45593999997E+02  0.45594000000E+02  0.51100000000E-03 0.  1.
    9900012    2    1    2    0    0  0.42647819159E+01  0.41408490484E+02 -0.12278897546E+02  0.47787276805E+02  0.20000026263E+02 0.  0.
         12    1    1    2    0    0 -0.42647819159E+01 -0.41408490484E+02  0.12278897546E+02  0.43400723195E+02  0.00000000000E+00 0. -1.
         11    1    3    3    0    0 -0.40045140150E+01  0.60024889735E+01  0.14921275248E+01  0.73683411420E+01  0.51100000000E-03 0. -1.
        -11    1    3    3    0    0  0.26713560441E+01  0.23531576054E+02 -0.39173980705E+01  0.24004525045E+02  0.51100000000E-03 0.  1.
         12    1    3    3    0    0  0.55979398867E+01  0.11874425456E+02 -0.98536269998E+01  0.16414410618E+02  0.00000000000E+00 0. -1.
</event>
<event>
 7    1  0.1631716E-009  0.4778726E+02  0.7816164E-02  0.1312668E+00
        -11   -1    0    0    0    0  0.00000000000E+00  0.00000000000E+00  0.45593999997E+02  0.45594000000E+02  0.51100000000E-03 0.  1.
         11   -1    0    0    0    0 -0.00000000000E+00 -0.00000000000E+00 -0.45593999997E+02  0.45594000000E+02  0.51100000000E-03 0. -1.
    9900012    2    1    2    0    0  0.24594761264E+02 -0.21946613351E+02  0.28232388989E+02  0.47787263748E+02  0.19999966733E+02 0.  0.
         12    1    1    2    0    0 -0.24594761264E+02  0.21946613351E+02 -0.28232388989E+02  0.43400736252E+02  0.00000000000E+00 0. -1.
         11    1    3    3    0    0  0.22393385882E+02 -0.16020544514E+02  0.13572991248E+02  0.30697681826E+02  0.51100000000E-03 0. -1.
        -11    1    3    3    0    0  0.39039840961E+01 -0.58053392215E+01  0.10777958873E+02  0.12849414501E+02  0.51100000000E-03 0.  1.
         12    1    3    3    0    0 -0.17026087143E+01 -0.12072961542E+00  0.38814388680E+01  0.42401674213E+01  0.00000000000E+00 0. -1.
</event>
<event>
 7    1  0.1631716E-009  0.4778727E+02  0.7816164E-02  0.1312668E+00
        -11   -1    0    0    0    0  0.00000000000E+00  0.00000000000E+00  0.45593999997E+02  0.45594000000E+02  0.51100000000E-03 0. -1.
         11   -1    0    0    0    0 -0.00000000000E+00 -0.00000000000E+00 -0.45593999997E+02  0.45594000000E+02  0.51100000000E-03 0.  1.
    9900012    2    1    2    0    0 -0.17393690063E+02 -0.22004971073E+02 -0.33118941609E+02  0.47787268448E+02  0.19999988163E+02 0.  0.
         12    1    1    2    0    0  0.17393690063E+02  0.22004971073E+02  0.33118941609E+02  0.43400731552E+02  0.00000000000E+00 0. -1.
         11    1    3    3    0    0 -0.73406641579E+01 -0.14919855872E+02 -0.12040824130E+02  0.20529707634E+02  0.51100000000E-03 0. -1.
        -11    1    3    3    0    0 -0.87010132182E+01 -0.82569605988E+01 -0.22137376054E+02  0.25178332911E+02  0.51100000000E-03 0.  1.
        -12    1    3    3    0    0 -0.13520126871E+01  0.11718453981E+01  0.10592585757E+01  0.20792279032E+01  0.00000000000E+00 0.  1.
</event>
<event>
 7    1  0.1631716E-009  0.4778727E+02  0.7816164E-02  0.1312668E+00
        -11   -1    0    0    0    0  0.00000000000E+00  0.00000000000E+00  0.45593999997E+02  0.45594000000E+02  0.51100000000E-03 0.  1.
         11   -1    0    0    0    0 -0.00000000000E+00 -0.00000000000E+00 -0.45593999997E+02  0.45594000000E+02  0.51100000000E-03 0. -1.
    9900012    2    1    2    0    0 -0.95696954681E+01 -0.95270918143E+01  0.41246562394E+02  0.47787268910E+02  0.19999990269E+02 0.  0.
         12    1    1    2    0    0  0.95696954681E+01  0.95270918143E+01 -0.41246562394E+02  0.43400731090E+02  0.00000000000E+00 0. -1.
         11    1    3    3    0    0  0.32179241216E+01  0.63865345666E+00  0.32201726558E+01  0.45970018582E+01  0.51100000000E-03 0. -1.
        -11    1    3    3    0    0 -0.77483992083E+01  0.10615557310E+01  0.18809964320E+02  0.20371041919E+02  0.51100000000E-03 0.  1.
        -12    1    3    3    0    0 -0.50392203814E+01 -0.11227301002E+02  0.19216425418E+02  0.22819225133E+02  0.00000000000E+00 0.  1.
</event>
<event>
 7    1  0.1631716E-009  0.4778727E+02  0.7816164E-02  0.1312668E+00
        -11   -1    0    0    0    0  0.00000000000E+00  0.00000000000E+00  0.45593999997E+02  0.45594000000E+02  0.51100000000E-03 0. -1.
         11   -1    0    0    0    0 -0.00000000000E+00 -0.00000000000E+00 -0.45593999997E+02  0.45594000000E+02  0.51100000000E-03 0.  1.
    9900012    2    1    2    0    0 -0.13756301480E+02 -0.40649388186E+02 -0.64818674887E+01  0.47787271936E+02  0.20000004067E+02 0.  0.
         12    1    1    2    0    0  0.13756301480E+02  0.40649388186E+02  0.64818674887E+01  0.43400728064E+02  0.00000000000E+00 0. -1.
         11    1    3    3    0    0 -0.49491316767E+01 -0.16922682934E+02  0.48954459728E+01  0.18298538017E+02  0.51100000000E-03 0. -1.
        -11    1    3    3    0    0 -0.89883180711E+01 -0.19421508154E+02 -0.53144223774E+01  0.22050576550E+02  0.51100000000E-03 0.  1.
         12    1    3    3    0    0  0.18114826768E+00 -0.43051970980E+01 -0.60628910841E+01  0.74381573690E+01  0.00000000000E+00 0. -1.
</event>
<event>
 7    1  0.1631716E-009  0.4778727E+02  0.7816164E-02  0.1312668E+00
        -11   -1    0    0    0    0  0.00000000000E+00  0.00000000000E+00  0.45593999997E+02  0.45594000000E+02  0.51100000000E-03 0. -1.
         11   -1    0    0    0    0 -0.00000000000E+00 -0.00000000000E+00 -0.45593999997E+02  0.45594000000E+02  0.51100000000E-03 0.  1.
    9900012    2    1    2    0    0 -0.22254300917E+02  0.10748613911E+02 -0.35676841078E+02  0.47787267291E+02  0.19999982887E+02 0.  0.
         12    1    1    2    0    0  0.22254300917E+02 -0.10748613911E+02  0.35676841078E+02  0.43400732709E+02  0.00000000000E+00 0. -1.
         11    1    3    3    0    0 -0.10752604332E+02  0.50791941794E+01 -0.48059359222E+01  0.12826290726E+02  0.51100000000E-03 0. -1.
        -11    1    3    3    0    0 -0.30884726138E+01  0.71450506292E+01 -0.16484862868E+02  0.18230225331E+02  0.51100000000E-03 0.  1.
        -12    1    3    3    0    0 -0.84132239712E+01 -0.14756308976E+01 -0.14386042288E+02  0.16730751234E+02  0.00000000000E+00 0.  1.
</event>
<event>
 7    1  0.1631716E-009  0.4778727E+02  0.7816164E-02  0.1312668E+00
        -11   -1    0    0    0    0  0.00000000000E+00  0.00000000000E+00  0.45593999997E+02  0.45594000000E+02  0.51100000000E-03 0. -1.
         11   -1    0    0    0    0 -0.00000000000E+00 -0.00000000000E+00 -0.45593999997E+02  0.45594000000E+02  0.51100000000E-03 0.  1.
    9900012    2    1    2    0    0 -0.27412641418E+02  0.13416668100E+02 -0.30857144227E+02  0.47787271409E+02  0.20000001660E+02 0.  0.
         12    1    1    2    0    0  0.27412641418E+02 -0.13416668100E+02  0.30857144227E+02  0.43400728591E+02  0.00000000000E+00 0. -1.
         11    1    3    3    0    0  0.58983487956E-01  0.26756687902E+01 -0.98433538427E+00  0.28515958578E+01  0.51100000000E-03 0. -1.
        -11    1    3    3    0    0 -0.16683770273E+02 -0.19966733233E+01 -0.16470246477E+02  0.23528789050E+02  0.51100000000E-03 0.  1.
        -12    1    3    3    0    0 -0.10787854632E+02  0.12737672633E+02 -0.13402562366E+02  0.21406886501E+02  0.00000000000E+00 0.  1.
</event>
<event>
 7    1  0.1631716E-009  0.4778727E+02  0.7816164E-02  0.1312668E+00
        -11   -1    0    0    0    0  0.00000000000E+00  0.00000000000E+00  0.45593999997E+02  0.45594000000E+02  0.51100000000E-03 0.  1.
         11   -1    0    0    0    0 -0.00000000000E+00 -0.00000000000E+00 -0.45593999997E+02  0.45594000000E+02  0.51100000000E-03 0. -1.
    9900012    2    1    2    0    0  0.51370048799E+01  0.39251518101E+02  0.17791927053E+02  0.47787272349E+02  0.20000005948E+02 0.  0.
         12    1    1    2    0    0 -0.51370048799E+01 -0.39251518101E+02 -0.17791927053E+02  0.43400727651E+02  0.00000000000E+00 0. -1.
         11    1    3    3    0    0  0.81848043444E-01  0.21029833439E+02  0.19558736713E+01  0.21120748937E+02  0.51100000000E-03 0. -1.
        -11    1    3    3    0    0 -0.27279407273E+01  0.71205471331E+01  0.77910023694E+01  0.10901539812E+02  0.51100000000E-03 0.  1.
        -12    1    3    3    0    0  0.77830975638E+01  0.11101137529E+02  0.80450510124E+01  0.15764983600E+02  0.00000000000E+00 0.  1.
</event>
<event>
 7    1  0.1631716E-009  0.4778727E+02  0.7816164E-02  0.1312668E+00
        -11   -1    0    0    0    0  0.00000000000E+00  0.00000000000E+00  0.45593999997E+02  0.45594000000E+02  0.51100000000E-03 0.  1.
         11   -1    0    0    0    0 -0.00000000000E+00 -0.00000000000E+00 -0.45593999997E+02  0.45594000000E+02  0.51100000000E-03 0. -1.
    9900012    2    1    2    0    0 -0.63966626843E+01 -0.42784793890E+02 -0.34881986092E+01  0.47787269461E+02  0.19999992783E+02 0.  0.
         12    1    1    2    0    0  0.63966626843E+01  0.42784793890E+02  0.34881986092E+01  0.43400730539E+02  0.00000000000E+00 0. -1.
         11    1    3    3    0    0 -0.58212293944E+00 -0.32931398426E+01 -0.39440391762E+01  0.51709846668E+01  0.51100000000E-03 0. -1.
        -11    1    3    3    0    0 -0.98044435178E+00 -0.28185330494E+02 -0.58417381522E+01  0.28801042188E+02  0.51100000000E-03 0.  1.
        -12    1    3    3    0    0 -0.48340953931E+01 -0.11306323553E+02  0.62975787191E+01  0.13815242607E+02  0.00000000000E+00 0.  1.
</event>
<event>
 7    1  0.1631716E-009  0.4778725E+02  0.7816164E-02  0.1312668E+00
        -11   -1    0    0    0    0  0.00000000000E+00  0.00000000000E+00  0.45593999997E+02  0.45594000000E+02  0.51100000000E-03 0.  1.
         11   -1    0    0    0    0 -0.00000000000E+00 -0.00000000000E+00 -0.45593999997E+02  0.45594000000E+02  0.51100000000E-03 0. -1.
    9900012    2    1    2    0    0  0.42102823581E+01  0.31204138152E+02  0.29869726882E+02  0.47787247710E+02  0.19999893609E+02 0.  0.
         12    1    1    2    0    0 -0.42102823581E+01 -0.31204138152E+02 -0.29869726882E+02  0.43400752290E+02  0.00000000000E+00 0. -1.
         11    1    3    3    0    0  0.15604633839E+01  0.13278632093E+02  0.91961530371E+01  0.16227333335E+02  0.51100000000E-03 0.  1.
        -11    1    3    3    0    0  0.28597020594E+01 -0.24761480728E+00 -0.12087124261E+01  0.31145135979E+01  0.51100000000E-03 0. -1.
         12    1    3    3    0    0 -0.20988308511E+00  0.18173120866E+02  0.21882286271E+02  0.28445400777E+02  0.00000000000E+00 0. -1.
</event>
<event>
 7    1  0.1631716E-009  0.4778727E+02  0.7816164E-02  0.1312668E+00
        -11   -1    0    0    0    0  0.00000000000E+00  0.00000000000E+00  0.45593999997E+02  0.45594000000E+02  0.51100000000E-03 0.  1.
         11   -1    0    0    0    0 -0.00000000000E+00 -0.00000000000E+00 -0.45593999997E+02  0.45594000000E+02  0.51100000000E-03 0. -1.
    9900012    2    1    2    0    0  0.36414928097E+02 -0.12232647506E+02  0.20197491767E+02  0.47787270432E+02  0.19999997209E+02 0.  0.
         12    1    1    2    0    0 -0.36414928097E+02  0.12232647506E+02 -0.20197491767E+02  0.43400729568E+02  0.00000000000E+00 0. -1.
         11    1    3    3    0    0  0.13300562008E+02 -0.71257470821E+01  0.54846214680E+01  0.16054977238E+02  0.51100000000E-03 0. -1.
        -11    1    3    3    0    0  0.13063768638E+02  0.48770124288E+01  0.70226704231E+01  0.15612981822E+02  0.51100000000E-03 0.  1.
        -12    1    3    3    0    0  0.10050597452E+02 -0.99839128522E+01  0.76901998758E+01  0.16119311372E+02  0.00000000000E+00 0.  1.
</event>
<event>
 7    1  0.1631716E-009  0.4778727E+02  0.7816164E-02  0.1312668E+00
        -11   -1    0    0    0    0  0.00000000000E+00  0.00000000000E+00  0.45593999997E+02  0.45594000000E+02  0.51100000000E-03 0.  1.
         11   -1    0    0    0    0 -0.00000000000E+00 -0.00000000000E+00 -0.45593999997E+02  0.45594000000E+02  0.51100000000E-03 0. -1.
    9900012    2    1    2    0    0 -0.13868289963E+02 -0.40558468540E+02 -0.68047213812E+01  0.47787273395E+02  0.20000010716E+02 0.  0.
         12    1    1    2    0    0  0.13868289963E+02  0.40558468540E+02  0.68047213812E+01  0.43400726605E+02  0.00000000000E+00 0. -1.
         11    1    3    3    0    0 -0.75892196967E+01 -0.15159892383E+02 -0.43028509397E+01  0.17490943918E+02  0.51100000000E-03 0. -1.
        -11    1    3    3    0    0  0.13324895264E+01 -0.17210016190E+02  0.34918679880E+01  0.17611170544E+02  0.51100000000E-03 0.  1.
        -12    1    3    3    0    0 -0.76115597923E+01 -0.81885599667E+01 -0.59937384295E+01  0.12685158933E+02  0.00000000000E+00 0.  1.
</event>
<event>
 7    1  0.1631716E-009  0.4778728E+02  0.7816164E-02  0.1312668E+00
        -11   -1    0    0    0    0  0.00000000000E+00  0.00000000000E+00  0.45593999997E+02  0.45594000000E+02  0.51100000000E-03 0.  1.
         11   -1    0    0    0    0 -0.00000000000E+00 -0.00000000000E+00 -0.45593999997E+02  0.45594000000E+02  0.51100000000E-03 0. -1.
    9900012    2    1    2    0    0  0.21093893745E+02  0.35361053127E+02 -0.13721020880E+02  0.47787275979E+02  0.20000022497E+02 0.  0.
         12    1    1    2    0    0 -0.21093893745E+02 -0.35361053127E+02  0.13721020880E+02  0.43400724021E+02  0.00000000000E+00 0. -1.
         11    1    3    3    0    0  0.74674357895E+01  0.23678929715E+02 -0.13879875573E+02  0.28444775547E+02  0.51100000000E-03 0. -1.
        -11    1    3    3    0    0  0.96696078188E+01  0.61315685499E+01 -0.29900775188E+01  0.11833765761E+02  0.51100000000E-03 0.  1.
        -12    1    3    3    0    0  0.39568501371E+01  0.55505548620E+01  0.31489322119E+01  0.75087346710E+01  0.00000000000E+00 0.  1.
</event>
<event>
 7    1  0.1631716E-009  0.4778727E+02  0.7816164E-02  0.1312668E+00
        -11   -1    0    0    0    0  0.00000000000E+00  0.00000000000E+00  0.45593999997E+02  0.45594000000E+02  0.51100000000E-03 0. -1.
         11   -1    0    0    0    0 -0.00000000000E+00 -0.00000000000E+00 -0.45593999997E+02  0.45594000000E+02  0.51100000000E-03 0.  1.
    9900012    2    1    2    0    0  0.23312355205E+01  0.37774507246E+02  0.21243233358E+02  0.47787273967E+02  0.20000013324E+02 0.  0.
         12    1    1    2    0    0 -0.23312355205E+01 -0.37774507246E+02 -0.21243233358E+02  0.43400726033E+02  0.00000000000E+00 0. -1.
         11    1    3    3    0    0 -0.11337352326E+01  0.13536619822E+02  0.86763801313E+01  0.16118467801E+02  0.51100000000E-03 0. -1.
        -11    1    3    3    0    0  0.40042832685E+01 -0.39700366566E-01  0.46290817653E+01  0.61208054098E+01  0.51100000000E-03 0.  1.
        -12    1    3    3    0    0 -0.53931251540E+00  0.24277587790E+02  0.79377714617E+01  0.25548000756E+02  0.00000000000E+00 0.  1.
</event>
<event>
 7    1  0.1631716E-009  0.4778727E+02  0.7816164E-02  0.1312668E+00
        -11   -1    0    0    0    0  0.00000000000E+00  0.00000000000E+00  0.45593999997E+02  0.45594000000E+02  0.51100000000E-03 0.  1.
         11   -1    0    0    0    0 -0.00000000000E+00 -0.00000000000E+00 -0.45593999997E+02  0.45594000000E+02  0.51100000000E-03 0. -1.
    9900012    2    1    2    0    0  0.15685367881E+02 -0.25568043643E+02  0.31366663888E+02  0.47787271610E+02  0.20000002578E+02 0.  0.
         12    1    1    2    0    0 -0.15685367881E+02  0.25568043643E+02 -0.31366663888E+02  0.43400728390E+02  0.00000000000E+00 0. -1.
         11    1    3    3    0    0  0.35515066483E+01 -0.10308651092E+02  0.47553775250E+01  0.11895171394E+02  0.51100000000E-03 0. -1.
        -11    1    3    3    0    0  0.37990560781E+01 -0.14658192409E+02  0.13188373133E+02  0.20080553228E+02  0.51100000000E-03 0.  1.
         12    1    3    3    0    0  0.83348051546E+01 -0.60120014197E+00  0.13422913230E+02  0.15811546988E+02  0.00000000000E+00 0. -1.
</event>
<event>
 7    1  0.1631716E-009  0.4778727E+02  0.7816164E-02  0.1312668E+00
        -11   -1    0    0    0    0  0.00000000000E+00  0.00000000000E+00  0.45593999997E+02  0.45594000000E+02  0.51100000000E-03 0.  1.
         11   -1    0    0    0    0 -0.00000000000E+00 -0.00000000000E+00 -0.45593999997E+02  0.45594000000E+02  0.51100000000E-03 0. -1.
    9900012    2    1    2    0    0  0.84327231573E+01  0.97510248456E+01  0.41441885258E+02  0.47787272367E+02  0.20000006028E+02 0.  0.
         12    1    1    2    0    0 -0.84327231573E+01 -0.97510248456E+01 -0.41441885258E+02  0.43400727633E+02  0.00000000000E+00 0. -1.
         11    1    3    3    0    0 -0.16073255640E+01 -0.39236704796E+01  0.66322155259E+01  0.78717830601E+01  0.51100000000E-03 0. -1.
        -11    1    3    3    0    0  0.80423962759E+01  0.28615094162E+01  0.15084152369E+02  0.17332052012E+02  0.51100000000E-03 0.  1.
         12    1    3    3    0    0  0.19976524454E+01  0.10813185909E+02  0.19725517363E+02  0.22583437294E+02  0.00000000000E+00 0. -1.
</event>
<event>
 7    1  0.1631716E-009  0.4778727E+02  0.7816164E-02  0.1312668E+00
        -11   -1    0    0    0    0  0.00000000000E+00  0.00000000000E+00  0.45593999997E+02  0.45594000000E+02  0.51100000000E-03 0. -1.
         11   -1    0    0    0    0 -0.00000000000E+00 -0.00000000000E+00 -0.45593999997E+02  0.45594000000E+02  0.51100000000E-03 0.  1.
    9900012    2    1    2    0    0 -0.42507028086E+02  0.54235672370E+01  0.68819188727E+01  0.47787270448E+02  0.19999997281E+02 0.  0.
         12    1    1    2    0    0  0.42507028086E+02 -0.54235672370E+01 -0.68819188727E+01  0.43400729552E+02  0.00000000000E+00 0. -1.
         11    1    3    3    0    0 -0.14378079660E+02  0.84160171338E+01  0.43044829171E+01  0.17207181424E+02  0.51100000000E-03 0. -1.
        -11    1    3    3    0    0 -0.25816103577E+02 -0.18134208696E+01  0.57196219308E+01  0.26504221823E+02  0.51100000000E-03 0.  1.
        -12    1    3    3    0    0 -0.23128448487E+01 -0.11790290272E+01 -0.31421859752E+01  0.40758672014E+01  0.00000000000E+00 0.  1.
</event>
<event>
 7    1  0.1631716E-009  0.4778727E+02  0.7816164E-02  0.1312668E+00
        -11   -1    0    0    0    0  0.00000000000E+00  0.00000000000E+00  0.45593999997E+02  0.45594000000E+02  0.51100000000E-03 0.  1.
         11   -1    0    0    0    0 -0.00000000000E+00 -0.00000000000E+00 -0.45593999997E+02  0.45594000000E+02  0.51100000000E-03 0. -1.
    9900012    2    1    2    0    0 -0.13133626956E+02 -0.36666353357E+02 -0.19149659271E+02  0.47787273328E+02  0.20000010410E+02 0.  0.
         12    1    1    2    0    0  0.13133626956E+02  0.36666353357E+02  0.19149659271E+02  0.43400726672E+02  0.00000000000E+00 0. -1.
         11    1    3    3    0    0  0.69641366074E+00  0.14058561119E+00 -0.36130320762E+01  0.36822217948E+01  0.51100000000E-03 0. -1.
        -11    1    3    3    0    0 -0.21763133533E+01 -0.23434643911E+02 -0.91894117797E+01  0.25265869551E+02  0.51100000000E-03 0.  1.
        -12    1    3    3    0    0 -0.11653727263E+02 -0.13372295057E+02 -0.63472154146E+01  0.18839181982E+02  0.00000000000E+00 0.  1.
</event>
<event>
 7    1  0.1631716E-009  0.4778727E+02  0.7816164E-02  0.1312668E+00
        -11   -1    0    0    0    0  0.00000000000E+00  0.00000000000E+00  0.45593999997E+02  0.45594000000E+02  0.51100000000E-03 0.  1.
         11   -1    0    0    0    0 -0.00000000000E+00 -0.00000000000E+00 -0.45593999997E+02  0.45594000000E+02  0.51100000000E-03 0. -1.
    9900012    2    1    2    0    0  0.38556719681E+02  0.33687202928E+01  0.19638080890E+02  0.47787272702E+02  0.20000007557E+02 0.  0.
         12    1    1    2    0    0 -0.38556719681E+02 -0.33687202928E+01 -0.19638080890E+02  0.43400727298E+02  0.00000000000E+00 0. -1.
         11    1    3    3    0    0  0.20654450782E+02  0.31169224392E+01  0.51932505368E+01  0.21524204840E+02  0.51100000000E-03 0. -1.
        -11    1    3    3    0    0  0.16366957608E+02 -0.68841852490E+00  0.16689448502E+02  0.23385656137E+02  0.51100000000E-03 0.  1.
         12    1    3    3    0    0  0.15353112912E+01  0.94021637849E+00 -0.22446181489E+01  0.28774117247E+01  0.00000000000E+00 0. -1.
</event>
<event>
 7    1  0.1631716E-009  0.4778727E+02  0.7816164E-02  0.1312668E+00
        -11   -1    0    0    0    0  0.00000000000E+00  0.00000000000E+00  0.45593999997E+02  0.45594000000E+02  0.51100000000E-03 0. -1.
         11   -1    0    0    0    0 -0.00000000000E+00 -0.00000000000E+00 -0.45593999997E+02  0.45594000000E+02  0.51100000000E-03 0.  1.
    9900012    2    1    2    0    0 -0.42212984050E+02  0.10081741760E+02 -0.21367472394E+00  0.47787271939E+02  0.20000004081E+02 0.  0.
         12    1    1    2    0    0  0.42212984050E+02 -0.10081741760E+02  0.21367472394E+00  0.43400728061E+02  0.00000000000E+00 0. -1.
         11    1    3    3    0    0 -0.53956427183E+01  0.37833459082E+01 -0.25472226685E+01  0.70650555687E+01  0.51100000000E-03 0. -1.
        -11    1    3    3    0    0 -0.31245583974E+02  0.76822429452E+01  0.74553511562E+01  0.33028557881E+02  0.51100000000E-03 0.  1.
        -12    1    3    3    0    0 -0.55717573572E+01 -0.13838470930E+01 -0.51218032116E+01  0.76936584901E+01  0.00000000000E+00 0.  1.
</event>
<event>
 7    1  0.1631716E-009  0.4778726E+02  0.7816164E-02  0.1312668E+00
        -11   -1    0    0    0    0  0.00000000000E+00  0.00000000000E+00  0.45593999997E+02  0.45594000000E+02  0.51100000000E-03 0.  1.
         11   -1    0    0    0    0 -0.00000000000E+00 -0.00000000000E+00 -0.45593999997E+02  0.45594000000E+02  0.51100000000E-03 0. -1.
    9900012    2    1    2    0    0 -0.20550603616E+02 -0.24253002477E+01  0.38149895504E+02  0.47787263632E+02  0.19999966205E+02 0.  0.
         12    1    1    2    0    0  0.20550603616E+02  0.24253002477E+01 -0.38149895504E+02  0.43400736368E+02  0.00000000000E+00 0. -1.
         11    1    3    3    0    0 -0.17927685306E+00  0.29283845427E+01  0.48050916484E+01  0.56299628978E+01  0.51100000000E-03 0. -1.
        -11    1    3    3    0    0 -0.58716250734E+01 -0.87060125081E+01  0.17581105671E+02  0.20478425517E+02  0.51100000000E-03 0.  1.
         12    1    3    3    0    0 -0.14499701689E+02  0.33523277177E+01  0.15763698185E+02  0.21678875217E+02  0.00000000000E+00 0. -1.
</event>
<event>
 7    1  0.1631716E-009  0.4778727E+02  0.7816164E-02  0.1312668E+00
        -11   -1    0    0    0    0  0.00000000000E+00  0.00000000000E+00  0.45593999997E+02  0.45594000000E+02  0.51100000000E-03 0. -1.
         11   -1    0    0    0    0 -0.00000000000E+00 -0.00000000000E+00 -0.45593999997E+02  0.45594000000E+02  0.51100000000E-03 0.  1.
    9900012    2    1    2    0    0 -0.35443588123E+02 -0.21845685404E+02 -0.12253229494E+02  0.47787267946E+02  0.19999985873E+02 0.  0.
         12    1    1    2    0    0  0.35443588123E+02  0.21845685404E+02  0.12253229494E+02  0.43400732054E+02  0.00000000000E+00 0. -1.
         11    1    3    3    0    0 -0.10442364040E+02  0.83198852219E+00 -0.57671658772E+01  0.11958067326E+02  0.51100000000E-03 0. -1.
        -11    1    3    3    0    0 -0.10042976759E+02 -0.84018426346E+01  0.24196052419E+01  0.13315661141E+02  0.51100000000E-03 0.  1.
         12    1    3    3    0    0 -0.14958247323E+02 -0.14275831291E+02 -0.89056688589E+01  0.22513539479E+02  0.00000000000E+00 0. -1.
</event>
<event>
 7    1  0.1631716E-009  0.4778728E+02  0.7816164E-02  0.1312668E+00
        -11   -1    0    0    0    0  0.00000000000E+00  0.00000000000E+00  0.45593999997E+02  0.45594000000E+02  0.51100000000E-03 0. -1.
         11   -1    0    0    0    0 -0.00000000000E+00 -0.00000000000E+00 -0.45593999997E+02  0.45594000000E+02  0.51100000000E-03 0.  1.
    9900012    2    1    2    0    0 -0.29492266607E+02 -0.11868377062E+02 -0.29546077923E+02  0.47787275532E+02  0.20000020461E+02 0.  0.
         12    1    1    2    0    0  0.29492266607E+02  0.11868377062E+02  0.29546077923E+02  0.43400724468E+02  0.00000000000E+00 0. -1.
         11    1    3    3    0    0 -0.79856525352E+01 -0.12510038538E+01 -0.25509362437E+01  0.84760210615E+01  0.51100000000E-03 0. -1.
        -11    1    3    3    0    0 -0.31725227206E+00 -0.68609733031E+01 -0.85597419426E+01  0.10974642867E+02  0.51100000000E-03 0.  1.
        -12    1    3    3    0    0 -0.21189361800E+02 -0.37563999055E+01 -0.18435399737E+02  0.28336611604E+02  0.00000000000E+00 0.  1.
</event>
<event>
 7    1  0.1631716E-009  0.4778726E+02  0.7816164E-02  0.1312668E+00
        -11   -1    0    0    0    0  0.00000000000E+00  0.00000000000E+00  0.45593999997E+02  0.45594000000E+02  0.51100000000E-03 0. -1.
         11   -1    0    0    0    0 -0.00000000000E+00 -0.00000000000E+00 -0.45593999997E+02  0.45594000000E+02  0.51100000000E-03 0.  1.
    9900012    2    1    2    0    0  0.28665181461E+02  0.23634856206E+02 -0.22434903548E+02  0.47787263217E+02  0.19999964312E+02 0.  0.
         12    1    1    2    0    0 -0.28665181461E+02 -0.23634856206E+02  0.22434903548E+02  0.43400736783E+02  0.00000000000E+00 0. -1.
         11    1    3    3    0    0  0.18552318876E+02  0.11832967586E+02 -0.94959640978E+01  0.23966246932E+02  0.51100000000E-03 0. -1.
        -11    1    3    3    0    0  0.11861930576E+01 -0.10717110111E+01  0.17328637031E+01  0.23576334185E+01  0.51100000000E-03 0.  1.
        -12    1    3    3    0    0  0.89266695275E+01  0.12873599631E+02 -0.14671803154E+02  0.21463382867E+02  0.00000000000E+00 0.  1.
</event>
<event>
 7    1  0.1631716E-009  0.4778727E+02  0.7816164E-02  0.1312668E+00
        -11   -1    0    0    0    0  0.00000000000E+00  0.00000000000E+00  0.45593999997E+02  0.45594000000E+02  0.51100000000E-03 0.  1.
         11   -1    0    0    0    0 -0.00000000000E+00 -0.00000000000E+00 -0.45593999997E+02  0.45594000000E+02  0.51100000000E-03 0. -1.
    9900012    2    1    2    0    0  0.40813369994E+02 -0.28337835558E+01  0.14486620545E+02  0.47787266431E+02  0.19999978967E+02 0.  0.
         12    1    1    2    0    0 -0.40813369994E+02  0.28337835558E+01 -0.14486620545E+02  0.43400733569E+02  0.00000000000E+00 0. -1.
         11    1    3    3    0    0  0.20034759868E+01 -0.25155502487E+01 -0.32142139499E+00  0.32319067217E+01  0.51100000000E-03 0. -1.
        -11    1    3    3    0    0  0.18837585113E+02  0.62145752019E+01  0.12426806144E+02  0.23407286665E+02  0.51100000000E-03 0.  1.
        -12    1    3    3    0    0  0.19972308894E+02 -0.65328085090E+01  0.23812357961E+01  0.21148073044E+02  0.00000000000E+00 0.  1.
</event>
<event>
 7    1  0.1631716E-009  0.4778727E+02  0.7816164E-02  0.1312668E+00
        -11   -1    0    0    0    0  0.00000000000E+00  0.00000000000E+00  0.45593999997E+02  0.45594000000E+02  0.51100000000E-03 0.  1.
         11   -1    0    0    0    0 -0.00000000000E+00 -0.00000000000E+00 -0.45593999997E+02  0.45594000000E+02  0.51100000000E-03 0. -1.
    9900012    2    1    2    0    0  0.38668617007E+02 -0.58066993613E+01  0.18831984310E+02  0.47787270378E+02  0.19999996960E+02 0.  0.
         12    1    1    2    0    0 -0.38668617007E+02  0.58066993613E+01 -0.18831984310E+02  0.43400729622E+02  0.00000000000E+00 0. -1.
         11    1    3    3    0    0  0.71149048203E+01 -0.75937271573E+01  0.50866432908E+01  0.11582767500E+02  0.51100000000E-03 0. -1.
        -11    1    3    3    0    0  0.14378512216E+02  0.22947750434E+01  0.60475004354E+00  0.14573034308E+02  0.51100000000E-03 0.  1.
        -12    1    3    3    0    0  0.17175199970E+02 -0.50774724736E+00  0.13140590975E+02  0.21631468569E+02  0.00000000000E+00 0.  1.
</event>
<event>
 7    1  0.1631716E-009  0.4778727E+02  0.7816164E-02  0.1312668E+00
        -11   -1    0    0    0    0  0.00000000000E+00  0.00000000000E+00  0.45593999997E+02  0.45594000000E+02  0.51100000000E-03 0.  1.
         11   -1    0    0    0    0 -0.00000000000E+00 -0.00000000000E+00 -0.45593999997E+02  0.45594000000E+02  0.51100000000E-03 0. -1.
    9900012    2    1    2    0    0 -0.36243910110E+02  0.33934951847E+01  0.23632313988E+02  0.47787273116E+02  0.20000009447E+02 0.  0.
         12    1    1    2    0    0  0.36243910110E+02 -0.33934951847E+01 -0.23632313988E+02  0.43400726884E+02  0.00000000000E+00 0. -1.
         11    1    3    3    0    0 -0.18846513176E+02  0.45977488303E+00  0.18903909642E+02  0.26697570149E+02  0.51100000000E-03 0. -1.
        -11    1    3    3    0    0 -0.10396051198E+02 -0.35508040376E+01  0.20203855971E+01  0.11169961864E+02  0.51100000000E-03 0.  1.
        -12    1    3    3    0    0 -0.70013457354E+01  0.64845243392E+01  0.27080187487E+01  0.99197411033E+01  0.00000000000E+00 0.  1.
</event>
<event>
 7    1  0.1631716E-009  0.4778728E+02  0.7816164E-02  0.1312668E+00
        -11   -1    0    0    0    0  0.00000000000E+00  0.00000000000E+00  0.45593999997E+02  0.45594000000E+02  0.51100000000E-03 0. -1.
         11   -1    0    0    0    0 -0.00000000000E+00 -0.00000000000E+00 -0.45593999997E+02  0.45594000000E+02  0.51100000000E-03 0.  1.
    9900012    2    1    2    0    0  0.32452074727E+02 -0.27225896034E+02 -0.94464815683E+01  0.47787279004E+02  0.20000036291E+02 0.  0.
         12    1    1    2    0    0 -0.32452074727E+02  0.27225896034E+02  0.94464815683E+01  0.43400720996E+02  0.00000000000E+00 0. -1.
         11    1    3    3    0    0  0.25661643443E+01  0.15754645778E+01 -0.10669112315E+01  0.31946185868E+01  0.51100000000E-03 0. -1.
        -11    1    3    3    0    0  0.23179063089E+02 -0.18167891942E+02  0.59975128801E-01  0.29450719186E+02  0.51100000000E-03 0.  1.
         12    1    3    3    0    0  0.67068472935E+01 -0.10633468670E+02 -0.84395454656E+01  0.15141941231E+02  0.00000000000E+00 0. -1.
</event>
<event>
 7    1  0.1631716E-009  0.4778728E+02  0.7816164E-02  0.1312668E+00
        -11   -1    0    0    0    0  0.00000000000E+00  0.00000000000E+00  0.45593999997E+02  0.45594000000E+02  0.51100000000E-03 0.  1.
         11   -1    0    0    0    0 -0.00000000000E+00 -0.00000000000E+00 -0.45593999997E+02  0.45594000000E+02  0.51100000000E-03 0. -1.
    9900012    2    1    2    0    0 -0.21809566650E+02  0.38434614886E+01  0.37325505849E+02  0.47787276728E+02  0.20000025912E+02 0.  0.
         12    1    1    2    0    0  0.21809566650E+02 -0.38434614886E+01 -0.37325505849E+02  0.43400723272E+02  0.00000000000E+00 0. -1.
         11    1    3    3    0    0 -0.87196867180E+01 -0.10248049936E+01  0.50408515565E+01  0.10123899763E+02  0.51100000000E-03 0. -1.
        -11    1    3    3    0    0 -0.11491057776E+02  0.62426775116E+01  0.13626296479E+02  0.18886275104E+02  0.51100000000E-03 0.  1.
        -12    1    3    3    0    0 -0.15988221561E+01 -0.13744110294E+01  0.18658357814E+02  0.18777101861E+02  0.00000000000E+00 0.  1.
</event>
<event>
 7    1  0.1631716E-009  0.4778727E+02  0.7816164E-02  0.1312668E+00
        -11   -1    0    0    0    0  0.00000000000E+00  0.00000000000E+00  0.45593999997E+02  0.45594000000E+02  0.51100000000E-03 0.  1.
         11   -1    0    0    0    0 -0.00000000000E+00 -0.00000000000E+00 -0.45593999997E+02  0.45594000000E+02  0.51100000000E-03 0. -1.
    9900012    2    1    2    0    0 -0.87006876085E+00 -0.21160193265E+02  0.37882882018E+02  0.47787267879E+02  0.19999985566E+02 0.  0.
         12    1    1    2    0    0  0.87006876085E+00  0.21160193265E+02 -0.37882882018E+02  0.43400732121E+02  0.00000000000E+00 0. -1.
         11    1    3    3    0    0  0.10682266418E+01  0.18419003888E+00  0.39275571435E+01  0.40744005087E+01  0.51100000000E-03 0. -1.
        -11    1    3    3    0    0 -0.65762270598E+01 -0.38376914255E+01  0.18123232762E+02  0.19657726313E+02  0.51100000000E-03 0.  1.
         12    1    3    3    0    0  0.46379316571E+01 -0.17506691878E+02  0.15832092113E+02  0.24055141057E+02  0.00000000000E+00 0. -1.
</event>
<event>
 7    1  0.1631716E-009  0.4778727E+02  0.7816164E-02  0.1312668E+00
        -11   -1    0    0    0    0  0.00000000000E+00  0.00000000000E+00  0.45593999997E+02  0.45594000000E+02  0.51100000000E-03 0. -1.
         11   -1    0    0    0    0 -0.00000000000E+00 -0.00000000000E+00 -0.45593999997E+02  0.45594000000E+02  0.51100000000E-03 0.  1.
    9900012    2    1    2    0    0  0.30427002315E+02 -0.15667762112E+02 -0.26689736603E+02  0.47787270981E+02  0.19999999710E+02 0.  0.
         12    1    1    2    0    0 -0.30427002315E+02  0.15667762112E+02  0.26689736603E+02  0.43400729019E+02  0.00000000000E+00 0. -1.
         11    1    3    3    0    0 -0.86972728932E+00 -0.66646205364E+01 -0.61021803074E+01  0.90780062358E+01  0.51100000000E-03 0. -1.
        -11    1    3    3    0    0  0.10089647375E+02 -0.18416112386E+01 -0.48389027431E+01  0.11340524508E+02  0.51100000000E-03 0.  1.
         12    1    3    3    0    0  0.21207082229E+02 -0.71615303370E+01 -0.15748653553E+02  0.27368740237E+02  0.00000000000E+00 0. -1.
</event>
<event>
 7    1  0.1631716E-009  0.4778725E+02  0.7816164E-02  0.1312668E+00
        -11   -1    0    0    0    0  0.00000000000E+00  0.00000000000E+00  0.45593999997E+02  0.45594000000E+02  0.51100000000E-03 0. -1.
         11   -1    0    0    0    0 -0.00000000000E+00 -0.00000000000E+00 -0.45593999997E+02  0.45594000000E+02  0.51100000000E-03 0.  1.
    9900012    2    1    2    0    0  0.32751115991E+02  0.23507335172E+02 -0.16074663871E+02  0.47787248577E+02  0.19999897560E+02 0.  0.
         12    1    1    2    0    0 -0.32751115991E+02 -0.23507335172E+02  0.16074663871E+02  0.43400751423E+02  0.00000000000E+00 0. -1.
         11    1    3    3    0    0 -0.27522892398E+00 -0.99714130736E+00  0.15645716660E+00  0.10461935067E+01  0.51100000000E-03 0. -1.
        -11    1    3    3    0    0  0.23261079640E+02  0.24695421117E+02 -0.14129944109E+02  0.36750468990E+02  0.51100000000E-03 0.  1.
         12    1    3    3    0    0  0.97652652747E+01 -0.19094463808E+00 -0.21011769289E+01  0.99905860803E+01  0.00000000000E+00 0. -1.
</event>
<event>
 7    1  0.1631716E-009  0.4778727E+02  0.7816164E-02  0.1312668E+00
        -11   -1    0    0    0    0  0.00000000000E+00  0.00000000000E+00  0.45593999997E+02  0.45594000000E+02  0.51100000000E-03 0.  1.
         11   -1    0    0    0    0 -0.00000000000E+00 -0.00000000000E+00 -0.45593999997E+02  0.45594000000E+02  0.51100000000E-03 0. -1.
    9900012    2    1    2    0    0 -0.47654110019E+01  0.29935910611E+02  0.31060511169E+02  0.47787271432E+02  0.20000001768E+02 0.  0.
         12    1    1    2    0    0  0.47654110019E+01 -0.29935910611E+02 -0.31060511169E+02  0.43400728568E+02  0.00000000000E+00 0. -1.
         11    1    3    3    0    0 -0.39220787700E+01  0.81159872643E+01 -0.54026512315E+00  0.90301626684E+01  0.51100000000E-03 0. -1.
        -11    1    3    3    0    0  0.17602048867E+01  0.38828171357E+01  0.70850199375E+01  0.82687422216E+01  0.51100000000E-03 0.  1.
        -12    1    3    3    0    0 -0.26035371186E+01  0.17937106211E+02  0.24515756355E+02  0.30488366542E+02  0.00000000000E+00 0.  1.
</event>
<event>
 7    1  0.1631716E-009  0.4778727E+02  0.7816164E-02  0.1312668E+00
        -11   -1    0    0    0    0  0.00000000000E+00  0.00000000000E+00  0.45593999997E+02  0.45594000000E+02  0.51100000000E-03 0.  1.
         11   -1    0    0    0    0 -0.00000000000E+00 -0.00000000000E+00 -0.45593999997E+02  0.45594000000E+02  0.51100000000E-03 0. -1.
    9900012    2    1    2    0    0  0.33263439739E+02  0.26985843406E+02  0.69950615673E+01  0.47787273578E+02  0.20000011551E+02 0.  0.
         12    1    1    2    0    0 -0.33263439739E+02 -0.26985843406E+02 -0.69950615673E+01  0.43400726422E+02  0.00000000000E+00 0. -1.
         11    1    3    3    0    0  0.25338849265E+01  0.74174668536E+01  0.43922078862E+01  0.89850363228E+01  0.51100000000E-03 0. -1.
        -11    1    3    3    0    0  0.68378114710E+01  0.31266799826E+00 -0.32276349245E+01  0.75677641650E+01  0.51100000000E-03 0.  1.
        -12    1    3    3    0    0  0.23891743342E+02  0.19255708554E+02  0.58304886056E+01  0.31234473090E+02  0.00000000000E+00 0.  1.
</event>
<event>
 7    1  0.1631716E-009  0.4778728E+02  0.7816164E-02  0.1312668E+00
        -11   -1    0    0    0    0  0.00000000000E+00  0.00000000000E+00  0.45593999997E+02  0.45594000000E+02  0.51100000000E-03 0.  1.
         11   -1    0    0    0    0 -0.00000000000E+00 -0.00000000000E+00 -0.45593999997E+02  0.45594000000E+02  0.51100000000E-03 0. -1.
    9900012    2    1    2    0    0 -0.21343662577E+02  0.36018621526E+02 -0.11433706713E+02  0.47787277909E+02  0.20000031298E+02 0.  0.
         12    1    1    2    0    0  0.21343662577E+02 -0.36018621526E+02  0.11433706713E+02  0.43400722091E+02  0.00000000000E+00 0. -1.
         11    1    3    3    0    0  0.11793094398E+01 -0.15183557634E+00  0.43661967660E+00  0.12666735176E+01  0.51100000000E-03 0. -1.
        -11    1    3    3    0    0 -0.74807403336E+01  0.57977994637E+01 -0.80268217168E+01  0.12409908207E+02  0.51100000000E-03 0.  1.
        -12    1    3    3    0    0 -0.15042231683E+02  0.30372657639E+02 -0.38435046726E+01  0.34110696185E+02  0.00000000000E+00 0.  1.
</event>
<event>
 7    1  0.1631716E-009  0.4778727E+02  0.7816164E-02  0.1312668E+00
        -11   -1    0    0    0    0  0.00000000000E+00  0.00000000000E+00  0.45593999997E+02  0.45594000000E+02  0.51100000000E-03 0. -1.
         11   -1    0    0    0    0 -0.00000000000E+00 -0.00000000000E+00 -0.45593999997E+02  0.45594000000E+02  0.51100000000E-03 0.  1.
    9900012    2    1    2    0    0 -0.17751776089E+02 -0.69391603718E+01 -0.38991611720E+02  0.47787270911E+02  0.19999999391E+02 0.  0.
         12    1    1    2    0    0  0.17751776089E+02  0.69391603718E+01  0.38991611720E+02  0.43400729089E+02  0.00000000000E+00 0. -1.
         11    1    3    3    0    0 -0.87508079848E+01 -0.67790579063E+01 -0.61127743906E+01  0.12645089066E+02  0.51100000000E-03 0.  1.
        -11    1    3    3    0    0 -0.29019350943E+01  0.94896290112E+00 -0.20061355093E+01  0.36532639957E+01  0.51100000000E-03 0. -1.
        -12    1    3    3    0    0 -0.60990330100E+01 -0.11090653666E+01 -0.30872701820E+02  0.31488917849E+02  0.00000000000E+00 0.  1.
</event>
<event>
 7    1  0.1631716E-009  0.4778726E+02  0.7816164E-02  0.1312668E+00
        -11   -1    0    0    0    0  0.00000000000E+00  0.00000000000E+00  0.45593999997E+02  0.45594000000E+02  0.51100000000E-03 0.  1.
         11   -1    0    0    0    0 -0.00000000000E+00 -0.00000000000E+00 -0.45593999997E+02  0.45594000000E+02  0.51100000000E-03 0. -1.
    9900012    2    1    2    0    0 -0.23209675768E+02 -0.14854856211E+02  0.33530107092E+02  0.47787264016E+02  0.19999967956E+02 0.  0.
         12    1    1    2    0    0  0.23209675768E+02  0.14854856211E+02 -0.33530107092E+02  0.43400735984E+02  0.00000000000E+00 0. -1.
         11    1    3    3    0    0  0.13768632182E+01 -0.67290746718E+01  0.79467079216E+01  0.10503635814E+02  0.51100000000E-03 0. -1.
        -11    1    3    3    0    0 -0.61675095599E+01  0.78864733442E+00  0.90299940633E+01  0.10963618556E+02  0.51100000000E-03 0.  1.
        -12    1    3    3    0    0 -0.18419029427E+02 -0.89144288734E+01  0.16553405107E+02  0.26320009647E+02  0.00000000000E+00 0.  1.
</event>
<event>
 7    1  0.1631716E-009  0.4778727E+02  0.7816164E-02  0.1312668E+00
        -11   -1    0    0    0    0  0.00000000000E+00  0.00000000000E+00  0.45593999997E+02  0.45594000000E+02  0.51100000000E-03 0.  1.
         11   -1    0    0    0    0 -0.00000000000E+00 -0.00000000000E+00 -0.45593999997E+02  0.45594000000E+02  0.51100000000E-03 0. -1.
    9900012    2    1    2    0    0 -0.95783845187E+01 -0.63970593950E+01  0.41844419573E+02  0.47787271109E+02  0.20000000295E+02 0.  0.
         12    1    1    2    0    0  0.95783845187E+01  0.63970593950E+01 -0.41844419573E+02  0.43400728891E+02  0.00000000000E+00 0. -1.
         11    1    3    3    0    0 -0.86975453513E+01 -0.19550429691E+01  0.17129284037E+02  0.19310149146E+02  0.51100000000E-03 0. -1.
        -11    1    3    3    0    0  0.33962171266E+01 -0.66181101436E+01  0.73355992944E+01  0.10447233601E+02  0.51100000000E-03 0.  1.
         12    1    3    3    0    0 -0.42770562940E+01  0.21760937177E+01  0.17379536241E+02  0.18029888362E+02  0.00000000000E+00 0. -1.
</event>
<event>
 7    1  0.1631716E-009  0.4778727E+02  0.7816164E-02  0.1312668E+00
        -11   -1    0    0    0    0  0.00000000000E+00  0.00000000000E+00  0.45593999997E+02  0.45594000000E+02  0.51100000000E-03 0. -1.
         11   -1    0    0    0    0 -0.00000000000E+00 -0.00000000000E+00 -0.45593999997E+02  0.45594000000E+02  0.51100000000E-03 0.  1.
    9900012    2    1    2    0    0  0.11381285113E+02  0.40540320767E+02 -0.10515341103E+02  0.47787266628E+02  0.19999979863E+02 0.  0.
         12    1    1    2    0    0 -0.11381285113E+02 -0.40540320767E+02  0.10515341103E+02  0.43400733372E+02  0.00000000000E+00 0. -1.
         11    1    3    3    0    0  0.43136010236E+00  0.62568917657E+01  0.28969064799E+01  0.69084610095E+01  0.51100000000E-03 0. -1.
        -11    1    3    3    0    0  0.53459392984E+01  0.32006510324E+02 -0.10116188385E+02  0.33990190317E+02  0.51100000000E-03 0.  1.
        -12    1    3    3    0    0  0.56039857125E+01  0.22769186777E+01 -0.32960591981E+01  0.68886153012E+01  0.00000000000E+00 0.  1.
</event>
<event>
 7    1  0.1631716E-009  0.4778728E+02  0.7816164E-02  0.1312668E+00
        -11   -1    0    0    0    0  0.00000000000E+00  0.00000000000E+00  0.45593999997E+02  0.45594000000E+02  0.51100000000E-03 0.  1.
         11   -1    0    0    0    0 -0.00000000000E+00 -0.00000000000E+00 -0.45593999997E+02  0.45594000000E+02  0.51100000000E-03 0. -1.
    9900012    2    1    2    0    0 -0.36413307878E+02  0.22245984218E+02  0.79252836063E+01  0.47787275068E+02  0.20000018344E+02 0.  0.
         12    1    1    2    0    0  0.36413307878E+02 -0.22245984218E+02 -0.79252836063E+01  0.43400724932E+02  0.00000000000E+00 0. -1.
         11    1    3    3    0    0 -0.13422198302E+02  0.11330321815E+02  0.68021241559E+00  0.17578233383E+02  0.51100000000E-03 0. -1.
        -11    1    3    3    0    0 -0.16547276359E+02 -0.11752059987E+00  0.42873776339E+01  0.17094085913E+02  0.51100000000E-03 0.  1.
        -12    1    3    3    0    0 -0.64438332173E+01  0.11033183002E+02  0.29576935569E+01  0.13114955771E+02  0.00000000000E+00 0.  1.
</event>
<event>
 7    1  0.1631716E-009  0.4778729E+02  0.7816164E-02  0.1312668E+00
        -11   -1    0    0    0    0  0.00000000000E+00  0.00000000000E+00  0.45593999997E+02  0.45594000000E+02  0.51100000000E-03 0.  1.
         11   -1    0    0    0    0 -0.00000000000E+00 -0.00000000000E+00 -0.45593999997E+02  0.45594000000E+02  0.51100000000E-03 0. -1.
    9900012    2    1    2    0    0 -0.22188863085E+02  0.37041209339E+02  0.43845786064E+01  0.47787293049E+02  0.20000100329E+02 0.  0.
         12    1    1    2    0    0  0.22188863085E+02 -0.37041209339E+02 -0.43845786064E+01  0.43400706951E+02  0.00000000000E+00 0. -1.
         11    1    3    3    0    0 -0.95331397372E+01  0.19984179079E+02 -0.67558292960E+01  0.23149285009E+02  0.51100000000E-03 0. -1.
        -11    1    3    3    0    0 -0.63191302155E+01  0.11568256820E+02  0.44507227276E+01  0.13912760531E+02  0.51100000000E-03 0.  1.
         12    1    3    3    0    0 -0.63365931319E+01  0.54887734399E+01  0.66896851747E+01  0.10725247509E+02  0.00000000000E+00 0. -1.
</event>
<event>
 7    1  0.1631716E-009  0.4778728E+02  0.7816164E-02  0.1312668E+00
        -11   -1    0    0    0    0  0.00000000000E+00  0.00000000000E+00  0.45593999997E+02  0.45594000000E+02  0.51100000000E-03 0.  1.
         11   -1    0    0    0    0 -0.00000000000E+00 -0.00000000000E+00 -0.45593999997E+02  0.45594000000E+02  0.51100000000E-03 0. -1.
    9900012    2    1    2    0    0 -0.30279280394E+00  0.17921452958E+02  0.39526601949E+02  0.47787280867E+02  0.20000044784E+02 0.  0.
         12    1    1    2    0    0  0.30279280394E+00 -0.17921452958E+02 -0.39526601949E+02  0.43400719133E+02  0.00000000000E+00 0. -1.
         11    1    3    3    0    0 -0.37672726472E+01 -0.16570855390E+01  0.14055626342E+02  0.14645781230E+02  0.51100000000E-03 0. -1.
        -11    1    3    3    0    0  0.46548149403E+01  0.10684524059E+02  0.18106605232E+02  0.21533125871E+02  0.51100000000E-03 0.  1.
        -12    1    3    3    0    0 -0.11903350970E+01  0.88940144386E+01  0.73643703752E+01  0.11608373766E+02  0.00000000000E+00 0.  1.
</event>
<event>
 7    1  0.1631716E-009  0.4778730E+02  0.7816164E-02  0.1312668E+00
        -11   -1    0    0    0    0  0.00000000000E+00  0.00000000000E+00  0.45593999997E+02  0.45594000000E+02  0.51100000000E-03 0.  1.
         11   -1    0    0    0    0 -0.00000000000E+00 -0.00000000000E+00 -0.45593999997E+02  0.45594000000E+02  0.51100000000E-03 0. -1.
    9900012    2    1    2    0    0  0.57328501578E+01  0.43017915191E+02  0.46241510261E+00  0.47787303853E+02  0.20000149587E+02 0.  0.
         12    1    1    2    0    0 -0.57328501578E+01 -0.43017915191E+02 -0.46241510261E+00  0.43400696147E+02  0.00000000000E+00 0. -1.
         11    1    3    3    0    0  0.53158428977E+01  0.18500061324E+02 -0.45455547047E+00  0.19254014533E+02  0.51100000000E-03 0. -1.
        -11    1    3    3    0    0 -0.22423717696E+01  0.11898093118E+02  0.73054569049E+01  0.14140811570E+02  0.51100000000E-03 0.  1.
        -12    1    3    3    0    0  0.26593790298E+01  0.12619760749E+02 -0.63884863318E+01  0.14392477750E+02  0.00000000000E+00 0.  1.
</event>
<event>
 7    1  0.1631716E-009  0.4778727E+02  0.7816164E-02  0.1312668E+00
        -11   -1    0    0    0    0  0.00000000000E+00  0.00000000000E+00  0.45593999997E+02  0.45594000000E+02  0.51100000000E-03 0. -1.
         11   -1    0    0    0    0 -0.00000000000E+00 -0.00000000000E+00 -0.45593999997E+02  0.45594000000E+02  0.51100000000E-03 0.  1.
    9900012    2    1    2    0    0  0.14477779656E+02 -0.37307250009E+02 -0.16798395001E+02  0.47787273259E+02  0.20000010099E+02 0.  0.
         12    1    1    2    0    0 -0.14477779656E+02  0.37307250009E+02  0.16798395001E+02  0.43400726741E+02  0.00000000000E+00 0. -1.
         11    1    3    3    0    0 -0.31713790142E+01 -0.43093605600E+01 -0.28879430220E+01  0.60801684554E+01  0.51100000000E-03 0. -1.
        -11    1    3    3    0    0  0.11589055259E+01  0.38820176362E-01 -0.29830178167E+01  0.32004631821E+01  0.51100000000E-03 0.  1.
        -12    1    3    3    0    0  0.16490253144E+02 -0.33036709625E+02 -0.10927434163E+02  0.38506641622E+02  0.00000000000E+00 0.  1.
</event>
<event>
 7    1  0.1631716E-009  0.4778730E+02  0.7816164E-02  0.1312668E+00
        -11   -1    0    0    0    0  0.00000000000E+00  0.00000000000E+00  0.45593999997E+02  0.45594000000E+02  0.51100000000E-03 0. -1.
         11   -1    0    0    0    0 -0.00000000000E+00 -0.00000000000E+00 -0.45593999997E+02  0.45594000000E+02  0.51100000000E-03 0.  1.
    9900012    2    1    2    0    0 -0.16838518189E+02 -0.38881635531E+02 -0.93969779794E+01  0.47787303329E+02  0.20000147197E+02 0.  0.
         12    1    1    2    0    0  0.16838518189E+02  0.38881635531E+02  0.93969779794E+01  0.43400696671E+02  0.00000000000E+00 0. -1.
         11    1    3    3    0    0 -0.39789177091E+01 -0.67380664565E+01  0.37824971117E+01  0.86914101485E+01  0.51100000000E-03 0. -1.
        -11    1    3    3    0    0 -0.10862615951E+02 -0.32565801914E+02 -0.10860646555E+02  0.36006687205E+02  0.51100000000E-03 0.  1.
         12    1    3    3    0    0 -0.19969845287E+01  0.42223283947E+00 -0.23188285364E+01  0.30892059756E+01  0.00000000000E+00 0. -1.
</event>
<event>
 7    1  0.1631716E-009  0.4778728E+02  0.7816164E-02  0.1312668E+00
        -11   -1    0    0    0    0  0.00000000000E+00  0.00000000000E+00  0.45593999997E+02  0.45594000000E+02  0.51100000000E-03 0. -1.
         11   -1    0    0    0    0 -0.00000000000E+00 -0.00000000000E+00 -0.45593999997E+02  0.45594000000E+02  0.51100000000E-03 0.  1.
    9900012    2    1    2    0    0  0.33831335910E+02 -0.11618026363E+02 -0.24578142420E+02  0.47787275226E+02  0.20000019067E+02 0.  0.
         12    1    1    2    0    0 -0.33831335910E+02  0.11618026363E+02  0.24578142420E+02  0.43400724774E+02  0.00000000000E+00 0. -1.
         11    1    3    3    0    0  0.81634105656E+00 -0.35429614385E+01 -0.21525514219E+00  0.36421591828E+01  0.51100000000E-03 0. -1.
        -11    1    3    3    0    0  0.14895595449E+02  0.34778265506E+01 -0.92811980366E+01  0.17891748896E+02  0.51100000000E-03 0.  1.
        -12    1    3    3    0    0  0.18119399405E+02 -0.11552891475E+02 -0.15081689242E+02  0.26253367148E+02  0.00000000000E+00 0.  1.
</event>
<event>
 7    1  0.1631716E-009  0.4778727E+02  0.7816164E-02  0.1312668E+00
        -11   -1    0    0    0    0  0.00000000000E+00  0.00000000000E+00  0.45593999997E+02  0.45594000000E+02  0.51100000000E-03 0.  1.
         11   -1    0    0    0    0 -0.00000000000E+00 -0.00000000000E+00 -0.45593999997E+02  0.45594000000E+02  0.51100000000E-03 0. -1.
    9900012    2    1    2    0    0 -0.16454101688E+02  0.33979576467E+02  0.21407346018E+02  0.47787267947E+02  0.19999985877E+02 0.  0.
         12    1    1    2    0    0  0.16454101688E+02 -0.33979576467E+02 -0.21407346018E+02  0.43400732053E+02  0.00000000000E+00 0. -1.
         11    1    3    3    0    0 -0.33271309595E+01  0.25649049897E+01 -0.31199519027E+01  0.52328422644E+01  0.51100000000E-03 0. -1.
        -11    1    3    3    0    0 -0.32492550510E+01  0.91324672660E+01  0.33193360940E+01  0.10245858145E+02  0.51100000000E-03 0.  1.
         12    1    3    3    0    0 -0.98777156770E+01  0.22282204211E+02  0.21207961826E+02  0.32308567538E+02  0.00000000000E+00 0. -1.
</event>
<event>
 7    1  0.1631716E-009  0.4778727E+02  0.7816164E-02  0.1312668E+00
        -11   -1    0    0    0    0  0.00000000000E+00  0.00000000000E+00  0.45593999997E+02  0.45594000000E+02  0.51100000000E-03 0. -1.
         11   -1    0    0    0    0 -0.00000000000E+00 -0.00000000000E+00 -0.45593999997E+02  0.45594000000E+02  0.51100000000E-03 0.  1.
    9900012    2    1    2    0    0 -0.10438615140E+02 -0.13613878402E+02 -0.39866288034E+02  0.47787270827E+02  0.19999999007E+02 0.  0.
         12    1    1    2    0    0  0.10438615140E+02  0.13613878402E+02  0.39866288034E+02  0.43400729173E+02  0.00000000000E+00 0. -1.
         11    1    3    3    0    0 -0.52951446061E+01 -0.62823705296E+01 -0.25155997227E+02  0.26463766410E+02  0.51100000000E-03 0.  1.
        -11    1    3    3    0    0 -0.66281116566E+01 -0.79052449722E+01 -0.49645490207E+01  0.11448646621E+02  0.51100000000E-03 0. -1.
         12    1    3    3    0    0  0.14846411227E+01  0.57373710015E+00 -0.97457417866E+01  0.98748577961E+01  0.00000000000E+00 0. -1.
</event>
<event>
 7    1  0.1631716E-009  0.4778727E+02  0.7816164E-02  0.1312668E+00
        -11   -1    0    0    0    0  0.00000000000E+00  0.00000000000E+00  0.45593999997E+02  0.45594000000E+02  0.51100000000E-03 0.  1.
         11   -1    0    0    0    0 -0.00000000000E+00 -0.00000000000E+00 -0.45593999997E+02  0.45594000000E+02  0.51100000000E-03 0. -1.
    9900012    2    1    2    0    0 -0.35812649652E+02 -0.20268821701E+02  0.13793198265E+02  0.47787270437E+02  0.19999997230E+02 0.  0.
         12    1    1    2    0    0  0.35812649652E+02  0.20268821701E+02 -0.13793198265E+02  0.43400729563E+02  0.00000000000E+00 0. -1.
         11    1    3    3    0    0 -0.42653716023E+01 -0.27564298857E+01 -0.10873067146E+01  0.51936053733E+01  0.51100000000E-03 0. -1.
        -11    1    3    3    0    0 -0.16578719299E+02 -0.10983568939E+02 -0.86903129135E+00  0.19905977390E+02  0.51100000000E-03 0.  1.
         12    1    3    3    0    0 -0.14968558751E+02 -0.65288228768E+01  0.15749536271E+02  0.22687687673E+02  0.00000000000E+00 0. -1.
</event>
<event>
 7    1  0.1631716E-009  0.4778727E+02  0.7816164E-02  0.1312668E+00
        -11   -1    0    0    0    0  0.00000000000E+00  0.00000000000E+00  0.45593999997E+02  0.45594000000E+02  0.51100000000E-03 0.  1.
         11   -1    0    0    0    0 -0.00000000000E+00 -0.00000000000E+00 -0.45593999997E+02  0.45594000000E+02  0.51100000000E-03 0. -1.
    9900012    2    1    2    0    0 -0.19524181067E+02  0.37362379794E+02  0.10319019476E+02  0.47787271514E+02  0.20000002139E+02 0.  0.
         12    1    1    2    0    0  0.19524181067E+02 -0.37362379794E+02 -0.10319019476E+02  0.43400728486E+02  0.00000000000E+00 0. -1.
         11    1    3    3    0    0 -0.97691799403E+01  0.13767889836E+02  0.27368917552E+00  0.16883914631E+02  0.51100000000E-03 0. -1.
        -11    1    3    3    0    0 -0.29296524884E+01  0.19987451502E+02  0.11199296252E+02  0.23097734046E+02  0.51100000000E-03 0.  1.
         12    1    3    3    0    0 -0.68253486379E+01  0.36070384559E+01 -0.11539659515E+01  0.78056228367E+01  0.00000000000E+00 0. -1.
</event>
<event>
 7    1  0.1631716E-009  0.4778726E+02  0.7816164E-02  0.1312668E+00
        -11   -1    0    0    0    0  0.00000000000E+00  0.00000000000E+00  0.45593999997E+02  0.45594000000E+02  0.51100000000E-03 0. -1.
         11   -1    0    0    0    0 -0.00000000000E+00 -0.00000000000E+00 -0.45593999997E+02  0.45594000000E+02  0.51100000000E-03 0.  1.
    9900012    2    1    2    0    0 -0.25296697329E+02 -0.33709539599E+02  0.10361856814E+02  0.47787262306E+02  0.19999960159E+02 0.  0.
         12    1    1    2    0    0  0.25296697329E+02  0.33709539599E+02 -0.10361856814E+02  0.43400737694E+02  0.00000000000E+00 0. -1.
         11    1    3    3    0    0 -0.11689416764E+01 -0.36125929276E+01  0.48233655591E+01  0.61385753951E+01  0.51100000000E-03 0. -1.
        -11    1    3    3    0    0 -0.23539476064E+02 -0.20768996381E+02  0.70680565369E+01  0.32177873881E+02  0.51100000000E-03 0.  1.
        -12    1    3    3    0    0 -0.58827958832E+00 -0.93279502909E+01 -0.15295652821E+01  0.94708130303E+01  0.00000000000E+00 0.  1.
</event>
<event>
 7    1  0.1631716E-009  0.4778727E+02  0.7816164E-02  0.1312668E+00
        -11   -1    0    0    0    0  0.00000000000E+00  0.00000000000E+00  0.45593999997E+02  0.45594000000E+02  0.51100000000E-03 0.  1.
         11   -1    0    0    0    0 -0.00000000000E+00 -0.00000000000E+00 -0.45593999997E+02  0.45594000000E+02  0.51100000000E-03 0. -1.
    9900012    2    1    2    0    0 -0.63236147285E+01 -0.29540845840E+02  0.31160448691E+02  0.47787271448E+02  0.20000001842E+02 0.  0.
         12    1    1    2    0    0  0.63236147285E+01  0.29540845840E+02 -0.31160448691E+02  0.43400728552E+02  0.00000000000E+00 0. -1.
         11    1    3    3    0    0  0.52265787651E+01 -0.12242179435E+02  0.15277516093E+02  0.20263034845E+02  0.51100000000E-03 0. -1.
        -11    1    3    3    0    0 -0.60614894648E+01 -0.13659645644E+02  0.70957019633E+01  0.16543172618E+02  0.51100000000E-03 0.  1.
        -12    1    3    3    0    0 -0.54887040289E+01 -0.36390207605E+01  0.87872306354E+01  0.10981063985E+02  0.00000000000E+00 0.  1.
</event>
<event>
 7    1  0.1631716E-009  0.4778727E+02  0.7816164E-02  0.1312668E+00
        -11   -1    0    0    0    0  0.00000000000E+00  0.00000000000E+00  0.45593999997E+02  0.45594000000E+02  0.51100000000E-03 0. -1.
         11   -1    0    0    0    0 -0.00000000000E+00 -0.00000000000E+00 -0.45593999997E+02  0.45594000000E+02  0.51100000000E-03 0.  1.
    9900012    2    1    2    0    0 -0.31276138201E+02  0.88947623548E+01 -0.28745600115E+02  0.47787272540E+02  0.20000006818E+02 0.  0.
         12    1    1    2    0    0  0.31276138201E+02 -0.88947623548E+01  0.28745600115E+02  0.43400727460E+02  0.00000000000E+00 0. -1.
         11    1    3    3    0    0 -0.33294897750E+01  0.90884295247E+01 -0.44198843534E+01  0.10640508980E+02  0.51100000000E-03 0. -1.
        -11    1    3    3    0    0 -0.14273671211E+02  0.12265878555E+01 -0.12573877418E+02  0.19061600174E+02  0.51100000000E-03 0.  1.
         12    1    3    3    0    0 -0.13672977215E+02 -0.14202550253E+01 -0.11751838343E+02  0.18085163386E+02  0.00000000000E+00 0. -1.
</event>
<event>
 7    1  0.1631716E-009  0.4778728E+02  0.7816164E-02  0.1312668E+00
        -11   -1    0    0    0    0  0.00000000000E+00  0.00000000000E+00  0.45593999997E+02  0.45594000000E+02  0.51100000000E-03 0.  1.
         11   -1    0    0    0    0 -0.00000000000E+00 -0.00000000000E+00 -0.45593999997E+02  0.45594000000E+02  0.51100000000E-03 0. -1.
    9900012    2    1    2    0    0 -0.25967370025E+02 -0.25779117105E+02  0.23340002085E+02  0.47787275558E+02  0.20000020579E+02 0.  0.
         12    1    1    2    0    0  0.25967370025E+02  0.25779117105E+02 -0.23340002085E+02  0.43400724442E+02  0.00000000000E+00 0. -1.
         11    1    3    3    0    0 -0.13246636844E+02 -0.68546004264E+01  0.63858771582E+01  0.16224622092E+02  0.51100000000E-03 0. -1.
        -11    1    3    3    0    0  0.56089820184E+00 -0.46901417196E+01 -0.12744221683E+01  0.48924623930E+01  0.51100000000E-03 0.  1.
        -12    1    3    3    0    0 -0.13281631383E+02 -0.14234374959E+02  0.18228547096E+02  0.26670191073E+02  0.00000000000E+00 0.  1.
</event>
<event>
 7    1  0.1631716E-009  0.4778728E+02  0.7816164E-02  0.1312668E+00
        -11   -1    0    0    0    0  0.00000000000E+00  0.00000000000E+00  0.45593999997E+02  0.45594000000E+02  0.51100000000E-03 0.  1.
         11   -1    0    0    0    0 -0.00000000000E+00 -0.00000000000E+00 -0.45593999997E+02  0.45594000000E+02  0.51100000000E-03 0. -1.
    9900012    2    1    2    0    0 -0.27280012421E+02 -0.10134103429E+01  0.33740133385E+02  0.47787277897E+02  0.20000031243E+02 0.  0.
         12    1    1    2    0    0  0.27280012421E+02  0.10134103429E+01 -0.33740133385E+02  0.43400722103E+02  0.00000000000E+00 0. -1.
         11    1    3    3    0    0 -0.14259061312E+00 -0.87450009787E+00 -0.80148804141E+00  0.11947660213E+01  0.51100000000E-03 0. -1.
        -11    1    3    3    0    0 -0.28923637553E+02 -0.14980176129E+01  0.31237527650E+02  0.42598168975E+02  0.51100000000E-03 0.  1.
         12    1    3    3    0    0  0.17862157447E+01  0.13591073679E+01  0.33040937768E+01  0.39943429009E+01  0.00000000000E+00 0. -1.
</event>
<event>
 7    1  0.1631716E-009  0.4778727E+02  0.7816164E-02  0.1312668E+00
        -11   -1    0    0    0    0  0.00000000000E+00  0.00000000000E+00  0.45593999997E+02  0.45594000000E+02  0.51100000000E-03 0.  1.
         11   -1    0    0    0    0 -0.00000000000E+00 -0.00000000000E+00 -0.45593999997E+02  0.45594000000E+02  0.51100000000E-03 0. -1.
    9900012    2    1    2    0    0 -0.29788381426E+02 -0.19257036427E+02  0.25008838337E+02  0.47787272876E+02  0.20000008352E+02 0.  0.
         12    1    1    2    0    0  0.29788381426E+02  0.19257036427E+02 -0.25008838337E+02  0.43400727124E+02  0.00000000000E+00 0. -1.
         11    1    3    3    0    0 -0.15872178606E+02 -0.86332745541E+01  0.16458047353E+02  0.24440270174E+02  0.51100000000E-03 0.  1.
        -11    1    3    3    0    0 -0.14651819659E+02 -0.56858100014E+01  0.32188375670E+01  0.16042604845E+02  0.51100000000E-03 0. -1.
         12    1    3    3    0    0  0.73561683917E+00 -0.49379518711E+01  0.53319534173E+01  0.73043978574E+01  0.00000000000E+00 0. -1.
</event>
<event>
 7    1  0.1631716E-009  0.4778727E+02  0.7816164E-02  0.1312668E+00
        -11   -1    0    0    0    0  0.00000000000E+00  0.00000000000E+00  0.45593999997E+02  0.45594000000E+02  0.51100000000E-03 0. -1.
         11   -1    0    0    0    0 -0.00000000000E+00 -0.00000000000E+00 -0.45593999997E+02  0.45594000000E+02  0.51100000000E-03 0.  1.
    9900012    2    1    2    0    0 -0.40224166554E+02 -0.16011684618E+02  0.30439180321E+01  0.47787273551E+02  0.20000011431E+02 0.  0.
         12    1    1    2    0    0  0.40224166554E+02  0.16011684618E+02 -0.30439180321E+01  0.43400726449E+02  0.00000000000E+00 0. -1.
         11    1    3    3    0    0 -0.16130901118E+02 -0.27373767731E+01 -0.26454701052E+01  0.16574007204E+02  0.51100000000E-03 0.  1.
        -11    1    3    3    0    0 -0.88191344012E+00 -0.59234360521E+01 -0.73170344286E+00  0.60332624813E+01  0.51100000000E-03 0. -1.
         12    1    3    3    0    0 -0.23211351996E+02 -0.73508717926E+01  0.64210915802E+01  0.25180003866E+02  0.00000000000E+00 0. -1.
</event>
<event>
 7    1  0.1631716E-009  0.4778727E+02  0.7816164E-02  0.1312668E+00
        -11   -1    0    0    0    0  0.00000000000E+00  0.00000000000E+00  0.45593999997E+02  0.45594000000E+02  0.51100000000E-03 0.  1.
         11   -1    0    0    0    0 -0.00000000000E+00 -0.00000000000E+00 -0.45593999997E+02  0.45594000000E+02  0.51100000000E-03 0. -1.
    9900012    2    1    2    0    0  0.36644199168E+02  0.55070667998E+01  0.22594205916E+02  0.47787271222E+02  0.20000000812E+02 0.  0.
         12    1    1    2    0    0 -0.36644199168E+02 -0.55070667998E+01 -0.22594205916E+02  0.43400728778E+02  0.00000000000E+00 0. -1.
         11    1    3    3    0    0  0.11640516370E+02 -0.15376212804E+01  0.13709769102E+01  0.11821399178E+02  0.51100000000E-03 0. -1.
        -11    1    3    3    0    0  0.26364229315E+02  0.69323245087E+01  0.18577469431E+02  0.32988665950E+02  0.51100000000E-03 0.  1.
        -12    1    3    3    0    0 -0.13605465170E+01  0.11236357153E+00  0.26457595757E+01  0.29772060946E+01  0.00000000000E+00 0.  1.
</event>
<event>
 7    1  0.1631716E-009  0.4778727E+02  0.7816164E-02  0.1312668E+00
        -11   -1    0    0    0    0  0.00000000000E+00  0.00000000000E+00  0.45593999997E+02  0.45594000000E+02  0.51100000000E-03 0. -1.
         11   -1    0    0    0    0 -0.00000000000E+00 -0.00000000000E+00 -0.45593999997E+02  0.45594000000E+02  0.51100000000E-03 0.  1.
    9900012    2    1    2    0    0 -0.41526571193E+02  0.12503532196E+02 -0.16818376562E+01  0.47787274081E+02  0.20000013845E+02 0.  0.
         12    1    1    2    0    0  0.41526571193E+02 -0.12503532196E+02  0.16818376562E+01  0.43400725919E+02  0.00000000000E+00 0. -1.
         11    1    3    3    0    0 -0.50393803331E+00  0.60021847897E+01  0.89722962921E-01  0.60239709713E+01  0.51100000000E-03 0. -1.
        -11    1    3    3    0    0 -0.17754061428E+02  0.26654443310E+01 -0.27393587958E+01  0.18160819848E+02  0.51100000000E-03 0.  1.
         12    1    3    3    0    0 -0.23268571731E+02  0.38359030749E+01  0.96779817671E+00  0.23602483262E+02  0.00000000000E+00 0. -1.
</event>
<event>
 7    1  0.1631716E-009  0.4778721E+02  0.7816164E-02  0.1312668E+00
        -11   -1    0    0    0    0  0.00000000000E+00  0.00000000000E+00  0.45593999997E+02  0.45594000000E+02  0.51100000000E-03 0.  1.
         11   -1    0    0    0    0 -0.00000000000E+00 -0.00000000000E+00 -0.45593999997E+02  0.45594000000E+02  0.51100000000E-03 0. -1.
    9900012    2    1    2    0    0 -0.75426846426E+01  0.37127022403E+02  0.21173584942E+02  0.47787209875E+02  0.19999721104E+02 0.  0.
         12    1    1    2    0    0  0.75426846426E+01 -0.37127022403E+02 -0.21173584942E+02  0.43400790125E+02  0.00000000000E+00 0. -1.
         11    1    3    3    0    0  0.19025512583E+01 -0.15010905168E+01  0.19653642732E+01  0.31201972722E+01  0.51100000000E-03 0. -1.
        -11    1    3    3    0    0 -0.45063703577E+01  0.11898699630E+02  0.31930256686E+01  0.13117996793E+02  0.51100000000E-03 0.  1.
         12    1    3    3    0    0 -0.49388655432E+01  0.26729413291E+02  0.16015195000E+02  0.31549015810E+02  0.00000000000E+00 0. -1.
</event>
<event>
 7    1  0.1631716E-009  0.4778727E+02  0.7816164E-02  0.1312668E+00
        -11   -1    0    0    0    0  0.00000000000E+00  0.00000000000E+00  0.45593999997E+02  0.45594000000E+02  0.51100000000E-03 0.  1.
         11   -1    0    0    0    0 -0.00000000000E+00 -0.00000000000E+00 -0.45593999997E+02  0.45594000000E+02  0.51100000000E-03 0. -1.
    9900012    2    1    2    0    0  0.13029803200E+02 -0.30917772851E+01  0.41283026468E+02  0.47787272672E+02  0.20000007421E+02 0.  0.
         12    1    1    2    0    0 -0.13029803200E+02  0.30917772851E+01 -0.41283026468E+02  0.43400727328E+02  0.00000000000E+00 0. -1.
         11    1    3    3    0    0 -0.27492896630E+01  0.11449101317E+01  0.14487117934E+01  0.33118241170E+01  0.51100000000E-03 0. -1.
        -11    1    3    3    0    0  0.11025758526E+02 -0.13489500086E+01  0.13131241813E+02  0.17199317690E+02  0.51100000000E-03 0.  1.
         12    1    3    3    0    0  0.47533343364E+01 -0.28877374082E+01  0.26703072862E+02  0.27276130865E+02  0.00000000000E+00 0. -1.
</event>
<event>
 7    1  0.1631716E-009  0.4778727E+02  0.7816164E-02  0.1312668E+00
        -11   -1    0    0    0    0  0.00000000000E+00  0.00000000000E+00  0.45593999997E+02  0.45594000000E+02  0.51100000000E-03 0.  1.
         11   -1    0    0    0    0 -0.00000000000E+00 -0.00000000000E+00 -0.45593999997E+02  0.45594000000E+02  0.51100000000E-03 0. -1.
    9900012    2    1    2    0    0 -0.22753156085E+02 -0.30824174052E+02  0.20390866466E+02  0.47787271284E+02  0.20000001093E+02 0.  0.
         12    1    1    2    0    0  0.22753156085E+02  0.30824174052E+02 -0.20390866466E+02  0.43400728716E+02  0.00000000000E+00 0. -1.
         11    1    3    3    0    0 -0.15084522389E+02 -0.16155763929E+02  0.12368904934E+02  0.25328666238E+02  0.51100000000E-03 0. -1.
        -11    1    3    3    0    0 -0.15003672561E+01  0.21898427096E+01  0.25771591464E+01  0.36997651983E+01  0.51100000000E-03 0.  1.
         12    1    3    3    0    0 -0.61682664399E+01 -0.16858252832E+02  0.54448023856E+01  0.18758839848E+02  0.00000000000E+00 0. -1.
</event>
<event>
 7    1  0.1631716E-009  0.4778730E+02  0.7816164E-02  0.1312668E+00
        -11   -1    0    0    0    0  0.00000000000E+00  0.00000000000E+00  0.45593999997E+02  0.45594000000E+02  0.51100000000E-03 0.  1.
         11   -1    0    0    0    0 -0.00000000000E+00 -0.00000000000E+00 -0.45593999997E+02  0.45594000000E+02  0.51100000000E-03 0. -1.
    9900012    2    1    2    0    0 -0.28229949278E+02  0.31039285120E+02  0.11101978880E+02  0.47787295028E+02  0.20000109352E+02 0.  0.
         12    1    1    2    0    0  0.28229949278E+02 -0.31039285120E+02 -0.11101978880E+02  0.43400704972E+02  0.00000000000E+00 0. -1.
         11    1    3    3    0    0 -0.14023557366E+02  0.92245020412E+01 -0.12773478658E+01  0.16833989929E+02  0.51100000000E-03 0. -1.
        -11    1    3    3    0    0 -0.13524444706E+02  0.12709300640E+02  0.11374210262E+02  0.21767167631E+02  0.51100000000E-03 0.  1.
        -12    1    3    3    0    0 -0.68194720644E+00  0.91054824392E+01  0.10051164842E+01  0.91861374685E+01  0.00000000000E+00 0.  1.
</event>
<event>
 7    1  0.1631716E-009  0.4778727E+02  0.7816164E-02  0.1312668E+00
        -11   -1    0    0    0    0  0.00000000000E+00  0.00000000000E+00  0.45593999997E+02  0.45594000000E+02  0.51100000000E-03 0. -1.
         11   -1    0    0    0    0 -0.00000000000E+00 -0.00000000000E+00 -0.45593999997E+02  0.45594000000E+02  0.51100000000E-03 0.  1.
    9900012    2    1    2    0    0  0.14108774353E+02 -0.39752804746E+02  0.10211765548E+02  0.47787272419E+02  0.20000006268E+02 0.  0.
         12    1    1    2    0    0 -0.14108774353E+02  0.39752804746E+02 -0.10211765548E+02  0.43400727581E+02  0.00000000000E+00 0. -1.
         11    1    3    3    0    0  0.59975996274E+00  0.21437091925E+01  0.25792280719E-01  0.22261775800E+01  0.51100000000E-03 0. -1.
        -11    1    3    3    0    0  0.70165023083E+01 -0.14231918303E+02  0.52903523668E+01  0.16726225864E+02  0.51100000000E-03 0.  1.
         12    1    3    3    0    0  0.64925120823E+01 -0.27664595635E+02  0.48956209005E+01  0.28834868975E+02  0.00000000000E+00 0. -1.
</event>
<event>
 7    1  0.1631716E-009  0.4778732E+02  0.7816164E-02  0.1312668E+00
        -11   -1    0    0    0    0  0.00000000000E+00  0.00000000000E+00  0.45593999997E+02  0.45594000000E+02  0.51100000000E-03 0.  1.
         11   -1    0    0    0    0 -0.00000000000E+00 -0.00000000000E+00 -0.45593999997E+02  0.45594000000E+02  0.51100000000E-03 0. -1.
    9900012    2    1    2    0    0  0.42512769418E+01  0.37801255261E+02  0.20895225246E+02  0.47787323818E+02  0.20000240615E+02 0.  0.
         12    1    1    2    0    0 -0.42512769418E+01 -0.37801255261E+02 -0.20895225246E+02  0.43400676182E+02  0.00000000000E+00 0. -1.
         11    1    3    3    0    0  0.53206628126E+01  0.11230394535E+02 -0.17157775792E+01  0.12544923560E+02  0.51100000000E-03 0. -1.
        -11    1    3    3    0    0 -0.15284489135E+01  0.18185749540E+02  0.12606835771E+02  0.22180846486E+02  0.51100000000E-03 0.  1.
        -12    1    3    3    0    0  0.45906304270E+00  0.83851111864E+01  0.10004167054E+02  0.13061553772E+02  0.00000000000E+00 0.  1.
</event>
<event>
 7    1  0.1631716E-009  0.4778730E+02  0.7816164E-02  0.1312668E+00
        -11   -1    0    0    0    0  0.00000000000E+00  0.00000000000E+00  0.45593999997E+02  0.45594000000E+02  0.51100000000E-03 0.  1.
         11   -1    0    0    0    0 -0.00000000000E+00 -0.00000000000E+00 -0.45593999997E+02  0.45594000000E+02  0.51100000000E-03 0. -1.
    9900012    2    1    2    0    0  0.70955631604E+01  0.12679303563E+02  0.40896320062E+02  0.47787300121E+02  0.20000132571E+02 0.  0.
         12    1    1    2    0    0 -0.70955631604E+01 -0.12679303563E+02 -0.40896320062E+02  0.43400699879E+02  0.00000000000E+00 0. -1.
         11    1    3    3    0    0  0.38083144651E+01  0.10164495239E+02  0.13327370308E+02  0.17188339714E+02  0.51100000000E-03 0.  1.
        -11    1    3    3    0    0 -0.48641821691E+01  0.95538792061E+00  0.95167386925E+01  0.10730393742E+02  0.51100000000E-03 0. -1.
         12    1    3    3    0    0  0.81514308645E+01  0.15594204027E+01  0.18052211061E+02  0.19868566665E+02  0.00000000000E+00 0. -1.
</event>
<event>
 7    1  0.1631716E-009  0.4778728E+02  0.7816164E-02  0.1312668E+00
        -11   -1    0    0    0    0  0.00000000000E+00  0.00000000000E+00  0.45593999997E+02  0.45594000000E+02  0.51100000000E-03 0. -1.
         11   -1    0    0    0    0 -0.00000000000E+00 -0.00000000000E+00 -0.45593999997E+02  0.45594000000E+02  0.51100000000E-03 0.  1.
    9900012    2    1    2    0    0 -0.69090716451E+01  0.34063104810E+02 -0.25992153408E+02  0.47787280892E+02  0.20000044899E+02 0.  0.
         12    1    1    2    0    0  0.69090716451E+01 -0.34063104810E+02  0.25992153408E+02  0.43400719108E+02  0.00000000000E+00 0. -1.
         11    1    3    3    0    0  0.22560011885E+01  0.33544249046E+01 -0.53777544860E+01  0.67277003036E+01  0.51100000000E-03 0. -1.
        -11    1    3    3    0    0 -0.59459104906E+01  0.94395050831E+01  0.15609154478E+00  0.11157171353E+02  0.51100000000E-03 0.  1.
        -12    1    3    3    0    0 -0.32191623430E+01  0.21269174823E+02 -0.20770490467E+02  0.29902409235E+02  0.00000000000E+00 0.  1.
</event>
<event>
 7    1  0.1631716E-009  0.4778727E+02  0.7816164E-02  0.1312668E+00
        -11   -1    0    0    0    0  0.00000000000E+00  0.00000000000E+00  0.45593999997E+02  0.45594000000E+02  0.51100000000E-03 0.  1.
         11   -1    0    0    0    0 -0.00000000000E+00 -0.00000000000E+00 -0.45593999997E+02  0.45594000000E+02  0.51100000000E-03 0. -1.
    9900012    2    1    2    0    0  0.71254589689E+01  0.20420812804E+02  0.37627671317E+02  0.47787269478E+02  0.19999992857E+02 0.  0.
         12    1    1    2    0    0 -0.71254589689E+01 -0.20420812804E+02 -0.37627671317E+02  0.43400730522E+02  0.00000000000E+00 0. -1.
         11    1    3    3    0    0  0.25120145322E+01  0.81418791422E+01  0.51537280000E+01  0.99579779843E+01  0.51100000000E-03 0. -1.
        -11    1    3    3    0    0  0.82885272685E+01  0.77308386090E+01  0.28732898225E+02  0.30887618726E+02  0.51100000000E-03 0.  1.
        -12    1    3    3    0    0 -0.36750828318E+01  0.45480950526E+01  0.37410450922E+01  0.69416727674E+01  0.00000000000E+00 0.  1.
</event>
<event>
 7    1  0.1631716E-009  0.4778727E+02  0.7816164E-02  0.1312668E+00
        -11   -1    0    0    0    0  0.00000000000E+00  0.00000000000E+00  0.45593999997E+02  0.45594000000E+02  0.51100000000E-03 0.  1.
         11   -1    0    0    0    0 -0.00000000000E+00 -0.00000000000E+00 -0.45593999997E+02  0.45594000000E+02  0.51100000000E-03 0. -1.
    9900012    2    1    2    0    0  0.20968325411E+02 -0.25794347165E+02  0.27903476324E+02  0.47787274118E+02  0.20000014012E+02 0.  0.
         12    1    1    2    0    0 -0.20968325411E+02  0.25794347165E+02 -0.27903476324E+02  0.43400725882E+02  0.00000000000E+00 0. -1.
         11    1    3    3    0    0  0.14188747428E+02 -0.12082439171E+02  0.82266289778E+01  0.20371139254E+02  0.51100000000E-03 0. -1.
        -11    1    3    3    0    0  0.25508288034E+01 -0.12010059170E+02  0.74361974766E+01  0.14354277482E+02  0.51100000000E-03 0.  1.
         12    1    3    3    0    0  0.42287491789E+01 -0.17018488231E+01  0.12240649869E+02  0.13061857381E+02  0.00000000000E+00 0. -1.
</event>
<event>
 7    1  0.1631716E-009  0.4778728E+02  0.7816164E-02  0.1312668E+00
        -11   -1    0    0    0    0  0.00000000000E+00  0.00000000000E+00  0.45593999997E+02  0.45594000000E+02  0.51100000000E-03 0. -1.
         11   -1    0    0    0    0 -0.00000000000E+00 -0.00000000000E+00 -0.45593999997E+02  0.45594000000E+02  0.51100000000E-03 0.  1.
    9900012    2    1    2    0    0  0.18621188379E+02 -0.29342904764E+02 -0.25997463382E+02  0.47787276286E+02  0.20000023897E+02 0.  0.
         12    1    1    2    0    0 -0.18621188379E+02  0.29342904764E+02  0.25997463382E+02  0.43400723714E+02  0.00000000000E+00 0. -1.
         11    1    3    3    0    0 -0.21112645093E+01 -0.22860786198E+01 -0.22477963438E+00  0.31199550365E+01  0.51100000000E-03 0. -1.
        -11    1    3    3    0    0  0.14326229217E+02 -0.19721151488E+02 -0.10471455025E+02  0.26529531285E+02  0.51100000000E-03 0.  1.
        -12    1    3    3    0    0  0.64062236710E+01 -0.73356746567E+01 -0.15301228722E+02  0.18137789965E+02  0.00000000000E+00 0.  1.
</event>
<event>
 7    1  0.1631716E-009  0.4778727E+02  0.7816164E-02  0.1312668E+00
        -11   -1    0    0    0    0  0.00000000000E+00  0.00000000000E+00  0.45593999997E+02  0.45594000000E+02  0.51100000000E-03 0.  1.
         11   -1    0    0    0    0 -0.00000000000E+00 -0.00000000000E+00 -0.45593999997E+02  0.45594000000E+02  0.51100000000E-03 0. -1.
    9900012    2    1    2    0    0  0.25420101399E+01 -0.20904038308E+02  0.37949735168E+02  0.47787273826E+02  0.20000012680E+02 0.  0.
         12    1    1    2    0    0 -0.25420101399E+01  0.20904038308E+02 -0.37949735168E+02  0.43400726174E+02  0.00000000000E+00 0. -1.
         11    1    3    3    0    0  0.19565288827E+01 -0.23254799113E+01 -0.13751888781E+00  0.30421659705E+01  0.51100000000E-03 0. -1.
        -11    1    3    3    0    0 -0.32958977053E+01 -0.89312662946E+01  0.65971208425E+01  0.11582420428E+02  0.51100000000E-03 0.  1.
         12    1    3    3    0    0  0.38813789625E+01 -0.96472921023E+01  0.31490133213E+02  0.33162687427E+02  0.00000000000E+00 0. -1.
</event>
<event>
 7    1  0.1631716E-009  0.4778726E+02  0.7816164E-02  0.1312668E+00
        -11   -1    0    0    0    0  0.00000000000E+00  0.00000000000E+00  0.45593999997E+02  0.45594000000E+02  0.51100000000E-03 0.  1.
         11   -1    0    0    0    0 -0.00000000000E+00 -0.00000000000E+00 -0.45593999997E+02  0.45594000000E+02  0.51100000000E-03 0. -1.
    9900012    2    1    2    0    0 -0.17777340416E+02 -0.22346938862E+02  0.32683399620E+02  0.47787261302E+02  0.19999955581E+02 0.  0.
         12    1    1    2    0    0  0.17777340416E+02  0.22346938862E+02 -0.32683399620E+02  0.43400738698E+02  0.00000000000E+00 0. -1.
         11    1    3    3    0    0 -0.86858843836E+01 -0.17437258078E+02  0.10075453705E+02  0.21932107159E+02  0.51100000000E-03 0. -1.
        -11    1    3    3    0    0 -0.44773030249E+01 -0.62965826472E+01  0.14035783390E+02  0.16021748064E+02  0.51100000000E-03 0.  1.
        -12    1    3    3    0    0 -0.46141530078E+01  0.13869018626E+01  0.85721625251E+01  0.98334060789E+01  0.00000000000E+00 0.  1.
</event>
<event>
 7    1  0.1631716E-009  0.4778728E+02  0.7816164E-02  0.1312668E+00
        -11   -1    0    0    0    0  0.00000000000E+00  0.00000000000E+00  0.45593999997E+02  0.45594000000E+02  0.51100000000E-03 0.  1.
         11   -1    0    0    0    0 -0.00000000000E+00 -0.00000000000E+00 -0.45593999997E+02  0.45594000000E+02  0.51100000000E-03 0. -1.
    9900012    2    1    2    0    0 -0.21396653928E+02 -0.17592931812E+02  0.33410991217E+02  0.47787281306E+02  0.20000046786E+02 0.  0.
         12    1    1    2    0    0  0.21396653928E+02  0.17592931812E+02 -0.33410991217E+02  0.43400718694E+02  0.00000000000E+00 0. -1.
         11    1    3    3    0    0  0.14814931580E+01 -0.46768859416E+01  0.74575265205E+00  0.49622808634E+01  0.51100000000E-03 0. -1.
        -11    1    3    3    0    0 -0.83154744373E+01 -0.26800339641E+01  0.16998473993E+02  0.19112242556E+02  0.51100000000E-03 0.  1.
        -12    1    3    3    0    0 -0.14562672648E+02 -0.10236011906E+02  0.15666764572E+02  0.23712757886E+02  0.00000000000E+00 0.  1.
</event>
<event>
 7    1  0.1631716E-009  0.4778726E+02  0.7816164E-02  0.1312668E+00
        -11   -1    0    0    0    0  0.00000000000E+00  0.00000000000E+00  0.45593999997E+02  0.45594000000E+02  0.51100000000E-03 0. -1.
         11   -1    0    0    0    0 -0.00000000000E+00 -0.00000000000E+00 -0.45593999997E+02  0.45594000000E+02  0.51100000000E-03 0.  1.
    9900012    2    1    2    0    0 -0.48366002977E+01  0.52811675207E+01 -0.42805846039E+02  0.47787263970E+02  0.19999967745E+02 0.  0.
         12    1    1    2    0    0  0.48366002977E+01 -0.52811675207E+01  0.42805846039E+02  0.43400736030E+02  0.00000000000E+00 0. -1.
         11    1    3    3    0    0  0.23460635485E+00 -0.53841986366E+01 -0.64330118919E+01  0.83921557042E+01  0.51100000000E-03 0. -1.
        -11    1    3    3    0    0 -0.66781777645E+01  0.58580917041E+01 -0.15033124751E+02  0.17461676228E+02  0.51100000000E-03 0.  1.
        -12    1    3    3    0    0  0.16069711119E+01  0.48072744533E+01 -0.21339709397E+02  0.21933432038E+02  0.00000000000E+00 0.  1.
</event>
<event>
 7    1  0.1631716E-009  0.4778727E+02  0.7816164E-02  0.1312668E+00
        -11   -1    0    0    0    0  0.00000000000E+00  0.00000000000E+00  0.45593999997E+02  0.45594000000E+02  0.51100000000E-03 0.  1.
         11   -1    0    0    0    0 -0.00000000000E+00 -0.00000000000E+00 -0.45593999997E+02  0.45594000000E+02  0.51100000000E-03 0. -1.
    9900012    2    1    2    0    0 -0.12709560899E+02 -0.31813923510E+02  0.26645161633E+02  0.47787270677E+02  0.19999998323E+02 0.  0.
         12    1    1    2    0    0  0.12709560899E+02  0.31813923510E+02 -0.26645161633E+02  0.43400729323E+02  0.00000000000E+00 0. -1.
         11    1    3    3    0    0 -0.51314512533E+01 -0.31533911817E+01  0.32997781615E+01  0.68676199725E+01  0.51100000000E-03 0. -1.
        -11    1    3    3    0    0  0.36405584585E+01 -0.14967246299E+02  0.73749959663E+01  0.17078134952E+02  0.51100000000E-03 0.  1.
        -12    1    3    3    0    0 -0.11218668104E+02 -0.13693286029E+02  0.15970387505E+02  0.23841515753E+02  0.00000000000E+00 0.  1.
</event>
<event>
 7    1  0.1631716E-009  0.4778721E+02  0.7816164E-02  0.1312668E+00
        -11   -1    0    0    0    0  0.00000000000E+00  0.00000000000E+00  0.45593999997E+02  0.45594000000E+02  0.51100000000E-03 0. -1.
         11   -1    0    0    0    0 -0.00000000000E+00 -0.00000000000E+00 -0.45593999997E+02  0.45594000000E+02  0.51100000000E-03 0.  1.
    9900012    2    1    2    0    0  0.14675527479E+02  0.40447109508E+02  0.56822990587E+01  0.47787213176E+02  0.19999736152E+02 0.  0.
         12    1    1    2    0    0 -0.14675527479E+02 -0.40447109508E+02 -0.56822990587E+01  0.43400786824E+02  0.00000000000E+00 0. -1.
         11    1    3    3    0    0  0.31463930430E+01  0.14962508909E+02  0.25093028638E+01  0.15494291308E+02  0.51100000000E-03 0. -1.
        -11    1    3    3    0    0  0.88397559752E+01  0.79065680671E+01 -0.48132686836E+01  0.12799322638E+02  0.51100000000E-03 0.  1.
        -12    1    3    3    0    0  0.26893784603E+01  0.17578032533E+02  0.79862648785E+01  0.19493599230E+02  0.00000000000E+00 0.  1.
</event>
<event>
 7    1  0.1631716E-009  0.4778727E+02  0.7816164E-02  0.1312668E+00
        -11   -1    0    0    0    0  0.00000000000E+00  0.00000000000E+00  0.45593999997E+02  0.45594000000E+02  0.51100000000E-03 0.  1.
         11   -1    0    0    0    0 -0.00000000000E+00 -0.00000000000E+00 -0.45593999997E+02  0.45594000000E+02  0.51100000000E-03 0. -1.
    9900012    2    1    2    0    0  0.23380352295E+02 -0.31780133724E+02  0.18083297236E+02  0.47787269455E+02  0.19999992752E+02 0.  0.
         12    1    1    2    0    0 -0.23380352295E+02  0.31780133724E+02 -0.18083297236E+02  0.43400730545E+02  0.00000000000E+00 0. -1.
         11    1    3    3    0    0  0.89963911848E+01 -0.52074738920E+01  0.28421249353E+01  0.10776386829E+02  0.51100000000E-03 0. -1.
        -11    1    3    3    0    0  0.96245722563E+01 -0.37097612809E+01  0.36689058256E+01  0.10947857786E+02  0.51100000000E-03 0.  1.
        -12    1    3    3    0    0  0.47593888535E+01 -0.22862898551E+02  0.11572266475E+02  0.26063024840E+02  0.00000000000E+00 0.  1.
</event>
<event>
 7    1  0.1631716E-009  0.4778727E+02  0.7816164E-02  0.1312668E+00
        -11   -1    0    0    0    0  0.00000000000E+00  0.00000000000E+00  0.45593999997E+02  0.45594000000E+02  0.51100000000E-03 0. -1.
         11   -1    0    0    0    0 -0.00000000000E+00 -0.00000000000E+00 -0.45593999997E+02  0.45594000000E+02  0.51100000000E-03 0.  1.
    9900012    2    1    2    0    0 -0.40358851809E+02  0.63636164329E+01 -0.14638670988E+02  0.47787271645E+02  0.20000002739E+02 0.  0.
         12    1    1    2    0    0  0.40358851809E+02 -0.63636164329E+01  0.14638670988E+02  0.43400728355E+02  0.00000000000E+00 0. -1.
         11    1    3    3    0    0 -0.61679628184E+01  0.35603653453E+01 -0.88495490709E+01  0.11359334740E+02  0.51100000000E-03 0. -1.
        -11    1    3    3    0    0 -0.10941506964E+01  0.26420879329E+01 -0.25124380924E+00  0.28706999328E+01  0.51100000000E-03 0.  1.
        -12    1    3    3    0    0 -0.33096738294E+02  0.16116315472E+00 -0.55378781077E+01  0.33557236972E+02  0.00000000000E+00 0.  1.
</event>
<event>
 7    1  0.1631716E-009  0.4778727E+02  0.7816164E-02  0.1312668E+00
        -11   -1    0    0    0    0  0.00000000000E+00  0.00000000000E+00  0.45593999997E+02  0.45594000000E+02  0.51100000000E-03 0.  1.
         11   -1    0    0    0    0 -0.00000000000E+00 -0.00000000000E+00 -0.45593999997E+02  0.45594000000E+02  0.51100000000E-03 0. -1.
    9900012    2    1    2    0    0  0.26114272972E+01  0.16282844365E+02  0.40145643339E+02  0.47787271294E+02  0.20000001136E+02 0.  0.
         12    1    1    2    0    0 -0.26114272972E+01 -0.16282844365E+02 -0.40145643339E+02  0.43400728706E+02  0.00000000000E+00 0. -1.
         11    1    3    3    0    0 -0.26277489424E+00  0.23723433928E+01  0.25944407459E+02  0.26053969802E+02  0.51100000000E-03 0. -1.
        -11    1    3    3    0    0  0.40037984593E+01  0.10402712537E+02  0.14194631657E+02  0.18048113430E+02  0.51100000000E-03 0.  1.
         12    1    3    3    0    0 -0.11295962679E+01  0.35077884353E+01  0.66042233673E-02  0.36851880618E+01  0.00000000000E+00 0. -1.
</event>
<event>
 7    1  0.1631716E-009  0.4778727E+02  0.7816164E-02  0.1312668E+00
        -11   -1    0    0    0    0  0.00000000000E+00  0.00000000000E+00  0.45593999997E+02  0.45594000000E+02  0.51100000000E-03 0.  1.
         11   -1    0    0    0    0 -0.00000000000E+00 -0.00000000000E+00 -0.45593999997E+02  0.45594000000E+02  0.51100000000E-03 0. -1.
    9900012    2    1    2    0    0  0.32199027823E+02  0.19038929285E+02  0.22008296790E+02  0.47787270183E+02  0.19999996071E+02 0.  0.
         12    1    1    2    0    0 -0.32199027823E+02 -0.19038929285E+02 -0.22008296790E+02  0.43400729817E+02  0.00000000000E+00 0. -1.
         11    1    3    3    0    0  0.15938327124E+02  0.47363115256E+01  0.89758432770E+00  0.16651383614E+02  0.51100000000E-03 0. -1.
        -11    1    3    3    0    0  0.92488217024E+01  0.97163047699E+01  0.81294266329E+01  0.15685498363E+02  0.51100000000E-03 0.  1.
        -12    1    3    3    0    0  0.70118789968E+01  0.45863129896E+01  0.12981285829E+02  0.15450388205E+02  0.00000000000E+00 0.  1.
</event>
<event>
 7    1  0.1631716E-009  0.4778728E+02  0.7816164E-02  0.1312668E+00
        -11   -1    0    0    0    0  0.00000000000E+00  0.00000000000E+00  0.45593999997E+02  0.45594000000E+02  0.51100000000E-03 0. -1.
         11   -1    0    0    0    0 -0.00000000000E+00 -0.00000000000E+00 -0.45593999997E+02  0.45594000000E+02  0.51100000000E-03 0.  1.
    9900012    2    1    2    0    0 -0.27929638709E+02 -0.28508366965E+02 -0.17053758883E+02  0.47787281141E+02  0.20000046035E+02 0.  0.
         12    1    1    2    0    0  0.27929638709E+02  0.28508366965E+02  0.17053758883E+02  0.43400718859E+02  0.00000000000E+00 0. -1.
         11    1    3    3    0    0 -0.18743823728E+02 -0.12998112358E+02 -0.72418389193E+01  0.23931696221E+02  0.51100000000E-03 0. -1.
        -11    1    3    3    0    0 -0.92529094018E+01 -0.15828891394E+02 -0.11824279170E+02  0.21817050976E+02  0.51100000000E-03 0.  1.
         12    1    3    3    0    0  0.67094421322E-01  0.31863678653E+00  0.20123592067E+01  0.20385339438E+01  0.00000000000E+00 0. -1.
</event>
<event>
 7    1  0.1631716E-009  0.4778729E+02  0.7816164E-02  0.1312668E+00
        -11   -1    0    0    0    0  0.00000000000E+00  0.00000000000E+00  0.45593999997E+02  0.45594000000E+02  0.51100000000E-03 0.  1.
         11   -1    0    0    0    0 -0.00000000000E+00 -0.00000000000E+00 -0.45593999997E+02  0.45594000000E+02  0.51100000000E-03 0. -1.
    9900012    2    1    2    0    0 -0.14275966750E+02  0.90113749862E+01  0.39982664970E+02  0.47787290283E+02  0.20000087717E+02 0.  0.
         12    1    1    2    0    0  0.14275966750E+02 -0.90113749862E+01 -0.39982664970E+02  0.43400709717E+02  0.00000000000E+00 0. -1.
         11    1    3    3    0    0  0.20614271440E+01  0.60861018278E+01  0.21557950309E+02  0.22495229252E+02  0.51100000000E-03 0. -1.
        -11    1    3    3    0    0 -0.53702907673E+01 -0.76270160244E+00  0.37034314684E+01  0.65678871459E+01  0.51100000000E-03 0.  1.
        -12    1    3    3    0    0 -0.10967103127E+02  0.36879747609E+01  0.14721283193E+02  0.18724173885E+02  0.00000000000E+00 0.  1.
</event>
<event>
 7    1  0.1631716E-009  0.4778727E+02  0.7816164E-02  0.1312668E+00
        -11   -1    0    0    0    0  0.00000000000E+00  0.00000000000E+00  0.45593999997E+02  0.45594000000E+02  0.51100000000E-03 0.  1.
         11   -1    0    0    0    0 -0.00000000000E+00 -0.00000000000E+00 -0.45593999997E+02  0.45594000000E+02  0.51100000000E-03 0. -1.
    9900012    2    1    2    0    0  0.78388227351E+01 -0.42653213502E+02  0.16969520146E+01  0.47787269475E+02  0.19999992845E+02 0.  0.
         12    1    1    2    0    0 -0.78388227351E+01  0.42653213502E+02 -0.16969520146E+01  0.43400730525E+02  0.00000000000E+00 0. -1.
         11    1    3    3    0    0  0.12926771704E+02 -0.20586870086E+02  0.52836334587E+00  0.24314600854E+02  0.51100000000E-03 0.  1.
        -11    1    3    3    0    0 -0.60429214575E+00 -0.12532757570E+02 -0.14103035894E+01  0.12626327169E+02  0.51100000000E-03 0. -1.
         12    1    3    3    0    0 -0.44836568234E+01 -0.95335858463E+01  0.25788922581E+01  0.10846341451E+02  0.00000000000E+00 0. -1.
</event>
<event>
 7    1  0.1631716E-009  0.4778726E+02  0.7816164E-02  0.1312668E+00
        -11   -1    0    0    0    0  0.00000000000E+00  0.00000000000E+00  0.45593999997E+02  0.45594000000E+02  0.51100000000E-03 0.  1.
         11   -1    0    0    0    0 -0.00000000000E+00 -0.00000000000E+00 -0.45593999997E+02  0.45594000000E+02  0.51100000000E-03 0. -1.
    9900012    2    1    2    0    0 -0.10237294405E+02 -0.15021390247E+02  0.39410400731E+02  0.47787262132E+02  0.19999959365E+02 0.  0.
         12    1    1    2    0    0  0.10237294405E+02  0.15021390247E+02 -0.39410400731E+02  0.43400737868E+02  0.00000000000E+00 0. -1.
         11    1    3    3    0    0 -0.15159650503E+01 -0.85153066294E+01  0.14435917782E+02  0.16828675512E+02  0.51100000000E-03 0. -1.
        -11    1    3    3    0    0 -0.82766438694E+01 -0.35339451740E+01  0.41358750010E+01  0.99043962218E+01  0.51100000000E-03 0.  1.
        -12    1    3    3    0    0 -0.44468548567E+00 -0.29721384438E+01  0.20838607948E+02  0.21054190398E+02  0.00000000000E+00 0.  1.
</event>
<event>
 7    1  0.1631716E-009  0.4778729E+02  0.7816164E-02  0.1312668E+00
        -11   -1    0    0    0    0  0.00000000000E+00  0.00000000000E+00  0.45593999997E+02  0.45594000000E+02  0.51100000000E-03 0. -1.
         11   -1    0    0    0    0 -0.00000000000E+00 -0.00000000000E+00 -0.45593999997E+02  0.45594000000E+02  0.51100000000E-03 0.  1.
    9900012    2    1    2    0    0  0.25755529512E+02 -0.37023179925E+01 -0.34735677856E+02  0.47787288312E+02  0.20000078727E+02 0.  0.
         12    1    1    2    0    0 -0.25755529512E+02  0.37023179925E+01  0.34735677856E+02  0.43400711688E+02  0.00000000000E+00 0. -1.
         11    1    3    3    0    0  0.18959489719E+02 -0.81491116360E+01 -0.19550557123E+02  0.28427003974E+02  0.51100000000E-03 0. -1.
        -11    1    3    3    0    0  0.19621069278E+01 -0.93419847116E+00 -0.10544835149E+02  0.10766435759E+02  0.51100000000E-03 0.  1.
        -12    1    3    3    0    0  0.48339328649E+01  0.53809921147E+01 -0.46402855842E+01  0.85938485782E+01  0.00000000000E+00 0.  1.
</event>
<event>
 7    1  0.1631716E-009  0.4778727E+02  0.7816164E-02  0.1312668E+00
        -11   -1    0    0    0    0  0.00000000000E+00  0.00000000000E+00  0.45593999997E+02  0.45594000000E+02  0.51100000000E-03 0. -1.
         11   -1    0    0    0    0 -0.00000000000E+00 -0.00000000000E+00 -0.45593999997E+02  0.45594000000E+02  0.51100000000E-03 0.  1.
    9900012    2    1    2    0    0 -0.11212954119E+02  0.22977223215E+02 -0.35070499148E+02  0.47787273771E+02  0.20000012430E+02 0.  0.
         12    1    1    2    0    0  0.11212954119E+02 -0.22977223215E+02  0.35070499148E+02  0.43400726229E+02  0.00000000000E+00 0. -1.
         11    1    3    3    0    0 -0.64368082771E+01  0.23017227178E+01 -0.53984249499E+00  0.68572486062E+01  0.51100000000E-03 0. -1.
        -11    1    3    3    0    0 -0.89155290151E+00  0.72660656501E+01 -0.17075829056E+02  0.18578872808E+02  0.51100000000E-03 0.  1.
        -12    1    3    3    0    0 -0.38845929407E+01  0.13409434847E+02 -0.17454827597E+02  0.22351152357E+02  0.00000000000E+00 0.  1.
</event>
<event>
 7    1  0.1631716E-009  0.4778727E+02  0.7816164E-02  0.1312668E+00
        -11   -1    0    0    0    0  0.00000000000E+00  0.00000000000E+00  0.45593999997E+02  0.45594000000E+02  0.51100000000E-03 0. -1.
         11   -1    0    0    0    0 -0.00000000000E+00 -0.00000000000E+00 -0.45593999997E+02  0.45594000000E+02  0.51100000000E-03 0.  1.
    9900012    2    1    2    0    0 -0.19015324074E+02 -0.17957163916E+01 -0.38971994967E+02  0.47787267993E+02  0.19999986089E+02 0.  0.
         12    1    1    2    0    0  0.19015324074E+02  0.17957163916E+01  0.38971994967E+02  0.43400732007E+02  0.00000000000E+00 0. -1.
         11    1    3    3    0    0 -0.20341773004E+02 -0.47713616265E+01 -0.24454407547E+02  0.32164758191E+02  0.51100000000E-03 0. -1.
        -11    1    3    3    0    0 -0.99457807710E+00  0.32273847361E+01 -0.74606271495E+01  0.81893928659E+01  0.51100000000E-03 0.  1.
         12    1    3    3    0    0  0.23210270071E+01 -0.25173950114E+00 -0.70569602702E+01  0.74331169370E+01  0.00000000000E+00 0. -1.
</event>
<event>
 7    1  0.1631716E-009  0.4778727E+02  0.7816164E-02  0.1312668E+00
        -11   -1    0    0    0    0  0.00000000000E+00  0.00000000000E+00  0.45593999997E+02  0.45594000000E+02  0.51100000000E-03 0.  1.
         11   -1    0    0    0    0 -0.00000000000E+00 -0.00000000000E+00 -0.45593999997E+02  0.45594000000E+02  0.51100000000E-03 0. -1.
    9900012    2    1    2    0    0 -0.16772821784E+02  0.36679819783E+02  0.16027677322E+02  0.47787272239E+02  0.20000005445E+02 0.  0.
         12    1    1    2    0    0  0.16772821784E+02 -0.36679819783E+02 -0.16027677322E+02  0.43400727761E+02  0.00000000000E+00 0. -1.
         11    1    3    3    0    0 -0.83598634762E+01  0.25870841770E+01  0.42320181628E+01  0.97206121140E+01  0.51100000000E-03 0. -1.
        -11    1    3    3    0    0 -0.19707329703E+01  0.12407875185E+02  0.19420495974E-01  0.12563420413E+02  0.51100000000E-03 0.  1.
        -12    1    3    3    0    0 -0.64422253373E+01  0.21684860421E+02  0.11776238663E+02  0.25503239712E+02  0.00000000000E+00 0.  1.
</event>
<event>
 7    1  0.1631716E-009  0.4778727E+02  0.7816164E-02  0.1312668E+00
        -11   -1    0    0    0    0  0.00000000000E+00  0.00000000000E+00  0.45593999997E+02  0.45594000000E+02  0.51100000000E-03 0.  1.
         11   -1    0    0    0    0 -0.00000000000E+00 -0.00000000000E+00 -0.45593999997E+02  0.45594000000E+02  0.51100000000E-03 0. -1.
    9900012    2    1    2    0    0  0.29324794462E+02  0.17371264651E+01  0.31947802230E+02  0.47787271366E+02  0.20000001468E+02 0.  0.
         12    1    1    2    0    0 -0.29324794462E+02 -0.17371264651E+01 -0.31947802230E+02  0.43400728634E+02  0.00000000000E+00 0. -1.
         11    1    3    3    0    0  0.35133546052E+01 -0.16231437202E+01  0.14982924186E-01  0.38702042410E+01  0.51100000000E-03 0. -1.
        -11    1    3    3    0    0  0.14386626915E+02 -0.23697694572E+01  0.26037053737E+02  0.29841565120E+02  0.51100000000E-03 0.  1.
         12    1    3    3    0    0  0.11424812941E+02  0.57300396425E+01  0.58957655696E+01  0.14075502005E+02  0.00000000000E+00 0. -1.
</event>
<event>
 7    1  0.1631716E-009  0.4778727E+02  0.7816164E-02  0.1312668E+00
        -11   -1    0    0    0    0  0.00000000000E+00  0.00000000000E+00  0.45593999997E+02  0.45594000000E+02  0.51100000000E-03 0.  1.
         11   -1    0    0    0    0 -0.00000000000E+00 -0.00000000000E+00 -0.45593999997E+02  0.45594000000E+02  0.51100000000E-03 0. -1.
    9900012    2    1    2    0    0  0.13011253699E+02  0.40703097983E+02  0.75887125802E+01  0.47787268821E+02  0.19999989863E+02 0.  0.
         12    1    1    2    0    0 -0.13011253699E+02 -0.40703097983E+02 -0.75887125802E+01  0.43400731179E+02  0.00000000000E+00 0. -1.
         11    1    3    3    0    0  0.59712160820E+00 -0.10592086272E+01 -0.21927021184E+01  0.25072734139E+01  0.51100000000E-03 0. -1.
        -11    1    3    3    0    0  0.20562866936E+01  0.11965742019E+02  0.58929746442E+01  0.13495719598E+02  0.51100000000E-03 0.  1.
        -12    1    3    3    0    0  0.10357845398E+02  0.29796564591E+02  0.38884400544E+01  0.31784275810E+02  0.00000000000E+00 0.  1.
</event>
<event>
 7    1  0.1631716E-009  0.4778727E+02  0.7816164E-02  0.1312668E+00
        -11   -1    0    0    0    0  0.00000000000E+00  0.00000000000E+00  0.45593999997E+02  0.45594000000E+02  0.51100000000E-03 0.  1.
         11   -1    0    0    0    0 -0.00000000000E+00 -0.00000000000E+00 -0.45593999997E+02  0.45594000000E+02  0.51100000000E-03 0. -1.
    9900012    2    1    2    0    0  0.41243229859E+02  0.98682637451E+01 -0.92323924611E+01  0.47787266030E+02  0.19999977138E+02 0.  0.
         12    1    1    2    0    0 -0.41243229859E+02 -0.98682637451E+01  0.92323924611E+01  0.43400733970E+02  0.00000000000E+00 0. -1.
         11    1    3    3    0    0  0.10388735806E+02  0.63742593804E+01  0.14815210342E+01  0.12278107311E+02  0.51100000000E-03 0. -1.
        -11    1    3    3    0    0  0.28067358785E+02  0.51279718098E+01 -0.50310650279E+01  0.28972130395E+02  0.51100000000E-03 0.  1.
         12    1    3    3    0    0  0.27871352683E+01 -0.16339674451E+01 -0.56828484675E+01  0.65370283248E+01  0.00000000000E+00 0. -1.
</event>
<event>
 7    1  0.1631716E-009  0.4778727E+02  0.7816164E-02  0.1312668E+00
        -11   -1    0    0    0    0  0.00000000000E+00  0.00000000000E+00  0.45593999997E+02  0.45594000000E+02  0.51100000000E-03 0. -1.
         11   -1    0    0    0    0 -0.00000000000E+00 -0.00000000000E+00 -0.45593999997E+02  0.45594000000E+02  0.51100000000E-03 0.  1.
    9900012    2    1    2    0    0 -0.19597282586E+02  0.38486047929E+02 -0.42887831921E+01  0.47787273840E+02  0.20000012747E+02 0.  0.
         12    1    1    2    0    0  0.19597282586E+02 -0.38486047929E+02  0.42887831921E+01  0.43400726160E+02  0.00000000000E+00 0. -1.
         11    1    3    3    0    0  0.36848010614E+00  0.93221344233E+00 -0.26399692322E+01  0.28238692071E+01  0.51100000000E-03 0. -1.
        -11    1    3    3    0    0 -0.11735278361E+02  0.30369540113E+02  0.37571237292E+01  0.32774101115E+02  0.51100000000E-03 0.  1.
         12    1    3    3    0    0 -0.82304843310E+01  0.71842943735E+01 -0.54059376891E+01  0.12189303519E+02  0.00000000000E+00 0. -1.
</event>
<event>
 7    1  0.1631716E-009  0.4778727E+02  0.7816164E-02  0.1312668E+00
        -11   -1    0    0    0    0  0.00000000000E+00  0.00000000000E+00  0.45593999997E+02  0.45594000000E+02  0.51100000000E-03 0. -1.
         11   -1    0    0    0    0 -0.00000000000E+00 -0.00000000000E+00 -0.45593999997E+02  0.45594000000E+02  0.51100000000E-03 0.  1.
    9900012    2    1    2    0    0 -0.52652741579E+01 -0.41122811306E+02 -0.12838011177E+02  0.47787271289E+02  0.20000001113E+02 0.  0.
         12    1    1    2    0    0  0.52652741579E+01  0.41122811306E+02  0.12838011177E+02  0.43400728711E+02  0.00000000000E+00 0. -1.
         11    1    3    3    0    0 -0.49558038484E+01 -0.12115776292E+02 -0.45959068511E+01  0.13873513866E+02  0.51100000000E-03 0. -1.
        -11    1    3    3    0    0  0.46503929257E+01 -0.18253609742E+02 -0.10919351526E+02  0.21772750423E+02  0.51100000000E-03 0.  1.
         12    1    3    3    0    0 -0.49598632352E+01 -0.10753425272E+02  0.26772471998E+01  0.12141006999E+02  0.00000000000E+00 0. -1.
</event>
<event>
 7    1  0.1631716E-009  0.4778727E+02  0.7816164E-02  0.1312668E+00
        -11   -1    0    0    0    0  0.00000000000E+00  0.00000000000E+00  0.45593999997E+02  0.45594000000E+02  0.51100000000E-03 0.  1.
         11   -1    0    0    0    0 -0.00000000000E+00 -0.00000000000E+00 -0.45593999997E+02  0.45594000000E+02  0.51100000000E-03 0. -1.
    9900012    2    1    2    0    0  0.10988261183E+02 -0.23007981035E+02  0.35121420187E+02  0.47787271538E+02  0.20000002249E+02 0.  0.
         12    1    1    2    0    0 -0.10988261183E+02  0.23007981035E+02 -0.35121420187E+02  0.43400728462E+02  0.00000000000E+00 0. -1.
         11    1    3    3    0    0  0.44328484305E+00 -0.11830070006E+02  0.25902504906E+02  0.28479585995E+02  0.51100000000E-03 0. -1.
        -11    1    3    3    0    0  0.78197223968E+01 -0.50199551853E+01  0.83958728688E+01  0.12523525459E+02  0.51100000000E-03 0.  1.
        -12    1    3    3    0    0  0.27252539431E+01 -0.61579558441E+01  0.82304241219E+00  0.67841600840E+01  0.00000000000E+00 0.  1.
</event>
<event>
 7    1  0.1631716E-009  0.4778727E+02  0.7816164E-02  0.1312668E+00
        -11   -1    0    0    0    0  0.00000000000E+00  0.00000000000E+00  0.45593999997E+02  0.45594000000E+02  0.51100000000E-03 0.  1.
         11   -1    0    0    0    0 -0.00000000000E+00 -0.00000000000E+00 -0.45593999997E+02  0.45594000000E+02  0.51100000000E-03 0. -1.
    9900012    2    1    2    0    0  0.19660630611E+02  0.17020905600E+02  0.34747250209E+02  0.47787273963E+02  0.20000013307E+02 0.  0.
         12    1    1    2    0    0 -0.19660630611E+02 -0.17020905600E+02 -0.34747250209E+02  0.43400726037E+02  0.00000000000E+00 0. -1.
         11    1    3    3    0    0  0.79914877483E+01  0.46480791648E-01  0.11182682771E+02  0.13744760133E+02  0.51100000000E-03 0. -1.
        -11    1    3    3    0    0  0.71289642632E+01  0.13366169184E+02  0.23829732865E+02  0.28237081627E+02  0.51100000000E-03 0.  1.
        -12    1    3    3    0    0  0.45401785992E+01  0.36082556247E+01 -0.26516542671E+00  0.58054322035E+01  0.00000000000E+00 0.  1.
</event>
<event>
 7    1  0.1631716E-009  0.4778727E+02  0.7816164E-02  0.1312668E+00
        -11   -1    0    0    0    0  0.00000000000E+00  0.00000000000E+00  0.45593999997E+02  0.45594000000E+02  0.51100000000E-03 0.  1.
         11   -1    0    0    0    0 -0.00000000000E+00 -0.00000000000E+00 -0.45593999997E+02  0.45594000000E+02  0.51100000000E-03 0. -1.
    9900012    2    1    2    0    0 -0.36909671839E+02  0.17949960787E+02  0.14110226451E+02  0.47787268923E+02  0.19999990328E+02 0.  0.
         12    1    1    2    0    0  0.36909671839E+02 -0.17949960787E+02 -0.14110226451E+02  0.43400731077E+02  0.00000000000E+00 0. -1.
         11    1    3    3    0    0 -0.25121530003E+02  0.20711201484E+01  0.95137775889E+01  0.26942397307E+02  0.51100000000E-03 0. -1.
        -11    1    3    3    0    0 -0.11778321477E+01  0.38614948753E+01  0.23107687787E+01  0.46516753810E+01  0.51100000000E-03 0.  1.
         12    1    3    3    0    0 -0.10610309688E+02  0.12017345764E+02  0.22856800831E+01  0.16193196236E+02  0.00000000000E+00 0. -1.
</event>
<event>
 7    1  0.1631716E-009  0.4778727E+02  0.7816164E-02  0.1312668E+00
        -11   -1    0    0    0    0  0.00000000000E+00  0.00000000000E+00  0.45593999997E+02  0.45594000000E+02  0.51100000000E-03 0. -1.
         11   -1    0    0    0    0 -0.00000000000E+00 -0.00000000000E+00 -0.45593999997E+02  0.45594000000E+02  0.51100000000E-03 0.  1.
    9900012    2    1    2    0    0 -0.27772050288E+02  0.23211773173E+02 -0.23948909789E+02  0.47787268772E+02  0.19999989640E+02 0.  0.
         12    1    1    2    0    0  0.27772050288E+02 -0.23211773173E+02  0.23948909789E+02  0.43400731228E+02  0.00000000000E+00 0. -1.
         11    1    3    3    0    0 -0.95582966375E+01 -0.76610980286E+00 -0.10408943938E+02  0.14152528856E+02  0.51100000000E-03 0. -1.
        -11    1    3    3    0    0 -0.83144046707E+01  0.69806835287E+01 -0.27472736579E+01  0.11198516883E+02  0.51100000000E-03 0.  1.
         12    1    3    3    0    0 -0.98993489797E+01  0.16997199447E+02 -0.10792692193E+02  0.22436223034E+02  0.00000000000E+00 0. -1.
</event>
<event>
 7    1  0.1631716E-009  0.4778727E+02  0.7816164E-02  0.1312668E+00
        -11   -1    0    0    0    0  0.00000000000E+00  0.00000000000E+00  0.45593999997E+02  0.45594000000E+02  0.51100000000E-03 0.  1.
         11   -1    0    0    0    0 -0.00000000000E+00 -0.00000000000E+00 -0.45593999997E+02  0.45594000000E+02  0.51100000000E-03 0. -1.
    9900012    2    1    2    0    0 -0.41631066022E+02 -0.10623815998E+02  0.61328873280E+01  0.47787269229E+02  0.19999991722E+02 0.  0.
         12    1    1    2    0    0  0.41631066022E+02  0.10623815998E+02 -0.61328873280E+01  0.43400730771E+02  0.00000000000E+00 0. -1.
         11    1    3    3    0    0 -0.56387913535E+01  0.14056413655E+01  0.41211882707E+01  0.71243237294E+01  0.51100000000E-03 0. -1.
        -11    1    3    3    0    0 -0.16813834669E+02  0.16454141233E+01  0.26448593330E+01  0.17099932897E+02  0.51100000000E-03 0.  1.
        -12    1    3    3    0    0 -0.19178439999E+02 -0.13674871487E+02 -0.63316027573E+00  0.23563012603E+02  0.00000000000E+00 0.  1.
</event>
<event>
 7    1  0.1631716E-009  0.4778727E+02  0.7816164E-02  0.1312668E+00
        -11   -1    0    0    0    0  0.00000000000E+00  0.00000000000E+00  0.45593999997E+02  0.45594000000E+02  0.51100000000E-03 0. -1.
         11   -1    0    0    0    0 -0.00000000000E+00 -0.00000000000E+00 -0.45593999997E+02  0.45594000000E+02  0.51100000000E-03 0.  1.
    9900012    2    1    2    0    0  0.31159487041E+02  0.29880870914E+02 -0.44545541711E+01  0.47787272678E+02  0.20000007447E+02 0.  0.
         12    1    1    2    0    0 -0.31159487041E+02 -0.29880870914E+02  0.44545541711E+01  0.43400727322E+02  0.00000000000E+00 0. -1.
         11    1    3    3    0    0  0.10474775418E+00 -0.21225738121E+01 -0.13641883362E+01  0.25253320094E+01  0.51100000000E-03 0. -1.
        -11    1    3    3    0    0  0.15099434892E+02  0.19759071121E+02 -0.36939711513E+01  0.25140788547E+02  0.51100000000E-03 0.  1.
        -12    1    3    3    0    0  0.15955304395E+02  0.12244373605E+02  0.60360531639E+00  0.20121152121E+02  0.00000000000E+00 0.  1.
</event>
<event>
 7    1  0.1631716E-009  0.4778729E+02  0.7816164E-02  0.1312668E+00
        -11   -1    0    0    0    0  0.00000000000E+00  0.00000000000E+00  0.45593999997E+02  0.45594000000E+02  0.51100000000E-03 0.  1.
         11   -1    0    0    0    0 -0.00000000000E+00 -0.00000000000E+00 -0.45593999997E+02  0.45594000000E+02  0.51100000000E-03 0. -1.
    9900012    2    1    2    0    0 -0.67243442356E+01 -0.27435965966E+02  0.32949550863E+02  0.47787286458E+02  0.20000070277E+02 0.  0.
         12    1    1    2    0    0  0.67243442356E+01  0.27435965966E+02 -0.32949550863E+02  0.43400713542E+02  0.00000000000E+00 0. -1.
         11    1    3    3    0    0  0.36646414024E+01 -0.20148103708E+01  0.36817599300E+01  0.55717514197E+01  0.51100000000E-03 0. -1.
        -11    1    3    3    0    0 -0.17244498831E+01 -0.17391427664E+02  0.22863598277E+02  0.28778109910E+02  0.51100000000E-03 0.  1.
         12    1    3    3    0    0 -0.86645357549E+01 -0.80297279310E+01  0.64041926562E+01  0.13437425128E+02  0.00000000000E+00 0. -1.
</event>
<event>
 7    1  0.1631716E-009  0.4778728E+02  0.7816164E-02  0.1312668E+00
        -11   -1    0    0    0    0  0.00000000000E+00  0.00000000000E+00  0.45593999997E+02  0.45594000000E+02  0.51100000000E-03 0.  1.
         11   -1    0    0    0    0 -0.00000000000E+00 -0.00000000000E+00 -0.45593999997E+02  0.45594000000E+02  0.51100000000E-03 0. -1.
    9900012    2    1    2    0    0  0.34611964277E+02  0.24892845180E+02  0.81228742209E+01  0.47787275376E+02  0.20000019751E+02 0.  0.
         12    1    1    2    0    0 -0.34611964277E+02 -0.24892845180E+02 -0.81228742209E+01  0.43400724624E+02  0.00000000000E+00 0. -1.
         11    1    3    3    0    0 -0.11800989023E+01  0.22765486952E+01 -0.16817084668E+01  0.30665046892E+01  0.51100000000E-03 0. -1.
        -11    1    3    3    0    0  0.19993688041E+02  0.16854006144E+02  0.97385503653E+01  0.27904201262E+02  0.51100000000E-03 0.  1.
        -12    1    3    3    0    0  0.15798375138E+02  0.57622903410E+01  0.66032322332E-01  0.16816569425E+02  0.00000000000E+00 0.  1.
</event>
<event>
 7    1  0.1631716E-009  0.4778726E+02  0.7816164E-02  0.1312668E+00
        -11   -1    0    0    0    0  0.00000000000E+00  0.00000000000E+00  0.45593999997E+02  0.45594000000E+02  0.51100000000E-03 0.  1.
         11   -1    0    0    0    0 -0.00000000000E+00 -0.00000000000E+00 -0.45593999997E+02  0.45594000000E+02  0.51100000000E-03 0. -1.
    9900012    2    1    2    0    0  0.34696469746E+02 -0.23800709411E+02  0.10644490834E+02  0.47787263066E+02  0.19999963622E+02 0.  0.
         12    1    1    2    0    0 -0.34696469746E+02  0.23800709411E+02 -0.10644490834E+02  0.43400736934E+02  0.00000000000E+00 0. -1.
         11    1    3    3    0    0  0.27357314719E+01 -0.36064090799E+01  0.80030392916E+01  0.91945120209E+01  0.51100000000E-03 0. -1.
        -11    1    3    3    0    0  0.10215951675E+02 -0.10591661095E+02  0.15498869973E+01  0.14796996430E+02  0.51100000000E-03 0.  1.
         12    1    3    3    0    0  0.21744786599E+02 -0.96026392359E+01  0.10915645455E+01  0.23795754615E+02  0.00000000000E+00 0. -1.
</event>
<event>
 7    1  0.1631716E-009  0.4778723E+02  0.7816164E-02  0.1312668E+00
        -11   -1    0    0    0    0  0.00000000000E+00  0.00000000000E+00  0.45593999997E+02  0.45594000000E+02  0.51100000000E-03 0.  1.
         11   -1    0    0    0    0 -0.00000000000E+00 -0.00000000000E+00 -0.45593999997E+02  0.45594000000E+02  0.51100000000E-03 0. -1.
    9900012    2    1    2    0    0 -0.40782527227E+02 -0.46066378554E+01  0.14113502533E+02  0.47787232805E+02  0.19999825651E+02 0.  0.
         12    1    1    2    0    0  0.40782527227E+02  0.46066378554E+01 -0.14113502533E+02  0.43400767195E+02  0.00000000000E+00 0. -1.
         11    1    3    3    0    0 -0.35040479023E+01 -0.65319574680E+01  0.18544911863E+01  0.76409395945E+01  0.51100000000E-03 0. -1.
        -11    1    3    3    0    0 -0.20177940346E+02 -0.25266826535E+01  0.87126759937E+01  0.22123384123E+02  0.51100000000E-03 0.  1.
        -12    1    3    3    0    0 -0.17100538979E+02  0.44520022661E+01  0.35463353530E+01  0.18022909088E+02  0.00000000000E+00 0.  1.
</event>
<event>
 7    1  0.1631716E-009  0.4778727E+02  0.7816164E-02  0.1312668E+00
        -11   -1    0    0    0    0  0.00000000000E+00  0.00000000000E+00  0.45593999997E+02  0.45594000000E+02  0.51100000000E-03 0.  1.
         11   -1    0    0    0    0 -0.00000000000E+00 -0.00000000000E+00 -0.45593999997E+02  0.45594000000E+02  0.51100000000E-03 0. -1.
    9900012    2    1    2    0    0 -0.17272305655E+02  0.39550071506E+02 -0.45915864027E+01  0.47787270001E+02  0.19999995241E+02 0.  0.
         12    1    1    2    0    0  0.17272305655E+02 -0.39550071506E+02  0.45915864027E+01  0.43400729999E+02  0.00000000000E+00 0. -1.
         11    1    3    3    0    0 -0.45201110562E+01  0.34042590381E+01  0.10575017286E+01  0.57566217286E+01  0.51100000000E-03 0. -1.
        -11    1    3    3    0    0 -0.95465046776E+01  0.34455931028E+02 -0.92403781869E+01  0.36928735747E+02  0.51100000000E-03 0.  1.
        -12    1    3    3    0    0 -0.32056899209E+01  0.16898814397E+01  0.35912900555E+01  0.51019125249E+01  0.00000000000E+00 0.  1.
</event>
<event>
 7    1  0.1631716E-009  0.4778728E+02  0.7816164E-02  0.1312668E+00
        -11   -1    0    0    0    0  0.00000000000E+00  0.00000000000E+00  0.45593999997E+02  0.45594000000E+02  0.51100000000E-03 0.  1.
         11   -1    0    0    0    0 -0.00000000000E+00 -0.00000000000E+00 -0.45593999997E+02  0.45594000000E+02  0.51100000000E-03 0. -1.
    9900012    2    1    2    0    0  0.10271961848E+01 -0.43227976645E+02 -0.37295352178E+01  0.47787279617E+02  0.20000039085E+02 0.  0.
         12    1    1    2    0    0 -0.10271961848E+01  0.43227976645E+02  0.37295352178E+01  0.43400720383E+02  0.00000000000E+00 0. -1.
         11    1    3    3    0    0 -0.15211285658E+01 -0.24408102267E+01 -0.39875336862E+01  0.49164836861E+01  0.51100000000E-03 0. -1.
        -11    1    3    3    0    0 -0.42134768504E+01 -0.23504971642E+02  0.31583839831E+01  0.24087599895E+02  0.51100000000E-03 0.  1.
         12    1    3    3    0    0  0.67618016011E+01 -0.17282194776E+02 -0.29003855147E+01  0.18783196035E+02  0.00000000000E+00 0. -1.
</event>
<event>
 7    1  0.1631716E-009  0.4778724E+02  0.7816164E-02  0.1312668E+00
        -11   -1    0    0    0    0  0.00000000000E+00  0.00000000000E+00  0.45593999997E+02  0.45594000000E+02  0.51100000000E-03 0.  1.
         11   -1    0    0    0    0 -0.00000000000E+00 -0.00000000000E+00 -0.45593999997E+02  0.45594000000E+02  0.51100000000E-03 0. -1.
    9900012    2    1    2    0    0  0.20109340517E+02  0.21695703455E+01  0.38399657419E+02  0.47787236166E+02  0.19999840974E+02 0.  0.
         12    1    1    2    0    0 -0.20109340517E+02 -0.21695703455E+01 -0.38399657419E+02  0.43400763834E+02  0.00000000000E+00 0. -1.
         11    1    3    3    0    0  0.61368486612E+01 -0.46207154026E+01  0.14523455761E+02  0.16429932739E+02  0.51100000000E-03 0. -1.
        -11    1    3    3    0    0  0.74124388022E+01 -0.34422331083E+01  0.95834810481E+01  0.12595091386E+02  0.51100000000E-03 0.  1.
         12    1    3    3    0    0  0.65600530534E+01  0.10232518856E+02  0.14292720610E+02  0.18762212040E+02  0.00000000000E+00 0. -1.
</event>
<event>
 7    1  0.1631716E-009  0.4778726E+02  0.7816164E-02  0.1312668E+00
        -11   -1    0    0    0    0  0.00000000000E+00  0.00000000000E+00  0.45593999997E+02  0.45594000000E+02  0.51100000000E-03 0.  1.
         11   -1    0    0    0    0 -0.00000000000E+00 -0.00000000000E+00 -0.45593999997E+02  0.45594000000E+02  0.51100000000E-03 0. -1.
    9900012    2    1    2    0    0  0.23817785776E+02  0.14160542730E+02  0.33403836224E+02  0.47787260788E+02  0.19999953237E+02 0.  0.
         12    1    1    2    0    0 -0.23817785776E+02 -0.14160542730E+02 -0.33403836224E+02  0.43400739212E+02  0.00000000000E+00 0. -1.
         11    1    3    3    0    0  0.99770513559E+01 -0.14140746132E+01  0.42100856255E+01  0.10920896575E+02  0.51100000000E-03 0. -1.
        -11    1    3    3    0    0  0.91412557679E+01  0.93054582564E+01  0.11021817930E+02  0.17077311882E+02  0.51100000000E-03 0.  1.
         12    1    3    3    0    0  0.46994786524E+01  0.62691590867E+01  0.18171932668E+02  0.19789052330E+02  0.00000000000E+00 0. -1.
</event>
<event>
 7    1  0.1631716E-009  0.4778725E+02  0.7816164E-02  0.1312668E+00
        -11   -1    0    0    0    0  0.00000000000E+00  0.00000000000E+00  0.45593999997E+02  0.45594000000E+02  0.51100000000E-03 0.  1.
         11   -1    0    0    0    0 -0.00000000000E+00 -0.00000000000E+00 -0.45593999997E+02  0.45594000000E+02  0.51100000000E-03 0. -1.
    9900012    2    1    2    0    0 -0.11967977214E+02  0.17938363073E+02  0.37664404587E+02  0.47787254371E+02  0.19999923977E+02 0.  0.
         12    1    1    2    0    0  0.11967977214E+02 -0.17938363073E+02 -0.37664404587E+02  0.43400745629E+02  0.00000000000E+00 0. -1.
         11    1    3    3    0    0 -0.40602270663E+01  0.11777825487E+02  0.26256856132E+02  0.29062434709E+02  0.51100000000E-03 0. -1.
        -11    1    3    3    0    0 -0.17434810328E+01  0.81301804165E+01  0.72603116292E+01  0.11038645068E+02  0.51100000000E-03 0.  1.
         12    1    3    3    0    0 -0.61642691148E+01 -0.19696428304E+01  0.41472368257E+01  0.76861745939E+01  0.00000000000E+00 0. -1.
</event>
<event>
 7    1  0.1631716E-009  0.4778728E+02  0.7816164E-02  0.1312668E+00
        -11   -1    0    0    0    0  0.00000000000E+00  0.00000000000E+00  0.45593999997E+02  0.45594000000E+02  0.51100000000E-03 0.  1.
         11   -1    0    0    0    0 -0.00000000000E+00 -0.00000000000E+00 -0.45593999997E+02  0.45594000000E+02  0.51100000000E-03 0. -1.
    9900012    2    1    2    0    0  0.35414741184E+02 -0.19976922145E+02  0.15176988844E+02  0.47787282242E+02  0.20000051054E+02 0.  0.
         12    1    1    2    0    0 -0.35414741184E+02  0.19976922145E+02 -0.15176988844E+02  0.43400717758E+02  0.00000000000E+00 0. -1.
         11    1    3    3    0    0  0.10919125053E+02 -0.78119402394E+01 -0.22326065611E+01  0.13610225367E+02  0.51100000000E-03 0. -1.
        -11    1    3    3    0    0  0.85821715588E+01 -0.90928300146E+01  0.11310916230E+02  0.16860309979E+02  0.51100000000E-03 0.  1.
         12    1    3    3    0    0  0.15913444573E+02 -0.30721518914E+01  0.60986791743E+01  0.17316746897E+02  0.00000000000E+00 0. -1.
</event>
<event>
 7    1  0.1631716E-009  0.4778727E+02  0.7816164E-02  0.1312668E+00
        -11   -1    0    0    0    0  0.00000000000E+00  0.00000000000E+00  0.45593999997E+02  0.45594000000E+02  0.51100000000E-03 0.  1.
         11   -1    0    0    0    0 -0.00000000000E+00 -0.00000000000E+00 -0.45593999997E+02  0.45594000000E+02  0.51100000000E-03 0. -1.
    9900012    2    1    2    0    0  0.39891304204E+02 -0.16575690807E+02  0.41897109771E+01  0.47787270111E+02  0.19999995745E+02 0.  0.
         12    1    1    2    0    0 -0.39891304204E+02  0.16575690807E+02 -0.41897109771E+01  0.43400729889E+02  0.00000000000E+00 0. -1.
         11    1    3    3    0    0  0.30179054149E+01 -0.71117049533E+01  0.49167533020E+01  0.91574321581E+01  0.51100000000E-03 0. -1.
        -11    1    3    3    0    0  0.18628265986E+02 -0.35669099129E+01  0.26797901293E+01  0.19155062395E+02  0.51100000000E-03 0.  1.
        -12    1    3    3    0    0  0.18245132804E+02 -0.58970759403E+01 -0.34068324542E+01  0.19474775558E+02  0.00000000000E+00 0.  1.
</event>
<event>
 7    1  0.1631716E-009  0.4778727E+02  0.7816164E-02  0.1312668E+00
        -11   -1    0    0    0    0  0.00000000000E+00  0.00000000000E+00  0.45593999997E+02  0.45594000000E+02  0.51100000000E-03 0. -1.
         11   -1    0    0    0    0 -0.00000000000E+00 -0.00000000000E+00 -0.45593999997E+02  0.45594000000E+02  0.51100000000E-03 0.  1.
    9900012    2    1    2    0    0 -0.14394542660E+02  0.87548529744E+01 -0.39997161267E+02  0.47787271683E+02  0.20000002913E+02 0.  0.
         12    1    1    2    0    0  0.14394542660E+02 -0.87548529744E+01  0.39997161267E+02  0.43400728317E+02  0.00000000000E+00 0. -1.
         11    1    3    3    0    0  0.19232797162E+01  0.10740898503E+01 -0.43443928156E+01  0.48709776298E+01  0.51100000000E-03 0. -1.
        -11    1    3    3    0    0 -0.15491541777E+02  0.97478565636E+01 -0.36252338961E+02  0.40610844051E+02  0.51100000000E-03 0.  1.
         12    1    3    3    0    0 -0.82628059940E+00 -0.20670934395E+01  0.59957050906E+00  0.23054500020E+01  0.00000000000E+00 0. -1.
</event>
<event>
 7    1  0.2888709E-009  0.4778726E+02  0.7816164E-02  0.1312668E+00
        -11   -1    0    0    0    0  0.00000000000E+00  0.00000000000E+00  0.45593999997E+02  0.45594000000E+02  0.51100000000E-03 0. -1.
         11   -1    0    0    0    0 -0.00000000000E+00 -0.00000000000E+00 -0.45593999997E+02  0.45594000000E+02  0.51100000000E-03 0.  1.
    9900012    2    1    2    0    0  0.12359030092E+02 -0.48691883728E+01 -0.41317906023E+02  0.47787262929E+02  0.19999962998E+02 0.  0.
         12    1    1    2    0    0 -0.12359030092E+02  0.48691883728E+01  0.41317906023E+02  0.43400737071E+02  0.00000000000E+00 0. -1.
         11    1    3    3    0    0  0.22705424317E+01 -0.52606391941E+01 -0.41071336517E+01  0.70496974941E+01  0.51100000000E-03 0. -1.
        -11    1    3    3    0    0  0.54639353582E+01 -0.42850242784E+01 -0.30727756264E+02  0.31502555895E+02  0.51100000000E-03 0.  1.
         12    1    3    3    0    0  0.46245523017E+01  0.46764750997E+01 -0.64830161069E+01  0.92350095394E+01  0.00000000000E+00 0. -1.
</event>
<event>
 7    1  0.1631716E-009  0.4778727E+02  0.7816164E-02  0.1312668E+00
        -11   -1    0    0    0    0  0.00000000000E+00  0.00000000000E+00  0.45593999997E+02  0.45594000000E+02  0.51100000000E-03 0.  1.
         11   -1    0    0    0    0 -0.00000000000E+00 -0.00000000000E+00 -0.45593999997E+02  0.45594000000E+02  0.51100000000E-03 0. -1.
    9900012    2    1    2    0    0 -0.33255645136E+02 -0.27701530700E+02  0.32110779834E+01  0.47787265463E+02  0.19999974554E+02 0.  0.
         12    1    1    2    0    0  0.33255645136E+02  0.27701530700E+02 -0.32110779834E+01  0.43400734537E+02  0.00000000000E+00 0. -1.
         11    1    3    3    0    0 -0.45473019226E+01 -0.11549681113E+02  0.25141626273E+01  0.12664679331E+02  0.51100000000E-03 0. -1.
        -11    1    3    3    0    0 -0.85676695897E+01 -0.75188369752E+01 -0.50515728938E+01  0.12468210001E+02  0.51100000000E-03 0.  1.
         12    1    3    3    0    0 -0.20140673623E+02 -0.86330126119E+01  0.57484882498E+01  0.22654376132E+02  0.00000000000E+00 0. -1.
</event>
<event>
 7    1  0.1631716E-009  0.4778727E+02  0.7816164E-02  0.1312668E+00
        -11   -1    0    0    0    0  0.00000000000E+00  0.00000000000E+00  0.45593999997E+02  0.45594000000E+02  0.51100000000E-03 0. -1.
         11   -1    0    0    0    0 -0.00000000000E+00 -0.00000000000E+00 -0.45593999997E+02  0.45594000000E+02  0.51100000000E-03 0.  1.
    9900012    2    1    2    0    0 -0.28122408966E+02  0.15475178380E+02 -0.29210824315E+02  0.47787270868E+02  0.19999999197E+02 0.  0.
         12    1    1    2    0    0  0.28122408966E+02 -0.15475178380E+02  0.29210824315E+02  0.43400729132E+02  0.00000000000E+00 0. -1.
         11    1    3    3    0    0  0.44434270526E+00  0.35534643929E+01  0.15856251080E+01  0.39164725041E+01  0.51100000000E-03 0. -1.
        -11    1    3    3    0    0 -0.87105111450E+01  0.51883961503E+01 -0.12025108701E+02  0.15728817455E+02  0.51100000000E-03 0.  1.
        -12    1    3    3    0    0 -0.19856240526E+02  0.67333178372E+01 -0.18771340723E+02  0.28141980909E+02  0.00000000000E+00 0.  1.
</event>
<event>
 7    1  0.1631716E-009  0.4778727E+02  0.7816164E-02  0.1312668E+00
        -11   -1    0    0    0    0  0.00000000000E+00  0.00000000000E+00  0.45593999997E+02  0.45594000000E+02  0.51100000000E-03 0.  1.
         11   -1    0    0    0    0 -0.00000000000E+00 -0.00000000000E+00 -0.45593999997E+02  0.45594000000E+02  0.51100000000E-03 0. -1.
    9900012    2    1    2    0    0  0.10038841526E+02  0.40709034933E+02 -0.11208025441E+02  0.47787266151E+02  0.19999977687E+02 0.  0.
         12    1    1    2    0    0 -0.10038841526E+02 -0.40709034933E+02  0.11208025441E+02  0.43400733849E+02  0.00000000000E+00 0. -1.
         11    1    3    3    0    0 -0.28843927295E+00  0.22258083405E+01 -0.17715549645E+01  0.28593403498E+01  0.51100000000E-03 0. -1.
        -11    1    3    3    0    0 -0.12865007345E+01  0.28724173235E+02 -0.59231048711E+01  0.29356709348E+02  0.51100000000E-03 0.  1.
         12    1    3    3    0    0  0.11613781533E+02  0.97590533575E+01 -0.35133656054E+01  0.15571216452E+02  0.00000000000E+00 0. -1.
</event>
<event>
 7    1  0.1631716E-009  0.4778727E+02  0.7816164E-02  0.1312668E+00
        -11   -1    0    0    0    0  0.00000000000E+00  0.00000000000E+00  0.45593999997E+02  0.45594000000E+02  0.51100000000E-03 0. -1.
         11   -1    0    0    0    0 -0.00000000000E+00 -0.00000000000E+00 -0.45593999997E+02  0.45594000000E+02  0.51100000000E-03 0.  1.
    9900012    2    1    2    0    0  0.15649512587E+02  0.28654015758E+02 -0.28594814274E+02  0.47787271128E+02  0.20000000380E+02 0.  0.
         12    1    1    2    0    0 -0.15649512587E+02 -0.28654015758E+02  0.28594814274E+02  0.43400728872E+02  0.00000000000E+00 0. -1.
         11    1    3    3    0    0  0.26885188306E+01  0.10529831817E+02 -0.89383395022E+01  0.14071226134E+02  0.51100000000E-03 0. -1.
        -11    1    3    3    0    0  0.19368794297E+01 -0.25856956012E+01 -0.20012738389E+00  0.32368773375E+01  0.51100000000E-03 0.  1.
        -12    1    3    3    0    0  0.11024114327E+02  0.20709879542E+02 -0.19456347388E+02  0.30479167656E+02  0.00000000000E+00 0.  1.
</event>
<event>
 7    1  0.1631716E-009  0.4778727E+02  0.7816164E-02  0.1312668E+00
        -11   -1    0    0    0    0  0.00000000000E+00  0.00000000000E+00  0.45593999997E+02  0.45594000000E+02  0.51100000000E-03 0.  1.
         11   -1    0    0    0    0 -0.00000000000E+00 -0.00000000000E+00 -0.45593999997E+02  0.45594000000E+02  0.51100000000E-03 0. -1.
    9900012    2    1    2    0    0  0.38477355382E+02 -0.86635179326E+01  0.18112421665E+02  0.47787271450E+02  0.20000001847E+02 0.  0.
         12    1    1    2    0    0 -0.38477355382E+02  0.86635179326E+01 -0.18112421665E+02  0.43400728550E+02  0.00000000000E+00 0. -1.
         11    1    3    3    0    0  0.14470849025E+02  0.42107154753E+01  0.50733423222E+01  0.15902024993E+02  0.51100000000E-03 0. -1.
        -11    1    3    3    0    0  0.83775533628E+01 -0.41311467804E+01  0.10065375020E+02  0.13731771503E+02  0.51100000000E-03 0.  1.
        -12    1    3    3    0    0  0.15628952994E+02 -0.87430866275E+01  0.29737043236E+01  0.18153474953E+02  0.00000000000E+00 0.  1.
</event>
<event>
 7    1  0.1631716E-009  0.4778727E+02  0.7816164E-02  0.1312668E+00
        -11   -1    0    0    0    0  0.00000000000E+00  0.00000000000E+00  0.45593999997E+02  0.45594000000E+02  0.51100000000E-03 0.  1.
         11   -1    0    0    0    0 -0.00000000000E+00 -0.00000000000E+00 -0.45593999997E+02  0.45594000000E+02  0.51100000000E-03 0. -1.
    9900012    2    1    2    0    0  0.31768795249E+02  0.92316950649E+01  0.28091682898E+02  0.47787271971E+02  0.20000004226E+02 0.  0.
         12    1    1    2    0    0 -0.31768795249E+02 -0.92316950649E+01 -0.28091682898E+02  0.43400728029E+02  0.00000000000E+00 0. -1.
         11    1    3    3    0    0 -0.84480048331E+00 -0.12830128595E+01  0.29487846929E+01  0.33249272594E+01  0.51100000000E-03 0. -1.
        -11    1    3    3    0    0  0.12650781549E+02  0.30942012573E+01  0.17544554776E+02  0.21850120315E+02  0.51100000000E-03 0.  1.
        -12    1    3    3    0    0  0.19962814183E+02  0.74205066670E+01  0.75983434292E+01  0.22612224397E+02  0.00000000000E+00 0.  1.
</event>
<event>
 7    1  0.1631716E-009  0.4778727E+02  0.7816164E-02  0.1312668E+00
        -11   -1    0    0    0    0  0.00000000000E+00  0.00000000000E+00  0.45593999997E+02  0.45594000000E+02  0.51100000000E-03 0.  1.
         11   -1    0    0    0    0 -0.00000000000E+00 -0.00000000000E+00 -0.45593999997E+02  0.45594000000E+02  0.51100000000E-03 0. -1.
    9900012    2    1    2    0    0  0.34113988528E+02 -0.97167624672E+01  0.25008869189E+02  0.47787271616E+02  0.20000002607E+02 0.  0.
         12    1    1    2    0    0 -0.34113988528E+02  0.97167624672E+01 -0.25008869189E+02  0.43400728384E+02  0.00000000000E+00 0. -1.
         11    1    3    3    0    0  0.13636191145E+02 -0.10027662036E+02  0.11310819728E+02  0.20357660918E+02  0.51100000000E-03 0. -1.
        -11    1    3    3    0    0  0.21427458142E+02 -0.91922231857E+00  0.14284339934E+02  0.25768649551E+02  0.51100000000E-03 0.  1.
         12    1    3    3    0    0 -0.94966075903E+00  0.12301218870E+01 -0.58629047335E+00  0.16609611474E+01  0.00000000000E+00 0. -1.
</event>
<event>
 7    1  0.1631716E-009  0.4778727E+02  0.7816164E-02  0.1312668E+00
        -11   -1    0    0    0    0  0.00000000000E+00  0.00000000000E+00  0.45593999997E+02  0.45594000000E+02  0.51100000000E-03 0.  1.
         11   -1    0    0    0    0 -0.00000000000E+00 -0.00000000000E+00 -0.45593999997E+02  0.45594000000E+02  0.51100000000E-03 0. -1.
    9900012    2    1    2    0    0  0.97026703035E+01 -0.12562814150E+02  0.40393777057E+02  0.47787270337E+02  0.19999996775E+02 0.  0.
         12    1    1    2    0    0 -0.97026703035E+01  0.12562814150E+02 -0.40393777057E+02  0.43400729663E+02  0.00000000000E+00 0. -1.
         11    1    3    3    0    0  0.26300004234E+01 -0.12241858179E+02  0.10318262136E+02  0.16224873734E+02  0.51100000000E-03 0.  1.
        -11    1    3    3    0    0  0.29394843527E+01 -0.22154885103E+01  0.58337939013E+01  0.68979786274E+01  0.51100000000E-03 0. -1.
        -12    1    3    3    0    0  0.41331855275E+01  0.18945325396E+01  0.24241721019E+02  0.24664417976E+02  0.00000000000E+00 0.  1.
</event>
<event>
 7    1  0.1631716E-009  0.4778728E+02  0.7816164E-02  0.1312668E+00
        -11   -1    0    0    0    0  0.00000000000E+00  0.00000000000E+00  0.45593999997E+02  0.45594000000E+02  0.51100000000E-03 0.  1.
         11   -1    0    0    0    0 -0.00000000000E+00 -0.00000000000E+00 -0.45593999997E+02  0.45594000000E+02  0.51100000000E-03 0. -1.
    9900012    2    1    2    0    0  0.23863742769E+02 -0.19840985631E+02  0.30339412954E+02  0.47787275258E+02  0.20000019209E+02 0.  0.
         12    1    1    2    0    0 -0.23863742769E+02  0.19840985631E+02 -0.30339412954E+02  0.43400724742E+02  0.00000000000E+00 0. -1.
         11    1    3    3    0    0  0.78400438801E+01 -0.51937177115E+01  0.89181952019E+01  0.12960524589E+02  0.51100000000E-03 0. -1.
        -11    1    3    3    0    0  0.15916428498E+02 -0.89263048452E+01  0.22535192947E+02  0.28997353944E+02  0.51100000000E-03 0.  1.
         12    1    3    3    0    0  0.10727039042E+00 -0.57209630747E+01 -0.11139751943E+01  0.58293967246E+01  0.00000000000E+00 0. -1.
</event>
<event>
 7    1  0.1631716E-009  0.4778727E+02  0.7816164E-02  0.1312668E+00
        -11   -1    0    0    0    0  0.00000000000E+00  0.00000000000E+00  0.45593999997E+02  0.45594000000E+02  0.51100000000E-03 0.  1.
         11   -1    0    0    0    0 -0.00000000000E+00 -0.00000000000E+00 -0.45593999997E+02  0.45594000000E+02  0.51100000000E-03 0. -1.
    9900012    2    1    2    0    0 -0.15077498477E+02 -0.40522475515E+02 -0.37711076510E+01  0.47787271491E+02  0.20000002034E+02 0.  0.
         12    1    1    2    0    0  0.15077498477E+02  0.40522475515E+02  0.37711076510E+01  0.43400728509E+02  0.00000000000E+00 0. -1.
         11    1    3    3    0    0 -0.96842477196E+01 -0.81242472935E+01 -0.69033690690E+01  0.14402935560E+02  0.51100000000E-03 0. -1.
        -11    1    3    3    0    0 -0.51929131118E+01 -0.17621649586E+02  0.52643021396E+00  0.18378411513E+02  0.51100000000E-03 0.  1.
         12    1    3    3    0    0 -0.20033764574E+00 -0.14776578636E+02  0.26058312040E+01  0.15005924417E+02  0.00000000000E+00 0. -1.
</event>
<event>
 7    1  0.1631716E-009  0.4778727E+02  0.7816164E-02  0.1312668E+00
        -11   -1    0    0    0    0  0.00000000000E+00  0.00000000000E+00  0.45593999997E+02  0.45594000000E+02  0.51100000000E-03 0.  1.
         11   -1    0    0    0    0 -0.00000000000E+00 -0.00000000000E+00 -0.45593999997E+02  0.45594000000E+02  0.51100000000E-03 0. -1.
    9900012    2    1    2    0    0 -0.27779565872E+02  0.31976810594E+02  0.94552932922E+01  0.47787271123E+02  0.20000000358E+02 0.  0.
         12    1    1    2    0    0  0.27779565872E+02 -0.31976810594E+02 -0.94552932922E+01  0.43400728877E+02  0.00000000000E+00 0. -1.
         11    1    3    3    0    0 -0.47897531090E+01  0.28471607994E+01 -0.42820421851E+01  0.70273711301E+01  0.51100000000E-03 0. -1.
        -11    1    3    3    0    0 -0.16611086786E+02  0.15550916196E+02  0.46646303692E+01  0.23227526246E+02  0.51100000000E-03 0.  1.
        -12    1    3    3    0    0 -0.63787259776E+01  0.13578733598E+02  0.90727051081E+01  0.17532373747E+02  0.00000000000E+00 0.  1.
</event>
<event>
 7    1  0.1631716E-009  0.4778727E+02  0.7816164E-02  0.1312668E+00
        -11   -1    0    0    0    0  0.00000000000E+00  0.00000000000E+00  0.45593999997E+02  0.45594000000E+02  0.51100000000E-03 0. -1.
         11   -1    0    0    0    0 -0.00000000000E+00 -0.00000000000E+00 -0.45593999997E+02  0.45594000000E+02  0.51100000000E-03 0.  1.
    9900012    2    1    2    0    0  0.31197265690E+02 -0.28431199702E+02 -0.10100525858E+02  0.47787272752E+02  0.20000007785E+02 0.  0.
         12    1    1    2    0    0 -0.31197265690E+02  0.28431199702E+02  0.10100525858E+02  0.43400727248E+02  0.00000000000E+00 0. -1.
         11    1    3    3    0    0  0.43334823301E+01 -0.10444399592E+02  0.31098323650E+01  0.11727557697E+02  0.51100000000E-03 0.  1.
        -11    1    3    3    0    0  0.20276615048E+00  0.68046140365E+00  0.36157215758E+00  0.79679139045E+00  0.51100000000E-03 0. -1.
        -12    1    3    3    0    0  0.26661017210E+02 -0.18667261514E+02 -0.13571930381E+02  0.35262923664E+02  0.00000000000E+00 0.  1.
</event>
<event>
 7    1  0.1631716E-009  0.4778727E+02  0.7816164E-02  0.1312668E+00
        -11   -1    0    0    0    0  0.00000000000E+00  0.00000000000E+00  0.45593999997E+02  0.45594000000E+02  0.51100000000E-03 0. -1.
         11   -1    0    0    0    0 -0.00000000000E+00 -0.00000000000E+00 -0.45593999997E+02  0.45594000000E+02  0.51100000000E-03 0.  1.
    9900012    2    1    2    0    0  0.46623597054E+01 -0.42798901757E+02  0.54899415612E+01  0.47787273647E+02  0.20000011864E+02 0.  0.
         12    1    1    2    0    0 -0.46623597054E+01  0.42798901757E+02 -0.54899415612E+01  0.43400726353E+02  0.00000000000E+00 0. -1.
         11    1    3    3    0    0 -0.30706367959E+01 -0.11526121638E+02  0.46756641008E+01  0.12811796337E+02  0.51100000000E-03 0. -1.
        -11    1    3    3    0    0  0.72556371295E+01 -0.62211573370E+01  0.24480318545E+01  0.98660999888E+01  0.51100000000E-03 0.  1.
        -12    1    3    3    0    0  0.47735937176E+00 -0.25051622782E+02 -0.16337543941E+01  0.25109377321E+02  0.00000000000E+00 0.  1.
</event>
<event>
 7    1  0.1631716E-009  0.4778727E+02  0.7816164E-02  0.1312668E+00
        -11   -1    0    0    0    0  0.00000000000E+00  0.00000000000E+00  0.45593999997E+02  0.45594000000E+02  0.51100000000E-03 0.  1.
         11   -1    0    0    0    0 -0.00000000000E+00 -0.00000000000E+00 -0.45593999997E+02  0.45594000000E+02  0.51100000000E-03 0. -1.
    9900012    2    1    2    0    0  0.25611554247E+02 -0.21343346267E+02  0.27787283436E+02  0.47787271186E+02  0.20000000645E+02 0.  0.
         12    1    1    2    0    0 -0.25611554247E+02  0.21343346267E+02 -0.27787283436E+02  0.43400728814E+02  0.00000000000E+00 0. -1.
         11    1    3    3    0    0 -0.14068750181E+01 -0.48947560064E+01  0.11009282873E+01  0.52105639842E+01  0.51100000000E-03 0. -1.
        -11    1    3    3    0    0  0.12939219552E+02 -0.13657759296E+02  0.15616920465E+02  0.24450889487E+02  0.51100000000E-03 0.  1.
         12    1    3    3    0    0  0.14079209713E+02 -0.27908309649E+01  0.11069434683E+02  0.18125817715E+02  0.00000000000E+00 0. -1.
</event>
<event>
 7    1  0.1631716E-009  0.4778726E+02  0.7816164E-02  0.1312668E+00
        -11   -1    0    0    0    0  0.00000000000E+00  0.00000000000E+00  0.45593999997E+02  0.45594000000E+02  0.51100000000E-03 0.  1.
         11   -1    0    0    0    0 -0.00000000000E+00 -0.00000000000E+00 -0.45593999997E+02  0.45594000000E+02  0.51100000000E-03 0. -1.
    9900012    2    1    2    0    0  0.25339895835E+02 -0.25434799208E+02  0.24384106364E+02  0.47787262968E+02  0.19999963178E+02 0.  0.
         12    1    1    2    0    0 -0.25339895835E+02  0.25434799208E+02 -0.24384106364E+02  0.43400737032E+02  0.00000000000E+00 0. -1.
         11    1    3    3    0    0  0.36990511506E+01  0.64952219985E-02 -0.24397830102E+01  0.44312033355E+01  0.51100000000E-03 0. -1.
        -11    1    3    3    0    0  0.10474491986E+02 -0.85640916262E+01  0.80009851780E+01  0.15718600823E+02  0.51100000000E-03 0.  1.
         12    1    3    3    0    0  0.11166352698E+02 -0.16877202804E+02  0.18822904197E+02  0.27637458810E+02  0.00000000000E+00 0. -1.
</event>
<event>
 7    1  0.1631716E-009  0.4778726E+02  0.7816164E-02  0.1312668E+00
        -11   -1    0    0    0    0  0.00000000000E+00  0.00000000000E+00  0.45593999997E+02  0.45594000000E+02  0.51100000000E-03 0.  1.
         11   -1    0    0    0    0 -0.00000000000E+00 -0.00000000000E+00 -0.45593999997E+02  0.45594000000E+02  0.51100000000E-03 0. -1.
    9900012    2    1    2    0    0 -0.30434635929E+02  0.42093752689E+01  0.30653520025E+02  0.47787260442E+02  0.19999951660E+02 0.  0.
         12    1    1    2    0    0  0.30434635929E+02 -0.42093752689E+01 -0.30653520025E+02  0.43400739558E+02  0.00000000000E+00 0. -1.
         11    1    3    3    0    0  0.13134114127E+01 -0.29820523908E+01  0.71748792234E+00  0.33365364047E+01  0.51100000000E-03 0. -1.
        -11    1    3    3    0    0 -0.99239203324E+01  0.20533060244E+01  0.12219758484E+02  0.15875224662E+02  0.51100000000E-03 0.  1.
        -12    1    3    3    0    0 -0.21824127009E+02  0.51381216353E+01  0.17716273618E+02  0.28575499376E+02  0.00000000000E+00 0.  1.
</event>
<event>
 7    1  0.1631716E-009  0.4778727E+02  0.7816164E-02  0.1312668E+00
        -11   -1    0    0    0    0  0.00000000000E+00  0.00000000000E+00  0.45593999997E+02  0.45594000000E+02  0.51100000000E-03 0.  1.
         11   -1    0    0    0    0 -0.00000000000E+00 -0.00000000000E+00 -0.45593999997E+02  0.45594000000E+02  0.51100000000E-03 0. -1.
    9900012    2    1    2    0    0  0.91716208338E+01  0.14734916512E+02  0.39779226462E+02  0.47787271305E+02  0.20000001189E+02 0.  0.
         12    1    1    2    0    0 -0.91716208338E+01 -0.14734916512E+02 -0.39779226462E+02  0.43400728695E+02  0.00000000000E+00 0. -1.
         11    1    3    3    0    0  0.14247640613E+02  0.77065826744E+01  0.25397676423E+02  0.30123556356E+02  0.51100000000E-03 0. -1.
        -11    1    3    3    0    0 -0.15365666500E+01  0.33763888420E+01  0.10864489357E+02  0.11480338319E+02  0.51100000000E-03 0.  1.
        -12    1    3    3    0    0 -0.35394531296E+01  0.36519449954E+01  0.35170606821E+01  0.61833766299E+01  0.00000000000E+00 0.  1.
</event>
<event>
 7    1  0.1631716E-009  0.4778727E+02  0.7816164E-02  0.1312668E+00
        -11   -1    0    0    0    0  0.00000000000E+00  0.00000000000E+00  0.45593999997E+02  0.45594000000E+02  0.51100000000E-03 0. -1.
         11   -1    0    0    0    0 -0.00000000000E+00 -0.00000000000E+00 -0.45593999997E+02  0.45594000000E+02  0.51100000000E-03 0.  1.
    9900012    2    1    2    0    0 -0.36000199320E+02  0.18074977777E+02 -0.16152518580E+02  0.47787273864E+02  0.20000012855E+02 0.  0.
         12    1    1    2    0    0  0.36000199320E+02 -0.18074977777E+02  0.16152518580E+02  0.43400726136E+02  0.00000000000E+00 0. -1.
         11    1    3    3    0    0 -0.26473699225E+02  0.14862537633E+02 -0.14820299962E+02  0.33784509272E+02  0.51100000000E-03 0. -1.
        -11    1    3    3    0    0 -0.38564055861E+01  0.61540318950E+01  0.70851022000E+00  0.72969829109E+01  0.51100000000E-03 0.  1.
         12    1    3    3    0    0 -0.56700945085E+01 -0.29415917506E+01 -0.20407288381E+01  0.67057816809E+01  0.00000000000E+00 0. -1.
</event>
<event>
 7    1  0.1631716E-009  0.4778729E+02  0.7816164E-02  0.1312668E+00
        -11   -1    0    0    0    0  0.00000000000E+00  0.00000000000E+00  0.45593999997E+02  0.45594000000E+02  0.51100000000E-03 0.  1.
         11   -1    0    0    0    0 -0.00000000000E+00 -0.00000000000E+00 -0.45593999997E+02  0.45594000000E+02  0.51100000000E-03 0. -1.
    9900012    2    1    2    0    0  0.13990445140E+02 -0.28995264205E+02  0.29106082654E+02  0.47787286308E+02  0.20000069591E+02 0.  0.
         12    1    1    2    0    0 -0.13990445140E+02  0.28995264205E+02 -0.29106082654E+02  0.43400713692E+02  0.00000000000E+00 0. -1.
         11    1    3    3    0    0 -0.32974333174E+01 -0.46938934644E+01  0.46276237853E+01  0.73702513185E+01  0.51100000000E-03 0. -1.
        -11    1    3    3    0    0  0.88926833756E+01 -0.21039913914E+02  0.19991044607E+02  0.30354565717E+02  0.51100000000E-03 0.  1.
         12    1    3    3    0    0  0.83951950818E+01 -0.32614568266E+01  0.44874142615E+01  0.10062469272E+02  0.00000000000E+00 0. -1.
</event>
<event>
 7    1  0.1631716E-009  0.4778728E+02  0.7816164E-02  0.1312668E+00
        -11   -1    0    0    0    0  0.00000000000E+00  0.00000000000E+00  0.45593999997E+02  0.45594000000E+02  0.51100000000E-03 0.  1.
         11   -1    0    0    0    0 -0.00000000000E+00 -0.00000000000E+00 -0.45593999997E+02  0.45594000000E+02  0.51100000000E-03 0. -1.
    9900012    2    1    2    0    0  0.36378881779E+02 -0.19100261212E+02  0.13977833545E+02  0.47787275945E+02  0.20000022343E+02 0.  0.
         12    1    1    2    0    0 -0.36378881779E+02  0.19100261212E+02 -0.13977833545E+02  0.43400724055E+02  0.00000000000E+00 0. -1.
         11    1    3    3    0    0  0.34866847103E+02 -0.18648173594E+02  0.98476793274E+01  0.40748352036E+02  0.51100000000E-03 0. -1.
        -11    1    3    3    0    0  0.45737899725E+00 -0.28326190350E+01  0.31394274748E+01  0.42531084251E+01  0.51100000000E-03 0.  1.
        -12    1    3    3    0    0  0.10546556794E+01  0.23805314169E+01  0.99072674311E+00  0.27858154836E+01  0.00000000000E+00 0.  1.
</event>
<event>
 7    1  0.1631716E-009  0.4778727E+02  0.7816164E-02  0.1312668E+00
        -11   -1    0    0    0    0  0.00000000000E+00  0.00000000000E+00  0.45593999997E+02  0.45594000000E+02  0.51100000000E-03 0.  1.
         11   -1    0    0    0    0 -0.00000000000E+00 -0.00000000000E+00 -0.45593999997E+02  0.45594000000E+02  0.51100000000E-03 0. -1.
    9900012    2    1    2    0    0 -0.39034895333E+02  0.14809861666E+02  0.11856151040E+02  0.47787269895E+02  0.19999994758E+02 0.  0.
         12    1    1    2    0    0  0.39034895333E+02 -0.14809861666E+02 -0.11856151040E+02  0.43400730105E+02  0.00000000000E+00 0. -1.
         11    1    3    3    0    0  0.81173734126E+00 -0.84734157188E-02  0.88471843619E-01  0.81658853666E+00  0.51100000000E-03 0. -1.
        -11    1    3    3    0    0 -0.38632367510E+02  0.91846797060E+01  0.10202713755E+02  0.40998945462E+02  0.51100000000E-03 0.  1.
        -12    1    3    3    0    0 -0.12142651637E+01  0.56336553760E+01  0.15649654409E+01  0.59717358962E+01  0.00000000000E+00 0.  1.
</event>
<event>
 7    1  0.1631716E-009  0.4778727E+02  0.7816164E-02  0.1312668E+00
        -11   -1    0    0    0    0  0.00000000000E+00  0.00000000000E+00  0.45593999997E+02  0.45594000000E+02  0.51100000000E-03 0.  1.
         11   -1    0    0    0    0 -0.00000000000E+00 -0.00000000000E+00 -0.45593999997E+02  0.45594000000E+02  0.51100000000E-03 0. -1.
    9900012    2    1    2    0    0 -0.28793756524E+02 -0.12044000404E+02  0.30157668535E+02  0.47787270375E+02  0.19999996948E+02 0.  0.
         12    1    1    2    0    0  0.28793756524E+02  0.12044000404E+02 -0.30157668535E+02  0.43400729625E+02  0.00000000000E+00 0. -1.
         11    1    3    3    0    0  0.79408776215E+00  0.10215631402E+01  0.39785565264E+00  0.13536823870E+01  0.51100000000E-03 0. -1.
        -11    1    3    3    0    0 -0.25343017254E+02 -0.57469989215E+01  0.16757581083E+02  0.30921077668E+02  0.51100000000E-03 0.  1.
        -12    1    3    3    0    0 -0.42448270328E+01 -0.73185646226E+01  0.13002231800E+02  0.15512510321E+02  0.00000000000E+00 0.  1.
</event>
<event>
 7    1  0.1631716E-009  0.4778727E+02  0.7816164E-02  0.1312668E+00
        -11   -1    0    0    0    0  0.00000000000E+00  0.00000000000E+00  0.45593999997E+02  0.45594000000E+02  0.51100000000E-03 0. -1.
         11   -1    0    0    0    0 -0.00000000000E+00 -0.00000000000E+00 -0.45593999997E+02  0.45594000000E+02  0.51100000000E-03 0.  1.
    9900012    2    1    2    0    0 -0.10838267564E+02 -0.41097426184E+02 -0.87838883518E+01  0.47787272157E+02  0.20000005074E+02 0.  0.
         12    1    1    2    0    0  0.10838267564E+02  0.41097426184E+02  0.87838883518E+01  0.43400727843E+02  0.00000000000E+00 0. -1.
         11    1    3    3    0    0  0.57570256494E+01 -0.93482566685E+01 -0.18866776806E+01  0.11139694789E+02  0.51100000000E-03 0. -1.
        -11    1    3    3    0    0 -0.50558397476E+01 -0.11698904764E+02 -0.10595552498E+01  0.12788610004E+02  0.51100000000E-03 0.  1.
        -12    1    3    3    0    0 -0.11539453466E+02 -0.20050264751E+02 -0.58376554215E+01  0.23858967364E+02  0.00000000000E+00 0.  1.
</event>
<event>
 7    1  0.1631716E-009  0.4778725E+02  0.7816164E-02  0.1312668E+00
        -11   -1    0    0    0    0  0.00000000000E+00  0.00000000000E+00  0.45593999997E+02  0.45594000000E+02  0.51100000000E-03 0. -1.
         11   -1    0    0    0    0 -0.00000000000E+00 -0.00000000000E+00 -0.45593999997E+02  0.45594000000E+02  0.51100000000E-03 0.  1.
    9900012    2    1    2    0    0  0.42989828484E+02 -0.18346208416E+00 -0.59553127853E+01  0.47787253903E+02  0.19999921844E+02 0.  0.
         12    1    1    2    0    0 -0.42989828484E+02  0.18346208416E+00  0.59553127853E+01  0.43400746097E+02  0.00000000000E+00 0. -1.
         11    1    3    3    0    0  0.52021893856E+01  0.12210194409E+01  0.47330296172E+01  0.71382933883E+01  0.51100000000E-03 0. -1.
        -11    1    3    3    0    0  0.18923180641E+02  0.44853560374E+01 -0.48769908928E+01  0.20049693883E+02  0.51100000000E-03 0.  1.
        -12    1    3    3    0    0  0.18864458457E+02 -0.58898375625E+01 -0.58113515097E+01  0.20599266632E+02  0.00000000000E+00 0.  1.
</event>
<event>
 7    1  0.1631716E-009  0.4778727E+02  0.7816164E-02  0.1312668E+00
        -11   -1    0    0    0    0  0.00000000000E+00  0.00000000000E+00  0.45593999997E+02  0.45594000000E+02  0.51100000000E-03 0.  1.
         11   -1    0    0    0    0 -0.00000000000E+00 -0.00000000000E+00 -0.45593999997E+02  0.45594000000E+02  0.51100000000E-03 0. -1.
    9900012    2    1    2    0    0 -0.24307240568E+02 -0.35935128760E+02  0.12032416192E+01  0.47787271741E+02  0.20000003175E+02 0.  0.
         12    1    1    2    0    0  0.24307240568E+02  0.35935128760E+02 -0.12032416192E+01  0.43400728259E+02  0.00000000000E+00 0. -1.
         11    1    3    3    0    0 -0.51722294098E+01 -0.12079147692E+02  0.44020675025E+01  0.13857704160E+02  0.51100000000E-03 0. -1.
        -11    1    3    3    0    0 -0.13203592708E+02 -0.24301936821E+02 -0.13078983625E+01  0.27688076713E+02  0.51100000000E-03 0.  1.
         12    1    3    3    0    0 -0.59314184497E+01  0.44595575341E+00 -0.18909275207E+01  0.62414908674E+01  0.00000000000E+00 0. -1.
</event>
<event>
 7    1  0.1631716E-009  0.4778727E+02  0.7816164E-02  0.1312668E+00
        -11   -1    0    0    0    0  0.00000000000E+00  0.00000000000E+00  0.45593999997E+02  0.45594000000E+02  0.51100000000E-03 0.  1.
         11   -1    0    0    0    0 -0.00000000000E+00 -0.00000000000E+00 -0.45593999997E+02  0.45594000000E+02  0.51100000000E-03 0. -1.
    9900012    2    1    2    0    0  0.23234970319E+01  0.29352261690E+01  0.43238977484E+02  0.47787269994E+02  0.19999995213E+02 0.  0.
         12    1    1    2    0    0 -0.23234970319E+01 -0.29352261690E+01 -0.43238977484E+02  0.43400730006E+02  0.00000000000E+00 0. -1.
         11    1    3    3    0    0  0.64203827019E+01 -0.30268164234E+01  0.92777025762E+01  0.11681553709E+02  0.51100000000E-03 0. -1.
        -11    1    3    3    0    0  0.27518894688E+01  0.12967767858E+01  0.16496873900E+02  0.16775022337E+02  0.51100000000E-03 0.  1.
        -12    1    3    3    0    0 -0.68487751387E+01  0.46652658067E+01  0.17464401008E+02  0.19330693948E+02  0.00000000000E+00 0.  1.
</event>
<event>
 7    1  0.1631716E-009  0.4778727E+02  0.7816164E-02  0.1312668E+00
        -11   -1    0    0    0    0  0.00000000000E+00  0.00000000000E+00  0.45593999997E+02  0.45594000000E+02  0.51100000000E-03 0.  1.
         11   -1    0    0    0    0 -0.00000000000E+00 -0.00000000000E+00 -0.45593999997E+02  0.45594000000E+02  0.51100000000E-03 0. -1.
    9900012    2    1    2    0    0 -0.32908459602E+02  0.23288174770E+01  0.28199880108E+02  0.47787270256E+02  0.19999996406E+02 0.  0.
         12    1    1    2    0    0  0.32908459602E+02 -0.23288174770E+01 -0.28199880108E+02  0.43400729744E+02  0.00000000000E+00 0. -1.
         11    1    3    3    0    0 -0.21915753966E+02 -0.67768683973E+01  0.19118854456E+02  0.29862297519E+02  0.51100000000E-03 0.  1.
        -11    1    3    3    0    0  0.17421413667E+00  0.15674915843E+01 -0.16302067431E+00  0.15855460995E+01  0.51100000000E-03 0. -1.
         12    1    3    3    0    0 -0.11166919773E+02  0.75381942900E+01  0.92440463261E+01  0.16339426638E+02  0.00000000000E+00 0. -1.
</event>
<event>
 7    1  0.1631716E-009  0.4778727E+02  0.7816164E-02  0.1312668E+00
        -11   -1    0    0    0    0  0.00000000000E+00  0.00000000000E+00  0.45593999997E+02  0.45594000000E+02  0.51100000000E-03 0. -1.
         11   -1    0    0    0    0 -0.00000000000E+00 -0.00000000000E+00 -0.45593999997E+02  0.45594000000E+02  0.51100000000E-03 0.  1.
    9900012    2    1    2    0    0 -0.43209983602E+02 -0.31073009718E+01 -0.26201904293E+01  0.47787269590E+02  0.19999993368E+02 0.  0.
         12    1    1    2    0    0  0.43209983602E+02  0.31073009718E+01  0.26201904293E+01  0.43400730410E+02  0.00000000000E+00 0. -1.
         11    1    3    3    0    0  0.18506216607E+01  0.40419884113E+00  0.32299935202E+00  0.19215894663E+01  0.51100000000E-03 0. -1.
        -11    1    3    3    0    0 -0.21536476296E+02  0.53519386440E+00  0.14630433268E+01  0.21592747388E+02  0.51100000000E-03 0.  1.
        -12    1    3    3    0    0 -0.23524128967E+02 -0.40466936773E+01 -0.44062331081E+01  0.24272932736E+02  0.00000000000E+00 0.  1.
</event>
<event>
 7    1  0.1631716E-009  0.4778727E+02  0.7816164E-02  0.1312668E+00
        -11   -1    0    0    0    0  0.00000000000E+00  0.00000000000E+00  0.45593999997E+02  0.45594000000E+02  0.51100000000E-03 0.  1.
         11   -1    0    0    0    0 -0.00000000000E+00 -0.00000000000E+00 -0.45593999997E+02  0.45594000000E+02  0.51100000000E-03 0. -1.
    9900012    2    1    2    0    0 -0.63057980248E+01  0.26626933286E+02  0.33687788412E+02  0.47787265524E+02  0.19999974832E+02 0.  0.
         12    1    1    2    0    0  0.63057980248E+01 -0.26626933286E+02 -0.33687788412E+02  0.43400734476E+02  0.00000000000E+00 0. -1.
         11    1    3    3    0    0  0.58166627954E+01  0.80361245681E+01  0.82319380460E+01  0.12890991754E+02  0.51100000000E-03 0. -1.
        -11    1    3    3    0    0 -0.56520274319E+01  0.10954904666E+02  0.20009189199E+02  0.23501553204E+02  0.51100000000E-03 0.  1.
        -12    1    3    3    0    0 -0.64704333882E+01  0.76359040513E+01  0.54466611667E+01  0.11394720566E+02  0.00000000000E+00 0.  1.
</event>
<event>
 7    1  0.1631716E-009  0.4778727E+02  0.7816164E-02  0.1312668E+00
        -11   -1    0    0    0    0  0.00000000000E+00  0.00000000000E+00  0.45593999997E+02  0.45594000000E+02  0.51100000000E-03 0.  1.
         11   -1    0    0    0    0 -0.00000000000E+00 -0.00000000000E+00 -0.45593999997E+02  0.45594000000E+02  0.51100000000E-03 0. -1.
    9900012    2    1    2    0    0  0.91213422846E+01 -0.17331324870E+02  0.38730474173E+02  0.47787270323E+02  0.19999996711E+02 0.  0.
         12    1    1    2    0    0 -0.91213422846E+01  0.17331324870E+02 -0.38730474173E+02  0.43400729677E+02  0.00000000000E+00 0. -1.
         11    1    3    3    0    0 -0.21679157101E+01 -0.42937169587E+01  0.14967644139E+02  0.15721521402E+02  0.51100000000E-03 0. -1.
        -11    1    3    3    0    0  0.83382683966E+01 -0.15078190713E+02  0.22324471572E+02  0.28200365002E+02  0.51100000000E-03 0.  1.
        -12    1    3    3    0    0  0.29509895982E+01  0.20405828013E+01  0.14383584621E+01  0.38653839192E+01  0.00000000000E+00 0.  1.
</event>
<event>
 7    1  0.1631716E-009  0.4778728E+02  0.7816164E-02  0.1312668E+00
        -11   -1    0    0    0    0  0.00000000000E+00  0.00000000000E+00  0.45593999997E+02  0.45594000000E+02  0.51100000000E-03 0.  1.
         11   -1    0    0    0    0 -0.00000000000E+00 -0.00000000000E+00 -0.45593999997E+02  0.45594000000E+02  0.51100000000E-03 0. -1.
    9900012    2    1    2    0    0 -0.20456024547E+02  0.19933187195E+02  0.32677849749E+02  0.47787277008E+02  0.20000027189E+02 0.  0.
         12    1    1    2    0    0  0.20456024547E+02 -0.19933187195E+02 -0.32677849749E+02  0.43400722992E+02  0.00000000000E+00 0. -1.
         11    1    3    3    0    0 -0.33055376366E+01 -0.95804049622E+00  0.30173465528E+00  0.34547741927E+01  0.51100000000E-03 0. -1.
        -11    1    3    3    0    0 -0.13037500037E+02  0.97413157968E+01  0.26441706953E+02  0.31048888990E+02  0.51100000000E-03 0.  1.
         12    1    3    3    0    0 -0.41129868740E+01  0.11149911894E+02  0.59344081412E+01  0.13283613825E+02  0.00000000000E+00 0. -1.
</event>
<event>
 7    1  0.1631716E-009  0.4778727E+02  0.7816164E-02  0.1312668E+00
        -11   -1    0    0    0    0  0.00000000000E+00  0.00000000000E+00  0.45593999997E+02  0.45594000000E+02  0.51100000000E-03 0.  1.
         11   -1    0    0    0    0 -0.00000000000E+00 -0.00000000000E+00 -0.45593999997E+02  0.45594000000E+02  0.51100000000E-03 0. -1.
    9900012    2    1    2    0    0  0.22937012670E+02  0.81129698763E+01  0.35940176806E+02  0.47787272595E+02  0.20000007070E+02 0.  0.
         12    1    1    2    0    0 -0.22937012670E+02 -0.81129698763E+01 -0.35940176806E+02  0.43400727405E+02  0.00000000000E+00 0. -1.
         11    1    3    3    0    0 -0.75327775992E+00 -0.15998848532E+01 -0.33348656420E-01  0.17686637106E+01  0.51100000000E-03 0. -1.
        -11    1    3    3    0    0  0.21972055191E+02  0.45128040430E+01  0.23989722376E+02  0.32842706795E+02  0.51100000000E-03 0.  1.
         12    1    3    3    0    0  0.17182352392E+01  0.52000506865E+01  0.11983803086E+02  0.13175902090E+02  0.00000000000E+00 0. -1.
</event>
<event>
 7    1  0.1631716E-009  0.4778727E+02  0.7816164E-02  0.1312668E+00
        -11   -1    0    0    0    0  0.00000000000E+00  0.00000000000E+00  0.45593999997E+02  0.45594000000E+02  0.51100000000E-03 0. -1.
         11   -1    0    0    0    0 -0.00000000000E+00 -0.00000000000E+00 -0.45593999997E+02  0.45594000000E+02  0.51100000000E-03 0.  1.
    9900012    2    1    2    0    0 -0.12070603257E+02  0.22371608486E+02 -0.35177196737E+02  0.47787268445E+02  0.19999988148E+02 0.  0.
         12    1    1    2    0    0  0.12070603257E+02 -0.22371608486E+02  0.35177196737E+02  0.43400731555E+02  0.00000000000E+00 0. -1.
         11    1    3    3    0    0 -0.33610882687E+01  0.13565659269E+00 -0.92866994897E+01  0.98771506384E+01  0.51100000000E-03 0. -1.
        -11    1    3    3    0    0  0.89339992497E+00  0.73391737781E+01 -0.15971231522E+02  0.17599484986E+02  0.51100000000E-03 0.  1.
        -12    1    3    3    0    0 -0.96029149132E+01  0.14896778116E+02 -0.99192657246E+01  0.20310632820E+02  0.00000000000E+00 0.  1.
</event>
<event>
 7    1  0.1631716E-009  0.4778726E+02  0.7816164E-02  0.1312668E+00
        -11   -1    0    0    0    0  0.00000000000E+00  0.00000000000E+00  0.45593999997E+02  0.45594000000E+02  0.51100000000E-03 0.  1.
         11   -1    0    0    0    0 -0.00000000000E+00 -0.00000000000E+00 -0.45593999997E+02  0.45594000000E+02  0.51100000000E-03 0. -1.
    9900012    2    1    2    0    0 -0.40004889710E+02  0.15303630285E+02  0.70022550562E+01  0.47787264102E+02  0.19999968346E+02 0.  0.
         12    1    1    2    0    0  0.40004889710E+02 -0.15303630285E+02 -0.70022550562E+01  0.43400735898E+02  0.00000000000E+00 0. -1.
         11    1    3    3    0    0 -0.72030493452E+01 -0.30448633025E+01 -0.13677453865E+00  0.78213694412E+01  0.51100000000E-03 0. -1.
        -11    1    3    3    0    0 -0.95287086717E+01  0.65753183694E+01  0.76552342930E+01  0.13879254769E+02  0.51100000000E-03 0.  1.
        -12    1    3    3    0    0 -0.23273131693E+02  0.11773175219E+02 -0.51620469818E+00  0.26086639891E+02  0.00000000000E+00 0.  1.
</event>
<event>
 7    1  0.1631716E-009  0.4778727E+02  0.7816164E-02  0.1312668E+00
        -11   -1    0    0    0    0  0.00000000000E+00  0.00000000000E+00  0.45593999997E+02  0.45594000000E+02  0.51100000000E-03 0. -1.
         11   -1    0    0    0    0 -0.00000000000E+00 -0.00000000000E+00 -0.45593999997E+02  0.45594000000E+02  0.51100000000E-03 0.  1.
    9900012    2    1    2    0    0 -0.16401274528E+02  0.36549736611E+02 -0.16695451321E+02  0.47787272503E+02  0.20000006648E+02 0.  0.
         12    1    1    2    0    0  0.16401274528E+02 -0.36549736611E+02  0.16695451321E+02  0.43400727497E+02  0.00000000000E+00 0. -1.
         11    1    3    3    0    0 -0.92774811894E+01  0.17371823266E+02 -0.48006212391E+01  0.20270615810E+02  0.51100000000E-03 0. -1.
        -11    1    3    3    0    0  0.39203602778E+01  0.63906036210E+01 -0.14019140037E+01  0.76272145953E+01  0.51100000000E-03 0.  1.
         12    1    3    3    0    0 -0.11044153616E+02  0.12787309725E+02 -0.10492916078E+02  0.19889442097E+02  0.00000000000E+00 0. -1.
</event>
<event>
 7    1  0.1631716E-009  0.4778727E+02  0.7816164E-02  0.1312668E+00
        -11   -1    0    0    0    0  0.00000000000E+00  0.00000000000E+00  0.45593999997E+02  0.45594000000E+02  0.51100000000E-03 0. -1.
         11   -1    0    0    0    0 -0.00000000000E+00 -0.00000000000E+00 -0.45593999997E+02  0.45594000000E+02  0.51100000000E-03 0.  1.
    9900012    2    1    2    0    0 -0.24274720093E+02  0.35976594876E+02 -0.21342979293E+00  0.47787274583E+02  0.20000016134E+02 0.  0.
         12    1    1    2    0    0  0.24274720093E+02 -0.35976594876E+02  0.21342979293E+00  0.43400725417E+02  0.00000000000E+00 0. -1.
         11    1    3    3    0    0 -0.71596299814E-01  0.26784129565E+01  0.40488147673E+01  0.48550925096E+01  0.51100000000E-03 0. -1.
        -11    1    3    3    0    0 -0.93604897894E+01  0.22405185043E+02 -0.31835093864E+01  0.24489708413E+02  0.51100000000E-03 0.  1.
        -12    1    3    3    0    0 -0.14842634004E+02  0.10892996876E+02 -0.10787351738E+01  0.18442473660E+02  0.00000000000E+00 0.  1.
</event>
<event>
 7    1  0.1631716E-009  0.4778727E+02  0.7816164E-02  0.1312668E+00
        -11   -1    0    0    0    0  0.00000000000E+00  0.00000000000E+00  0.45593999997E+02  0.45594000000E+02  0.51100000000E-03 0.  1.
         11   -1    0    0    0    0 -0.00000000000E+00 -0.00000000000E+00 -0.45593999997E+02  0.45594000000E+02  0.51100000000E-03 0. -1.
    9900012    2    1    2    0    0  0.14262580372E+02  0.24334581059E+02  0.32985309087E+02  0.47787266714E+02  0.19999980256E+02 0.  0.
         12    1    1    2    0    0 -0.14262580372E+02 -0.24334581059E+02 -0.32985309087E+02  0.43400733286E+02  0.00000000000E+00 0. -1.
         11    1    3    3    0    0  0.76401863449E+01  0.53951220412E+01  0.13586504746E+02  0.16494632481E+02  0.51100000000E-03 0. -1.
        -11    1    3    3    0    0  0.10847446182E+01  0.38107016393E+01  0.13608063974E+02  0.14173126798E+02  0.51100000000E-03 0.  1.
         12    1    3    3    0    0  0.55376494090E+01  0.15128757379E+02  0.57907403676E+01  0.17119507435E+02  0.00000000000E+00 0. -1.
</event>
<event>
 7    1  0.1631716E-009  0.4778727E+02  0.7816164E-02  0.1312668E+00
        -11   -1    0    0    0    0  0.00000000000E+00  0.00000000000E+00  0.45593999997E+02  0.45594000000E+02  0.51100000000E-03 0.  1.
         11   -1    0    0    0    0 -0.00000000000E+00 -0.00000000000E+00 -0.45593999997E+02  0.45594000000E+02  0.51100000000E-03 0. -1.
    9900012    2    1    2    0    0 -0.24901655790E+02 -0.12342334203E+01  0.35524744230E+02  0.47787271367E+02  0.20000001471E+02 0.  0.
         12    1    1    2    0    0  0.24901655790E+02  0.12342334203E+01 -0.35524744230E+02  0.43400728633E+02  0.00000000000E+00 0. -1.
         11    1    3    3    0    0 -0.12454490213E+02  0.21850655046E+01  0.23215835078E+02  0.26436032917E+02  0.51100000000E-03 0.  1.
        -11    1    3    3    0    0 -0.76868606798E+01  0.33231549488E+01  0.29643747192E+01  0.88836199638E+01  0.51100000000E-03 0. -1.
        -12    1    3    3    0    0 -0.47603048975E+01 -0.67424538737E+01  0.93445344329E+01  0.12467618486E+02  0.00000000000E+00 0.  1.
</event>
<event>
 7    1  0.1631716E-009  0.4778727E+02  0.7816164E-02  0.1312668E+00
        -11   -1    0    0    0    0  0.00000000000E+00  0.00000000000E+00  0.45593999997E+02  0.45594000000E+02  0.51100000000E-03 0. -1.
         11   -1    0    0    0    0 -0.00000000000E+00 -0.00000000000E+00 -0.45593999997E+02  0.45594000000E+02  0.51100000000E-03 0.  1.
    9900012    2    1    2    0    0  0.23393271023E+02  0.36362595857E+02  0.37602754313E+01  0.47787272150E+02  0.20000005040E+02 0.  0.
         12    1    1    2    0    0 -0.23393271023E+02 -0.36362595857E+02 -0.37602754313E+01  0.43400727850E+02  0.00000000000E+00 0. -1.
         11    1    3    3    0    0  0.34937074578E+01  0.63917065545E+01 -0.42450945700E+01  0.84309390135E+01  0.51100000000E-03 0. -1.
        -11    1    3    3    0    0  0.13285993255E+02  0.28918187443E+02  0.62314003692E+01  0.32428529609E+02  0.51100000000E-03 0.  1.
         12    1    3    3    0    0  0.66135703109E+01  0.10527018587E+01  0.17739696320E+01  0.69278035275E+01  0.00000000000E+00 0. -1.
</event>
<event>
 7    1  0.1631716E-009  0.4778727E+02  0.7816164E-02  0.1312668E+00
        -11   -1    0    0    0    0  0.00000000000E+00  0.00000000000E+00  0.45593999997E+02  0.45594000000E+02  0.51100000000E-03 0. -1.
         11   -1    0    0    0    0 -0.00000000000E+00 -0.00000000000E+00 -0.45593999997E+02  0.45594000000E+02  0.51100000000E-03 0.  1.
    9900012    2    1    2    0    0  0.36820373844E+02 -0.47346003656E+01  0.22482593318E+02  0.47787269904E+02  0.19999994798E+02 0.  0.
         12    1    1    2    0    0 -0.36820373844E+02  0.47346003656E+01 -0.22482593318E+02  0.43400730096E+02  0.00000000000E+00 0. -1.
         11    1    3    3    0    0  0.34156804218E+01 -0.60094657024E+01  0.53682510997E+01  0.87520666646E+01  0.51100000000E-03 0. -1.
        -11    1    3    3    0    0  0.18472831543E+02 -0.11025633554E+01  0.38069575690E+01  0.18893228347E+02  0.51100000000E-03 0.  1.
        -12    1    3    3    0    0  0.14931861879E+02  0.23774286922E+01  0.13307384649E+02  0.20141974892E+02  0.00000000000E+00 0.  1.
</event>
<event>
 7    1  0.1631716E-009  0.4778727E+02  0.7816164E-02  0.1312668E+00
        -11   -1    0    0    0    0  0.00000000000E+00  0.00000000000E+00  0.45593999997E+02  0.45594000000E+02  0.51100000000E-03 0.  1.
         11   -1    0    0    0    0 -0.00000000000E+00 -0.00000000000E+00 -0.45593999997E+02  0.45594000000E+02  0.51100000000E-03 0. -1.
    9900012    2    1    2    0    0  0.23217580030E+02 -0.34022247462E+02 -0.13676761820E+02  0.47787272372E+02  0.20000006052E+02 0.  0.
         12    1    1    2    0    0 -0.23217580030E+02  0.34022247462E+02  0.13676761820E+02  0.43400727628E+02  0.00000000000E+00 0. -1.
         11    1    3    3    0    0 -0.19377768120E+01 -0.76674012433E+01 -0.15834049530E+01  0.80654319354E+01  0.51100000000E-03 0. -1.
        -11    1    3    3    0    0  0.14063626992E+01 -0.62668433739E+01 -0.40513234483E+01  0.75937081757E+01  0.51100000000E-03 0.  1.
        -12    1    3    3    0    0  0.23748994142E+02 -0.20088002844E+02 -0.80420334189E+01  0.32128132261E+02  0.00000000000E+00 0.  1.
</event>
<event>
 7    1  0.1631716E-009  0.4778727E+02  0.7816164E-02  0.1312668E+00
        -11   -1    0    0    0    0  0.00000000000E+00  0.00000000000E+00  0.45593999997E+02  0.45594000000E+02  0.51100000000E-03 0.  1.
         11   -1    0    0    0    0 -0.00000000000E+00 -0.00000000000E+00 -0.45593999997E+02  0.45594000000E+02  0.51100000000E-03 0. -1.
    9900012    2    1    2    0    0  0.22561743173E+02  0.37072147664E+02 -0.49658283241E+00  0.47787274407E+02  0.20000015333E+02 0.  0.
         12    1    1    2    0    0 -0.22561743173E+02 -0.37072147664E+02  0.49658283241E+00  0.43400725593E+02  0.00000000000E+00 0. -1.
         11    1    3    3    0    0  0.77337010553E+00 -0.22281507632E+01  0.57334707316E+00  0.24272379923E+01  0.51100000000E-03 0. -1.
        -11    1    3    3    0    0  0.79634012764E+01  0.11831301157E+02  0.22172524764E+01  0.14433005777E+02  0.51100000000E-03 0.  1.
        -12    1    3    3    0    0  0.13824971791E+02  0.27468997271E+02 -0.32871823820E+01  0.30927030638E+02  0.00000000000E+00 0.  1.
</event>
<event>
 7    1  0.1631716E-009  0.4778726E+02  0.7816164E-02  0.1312668E+00
        -11   -1    0    0    0    0  0.00000000000E+00  0.00000000000E+00  0.45593999997E+02  0.45594000000E+02  0.51100000000E-03 0.  1.
         11   -1    0    0    0    0 -0.00000000000E+00 -0.00000000000E+00 -0.45593999997E+02  0.45594000000E+02  0.51100000000E-03 0. -1.
    9900012    2    1    2    0    0  0.34280486000E+02 -0.15181548596E+02  0.21863044150E+02  0.47787264549E+02  0.19999970385E+02 0.  0.
         12    1    1    2    0    0 -0.34280486000E+02  0.15181548596E+02 -0.21863044150E+02  0.43400735451E+02  0.00000000000E+00 0. -1.
         11    1    3    3    0    0  0.22311391602E+02 -0.32007066301E+01  0.87831674225E+01  0.24190633485E+02  0.51100000000E-03 0.  1.
        -11    1    3    3    0    0  0.33082241053E+01 -0.99093163601E+00  0.79948488431E+01  0.87088403662E+01  0.51100000000E-03 0. -1.
        -12    1    3    3    0    0  0.86608702925E+01 -0.10989910330E+02  0.50850278840E+01  0.14887790698E+02  0.00000000000E+00 0.  1.
</event>
<event>
 7    1  0.1631716E-009  0.4778727E+02  0.7816164E-02  0.1312668E+00
        -11   -1    0    0    0    0  0.00000000000E+00  0.00000000000E+00  0.45593999997E+02  0.45594000000E+02  0.51100000000E-03 0. -1.
         11   -1    0    0    0    0 -0.00000000000E+00 -0.00000000000E+00 -0.45593999997E+02  0.45594000000E+02  0.51100000000E-03 0.  1.
    9900012    2    1    2    0    0  0.24360043690E+02 -0.35918371196E+02  0.28661298860E+00  0.47787271147E+02  0.20000000467E+02 0.  0.
         12    1    1    2    0    0 -0.24360043690E+02  0.35918371196E+02 -0.28661298860E+00  0.43400728853E+02  0.00000000000E+00 0. -1.
         11    1    3    3    0    0  0.61226618856E+01 -0.18715958809E+02  0.26199709774E-01  0.19691998105E+02  0.51100000000E-03 0. -1.
        -11    1    3    3    0    0  0.19187797733E+02 -0.13945261347E+02  0.27612335050E+01  0.23880249300E+02  0.51100000000E-03 0.  1.
         12    1    3    3    0    0 -0.95041592873E+00 -0.32571510406E+01 -0.25008202262E+01  0.42150237416E+01  0.00000000000E+00 0. -1.
</event>
<event>
 7    1  0.1631716E-009  0.4778727E+02  0.7816164E-02  0.1312668E+00
        -11   -1    0    0    0    0  0.00000000000E+00  0.00000000000E+00  0.45593999997E+02  0.45594000000E+02  0.51100000000E-03 0.  1.
         11   -1    0    0    0    0 -0.00000000000E+00 -0.00000000000E+00 -0.45593999997E+02  0.45594000000E+02  0.51100000000E-03 0. -1.
    9900012    2    1    2    0    0  0.11385010827E+02 -0.29063547366E+02  0.30154856540E+02  0.47787266942E+02  0.19999981294E+02 0.  0.
         12    1    1    2    0    0 -0.11385010827E+02  0.29063547366E+02 -0.30154856540E+02  0.43400733058E+02  0.00000000000E+00 0. -1.
         11    1    3    3    0    0 -0.88842403634E+00 -0.17302176507E+02  0.13333873585E+02  0.21861994287E+02  0.51100000000E-03 0. -1.
        -11    1    3    3    0    0  0.87060673902E+01 -0.79030803399E+01  0.16996884433E+02  0.20667568047E+02  0.51100000000E-03 0.  1.
         12    1    3    3    0    0  0.35673674731E+01 -0.38582905191E+01 -0.17590147831E+00  0.52577046082E+01  0.00000000000E+00 0. -1.
</event>
<event>
 7    1  0.1631716E-009  0.4778728E+02  0.7816164E-02  0.1312668E+00
        -11   -1    0    0    0    0  0.00000000000E+00  0.00000000000E+00  0.45593999997E+02  0.45594000000E+02  0.51100000000E-03 0.  1.
         11   -1    0    0    0    0 -0.00000000000E+00 -0.00000000000E+00 -0.45593999997E+02  0.45594000000E+02  0.51100000000E-03 0. -1.
    9900012    2    1    2    0    0  0.19056108157E+02  0.18760637470E+02  0.34183711612E+02  0.47787275168E+02  0.20000018800E+02 0.  0.
         12    1    1    2    0    0 -0.19056108157E+02 -0.18760637470E+02 -0.34183711612E+02  0.43400724832E+02  0.00000000000E+00 0. -1.
         11    1    3    3    0    0  0.82921578991E+00 -0.33813934678E+01  0.41978370915E+01  0.54537379033E+01  0.51100000000E-03 0. -1.
        -11    1    3    3    0    0 -0.62551074696E-01  0.41433755454E+01  0.52896195651E+01  0.67194902300E+01  0.51100000000E-03 0.  1.
        -12    1    3    3    0    0  0.18289443441E+02  0.17998655392E+02  0.24696254956E+02  0.35614047034E+02  0.00000000000E+00 0.  1.
</event>
<event>
 7    1  0.1918025E-009  0.4778727E+02  0.7816164E-02  0.1312668E+00
        -11   -1    0    0    0    0  0.00000000000E+00  0.00000000000E+00  0.45593999997E+02  0.45594000000E+02  0.51100000000E-03 0.  1.
         11   -1    0    0    0    0 -0.00000000000E+00 -0.00000000000E+00 -0.45593999997E+02  0.45594000000E+02  0.51100000000E-03 0. -1.
    9900012    2    1    2    0    0  0.23211082752E+01  0.41122919754E+02 -0.13679951277E+02  0.47787272591E+02  0.20000007050E+02 0.  0.
         12    1    1    2    0    0 -0.23211082752E+01 -0.41122919754E+02  0.13679951277E+02  0.43400727409E+02  0.00000000000E+00 0. -1.
         11    1    3    3    0    0  0.25333766391E+01  0.86993364978E+01 -0.11565427916E+02  0.14692024226E+02  0.51100000000E-03 0. -1.
        -11    1    3    3    0    0  0.27247171334E+01  0.15251300524E+02 -0.23623744540E+01  0.15671855807E+02  0.51100000000E-03 0.  1.
         12    1    3    3    0    0 -0.29369854972E+01  0.17172282732E+02  0.24785109360E+00  0.17423392558E+02  0.00000000000E+00 0. -1.
</event>
<event>
 7    1  0.1631716E-009  0.4778728E+02  0.7816164E-02  0.1312668E+00
        -11   -1    0    0    0    0  0.00000000000E+00  0.00000000000E+00  0.45593999997E+02  0.45594000000E+02  0.51100000000E-03 0.  1.
         11   -1    0    0    0    0 -0.00000000000E+00 -0.00000000000E+00 -0.45593999997E+02  0.45594000000E+02  0.51100000000E-03 0. -1.
    9900012    2    1    2    0    0  0.14182762462E+02 -0.20446319575E+02  0.35558680106E+02  0.47787280351E+02  0.20000042430E+02 0.  0.
         12    1    1    2    0    0 -0.14182762462E+02  0.20446319575E+02 -0.35558680106E+02  0.43400719649E+02  0.00000000000E+00 0. -1.
         11    1    3    3    0    0  0.86812345863E+01 -0.22151138214E+01  0.57175697682E+01  0.10628319129E+02  0.51100000000E-03 0. -1.
        -11    1    3    3    0    0  0.26199028065E+01 -0.67316577524E+01  0.21452873607E+02  0.22636362187E+02  0.51100000000E-03 0.  1.
         12    1    3    3    0    0  0.28816250689E+01 -0.11499548002E+02  0.83882367306E+01  0.14522599035E+02  0.00000000000E+00 0. -1.
</event>
<event>
 7    1  0.1631716E-009  0.4778727E+02  0.7816164E-02  0.1312668E+00
        -11   -1    0    0    0    0  0.00000000000E+00  0.00000000000E+00  0.45593999997E+02  0.45594000000E+02  0.51100000000E-03 0.  1.
         11   -1    0    0    0    0 -0.00000000000E+00 -0.00000000000E+00 -0.45593999997E+02  0.45594000000E+02  0.51100000000E-03 0. -1.
    9900012    2    1    2    0    0  0.38625829906E+01 -0.22320584960E+02  0.37020203291E+02  0.47787268301E+02  0.19999987494E+02 0.  0.
         12    1    1    2    0    0 -0.38625829906E+01  0.22320584960E+02 -0.37020203291E+02  0.43400731699E+02  0.00000000000E+00 0. -1.
         11    1    3    3    0    0  0.40412575696E+01 -0.10847420805E+02  0.13799491645E+02  0.18011781443E+02  0.51100000000E-03 0. -1.
        -11    1    3    3    0    0  0.12016241618E+01  0.17569150808E+01  0.12531316719E+02  0.12710804467E+02  0.51100000000E-03 0.  1.
         12    1    3    3    0    0 -0.13802987408E+01 -0.13230079236E+02  0.10689394927E+02  0.17064682391E+02  0.00000000000E+00 0. -1.
</event>
<event>
 7    1  0.1631716E-009  0.4778727E+02  0.7816164E-02  0.1312668E+00
        -11   -1    0    0    0    0  0.00000000000E+00  0.00000000000E+00  0.45593999997E+02  0.45594000000E+02  0.51100000000E-03 0. -1.
         11   -1    0    0    0    0 -0.00000000000E+00 -0.00000000000E+00 -0.45593999997E+02  0.45594000000E+02  0.51100000000E-03 0.  1.
    9900012    2    1    2    0    0 -0.32698512359E+02 -0.31663780653E+01 -0.28362029222E+02  0.47787270028E+02  0.19999995364E+02 0.  0.
         12    1    1    2    0    0  0.32698512359E+02  0.31663780653E+01  0.28362029222E+02  0.43400729972E+02  0.00000000000E+00 0. -1.
         11    1    3    3    0    0 -0.18151172589E+01  0.37278428684E+01 -0.49247078217E+01  0.64377178026E+01  0.51100000000E-03 0. -1.
        -11    1    3    3    0    0 -0.13059753073E+02 -0.53316193154E+01 -0.34461255246E+01  0.14520988129E+02  0.51100000000E-03 0.  1.
         12    1    3    3    0    0 -0.17823642028E+02 -0.15626016184E+01 -0.19991195875E+02  0.26828564096E+02  0.00000000000E+00 0. -1.
</event>
<event>
 7    1  0.1631716E-009  0.4778727E+02  0.7816164E-02  0.1312668E+00
        -11   -1    0    0    0    0  0.00000000000E+00  0.00000000000E+00  0.45593999997E+02  0.45594000000E+02  0.51100000000E-03 0.  1.
         11   -1    0    0    0    0 -0.00000000000E+00 -0.00000000000E+00 -0.45593999997E+02  0.45594000000E+02  0.51100000000E-03 0. -1.
    9900012    2    1    2    0    0  0.13579246896E+02  0.40169021122E+02  0.92561803602E+01  0.47787273289E+02  0.20000010233E+02 0.  0.
         12    1    1    2    0    0 -0.13579246896E+02 -0.40169021122E+02 -0.92561803602E+01  0.43400726711E+02  0.00000000000E+00 0. -1.
         11    1    3    3    0    0  0.12984576126E+02  0.29126567296E+02  0.39992777475E+01  0.32139545149E+02  0.51100000000E-03 0. -1.
        -11    1    3    3    0    0 -0.79801585814E+00  0.12613401090E+02  0.44762151432E+01  0.13407878976E+02  0.51100000000E-03 0.  1.
         12    1    3    3    0    0  0.13926866285E+01 -0.15709472639E+01  0.78068746947E+00  0.22398491637E+01  0.00000000000E+00 0. -1.
</event>
<event>
 7    1  0.1631716E-009  0.4778727E+02  0.7816164E-02  0.1312668E+00
        -11   -1    0    0    0    0  0.00000000000E+00  0.00000000000E+00  0.45593999997E+02  0.45594000000E+02  0.51100000000E-03 0.  1.
         11   -1    0    0    0    0 -0.00000000000E+00 -0.00000000000E+00 -0.45593999997E+02  0.45594000000E+02  0.51100000000E-03 0. -1.
    9900012    2    1    2    0    0 -0.19854963362E+02  0.31667151114E+02 -0.22058901471E+02  0.47787272311E+02  0.20000005776E+02 0.  0.
         12    1    1    2    0    0  0.19854963362E+02 -0.31667151114E+02  0.22058901471E+02  0.43400727689E+02  0.00000000000E+00 0. -1.
         11    1    3    3    0    0  0.23545639798E+01  0.93417284033E+01 -0.44372542754E+01  0.10606652953E+02  0.51100000000E-03 0. -1.
        -11    1    3    3    0    0 -0.83545255087E+01  0.12376512225E+02 -0.12200446733E+02  0.19282817535E+02  0.51100000000E-03 0.  1.
        -12    1    3    3    0    0 -0.13855001833E+02  0.99489104854E+01 -0.54212004628E+01  0.17897801823E+02  0.00000000000E+00 0.  1.
</event>
<event>
 7    1  0.1631716E-009  0.4778728E+02  0.7816164E-02  0.1312668E+00
        -11   -1    0    0    0    0  0.00000000000E+00  0.00000000000E+00  0.45593999997E+02  0.45594000000E+02  0.51100000000E-03 0.  1.
         11   -1    0    0    0    0 -0.00000000000E+00 -0.00000000000E+00 -0.45593999997E+02  0.45594000000E+02  0.51100000000E-03 0. -1.
    9900012    2    1    2    0    0 -0.33675892643E+02 -0.27349203469E+02 -0.12562425979E+01  0.47787276260E+02  0.20000023781E+02 0.  0.
         12    1    1    2    0    0  0.33675892643E+02  0.27349203469E+02  0.12562425979E+01  0.43400723740E+02  0.00000000000E+00 0. -1.
         11    1    3    3    0    0 -0.26139139079E+02 -0.16999206463E+02 -0.64661540910E+01  0.31843975273E+02  0.51100000000E-03 0. -1.
        -11    1    3    3    0    0 -0.76188062136E+01 -0.49403261823E+01  0.53348694316E+01  0.10531565079E+02  0.51100000000E-03 0.  1.
        -12    1    3    3    0    0  0.82052650088E-01 -0.54096708231E+01 -0.12495793850E+00  0.54117359080E+01  0.00000000000E+00 0.  1.
</event>
<event>
 7    1  0.1631716E-009  0.4778727E+02  0.7816164E-02  0.1312668E+00
        -11   -1    0    0    0    0  0.00000000000E+00  0.00000000000E+00  0.45593999997E+02  0.45594000000E+02  0.51100000000E-03 0. -1.
         11   -1    0    0    0    0 -0.00000000000E+00 -0.00000000000E+00 -0.45593999997E+02  0.45594000000E+02  0.51100000000E-03 0.  1.
    9900012    2    1    2    0    0  0.38858963713E+02  0.10493651791E+02 -0.16232292503E+02  0.47787272948E+02  0.20000008679E+02 0.  0.
         12    1    1    2    0    0 -0.38858963713E+02 -0.10493651791E+02  0.16232292503E+02  0.43400727052E+02  0.00000000000E+00 0. -1.
         11    1    3    3    0    0  0.12483366088E+02 -0.17248186483E+01 -0.82430386478E+01  0.15058456583E+02  0.51100000000E-03 0. -1.
        -11    1    3    3    0    0  0.79445979980E+01  0.13652569617E+01  0.30992443173E+01  0.86363116850E+01  0.51100000000E-03 0.  1.
        -12    1    3    3    0    0  0.18430999626E+02  0.10853213477E+02 -0.11088498172E+02  0.24092504680E+02  0.00000000000E+00 0.  1.
</event>
<event>
 7    1  0.1631716E-009  0.4778727E+02  0.7816164E-02  0.1312668E+00
        -11   -1    0    0    0    0  0.00000000000E+00  0.00000000000E+00  0.45593999997E+02  0.45594000000E+02  0.51100000000E-03 0.  1.
         11   -1    0    0    0    0 -0.00000000000E+00 -0.00000000000E+00 -0.45593999997E+02  0.45594000000E+02  0.51100000000E-03 0. -1.
    9900012    2    1    2    0    0  0.38520347567E+02 -0.14465580205E+02  0.13804099455E+02  0.47787270178E+02  0.19999996047E+02 0.  0.
         12    1    1    2    0    0 -0.38520347567E+02  0.14465580205E+02 -0.13804099455E+02  0.43400729822E+02  0.00000000000E+00 0. -1.
         11    1    3    3    0    0  0.11445735573E+02 -0.39491956754E+01 -0.13481926562E+01  0.12182718621E+02  0.51100000000E-03 0. -1.
        -11    1    3    3    0    0  0.16693224739E+02 -0.78237420385E+00  0.13083437159E+02  0.21223858974E+02  0.51100000000E-03 0.  1.
        -12    1    3    3    0    0  0.10381387255E+02 -0.97340103257E+01  0.20688549522E+01  0.14380692583E+02  0.00000000000E+00 0.  1.
</event>
<event>
 7    1  0.1631716E-009  0.4778728E+02  0.7816164E-02  0.1312668E+00
        -11   -1    0    0    0    0  0.00000000000E+00  0.00000000000E+00  0.45593999997E+02  0.45594000000E+02  0.51100000000E-03 0.  1.
         11   -1    0    0    0    0 -0.00000000000E+00 -0.00000000000E+00 -0.45593999997E+02  0.45594000000E+02  0.51100000000E-03 0. -1.
    9900012    2    1    2    0    0  0.28418013723E+01  0.29572114185E+02  0.31639170625E+02  0.47787275464E+02  0.20000020151E+02 0.  0.
         12    1    1    2    0    0 -0.28418013723E+01 -0.29572114185E+02 -0.31639170625E+02  0.43400724536E+02  0.00000000000E+00 0. -1.
         11    1    3    3    0    0  0.18532989854E+01 -0.17156489146E+01  0.33123520662E+01  0.41653144898E+01  0.51100000000E-03 0. -1.
        -11    1    3    3    0    0  0.43539673145E+01  0.60992088483E+01  0.42501631136E+01  0.86151765335E+01  0.51100000000E-03 0.  1.
        -12    1    3    3    0    0 -0.33654649276E+01  0.25188554251E+02  0.24076655446E+02  0.35006784441E+02  0.00000000000E+00 0.  1.
</event>
<event>
 7    1  0.1631716E-009  0.4778727E+02  0.7816164E-02  0.1312668E+00
        -11   -1    0    0    0    0  0.00000000000E+00  0.00000000000E+00  0.45593999997E+02  0.45594000000E+02  0.51100000000E-03 0.  1.
         11   -1    0    0    0    0 -0.00000000000E+00 -0.00000000000E+00 -0.45593999997E+02  0.45594000000E+02  0.51100000000E-03 0. -1.
    9900012    2    1    2    0    0  0.13154315360E+02 -0.32091007967E+02  0.26091268823E+02  0.47787272889E+02  0.20000008411E+02 0.  0.
         12    1    1    2    0    0 -0.13154315360E+02  0.32091007967E+02 -0.26091268823E+02  0.43400727111E+02  0.00000000000E+00 0. -1.
         11    1    3    3    0    0  0.62584069467E+01 -0.23809513396E+02  0.75423527812E+01  0.25747770222E+02  0.51100000000E-03 0. -1.
        -11    1    3    3    0    0  0.13010334550E+01 -0.55052939598E+01  0.87702536919E+01  0.10436393041E+02  0.51100000000E-03 0.  1.
         12    1    3    3    0    0  0.55948749588E+01 -0.27762006115E+01  0.97786623501E+01  0.11603109626E+02  0.00000000000E+00 0. -1.
</event>
<event>
 7    1  0.1631716E-009  0.4778727E+02  0.7816164E-02  0.1312668E+00
        -11   -1    0    0    0    0  0.00000000000E+00  0.00000000000E+00  0.45593999997E+02  0.45594000000E+02  0.51100000000E-03 0. -1.
         11   -1    0    0    0    0 -0.00000000000E+00 -0.00000000000E+00 -0.45593999997E+02  0.45594000000E+02  0.51100000000E-03 0.  1.
    9900012    2    1    2    0    0 -0.87862282779E+01 -0.69169343865E+01 -0.41935443609E+02  0.47787271673E+02  0.20000002864E+02 0.  0.
         12    1    1    2    0    0  0.87862282779E+01  0.69169343865E+01  0.41935443609E+02  0.43400728327E+02  0.00000000000E+00 0. -1.
         11    1    3    3    0    0  0.92872444688E+00 -0.44595982456E+01 -0.97010512770E+01  0.10717319709E+02  0.51100000000E-03 0. -1.
        -11    1    3    3    0    0 -0.32414732509E+01  0.62042934579E+01 -0.17029034663E+02  0.18411638384E+02  0.51100000000E-03 0.  1.
        -12    1    3    3    0    0 -0.64734794738E+01 -0.86616295989E+01 -0.15205357669E+02  0.18658313580E+02  0.00000000000E+00 0.  1.
</event>
<event>
 7    1  0.1631716E-009  0.4778728E+02  0.7816164E-02  0.1312668E+00
        -11   -1    0    0    0    0  0.00000000000E+00  0.00000000000E+00  0.45593999997E+02  0.45594000000E+02  0.51100000000E-03 0.  1.
         11   -1    0    0    0    0 -0.00000000000E+00 -0.00000000000E+00 -0.45593999997E+02  0.45594000000E+02  0.51100000000E-03 0. -1.
    9900012    2    1    2    0    0  0.36544709331E+02  0.20354128581E+02  0.11567899924E+02  0.47787278359E+02  0.20000033349E+02 0.  0.
         12    1    1    2    0    0 -0.36544709331E+02 -0.20354128581E+02 -0.11567899924E+02  0.43400721641E+02  0.00000000000E+00 0. -1.
         11    1    3    3    0    0  0.70211574294E+00  0.20347467716E+01 -0.27125356969E+01  0.34628039374E+01  0.51100000000E-03 0. -1.
        -11    1    3    3    0    0  0.11101861310E+02  0.23577281326E+01  0.88337517196E+01  0.14382120017E+02  0.51100000000E-03 0.  1.
         12    1    3    3    0    0  0.24740732278E+02  0.15961653677E+02  0.54466839009E+01  0.29942354404E+02  0.00000000000E+00 0. -1.
</event>
<event>
 7    1  0.1631716E-009  0.4778727E+02  0.7816164E-02  0.1312668E+00
        -11   -1    0    0    0    0  0.00000000000E+00  0.00000000000E+00  0.45593999997E+02  0.45594000000E+02  0.51100000000E-03 0.  1.
         11   -1    0    0    0    0 -0.00000000000E+00 -0.00000000000E+00 -0.45593999997E+02  0.45594000000E+02  0.51100000000E-03 0. -1.
    9900012    2    1    2    0    0 -0.10825113011E+02 -0.41217536542E+02  0.82191694521E+01  0.47787272624E+02  0.20000007200E+02 0.  0.
         12    1    1    2    0    0  0.10825113011E+02  0.41217536542E+02 -0.82191694521E+01  0.43400727376E+02  0.00000000000E+00 0. -1.
         11    1    3    3    0    0 -0.53831248634E+01 -0.35149319644E+01  0.43625141214E+01  0.77694471959E+01  0.51100000000E-03 0.  1.
        -11    1    3    3    0    0 -0.84467211620E+01 -0.33155492370E+02  0.45804915552E+01  0.34519772245E+02  0.51100000000E-03 0. -1.
         12    1    3    3    0    0  0.30047330148E+01 -0.45471122077E+01 -0.72383622453E+00  0.54980531826E+01  0.00000000000E+00 0. -1.
</event>
<event>
 7    1  0.1631716E-009  0.4778727E+02  0.7816164E-02  0.1312668E+00
        -11   -1    0    0    0    0  0.00000000000E+00  0.00000000000E+00  0.45593999997E+02  0.45594000000E+02  0.51100000000E-03 0.  1.
         11   -1    0    0    0    0 -0.00000000000E+00 -0.00000000000E+00 -0.45593999997E+02  0.45594000000E+02  0.51100000000E-03 0. -1.
    9900012    2    1    2    0    0  0.36367388988E+02 -0.46468295632E+01  0.23225915920E+02  0.47787272159E+02  0.20000005082E+02 0.  0.
         12    1    1    2    0    0 -0.36367388988E+02  0.46468295632E+01 -0.23225915920E+02  0.43400727841E+02  0.00000000000E+00 0. -1.
         11    1    3    3    0    0  0.14940180452E+02  0.51395302874E+01  0.49148395887E+01  0.16546280911E+02  0.51100000000E-03 0. -1.
        -11    1    3    3    0    0  0.21193951052E+01  0.28253240233E+00  0.56756713511E+01  0.60650561182E+01  0.51100000000E-03 0.  1.
        -12    1    3    3    0    0  0.19307813431E+02 -0.10068892253E+02  0.12635404980E+02  0.25175935130E+02  0.00000000000E+00 0.  1.
</event>
<event>
 7    1  0.1631716E-009  0.4778727E+02  0.7816164E-02  0.1312668E+00
        -11   -1    0    0    0    0  0.00000000000E+00  0.00000000000E+00  0.45593999997E+02  0.45594000000E+02  0.51100000000E-03 0.  1.
         11   -1    0    0    0    0 -0.00000000000E+00 -0.00000000000E+00 -0.45593999997E+02  0.45594000000E+02  0.51100000000E-03 0. -1.
    9900012    2    1    2    0    0  0.42202283535E+02 -0.94218697349E+01  0.37173369954E+01  0.47787274670E+02  0.20000016530E+02 0.  0.
         12    1    1    2    0    0 -0.42202283535E+02  0.94218697349E+01 -0.37173369954E+01  0.43400725330E+02  0.00000000000E+00 0. -1.
         11    1    3    3    0    0  0.30390700461E+02 -0.97288544310E+01  0.27470913249E+01  0.32027984546E+02  0.51100000000E-03 0.  1.
        -11    1    3    3    0    0  0.12357217899E+02  0.32134749702E+01  0.92511103610E+00  0.12801682947E+02  0.51100000000E-03 0. -1.
         12    1    3    3    0    0 -0.54563482577E+00 -0.29064902741E+01  0.45134634394E-01  0.29576071767E+01  0.00000000000E+00 0. -1.
</event>
<event>
 7    1  0.1631716E-009  0.4778728E+02  0.7816164E-02  0.1312668E+00
        -11   -1    0    0    0    0  0.00000000000E+00  0.00000000000E+00  0.45593999997E+02  0.45594000000E+02  0.51100000000E-03 0.  1.
         11   -1    0    0    0    0 -0.00000000000E+00 -0.00000000000E+00 -0.45593999997E+02  0.45594000000E+02  0.51100000000E-03 0. -1.
    9900012    2    1    2    0    0 -0.40816210947E+01 -0.25493013771E+02  0.34886523449E+02  0.47787275349E+02  0.20000019627E+02 0.  0.
         12    1    1    2    0    0  0.40816210947E+01  0.25493013771E+02 -0.34886523449E+02  0.43400724651E+02  0.00000000000E+00 0. -1.
         11    1    3    3    0    0 -0.33214131762E+01 -0.38075560983E+01 -0.12707243201E+01  0.52099913135E+01  0.51100000000E-03 0. -1.
        -11    1    3    3    0    0  0.23952157694E+01 -0.62691068800E+01  0.11933012559E+02  0.13690710305E+02  0.51100000000E-03 0.  1.
        -12    1    3    3    0    0 -0.31554236879E+01 -0.15416350792E+02  0.24224235210E+02  0.28886573731E+02  0.00000000000E+00 0.  1.
</event>
<event>
 7    1  0.1631716E-009  0.4778728E+02  0.7816164E-02  0.1312668E+00
        -11   -1    0    0    0    0  0.00000000000E+00  0.00000000000E+00  0.45593999997E+02  0.45594000000E+02  0.51100000000E-03 0. -1.
         11   -1    0    0    0    0 -0.00000000000E+00 -0.00000000000E+00 -0.45593999997E+02  0.45594000000E+02  0.51100000000E-03 0.  1.
    9900012    2    1    2    0    0  0.30386275040E+02 -0.27659301572E+02  0.13973540472E+02  0.47787279873E+02  0.20000040252E+02 0.  0.
         12    1    1    2    0    0 -0.30386275040E+02  0.27659301572E+02 -0.13973540472E+02  0.43400720127E+02  0.00000000000E+00 0. -1.
         11    1    3    3    0    0  0.49382129794E+00 -0.39626908861E+01 -0.85410079367E+00  0.40836585264E+01  0.51100000000E-03 0. -1.
        -11    1    3    3    0    0 -0.91294901098E+00 -0.27947435963E+01  0.39418098148E+01  0.49175128411E+01  0.51100000000E-03 0.  1.
        -12    1    3    3    0    0  0.30805402753E+02 -0.20901867089E+02  0.10885831451E+02  0.38786108505E+02  0.00000000000E+00 0.  1.
</event>
<event>
 7    1  0.1631716E-009  0.4778728E+02  0.7816164E-02  0.1312668E+00
        -11   -1    0    0    0    0  0.00000000000E+00  0.00000000000E+00  0.45593999997E+02  0.45594000000E+02  0.51100000000E-03 0.  1.
         11   -1    0    0    0    0 -0.00000000000E+00 -0.00000000000E+00 -0.45593999997E+02  0.45594000000E+02  0.51100000000E-03 0. -1.
    9900012    2    1    2    0    0  0.41227443765E+02  0.72348101244E+01  0.11470755090E+02  0.47787276282E+02  0.20000023879E+02 0.  0.
         12    1    1    2    0    0 -0.41227443765E+02 -0.72348101244E+01 -0.11470755090E+02  0.43400723718E+02  0.00000000000E+00 0. -1.
         11    1    3    3    0    0  0.37522071729E+02  0.12469257266E+02  0.10822410029E+02  0.40994058139E+02  0.51100000000E-03 0. -1.
        -11    1    3    3    0    0  0.28527587240E+01 -0.22003673581E+01  0.50904143030E+00  0.36385398564E+01  0.51100000000E-03 0.  1.
         12    1    3    3    0    0  0.85261331218E+00 -0.30340797832E+01  0.13930363101E+00  0.31546782867E+01  0.00000000000E+00 0. -1.
</event>
<event>
 7    1  0.1631716E-009  0.4778727E+02  0.7816164E-02  0.1312668E+00
        -11   -1    0    0    0    0  0.00000000000E+00  0.00000000000E+00  0.45593999997E+02  0.45594000000E+02  0.51100000000E-03 0.  1.
         11   -1    0    0    0    0 -0.00000000000E+00 -0.00000000000E+00 -0.45593999997E+02  0.45594000000E+02  0.51100000000E-03 0. -1.
    9900012    2    1    2    0    0 -0.29482181722E+02 -0.18282524470E+02  0.26080133840E+02  0.47787272803E+02  0.20000008019E+02 0.  0.
         12    1    1    2    0    0  0.29482181722E+02  0.18282524470E+02 -0.26080133840E+02  0.43400727197E+02  0.00000000000E+00 0. -1.
         11    1    3    3    0    0 -0.67609999156E+01  0.23752348407E+01  0.28959520030E+01  0.77291266435E+01  0.51100000000E-03 0. -1.
        -11    1    3    3    0    0 -0.64510151150E+01 -0.90096519050E+01  0.26639997144E+01  0.11396767884E+02  0.51100000000E-03 0.  1.
        -12    1    3    3    0    0 -0.16270166692E+02 -0.11648107405E+02  0.20520182123E+02  0.28661378276E+02  0.00000000000E+00 0.  1.
</event>
<event>
 7    1  0.1631716E-009  0.4778727E+02  0.7816164E-02  0.1312668E+00
        -11   -1    0    0    0    0  0.00000000000E+00  0.00000000000E+00  0.45593999997E+02  0.45594000000E+02  0.51100000000E-03 0.  1.
         11   -1    0    0    0    0 -0.00000000000E+00 -0.00000000000E+00 -0.45593999997E+02  0.45594000000E+02  0.51100000000E-03 0. -1.
    9900012    2    1    2    0    0 -0.36084807689E+02  0.22906220019E+02 -0.75375576016E+01  0.47787273783E+02  0.20000012488E+02 0.  0.
         12    1    1    2    0    0  0.36084807689E+02 -0.22906220019E+02  0.75375576016E+01  0.43400726217E+02  0.00000000000E+00 0. -1.
         11    1    3    3    0    0  0.17985049684E+00  0.36762395172E+01 -0.42449742040E+01  0.56184419052E+01  0.51100000000E-03 0. -1.
        -11    1    3    3    0    0 -0.12575879245E+02  0.22205216464E+01  0.37635472240E+00  0.12775957823E+02  0.51100000000E-03 0.  1.
        -12    1    3    3    0    0 -0.23688778942E+02  0.17009458855E+02 -0.36689381200E+01  0.29392874055E+02  0.00000000000E+00 0.  1.
</event>
<event>
 7    1  0.1631716E-009  0.4778728E+02  0.7816164E-02  0.1312668E+00
        -11   -1    0    0    0    0  0.00000000000E+00  0.00000000000E+00  0.45593999997E+02  0.45594000000E+02  0.51100000000E-03 0. -1.
         11   -1    0    0    0    0 -0.00000000000E+00 -0.00000000000E+00 -0.45593999997E+02  0.45594000000E+02  0.51100000000E-03 0.  1.
    9900012    2    1    2    0    0 -0.43305299189E+02  0.23432986813E+01 -0.16681870652E+01  0.47787276104E+02  0.20000023071E+02 0.  0.
         12    1    1    2    0    0  0.43305299189E+02 -0.23432986813E+01  0.16681870652E+01  0.43400723896E+02  0.00000000000E+00 0. -1.
         11    1    3    3    0    0 -0.26771237639E+01  0.26876016043E+01 -0.69638132352E+00  0.38568304655E+01  0.51100000000E-03 0. -1.
        -11    1    3    3    0    0 -0.38052756231E+02 -0.38721704093E+01  0.25289507742E+01  0.38332773872E+02  0.51100000000E-03 0.  1.
        -12    1    3    3    0    0 -0.25754191943E+01  0.35278674863E+01 -0.35007565158E+01  0.55976717669E+01  0.00000000000E+00 0.  1.
</event>
<event>
 7    1  0.1631716E-009  0.4778727E+02  0.7816164E-02  0.1312668E+00
        -11   -1    0    0    0    0  0.00000000000E+00  0.00000000000E+00  0.45593999997E+02  0.45594000000E+02  0.51100000000E-03 0.  1.
         11   -1    0    0    0    0 -0.00000000000E+00 -0.00000000000E+00 -0.45593999997E+02  0.45594000000E+02  0.51100000000E-03 0. -1.
    9900012    2    1    2    0    0 -0.42560868688E+02  0.35525930244E+01  0.77184742337E+01  0.47787270684E+02  0.19999998357E+02 0.  0.
         12    1    1    2    0    0  0.42560868688E+02 -0.35525930244E+01 -0.77184742337E+01  0.43400729316E+02  0.00000000000E+00 0. -1.
         11    1    3    3    0    0 -0.75317643451E+01  0.18723753282E+01 -0.59944338710E+01  0.98064520197E+01  0.51100000000E-03 0. -1.
        -11    1    3    3    0    0 -0.67948118799E+01 -0.50476873877E+00  0.46430109357E+01  0.82451082936E+01  0.51100000000E-03 0.  1.
         12    1    3    3    0    0 -0.28234292463E+02  0.21849864350E+01  0.90698971690E+01  0.29735710371E+02  0.00000000000E+00 0. -1.
</event>
<event>
 7    1  0.1631716E-009  0.4778727E+02  0.7816164E-02  0.1312668E+00
        -11   -1    0    0    0    0  0.00000000000E+00  0.00000000000E+00  0.45593999997E+02  0.45594000000E+02  0.51100000000E-03 0.  1.
         11   -1    0    0    0    0 -0.00000000000E+00 -0.00000000000E+00 -0.45593999997E+02  0.45594000000E+02  0.51100000000E-03 0. -1.
    9900012    2    1    2    0    0  0.37618558749E+02  0.40263712245E+01  0.21266308443E+02  0.47787268413E+02  0.19999988000E+02 0.  0.
         12    1    1    2    0    0 -0.37618558749E+02 -0.40263712245E+01 -0.21266308443E+02  0.43400731587E+02  0.00000000000E+00 0. -1.
         11    1    3    3    0    0  0.31391496297E+01 -0.30305379412E+01 -0.23769662084E+01  0.49687412116E+01  0.51100000000E-03 0. -1.
        -11    1    3    3    0    0  0.10135167892E+02  0.14589580499E+00  0.91538084347E+01  0.13657786165E+02  0.51100000000E-03 0.  1.
         12    1    3    3    0    0  0.24344241226E+02  0.69110133607E+01  0.14489466216E+02  0.29160741036E+02  0.00000000000E+00 0. -1.
</event>
<event>
 7    1  0.1631716E-009  0.4778727E+02  0.7816164E-02  0.1312668E+00
        -11   -1    0    0    0    0  0.00000000000E+00  0.00000000000E+00  0.45593999997E+02  0.45594000000E+02  0.51100000000E-03 0.  1.
         11   -1    0    0    0    0 -0.00000000000E+00 -0.00000000000E+00 -0.45593999997E+02  0.45594000000E+02  0.51100000000E-03 0. -1.
    9900012    2    1    2    0    0  0.25185792127E+02 -0.28468043938E+02  0.20949217831E+02  0.47787269840E+02  0.19999994507E+02 0.  0.
         12    1    1    2    0    0 -0.25185792127E+02  0.28468043938E+02 -0.20949217831E+02  0.43400730160E+02  0.00000000000E+00 0. -1.
         11    1    3    3    0    0  0.19808159690E+02 -0.21660053494E+02  0.20111562534E+02  0.35580838319E+02  0.51100000000E-03 0.  1.
        -11    1    3    3    0    0  0.27831402564E+00  0.12504915135E+01  0.22272074151E+01  0.25693658465E+01  0.51100000000E-03 0. -1.
        -12    1    3    3    0    0  0.50993184109E+01 -0.80584819574E+01 -0.13895521178E+01  0.96370656738E+01  0.00000000000E+00 0.  1.
</event>
<event>
 7    1  0.1631716E-009  0.4778727E+02  0.7816164E-02  0.1312668E+00
        -11   -1    0    0    0    0  0.00000000000E+00  0.00000000000E+00  0.45593999997E+02  0.45594000000E+02  0.51100000000E-03 0.  1.
         11   -1    0    0    0    0 -0.00000000000E+00 -0.00000000000E+00 -0.45593999997E+02  0.45594000000E+02  0.51100000000E-03 0. -1.
    9900012    2    1    2    0    0 -0.69275372175E+01 -0.23945770767E+01  0.42777315761E+02  0.47787268266E+02  0.19999987333E+02 0.  0.
         12    1    1    2    0    0  0.69275372175E+01  0.23945770767E+01 -0.42777315761E+02  0.43400731734E+02  0.00000000000E+00 0. -1.
         11    1    3    3    0    0  0.40517964543E+01  0.85857453469E+00  0.67978956789E+01  0.79602506657E+01  0.51100000000E-03 0. -1.
        -11    1    3    3    0    0 -0.71816035273E+01 -0.71327899620E+01  0.30405830575E+02  0.32046320461E+02  0.51100000000E-03 0.  1.
         12    1    3    3    0    0 -0.37977301445E+01  0.38796383506E+01  0.55735895074E+01  0.77806971396E+01  0.00000000000E+00 0. -1.
</event>
<event>
 7    1  0.1631716E-009  0.4778726E+02  0.7816164E-02  0.1312668E+00
        -11   -1    0    0    0    0  0.00000000000E+00  0.00000000000E+00  0.45593999997E+02  0.45594000000E+02  0.51100000000E-03 0.  1.
         11   -1    0    0    0    0 -0.00000000000E+00 -0.00000000000E+00 -0.45593999997E+02  0.45594000000E+02  0.51100000000E-03 0. -1.
    9900012    2    1    2    0    0 -0.28737105750E+02 -0.18319427969E+02  0.26873800138E+02  0.47787264731E+02  0.19999971215E+02 0.  0.
         12    1    1    2    0    0  0.28737105750E+02  0.18319427969E+02 -0.26873800138E+02  0.43400735269E+02  0.00000000000E+00 0. -1.
         11    1    3    3    0    0 -0.15861916494E+02 -0.10585551498E+02  0.15572766242E+02  0.24620425343E+02  0.51100000000E-03 0. -1.
        -11    1    3    3    0    0 -0.45105039982E+01  0.25996201947E+01  0.78707914358E+01  0.94367382904E+01  0.51100000000E-03 0.  1.
         12    1    3    3    0    0 -0.83646852579E+01 -0.10333496666E+02  0.34302424604E+01  0.13730101098E+02  0.00000000000E+00 0. -1.
</event>
<event>
 7    1  0.1631716E-009  0.4778728E+02  0.7816164E-02  0.1312668E+00
        -11   -1    0    0    0    0  0.00000000000E+00  0.00000000000E+00  0.45593999997E+02  0.45594000000E+02  0.51100000000E-03 0.  1.
         11   -1    0    0    0    0 -0.00000000000E+00 -0.00000000000E+00 -0.45593999997E+02  0.45594000000E+02  0.51100000000E-03 0. -1.
    9900012    2    1    2    0    0  0.17615968182E+02 -0.11446575572E+02  0.37977314891E+02  0.47787275655E+02  0.20000021022E+02 0.  0.
         12    1    1    2    0    0 -0.17615968182E+02  0.11446575572E+02 -0.37977314891E+02  0.43400724345E+02  0.00000000000E+00 0. -1.
         11    1    3    3    0    0  0.58081842436E+01 -0.72554229739E+01  0.42632619103E+01  0.10225046167E+02  0.51100000000E-03 0. -1.
        -11    1    3    3    0    0  0.64456270826E+01 -0.68296770224E+01  0.13229663485E+02  0.16223889574E+02  0.51100000000E-03 0.  1.
        -12    1    3    3    0    0  0.53621568556E+01  0.26385244244E+01  0.20484389496E+02  0.21338339915E+02  0.00000000000E+00 0.  1.
</event>
<event>
 7    1  0.1631716E-009  0.4778727E+02  0.7816164E-02  0.1312668E+00
        -11   -1    0    0    0    0  0.00000000000E+00  0.00000000000E+00  0.45593999997E+02  0.45594000000E+02  0.51100000000E-03 0. -1.
         11   -1    0    0    0    0 -0.00000000000E+00 -0.00000000000E+00 -0.45593999997E+02  0.45594000000E+02  0.51100000000E-03 0.  1.
    9900012    2    1    2    0    0 -0.16308033662E+02 -0.39949654906E+02  0.46579337396E+01  0.47787271483E+02  0.20000002001E+02 0.  0.
         12    1    1    2    0    0  0.16308033662E+02  0.39949654906E+02 -0.46579337396E+01  0.43400728517E+02  0.00000000000E+00 0. -1.
         11    1    3    3    0    0 -0.26427338503E+00 -0.15194094114E+02 -0.83888674581E+00  0.15219529152E+02  0.51100000000E-03 0. -1.
        -11    1    3    3    0    0 -0.12171103813E+02 -0.17265808464E+02 -0.20868156360E+01  0.21227310468E+02  0.51100000000E-03 0.  1.
        -12    1    3    3    0    0 -0.38726564643E+01 -0.74897523275E+01  0.75836361214E+01  0.11340431863E+02  0.00000000000E+00 0.  1.
</event>
<event>
 7    1  0.1631716E-009  0.4778727E+02  0.7816164E-02  0.1312668E+00
        -11   -1    0    0    0    0  0.00000000000E+00  0.00000000000E+00  0.45593999997E+02  0.45594000000E+02  0.51100000000E-03 0.  1.
         11   -1    0    0    0    0 -0.00000000000E+00 -0.00000000000E+00 -0.45593999997E+02  0.45594000000E+02  0.51100000000E-03 0. -1.
    9900012    2    1    2    0    0 -0.28613764634E+02 -0.15415772257E+02  0.28761601428E+02  0.47787271003E+02  0.19999999810E+02 0.  0.
         12    1    1    2    0    0  0.28613764634E+02  0.15415772257E+02 -0.28761601428E+02  0.43400728997E+02  0.00000000000E+00 0. -1.
         11    1    3    3    0    0 -0.78861468732E+00 -0.25446932713E+01  0.47206898065E+00  0.27055916827E+01  0.51100000000E-03 0. -1.
        -11    1    3    3    0    0 -0.27889862241E+02 -0.74768625387E+01  0.27007720947E+02  0.39536880002E+02  0.51100000000E-03 0.  1.
        -12    1    3    3    0    0  0.64712294424E-01 -0.53942164472E+01  0.12818114999E+01  0.55447993184E+01  0.00000000000E+00 0.  1.
</event>
<event>
 7    1  0.1631716E-009  0.4778727E+02  0.7816164E-02  0.1312668E+00
        -11   -1    0    0    0    0  0.00000000000E+00  0.00000000000E+00  0.45593999997E+02  0.45594000000E+02  0.51100000000E-03 0.  1.
         11   -1    0    0    0    0 -0.00000000000E+00 -0.00000000000E+00 -0.45593999997E+02  0.45594000000E+02  0.51100000000E-03 0. -1.
    9900012    2    1    2    0    0  0.32776503580E+01  0.19827297909E+01  0.43231342474E+02  0.47787272110E+02  0.20000004857E+02 0.  0.
         12    1    1    2    0    0 -0.32776503580E+01 -0.19827297909E+01 -0.43231342474E+02  0.43400727890E+02  0.00000000000E+00 0. -1.
         11    1    3    3    0    0 -0.97539932814E+00  0.18221490599E+01  0.32959422583E+00  0.20929079437E+01  0.51100000000E-03 0. -1.
        -11    1    3    3    0    0  0.38918238643E+01 -0.27055518906E+00  0.13342655986E+01  0.41230762847E+01  0.51100000000E-03 0.  1.
        -12    1    3    3    0    0  0.36122582182E+00  0.43113592001E+00  0.41567482650E+02  0.41571287881E+02  0.00000000000E+00 0.  1.
</event>
<event>
 7    1  0.1631716E-009  0.4778727E+02  0.7816164E-02  0.1312668E+00
        -11   -1    0    0    0    0  0.00000000000E+00  0.00000000000E+00  0.45593999997E+02  0.45594000000E+02  0.51100000000E-03 0.  1.
         11   -1    0    0    0    0 -0.00000000000E+00 -0.00000000000E+00 -0.45593999997E+02  0.45594000000E+02  0.51100000000E-03 0. -1.
    9900012    2    1    2    0    0 -0.31623110009E+02  0.27105947208E+02  0.12201226293E+02  0.47787269778E+02  0.19999994227E+02 0.  0.
         12    1    1    2    0    0  0.31623110009E+02 -0.27105947208E+02 -0.12201226293E+02  0.43400730222E+02  0.00000000000E+00 0. -1.
         11    1    3    3    0    0 -0.93756076386E+01  0.61197157401E+01 -0.39534029527E+01  0.11873598212E+02  0.51100000000E-03 0. -1.
        -11    1    3    3    0    0 -0.11318458846E+02  0.44390640379E+01  0.48685941814E+01  0.13096412095E+02  0.51100000000E-03 0.  1.
         12    1    3    3    0    0 -0.10929043524E+02  0.16547167430E+02  0.11286035064E+02  0.22817259472E+02  0.00000000000E+00 0. -1.
</event>
<event>
 7    1  0.1631716E-009  0.4778727E+02  0.7816164E-02  0.1312668E+00
        -11   -1    0    0    0    0  0.00000000000E+00  0.00000000000E+00  0.45593999997E+02  0.45594000000E+02  0.51100000000E-03 0.  1.
         11   -1    0    0    0    0 -0.00000000000E+00 -0.00000000000E+00 -0.45593999997E+02  0.45594000000E+02  0.51100000000E-03 0. -1.
    9900012    2    1    2    0    0  0.15547541418E+02  0.89241102788E+01  0.39525406163E+02  0.47787268200E+02  0.19999987032E+02 0.  0.
         12    1    1    2    0    0 -0.15547541418E+02 -0.89241102788E+01 -0.39525406163E+02  0.43400731800E+02  0.00000000000E+00 0. -1.
         11    1    3    3    0    0  0.29014707634E+01 -0.38492212289E+01  0.10796756802E+02  0.11823916202E+02  0.51100000000E-03 0. -1.
        -11    1    3    3    0    0  0.32094655162E+01 -0.24286516588E+00  0.21030906575E+00  0.32255050074E+01  0.51100000000E-03 0.  1.
        -12    1    3    3    0    0  0.94366051388E+01  0.13016196674E+02  0.28518340295E+02  0.32737846991E+02  0.00000000000E+00 0.  1.
</event>
<event>
 7    1  0.1631716E-009  0.4778727E+02  0.7816164E-02  0.1312668E+00
        -11   -1    0    0    0    0  0.00000000000E+00  0.00000000000E+00  0.45593999997E+02  0.45594000000E+02  0.51100000000E-03 0.  1.
         11   -1    0    0    0    0 -0.00000000000E+00 -0.00000000000E+00 -0.45593999997E+02  0.45594000000E+02  0.51100000000E-03 0. -1.
    9900012    2    1    2    0    0  0.19424177105E+01 -0.16934977579E+02  0.39913121866E+02  0.47787265568E+02  0.19999975032E+02 0.  0.
         12    1    1    2    0    0 -0.19424177105E+01  0.16934977579E+02 -0.39913121866E+02  0.43400734432E+02  0.00000000000E+00 0. -1.
         11    1    3    3    0    0  0.39780227743E+01 -0.34831941697E+01  0.52393809262E+01  0.74436831991E+01  0.51100000000E-03 0.  1.
        -11    1    3    3    0    0 -0.79046326469E+01 -0.10511791569E+02  0.28238377243E+02  0.31151034153E+02  0.51100000000E-03 0. -1.
         12    1    3    3    0    0  0.58690275830E+01 -0.29399918402E+01  0.64353636968E+01  0.91925482159E+01  0.00000000000E+00 0. -1.
</event>
<event>
 7    1  0.1631716E-009  0.4778727E+02  0.7816164E-02  0.1312668E+00
        -11   -1    0    0    0    0  0.00000000000E+00  0.00000000000E+00  0.45593999997E+02  0.45594000000E+02  0.51100000000E-03 0.  1.
         11   -1    0    0    0    0 -0.00000000000E+00 -0.00000000000E+00 -0.45593999997E+02  0.45594000000E+02  0.51100000000E-03 0. -1.
    9900012    2    1    2    0    0  0.37823841951E+02 -0.17169089048E+02  0.12577852966E+02  0.47787273924E+02  0.20000013130E+02 0.  0.
         12    1    1    2    0    0 -0.37823841951E+02  0.17169089048E+02 -0.12577852966E+02  0.43400726076E+02  0.00000000000E+00 0. -1.
         11    1    3    3    0    0  0.10776849378E+02  0.11957570820E+01 -0.10290447586E+01  0.10891705601E+02  0.51100000000E-03 0. -1.
        -11    1    3    3    0    0  0.11052265968E+02 -0.49695075092E+01  0.10024875745E+02  0.15727260470E+02  0.51100000000E-03 0.  1.
         12    1    3    3    0    0  0.15994726605E+02 -0.13395338621E+02  0.35820219793E+01  0.21168307854E+02  0.00000000000E+00 0. -1.
</event>
<event>
 7    1  0.1631716E-009  0.4778727E+02  0.7816164E-02  0.1312668E+00
        -11   -1    0    0    0    0  0.00000000000E+00  0.00000000000E+00  0.45593999997E+02  0.45594000000E+02  0.51100000000E-03 0.  1.
         11   -1    0    0    0    0 -0.00000000000E+00 -0.00000000000E+00 -0.45593999997E+02  0.45594000000E+02  0.51100000000E-03 0. -1.
    9900012    2    1    2    0    0 -0.35495311003E+02 -0.21173605136E+02  0.13243293434E+02  0.47787268686E+02  0.19999989245E+02 0.  0.
         12    1    1    2    0    0  0.35495311003E+02  0.21173605136E+02 -0.13243293434E+02  0.43400731314E+02  0.00000000000E+00 0. -1.
         11    1    3    3    0    0 -0.14391879222E+02 -0.11616398790E+02  0.97365851502E+01  0.20901387490E+02  0.51100000000E-03 0. -1.
        -11    1    3    3    0    0 -0.13714643981E+02 -0.16606643856E+00  0.54889445093E+01  0.14773203772E+02  0.51100000000E-03 0.  1.
         12    1    3    3    0    0 -0.73887878002E+01 -0.93911399074E+01 -0.19822362251E+01  0.12112677424E+02  0.00000000000E+00 0. -1.
</event>
<event>
 7    1  0.1631716E-009  0.4778727E+02  0.7816164E-02  0.1312668E+00
        -11   -1    0    0    0    0  0.00000000000E+00  0.00000000000E+00  0.45593999997E+02  0.45594000000E+02  0.51100000000E-03 0. -1.
         11   -1    0    0    0    0 -0.00000000000E+00 -0.00000000000E+00 -0.45593999997E+02  0.45594000000E+02  0.51100000000E-03 0.  1.
    9900012    2    1    2    0    0  0.14252617058E+02 -0.40965295769E+02 -0.15266242777E+01  0.47787272678E+02  0.20000007446E+02 0.  0.
         12    1    1    2    0    0 -0.14252617058E+02  0.40965295769E+02  0.15266242777E+01  0.43400727322E+02  0.00000000000E+00 0. -1.
         11    1    3    3    0    0  0.18062654090E+01 -0.19053756739E+01 -0.55898445014E+01  0.61757115378E+01  0.51100000000E-03 0. -1.
        -11    1    3    3    0    0  0.37166266224E+01 -0.11377384118E+02  0.38878263322E+01  0.12584648453E+02  0.51100000000E-03 0.  1.
        -12    1    3    3    0    0  0.87297250266E+01 -0.27682535977E+02  0.17539389161E+00  0.29026912687E+02  0.00000000000E+00 0.  1.
</event>
<event>
 7    1  0.1631716E-009  0.4778727E+02  0.7816164E-02  0.1312668E+00
        -11   -1    0    0    0    0  0.00000000000E+00  0.00000000000E+00  0.45593999997E+02  0.45594000000E+02  0.51100000000E-03 0.  1.
         11   -1    0    0    0    0 -0.00000000000E+00 -0.00000000000E+00 -0.45593999997E+02  0.45594000000E+02  0.51100000000E-03 0. -1.
    9900012    2    1    2    0    0  0.18226146125E+01  0.41700257524E+02  0.11890749814E+02  0.47787270366E+02  0.19999996909E+02 0.  0.
         12    1    1    2    0    0 -0.18226146125E+01 -0.41700257524E+02 -0.11890749814E+02  0.43400729634E+02  0.00000000000E+00 0. -1.
         11    1    3    3    0    0 -0.44298828926E+01  0.16617380652E+02  0.30415114641E+01  0.17464592592E+02  0.51100000000E-03 0.  1.
        -11    1    3    3    0    0  0.64788211469E+01  0.21093964688E+02  0.16988664042E+01  0.22131801034E+02  0.51100000000E-03 0. -1.
         12    1    3    3    0    0 -0.22632364185E+00  0.39889121841E+01  0.71503719457E+01  0.81908767397E+01  0.00000000000E+00 0. -1.
</event>
<event>
 7    1  0.1631716E-009  0.4778727E+02  0.7816164E-02  0.1312668E+00
        -11   -1    0    0    0    0  0.00000000000E+00  0.00000000000E+00  0.45593999997E+02  0.45594000000E+02  0.51100000000E-03 0.  1.
         11   -1    0    0    0    0 -0.00000000000E+00 -0.00000000000E+00 -0.45593999997E+02  0.45594000000E+02  0.51100000000E-03 0. -1.
    9900012    2    1    2    0    0  0.21907186237E+02 -0.16978614449E+02  0.33397978733E+02  0.47787272576E+02  0.20000006985E+02 0.  0.
         12    1    1    2    0    0 -0.21907186237E+02  0.16978614449E+02 -0.33397978733E+02  0.43400727424E+02  0.00000000000E+00 0. -1.
         11    1    3    3    0    0  0.13686083275E+01 -0.61524852058E+01  0.67588193035E+01  0.92416341412E+01  0.51100000000E-03 0. -1.
        -11    1    3    3    0    0  0.79363349409E+01  0.33940568768E+01  0.61257718857E+01  0.10584427988E+02  0.51100000000E-03 0.  1.
        -12    1    3    3    0    0  0.12602242969E+02 -0.14220186120E+02  0.20513387544E+02  0.27961210447E+02  0.00000000000E+00 0.  1.
</event>
<event>
 7    1  0.1631716E-009  0.4778727E+02  0.7816164E-02  0.1312668E+00
        -11   -1    0    0    0    0  0.00000000000E+00  0.00000000000E+00  0.45593999997E+02  0.45594000000E+02  0.51100000000E-03 0.  1.
         11   -1    0    0    0    0 -0.00000000000E+00 -0.00000000000E+00 -0.45593999997E+02  0.45594000000E+02  0.51100000000E-03 0. -1.
    9900012    2    1    2    0    0  0.73685041199E+00  0.31650819712E+02  0.29686796913E+02  0.47787271344E+02  0.20000001365E+02 0.  0.
         12    1    1    2    0    0 -0.73685041199E+00 -0.31650819712E+02 -0.29686796913E+02  0.43400728656E+02  0.00000000000E+00 0. -1.
         11    1    3    3    0    0 -0.57402298919E+01  0.17796440668E+01  0.60237878659E+01  0.85090183177E+01  0.51100000000E-03 0. -1.
        -11    1    3    3    0    0  0.21001058143E+01  0.13235938971E+02  0.14662909484E+02  0.19864577510E+02  0.51100000000E-03 0.  1.
         12    1    3    3    0    0  0.43769744896E+01  0.16635236674E+02  0.90000995633E+01  0.19413675516E+02  0.00000000000E+00 0. -1.
</event>
<event>
 7    1  0.1631716E-009  0.4778727E+02  0.7816164E-02  0.1312668E+00
        -11   -1    0    0    0    0  0.00000000000E+00  0.00000000000E+00  0.45593999997E+02  0.45594000000E+02  0.51100000000E-03 0.  1.
         11   -1    0    0    0    0 -0.00000000000E+00 -0.00000000000E+00 -0.45593999997E+02  0.45594000000E+02  0.51100000000E-03 0. -1.
    9900012    2    1    2    0    0 -0.19743163901E+02 -0.12474936760E+02  0.36581506030E+02  0.47787272455E+02  0.20000006433E+02 0.  0.
         12    1    1    2    0    0  0.19743163901E+02  0.12474936760E+02 -0.36581506030E+02  0.43400727545E+02  0.00000000000E+00 0. -1.
         11    1    3    3    0    0 -0.38240285666E+01 -0.10291862738E+02  0.10979115170E+02  0.15526963749E+02  0.51100000000E-03 0. -1.
        -11    1    3    3    0    0 -0.26799684476E+01  0.28464065353E+01  0.12774072934E+01  0.41129102469E+01  0.51100000000E-03 0.  1.
        -12    1    3    3    0    0 -0.13239166887E+02 -0.50294805583E+01  0.24324983566E+02  0.28147398459E+02  0.00000000000E+00 0.  1.
</event>
<event>
 7    1  0.1631716E-009  0.4778727E+02  0.7816164E-02  0.1312668E+00
        -11   -1    0    0    0    0  0.00000000000E+00  0.00000000000E+00  0.45593999997E+02  0.45594000000E+02  0.51100000000E-03 0.  1.
         11   -1    0    0    0    0 -0.00000000000E+00 -0.00000000000E+00 -0.45593999997E+02  0.45594000000E+02  0.51100000000E-03 0. -1.
    9900012    2    1    2    0    0  0.64781060676E+01 -0.37617419402E+01  0.42749350154E+02  0.47787268448E+02  0.19999988163E+02 0.  0.
         12    1    1    2    0    0 -0.64781060676E+01  0.37617419402E+01 -0.42749350154E+02  0.43400731552E+02  0.00000000000E+00 0. -1.
         11    1    3    3    0    0 -0.15083224700E+00  0.37290198966E+00 -0.50766424685E-01  0.40544266132E+00  0.51100000000E-03 0. -1.
        -11    1    3    3    0    0  0.98057703468E+01 -0.23800025481E-01  0.94118894122E+01  0.13591812282E+02  0.51100000000E-03 0.  1.
        -12    1    3    3    0    0 -0.31768320322E+01 -0.41108439044E+01  0.33388227166E+02  0.33790013505E+02  0.00000000000E+00 0.  1.
</event>
<event>
 7    1  0.1631716E-009  0.4778727E+02  0.7816164E-02  0.1312668E+00
        -11   -1    0    0    0    0  0.00000000000E+00  0.00000000000E+00  0.45593999997E+02  0.45594000000E+02  0.51100000000E-03 0. -1.
         11   -1    0    0    0    0 -0.00000000000E+00 -0.00000000000E+00 -0.45593999997E+02  0.45594000000E+02  0.51100000000E-03 0.  1.
    9900012    2    1    2    0    0  0.22263468271E+02  0.29805008255E+02 -0.22352238709E+02  0.47787272912E+02  0.20000008513E+02 0.  0.
         12    1    1    2    0    0 -0.22263468271E+02 -0.29805008255E+02  0.22352238709E+02  0.43400727088E+02  0.00000000000E+00 0. -1.
         11    1    3    3    0    0  0.94241326200E+00 -0.64081309167E+00 -0.27761174453E+01  0.30009352719E+01  0.51100000000E-03 0. -1.
        -11    1    3    3    0    0  0.19880606532E+02  0.22430615131E+02 -0.87204964129E+01  0.31215670251E+02  0.51100000000E-03 0.  1.
         12    1    3    3    0    0  0.14404484768E+01  0.80152062153E+01 -0.10855624851E+02  0.13570667389E+02  0.00000000000E+00 0. -1.
</event>
<event>
 7    1  0.1631716E-009  0.4778727E+02  0.7816164E-02  0.1312668E+00
        -11   -1    0    0    0    0  0.00000000000E+00  0.00000000000E+00  0.45593999997E+02  0.45594000000E+02  0.51100000000E-03 0.  1.
         11   -1    0    0    0    0 -0.00000000000E+00 -0.00000000000E+00 -0.45593999997E+02  0.45594000000E+02  0.51100000000E-03 0. -1.
    9900012    2    1    2    0    0 -0.30493898114E+02 -0.16094427801E+02  0.26357440526E+02  0.47787273053E+02  0.20000009159E+02 0.  0.
         12    1    1    2    0    0  0.30493898114E+02  0.16094427801E+02 -0.26357440526E+02  0.43400726947E+02  0.00000000000E+00 0. -1.
         11    1    3    3    0    0 -0.28279593415E+02 -0.69124495396E+01  0.15688409818E+02  0.33070282206E+02  0.51100000000E-03 0. -1.
        -11    1    3    3    0    0  0.71405479495E+00 -0.11855428570E+01  0.27945140050E+01  0.31184443079E+01  0.51100000000E-03 0.  1.
         12    1    3    3    0    0 -0.29283594941E+01 -0.79964354046E+01  0.78745167031E+01  0.11598546539E+02  0.00000000000E+00 0. -1.
</event>
<event>
 7    1  0.1631716E-009  0.4778726E+02  0.7816164E-02  0.1312668E+00
        -11   -1    0    0    0    0  0.00000000000E+00  0.00000000000E+00  0.45593999997E+02  0.45594000000E+02  0.51100000000E-03 0.  1.
         11   -1    0    0    0    0 -0.00000000000E+00 -0.00000000000E+00 -0.45593999997E+02  0.45594000000E+02  0.51100000000E-03 0. -1.
    9900012    2    1    2    0    0 -0.42254388015E+02 -0.85971763474E+01 -0.49273914630E+01  0.47787263436E+02  0.19999965309E+02 0.  0.
         12    1    1    2    0    0  0.42254388015E+02  0.85971763474E+01  0.49273914630E+01  0.43400736564E+02  0.00000000000E+00 0. -1.
         11    1    3    3    0    0 -0.70059341313E+01 -0.47892007086E+01 -0.60582488337E+01  0.10426981139E+02  0.51100000000E-03 0. -1.
        -11    1    3    3    0    0 -0.11836341391E+02 -0.50098511392E+01  0.46222060127E+01  0.13658783791E+02  0.51100000000E-03 0.  1.
         12    1    3    3    0    0 -0.23412112492E+02  0.12018755003E+01 -0.34913486421E+01  0.23701498506E+02  0.00000000000E+00 0. -1.
</event>
<event>
 7    1  0.1631716E-009  0.4778727E+02  0.7816164E-02  0.1312668E+00
        -11   -1    0    0    0    0  0.00000000000E+00  0.00000000000E+00  0.45593999997E+02  0.45594000000E+02  0.51100000000E-03 0. -1.
         11   -1    0    0    0    0 -0.00000000000E+00 -0.00000000000E+00 -0.45593999997E+02  0.45594000000E+02  0.51100000000E-03 0.  1.
    9900012    2    1    2    0    0  0.68590001550E+01 -0.72493733411E+01 -0.42237710109E+02  0.47787268990E+02  0.19999990631E+02 0.  0.
         12    1    1    2    0    0 -0.68590001550E+01  0.72493733411E+01  0.42237710109E+02  0.43400731010E+02  0.00000000000E+00 0. -1.
         11    1    3    3    0    0  0.52322537648E+01 -0.49706642600E+01 -0.82636811740E+01  0.10971436071E+02  0.51100000000E-03 0.  1.
        -11    1    3    3    0    0  0.14559616598E+01  0.58039517911E+01 -0.12175761199E+02  0.13566681311E+02  0.51100000000E-03 0. -1.
         12    1    3    3    0    0  0.17078473031E+00 -0.80826608723E+01 -0.21798267736E+02  0.23249151608E+02  0.00000000000E+00 0. -1.
</event>
<event>
 7    1  0.1631716E-009  0.4778727E+02  0.7816164E-02  0.1312668E+00
        -11   -1    0    0    0    0  0.00000000000E+00  0.00000000000E+00  0.45593999997E+02  0.45594000000E+02  0.51100000000E-03 0.  1.
         11   -1    0    0    0    0 -0.00000000000E+00 -0.00000000000E+00 -0.45593999997E+02  0.45594000000E+02  0.51100000000E-03 0. -1.
    9900012    2    1    2    0    0  0.35621302714E+01 -0.37956580959E+02  0.20742050658E+02  0.47787268720E+02  0.19999989401E+02 0.  0.
         12    1    1    2    0    0 -0.35621302714E+01  0.37956580959E+02 -0.20742050658E+02  0.43400731280E+02  0.00000000000E+00 0. -1.
         11    1    3    3    0    0 -0.15584678631E+01 -0.16631623073E+02  0.23508402304E+01  0.16869088837E+02  0.51100000000E-03 0. -1.
        -11    1    3    3    0    0  0.46769915662E-01 -0.11748291846E+02  0.30550708663E+01  0.12139110634E+02  0.51100000000E-03 0.  1.
        -12    1    3    3    0    0  0.50738282189E+01 -0.95766660399E+01  0.15336139561E+02  0.18779069250E+02  0.00000000000E+00 0.  1.
</event>
<event>
 7    1  0.1631716E-009  0.4778727E+02  0.7816164E-02  0.1312668E+00
        -11   -1    0    0    0    0  0.00000000000E+00  0.00000000000E+00  0.45593999997E+02  0.45594000000E+02  0.51100000000E-03 0.  1.
         11   -1    0    0    0    0 -0.00000000000E+00 -0.00000000000E+00 -0.45593999997E+02  0.45594000000E+02  0.51100000000E-03 0. -1.
    9900012    2    1    2    0    0  0.14235656914E+02 -0.40861978755E+02  0.33567954201E+01  0.47787270617E+02  0.19999998049E+02 0.  0.
         12    1    1    2    0    0 -0.14235656914E+02  0.40861978755E+02 -0.33567954201E+01  0.43400729383E+02  0.00000000000E+00 0. -1.
         11    1    3    3    0    0  0.10482491275E+02 -0.77842646149E+01  0.46305607253E+01  0.13853501067E+02  0.51100000000E-03 0. -1.
        -11    1    3    3    0    0  0.40804173617E+01 -0.12784030140E+02 -0.22835591075E+01  0.13612342742E+02  0.51100000000E-03 0.  1.
        -12    1    3    3    0    0 -0.32725172223E+00 -0.20293684000E+02  0.10097938023E+01  0.20321426808E+02  0.00000000000E+00 0.  1.
</event>
<event>
 7    1  0.1631716E-009  0.4778727E+02  0.7816164E-02  0.1312668E+00
        -11   -1    0    0    0    0  0.00000000000E+00  0.00000000000E+00  0.45593999997E+02  0.45594000000E+02  0.51100000000E-03 0.  1.
         11   -1    0    0    0    0 -0.00000000000E+00 -0.00000000000E+00 -0.45593999997E+02  0.45594000000E+02  0.51100000000E-03 0. -1.
    9900012    2    1    2    0    0  0.10082539747E+02 -0.41964469860E+02  0.45770179709E+01  0.47787269224E+02  0.19999991701E+02 0.  0.
         12    1    1    2    0    0 -0.10082539747E+02  0.41964469860E+02 -0.45770179709E+01  0.43400730776E+02  0.00000000000E+00 0. -1.
         11    1    3    3    0    0 -0.78415230198E-01 -0.56593832517E+00  0.57504238215E+00  0.81062268572E+00  0.51100000000E-03 0. -1.
        -11    1    3    3    0    0  0.17623865059E+01 -0.15109985004E+02 -0.76410643554E+01  0.17023616472E+02  0.51100000000E-03 0.  1.
        -12    1    3    3    0    0  0.83985684709E+01 -0.26288546530E+02  0.11643039944E+02  0.29953030067E+02  0.00000000000E+00 0.  1.
</event>
<event>
 7    1  0.1631716E-009  0.4778727E+02  0.7816164E-02  0.1312668E+00
        -11   -1    0    0    0    0  0.00000000000E+00  0.00000000000E+00  0.45593999997E+02  0.45594000000E+02  0.51100000000E-03 0.  1.
         11   -1    0    0    0    0 -0.00000000000E+00 -0.00000000000E+00 -0.45593999997E+02  0.45594000000E+02  0.51100000000E-03 0. -1.
    9900012    2    1    2    0    0  0.33933881357E+02  0.31668367613E+01  0.26871655381E+02  0.47787273947E+02  0.20000013234E+02 0.  0.
         12    1    1    2    0    0 -0.33933881357E+02 -0.31668367613E+01 -0.26871655381E+02  0.43400726053E+02  0.00000000000E+00 0. -1.
         11    1    3    3    0    0  0.45657525992E+01  0.49543171422E+01  0.37743799249E+01  0.77225189687E+01  0.51100000000E-03 0. -1.
        -11    1    3    3    0    0  0.26428466536E+02 -0.64682199808E+01  0.19317698208E+02  0.33368775487E+02  0.51100000000E-03 0.  1.
        -12    1    3    3    0    0  0.29396622212E+01  0.46807395998E+01  0.37795772482E+01  0.66959794915E+01  0.00000000000E+00 0.  1.
</event>
<event>
 7    1  0.1631716E-009  0.4778727E+02  0.7816164E-02  0.1312668E+00
        -11   -1    0    0    0    0  0.00000000000E+00  0.00000000000E+00  0.45593999997E+02  0.45594000000E+02  0.51100000000E-03 0.  1.
         11   -1    0    0    0    0 -0.00000000000E+00 -0.00000000000E+00 -0.45593999997E+02  0.45594000000E+02  0.51100000000E-03 0. -1.
    9900012    2    1    2    0    0 -0.12730046362E+02  0.24871816232E+00  0.41491055660E+02  0.47787266816E+02  0.19999980722E+02 0.  0.
         12    1    1    2    0    0  0.12730046362E+02 -0.24871816232E+00 -0.41491055660E+02  0.43400733184E+02  0.00000000000E+00 0. -1.
         11    1    3    3    0    0 -0.30088498047E+01 -0.10697588100E+01  0.16512019686E+01  0.35950005926E+01  0.51100000000E-03 0. -1.
        -11    1    3    3    0    0 -0.77669156883E+00  0.15143190927E+01  0.32704293903E+02  0.32748545800E+02  0.51100000000E-03 0.  1.
        -12    1    3    3    0    0 -0.89445049887E+01 -0.19584212041E+00  0.71355597887E+01  0.11443720423E+02  0.00000000000E+00 0.  1.
</event>
<event>
 7    1  0.1631716E-009  0.4778722E+02  0.7816164E-02  0.1312668E+00
        -11   -1    0    0    0    0  0.00000000000E+00  0.00000000000E+00  0.45593999997E+02  0.45594000000E+02  0.51100000000E-03 0.  1.
         11   -1    0    0    0    0 -0.00000000000E+00 -0.00000000000E+00 -0.45593999997E+02  0.45594000000E+02  0.51100000000E-03 0. -1.
    9900012    2    1    2    0    0 -0.86395289991E+01 -0.36183368732E+02  0.22355090948E+02  0.47787219761E+02  0.19999766175E+02 0.  0.
         12    1    1    2    0    0  0.86395289991E+01  0.36183368732E+02 -0.22355090948E+02  0.43400780239E+02  0.00000000000E+00 0. -1.
         11    1    3    3    0    0  0.13338663288E+01  0.47566077314E+00 -0.16928006487E+01  0.22070402923E+01  0.51100000000E-03 0. -1.
        -11    1    3    3    0    0  0.41811894347E+00 -0.70117249917E+01  0.23785349040E+01  0.74159651672E+01  0.51100000000E-03 0.  1.
        -12    1    3    3    0    0 -0.10391514271E+02 -0.29647304513E+02  0.21669356693E+02  0.38164214301E+02  0.00000000000E+00 0.  1.
</event>
<event>
 7    1  0.1631716E-009  0.4778726E+02  0.7816164E-02  0.1312668E+00
        -11   -1    0    0    0    0  0.00000000000E+00  0.00000000000E+00  0.45593999997E+02  0.45594000000E+02  0.51100000000E-03 0.  1.
         11   -1    0    0    0    0 -0.00000000000E+00 -0.00000000000E+00 -0.45593999997E+02  0.45594000000E+02  0.51100000000E-03 0. -1.
    9900012    2    1    2    0    0  0.15795470474E+02 -0.13877722260E+02  0.37967565833E+02  0.47787261321E+02  0.19999955666E+02 0.  0.
         12    1    1    2    0    0 -0.15795470474E+02  0.13877722260E+02 -0.37967565833E+02  0.43400738679E+02  0.00000000000E+00 0. -1.
         11    1    3    3    0    0 -0.25643429977E-01 -0.56214510338E+01  0.71944243427E+01  0.91302306211E+01  0.51100000000E-03 0. -1.
        -11    1    3    3    0    0  0.85034903412E+01 -0.48506499544E+00  0.25230905615E+02  0.26629743417E+02  0.51100000000E-03 0.  1.
        -12    1    3    3    0    0  0.73176235631E+01 -0.77712062307E+01  0.55422358753E+01  0.12027287283E+02  0.00000000000E+00 0.  1.
</event>
<event>
 7    1  0.1631716E-009  0.4778727E+02  0.7816164E-02  0.1312668E+00
        -11   -1    0    0    0    0  0.00000000000E+00  0.00000000000E+00  0.45593999997E+02  0.45594000000E+02  0.51100000000E-03 0.  1.
         11   -1    0    0    0    0 -0.00000000000E+00 -0.00000000000E+00 -0.45593999997E+02  0.45594000000E+02  0.51100000000E-03 0. -1.
    9900012    2    1    2    0    0 -0.60007056817E+01 -0.42921033223E+02 -0.23237001263E+01  0.47787272542E+02  0.20000006829E+02 0.  0.
         12    1    1    2    0    0  0.60007056817E+01  0.42921033223E+02  0.23237001263E+01  0.43400727458E+02  0.00000000000E+00 0. -1.
         11    1    3    3    0    0 -0.12317672785E+00 -0.19803134430E+02 -0.32416679839E+01  0.20067080439E+02  0.51100000000E-03 0. -1.
        -11    1    3    3    0    0 -0.17052077195E+01 -0.13644944316E+02 -0.62751240018E+01  0.15115204936E+02  0.51100000000E-03 0.  1.
         12    1    3    3    0    0 -0.41723212344E+01 -0.94729544765E+01  0.71930918593E+01  0.12604987168E+02  0.00000000000E+00 0. -1.
</event>
<event>
 7    1  0.1631716E-009  0.4778729E+02  0.7816164E-02  0.1312668E+00
        -11   -1    0    0    0    0  0.00000000000E+00  0.00000000000E+00  0.45593999997E+02  0.45594000000E+02  0.51100000000E-03 0.  1.
         11   -1    0    0    0    0 -0.00000000000E+00 -0.00000000000E+00 -0.45593999997E+02  0.45594000000E+02  0.51100000000E-03 0. -1.
    9900012    2    1    2    0    0  0.19132402288E+02  0.19868742457E+02  0.33508291558E+02  0.47787293240E+02  0.20000101197E+02 0.  0.
         12    1    1    2    0    0 -0.19132402288E+02 -0.19868742457E+02 -0.33508291558E+02  0.43400706760E+02  0.00000000000E+00 0. -1.
         11    1    3    3    0    0  0.61730627973E+01  0.30910390184E+01  0.63808257120E+01  0.94008597235E+01  0.51100000000E-03 0. -1.
        -11    1    3    3    0    0  0.13452618304E+02  0.98221065263E+01  0.89317449804E+01  0.18900338211E+02  0.51100000000E-03 0.  1.
        -12    1    3    3    0    0 -0.49327881341E+00  0.69555969128E+01  0.18195720866E+02  0.19486095305E+02  0.00000000000E+00 0.  1.
</event>
<event>
 7    1  0.1631716E-009  0.4778727E+02  0.7816164E-02  0.1312668E+00
        -11   -1    0    0    0    0  0.00000000000E+00  0.00000000000E+00  0.45593999997E+02  0.45594000000E+02  0.51100000000E-03 0. -1.
         11   -1    0    0    0    0 -0.00000000000E+00 -0.00000000000E+00 -0.45593999997E+02  0.45594000000E+02  0.51100000000E-03 0.  1.
    9900012    2    1    2    0    0 -0.29216243185E+02 -0.32084236332E+02 -0.79767727835E+00  0.47787269869E+02  0.19999994642E+02 0.  0.
         12    1    1    2    0    0  0.29216243185E+02  0.32084236332E+02  0.79767727835E+00  0.43400730131E+02  0.00000000000E+00 0. -1.
         11    1    3    3    0    0 -0.15565109977E+01 -0.34843765522E+01  0.40434720106E+01  0.55599705579E+01  0.51100000000E-03 0. -1.
        -11    1    3    3    0    0 -0.65066221427E+01 -0.87091256793E+01 -0.72881864441E+01  0.13088264351E+02  0.51100000000E-03 0.  1.
        -12    1    3    3    0    0 -0.21153110044E+02 -0.19890734100E+02  0.24470371552E+01  0.29139034961E+02  0.00000000000E+00 0.  1.
</event>
<event>
 7    1  0.1631716E-009  0.4778727E+02  0.7816164E-02  0.1312668E+00
        -11   -1    0    0    0    0  0.00000000000E+00  0.00000000000E+00  0.45593999997E+02  0.45594000000E+02  0.51100000000E-03 0. -1.
         11   -1    0    0    0    0 -0.00000000000E+00 -0.00000000000E+00 -0.45593999997E+02  0.45594000000E+02  0.51100000000E-03 0.  1.
    9900012    2    1    2    0    0 -0.28813397508E+02  0.20678408255E+02  0.25016288734E+02  0.47787272518E+02  0.20000006718E+02 0.  0.
         12    1    1    2    0    0  0.28813397508E+02 -0.20678408255E+02 -0.25016288734E+02  0.43400727482E+02  0.00000000000E+00 0. -1.
         11    1    3    3    0    0 -0.10927867885E+02  0.40494216029E-01  0.13049268158E+02  0.17020673783E+02  0.51100000000E-03 0. -1.
        -11    1    3    3    0    0 -0.11032166352E+02  0.12790307322E+02  0.11308515453E+02  0.20326907729E+02  0.51100000000E-03 0.  1.
        -12    1    3    3    0    0 -0.68533632710E+01  0.78476067173E+01  0.65850512376E+00  0.10439691007E+02  0.00000000000E+00 0.  1.
</event>
<event>
 7    1  0.1631716E-009  0.4778727E+02  0.7816164E-02  0.1312668E+00
        -11   -1    0    0    0    0  0.00000000000E+00  0.00000000000E+00  0.45593999997E+02  0.45594000000E+02  0.51100000000E-03 0. -1.
         11   -1    0    0    0    0 -0.00000000000E+00 -0.00000000000E+00 -0.45593999997E+02  0.45594000000E+02  0.51100000000E-03 0.  1.
    9900012    2    1    2    0    0  0.99614246990E+01 -0.19052060307E+01 -0.42199092912E+02  0.47787271497E+02  0.20000002062E+02 0.  0.
         12    1    1    2    0    0 -0.99614246990E+01  0.19052060307E+01  0.42199092912E+02  0.43400728503E+02  0.00000000000E+00 0. -1.
         11    1    3    3    0    0  0.55252142729E+01 -0.39645197503E+01 -0.11486430701E+02  0.13348539251E+02  0.51100000000E-03 0. -1.
        -11    1    3    3    0    0  0.15229398410E+01  0.25519545897E+01 -0.31287820007E+02  0.31428641380E+02  0.51100000000E-03 0.  1.
        -12    1    3    3    0    0  0.29132705851E+01 -0.49264087008E+00  0.57515779621E+00  0.30100908656E+01  0.00000000000E+00 0.  1.
</event>
<event>
 7    1  0.1631716E-009  0.4778726E+02  0.7816164E-02  0.1312668E+00
        -11   -1    0    0    0    0  0.00000000000E+00  0.00000000000E+00  0.45593999997E+02  0.45594000000E+02  0.51100000000E-03 0.  1.
         11   -1    0    0    0    0 -0.00000000000E+00 -0.00000000000E+00 -0.45593999997E+02  0.45594000000E+02  0.51100000000E-03 0. -1.
    9900012    2    1    2    0    0  0.10537338508E+02  0.12022554450E+02  0.40349058378E+02  0.47787264634E+02  0.19999970771E+02 0.  0.
         12    1    1    2    0    0 -0.10537338508E+02 -0.12022554450E+02 -0.40349058378E+02  0.43400735366E+02  0.00000000000E+00 0. -1.
         11    1    3    3    0    0 -0.22565618930E+01  0.70859700762E+01  0.14509033915E+02  0.16303837245E+02  0.51100000000E-03 0. -1.
        -11    1    3    3    0    0  0.51417215240E+01 -0.18857147706E+01  0.17282151542E+02  0.18129147322E+02  0.51100000000E-03 0.  1.
         12    1    3    3    0    0  0.76521788768E+01  0.68222991446E+01  0.85578729206E+01  0.13354280067E+02  0.00000000000E+00 0. -1.
</event>
<event>
 7    1  0.1631716E-009  0.4778731E+02  0.7816164E-02  0.1312668E+00
        -11   -1    0    0    0    0  0.00000000000E+00  0.00000000000E+00  0.45593999997E+02  0.45594000000E+02  0.51100000000E-03 0.  1.
         11   -1    0    0    0    0 -0.00000000000E+00 -0.00000000000E+00 -0.45593999997E+02  0.45594000000E+02  0.51100000000E-03 0. -1.
    9900012    2    1    2    0    0  0.13564693358E+01 -0.14780621128E+02  0.40783733384E+02  0.47787312462E+02  0.20000188840E+02 0.  0.
         12    1    1    2    0    0 -0.13564693358E+01  0.14780621128E+02 -0.40783733384E+02  0.43400687538E+02  0.00000000000E+00 0. -1.
         11    1    3    3    0    0 -0.29992990125E+01  0.16348911294E+01  0.15374434799E+02  0.15749346310E+02  0.51100000000E-03 0.  1.
        -11    1    3    3    0    0 -0.25140169006E+01 -0.20647638311E+01  0.23117372985E+01  0.39909472877E+01  0.51100000000E-03 0. -1.
        -12    1    3    3    0    0  0.68697852489E+01 -0.14350748426E+02  0.23097561287E+02  0.28047018864E+02  0.00000000000E+00 0.  1.
</event>
<event>
 7    1  0.1631716E-009  0.4778727E+02  0.7816164E-02  0.1312668E+00
        -11   -1    0    0    0    0  0.00000000000E+00  0.00000000000E+00  0.45593999997E+02  0.45594000000E+02  0.51100000000E-03 0.  1.
         11   -1    0    0    0    0 -0.00000000000E+00 -0.00000000000E+00 -0.45593999997E+02  0.45594000000E+02  0.51100000000E-03 0. -1.
    9900012    2    1    2    0    0 -0.11951277867E+01  0.30669466014E+02  0.30685153944E+02  0.47787272488E+02  0.20000006580E+02 0.  0.
         12    1    1    2    0    0  0.11951277867E+01 -0.30669466014E+02 -0.30685153944E+02  0.43400727512E+02  0.00000000000E+00 0. -1.
         11    1    3    3    0    0 -0.34760616739E+01  0.33088094867E+01  0.91388938374E+01  0.10322335289E+02  0.51100000000E-03 0. -1.
        -11    1    3    3    0    0 -0.29493312732E+00  0.16410886166E+02  0.44606432364E+01  0.17008865589E+02  0.51100000000E-03 0.  1.
         12    1    3    3    0    0  0.25758670145E+01  0.10949770362E+02  0.17085616870E+02  0.20456071610E+02  0.00000000000E+00 0. -1.
</event>
<event>
 7    1  0.1631716E-009  0.4778726E+02  0.7816164E-02  0.1312668E+00
        -11   -1    0    0    0    0  0.00000000000E+00  0.00000000000E+00  0.45593999997E+02  0.45594000000E+02  0.51100000000E-03 0.  1.
         11   -1    0    0    0    0 -0.00000000000E+00 -0.00000000000E+00 -0.45593999997E+02  0.45594000000E+02  0.51100000000E-03 0. -1.
    9900012    2    1    2    0    0 -0.18778600181E+01 -0.51609231405E+00  0.43357019918E+02  0.47787263996E+02  0.19999967865E+02 0.  0.
         12    1    1    2    0    0  0.18778600181E+01  0.51609231405E+00 -0.43357019918E+02  0.43400736004E+02  0.00000000000E+00 0. -1.
         11    1    3    3    0    0 -0.27048665121E+01  0.88894088393E+00  0.18229980598E+02  0.18450981318E+02  0.51100000000E-03 0.  1.
        -11    1    3    3    0    0 -0.24165590054E+01  0.13224239997E+01  0.24942724411E+02  0.25094383116E+02  0.51100000000E-03 0. -1.
         12    1    3    3    0    0  0.32435654994E+01 -0.27274571977E+01  0.18431490909E+00  0.42418995627E+01  0.00000000000E+00 0. -1.
</event>
<event>
 7    1  0.1631716E-009  0.4778727E+02  0.7816164E-02  0.1312668E+00
        -11   -1    0    0    0    0  0.00000000000E+00  0.00000000000E+00  0.45593999997E+02  0.45594000000E+02  0.51100000000E-03 0.  1.
         11   -1    0    0    0    0 -0.00000000000E+00 -0.00000000000E+00 -0.45593999997E+02  0.45594000000E+02  0.51100000000E-03 0. -1.
    9900012    2    1    2    0    0 -0.64447888074E+01 -0.18550312835E+02  0.38703665871E+02  0.47787272346E+02  0.20000005934E+02 0.  0.
         12    1    1    2    0    0  0.64447888074E+01  0.18550312835E+02 -0.38703665871E+02  0.43400727654E+02  0.00000000000E+00 0. -1.
         11    1    3    3    0    0 -0.50740233146E+01 -0.10819636403E+02  0.18092842933E+02  0.21683201105E+02  0.51100000000E-03 0. -1.
        -11    1    3    3    0    0 -0.16514125123E+01 -0.27640802690E+01 -0.14196828642E+01  0.35189206748E+01  0.51100000000E-03 0.  1.
        -12    1    3    3    0    0  0.28064701956E+00 -0.49665961624E+01  0.22030505803E+02  0.22585150567E+02  0.00000000000E+00 0.  1.
</event>
<event>
 7    1  0.1631716E-009  0.4778728E+02  0.7816164E-02  0.1312668E+00
        -11   -1    0    0    0    0  0.00000000000E+00  0.00000000000E+00  0.45593999997E+02  0.45594000000E+02  0.51100000000E-03 0.  1.
         11   -1    0    0    0    0 -0.00000000000E+00 -0.00000000000E+00 -0.45593999997E+02  0.45594000000E+02  0.51100000000E-03 0. -1.
    9900012    2    1    2    0    0 -0.19578349848E+02  0.38577320305E+02 -0.34787102603E+01  0.47787275931E+02  0.20000022278E+02 0.  0.
         12    1    1    2    0    0  0.19578349848E+02 -0.38577320305E+02  0.34787102603E+01  0.43400724069E+02  0.00000000000E+00 0. -1.
         11    1    3    3    0    0  0.22289349414E+00  0.67928778555E+00 -0.24614777663E+01  0.25631984824E+01  0.51100000000E-03 0. -1.
        -11    1    3    3    0    0 -0.19192945721E+02  0.22100189047E+02  0.98964873028E+00  0.29287658257E+02  0.51100000000E-03 0.  1.
        -12    1    3    3    0    0 -0.60829762198E+00  0.15797843473E+02 -0.20068812243E+01  0.15936419191E+02  0.00000000000E+00 0.  1.
</event>
<event>
 7    1  0.1631716E-009  0.4778727E+02  0.7816164E-02  0.1312668E+00
        -11   -1    0    0    0    0  0.00000000000E+00  0.00000000000E+00  0.45593999997E+02  0.45594000000E+02  0.51100000000E-03 0.  1.
         11   -1    0    0    0    0 -0.00000000000E+00 -0.00000000000E+00 -0.45593999997E+02  0.45594000000E+02  0.51100000000E-03 0. -1.
    9900012    2    1    2    0    0 -0.41620425425E+02  0.57898113862E+01  0.10855485589E+02  0.47787270792E+02  0.19999998849E+02 0.  0.
         12    1    1    2    0    0  0.41620425425E+02 -0.57898113862E+01 -0.10855485589E+02  0.43400729208E+02  0.00000000000E+00 0. -1.
         11    1    3    3    0    0 -0.56293170503E+01  0.20456666755E+01 -0.19327201518E+01  0.62935975440E+01  0.51100000000E-03 0. -1.
        -11    1    3    3    0    0 -0.30454698234E+02  0.81360185723E+01  0.13694543153E+02  0.34368938813E+02  0.51100000000E-03 0.  1.
        -12    1    3    3    0    0 -0.55364101406E+01 -0.43918738616E+01 -0.90633741202E+00  0.71247344347E+01  0.00000000000E+00 0.  1.
</event>
<event>
 7    1  0.1631716E-009  0.4778727E+02  0.7816164E-02  0.1312668E+00
        -11   -1    0    0    0    0  0.00000000000E+00  0.00000000000E+00  0.45593999997E+02  0.45594000000E+02  0.51100000000E-03 0.  1.
         11   -1    0    0    0    0 -0.00000000000E+00 -0.00000000000E+00 -0.45593999997E+02  0.45594000000E+02  0.51100000000E-03 0. -1.
    9900012    2    1    2    0    0 -0.11921894028E+02 -0.25159693921E+02  0.33293871809E+02  0.47787266649E+02  0.19999979957E+02 0.  0.
         12    1    1    2    0    0  0.11921894028E+02  0.25159693921E+02 -0.33293871809E+02  0.43400733351E+02  0.00000000000E+00 0. -1.
         11    1    3    3    0    0 -0.46624520798E+01 -0.25538848758E+02  0.22784548837E+02  0.34541379840E+02  0.51100000000E-03 0. -1.
        -11    1    3    3    0    0  0.35258162910E+00  0.10915765225E+00  0.17655521658E+00  0.40914692207E+00  0.51100000000E-03 0.  1.
        -12    1    3    3    0    0 -0.76120235773E+01  0.26999718516E+00  0.10332767755E+02  0.12836739886E+02  0.00000000000E+00 0.  1.
</event>
<event>
 7    1  0.1631716E-009  0.4778727E+02  0.7816164E-02  0.1312668E+00
        -11   -1    0    0    0    0  0.00000000000E+00  0.00000000000E+00  0.45593999997E+02  0.45594000000E+02  0.51100000000E-03 0.  1.
         11   -1    0    0    0    0 -0.00000000000E+00 -0.00000000000E+00 -0.45593999997E+02  0.45594000000E+02  0.51100000000E-03 0. -1.
    9900012    2    1    2    0    0  0.43331880118E+02 -0.17399193633E+01  0.17158529516E+01  0.47787270682E+02  0.19999998347E+02 0.  0.
         12    1    1    2    0    0 -0.43331880118E+02  0.17399193633E+01 -0.17158529516E+01  0.43400729318E+02  0.00000000000E+00 0. -1.
         11    1    3    3    0    0 -0.36585472448E+00 -0.34212854469E+00 -0.50504400200E+00  0.71131661417E+00  0.51100000000E-03 0. -1.
        -11    1    3    3    0    0  0.33617434791E+02 -0.80990401533E+01 -0.84353597498E+00  0.34589563839E+02  0.51100000000E-03 0.  1.
         12    1    3    3    0    0  0.10080300052E+02  0.67012493346E+01  0.30644329286E+01  0.12486390229E+02  0.00000000000E+00 0. -1.
</event>
<event>
 7    1  0.1631716E-009  0.4778727E+02  0.7816164E-02  0.1312668E+00
        -11   -1    0    0    0    0  0.00000000000E+00  0.00000000000E+00  0.45593999997E+02  0.45594000000E+02  0.51100000000E-03 0.  1.
         11   -1    0    0    0    0 -0.00000000000E+00 -0.00000000000E+00 -0.45593999997E+02  0.45594000000E+02  0.51100000000E-03 0. -1.
    9900012    2    1    2    0    0 -0.33264725202E+02  0.19993971920E+02  0.19424790570E+02  0.47787270230E+02  0.19999996286E+02 0.  0.
         12    1    1    2    0    0  0.33264725202E+02 -0.19993971920E+02 -0.19424790570E+02  0.43400729770E+02  0.00000000000E+00 0. -1.
         11    1    3    3    0    0 -0.10567885970E+02 -0.17316205090E+00  0.87109082386E+01  0.13696354317E+02  0.51100000000E-03 0.  1.
        -11    1    3    3    0    0 -0.12380428257E+01  0.70912564793E+01  0.30638530129E+01  0.78234176700E+01  0.51100000000E-03 0. -1.
        -12    1    3    3    0    0 -0.21458796406E+02  0.13075877492E+02  0.76500293185E+01  0.26267498243E+02  0.00000000000E+00 0.  1.
</event>
<event>
 7    1  0.1631716E-009  0.4778726E+02  0.7816164E-02  0.1312668E+00
        -11   -1    0    0    0    0  0.00000000000E+00  0.00000000000E+00  0.45593999997E+02  0.45594000000E+02  0.51100000000E-03 0.  1.
         11   -1    0    0    0    0 -0.00000000000E+00 -0.00000000000E+00 -0.45593999997E+02  0.45594000000E+02  0.51100000000E-03 0. -1.
    9900012    2    1    2    0    0 -0.22690326273E+01  0.30661714842E+02  0.30632257518E+02  0.47787257301E+02  0.19999937339E+02 0.  0.
         12    1    1    2    0    0  0.22690326273E+01 -0.30661714842E+02 -0.30632257518E+02  0.43400742699E+02  0.00000000000E+00 0. -1.
         11    1    3    3    0    0  0.21639787814E+00 -0.80979088040E+00  0.21464016054E+01  0.23042633149E+01  0.51100000000E-03 0. -1.
        -11    1    3    3    0    0  0.68888949544E+01  0.12867168274E+02  0.10819493037E+02  0.18168167848E+02  0.51100000000E-03 0.  1.
        -12    1    3    3    0    0 -0.93743254598E+01  0.18604337448E+02  0.17666362876E+02  0.27314826139E+02  0.00000000000E+00 0.  1.
</event>
<event>
 7    1  0.1631716E-009  0.4778727E+02  0.7816164E-02  0.1312668E+00
        -11   -1    0    0    0    0  0.00000000000E+00  0.00000000000E+00  0.45593999997E+02  0.45594000000E+02  0.51100000000E-03 0. -1.
         11   -1    0    0    0    0 -0.00000000000E+00 -0.00000000000E+00 -0.45593999997E+02  0.45594000000E+02  0.51100000000E-03 0.  1.
    9900012    2    1    2    0    0  0.23366445189E+02  0.32340104979E+02 -0.17080701866E+02  0.47787268128E+02  0.19999986702E+02 0.  0.
         12    1    1    2    0    0 -0.23366445189E+02 -0.32340104979E+02  0.17080701866E+02  0.43400731872E+02  0.00000000000E+00 0. -1.
         11    1    3    3    0    0  0.18651005177E+01  0.33840033065E+01  0.20685857932E+01  0.43828216669E+01  0.51100000000E-03 0. -1.
        -11    1    3    3    0    0  0.19973363970E+02  0.17565987533E+02 -0.17388275470E+02  0.31778157756E+02  0.51100000000E-03 0.  1.
        -12    1    3    3    0    0  0.15279807013E+01  0.11390114139E+02 -0.17610121893E+01  0.11626288705E+02  0.00000000000E+00 0.  1.
</event>
<event>
 7    1  0.1631716E-009  0.4778727E+02  0.7816164E-02  0.1312668E+00
        -11   -1    0    0    0    0  0.00000000000E+00  0.00000000000E+00  0.45593999997E+02  0.45594000000E+02  0.51100000000E-03 0. -1.
         11   -1    0    0    0    0 -0.00000000000E+00 -0.00000000000E+00 -0.45593999997E+02  0.45594000000E+02  0.51100000000E-03 0.  1.
    9900012    2    1    2    0    0  0.17119031883E+02  0.33938345914E+01 -0.39737184693E+02  0.47787271744E+02  0.20000003188E+02 0.  0.
         12    1    1    2    0    0 -0.17119031883E+02 -0.33938345914E+01  0.39737184693E+02  0.43400728256E+02  0.00000000000E+00 0. -1.
         11    1    3    3    0    0  0.12904105049E+02 -0.29824311853E+01 -0.36686550455E+02  0.39004022964E+02  0.51100000000E-03 0.  1.
        -11    1    3    3    0    0  0.14251856391E+01  0.15424311878E+01  0.51254864992E+00  0.21617017497E+01  0.51100000000E-03 0. -1.
        -12    1    3    3    0    0  0.27897411949E+01  0.48338345889E+01 -0.35631828886E+01  0.66215470296E+01  0.00000000000E+00 0.  1.
</event>
<event>
 7    1  0.1631716E-009  0.4778727E+02  0.7816164E-02  0.1312668E+00
        -11   -1    0    0    0    0  0.00000000000E+00  0.00000000000E+00  0.45593999997E+02  0.45594000000E+02  0.51100000000E-03 0.  1.
         11   -1    0    0    0    0 -0.00000000000E+00 -0.00000000000E+00 -0.45593999997E+02  0.45594000000E+02  0.51100000000E-03 0. -1.
    9900012    2    1    2    0    0 -0.18296851427E+02 -0.23261697489E+01  0.39286606077E+02  0.47787271263E+02  0.20000000997E+02 0.  0.
         12    1    1    2    0    0  0.18296851427E+02  0.23261697489E+01 -0.39286606077E+02  0.43400728737E+02  0.00000000000E+00 0. -1.
         11    1    3    3    0    0 -0.12589400480E+02  0.83976682095E-01  0.86853047653E+01  0.15294919930E+02  0.51100000000E-03 0. -1.
        -11    1    3    3    0    0 -0.30427943066E+01  0.33284059281E+01  0.14785748143E+02  0.15458176853E+02  0.51100000000E-03 0.  1.
        -12    1    3    3    0    0 -0.26646566399E+01 -0.57385523591E+01  0.15815553169E+02  0.17034174480E+02  0.00000000000E+00 0.  1.
</event>
<event>
 7    1  0.1631716E-009  0.4778726E+02  0.7816164E-02  0.1312668E+00
        -11   -1    0    0    0    0  0.00000000000E+00  0.00000000000E+00  0.45593999997E+02  0.45594000000E+02  0.51100000000E-03 0.  1.
         11   -1    0    0    0    0 -0.00000000000E+00 -0.00000000000E+00 -0.45593999997E+02  0.45594000000E+02  0.51100000000E-03 0. -1.
    9900012    2    1    2    0    0  0.20926347334E+02  0.33791956899E+00  0.38021017168E+02  0.47787263269E+02  0.19999964547E+02 0.  0.
         12    1    1    2    0    0 -0.20926347334E+02 -0.33791956899E+00 -0.38021017168E+02  0.43400736731E+02  0.00000000000E+00 0. -1.
         11    1    3    3    0    0  0.11506122677E+01  0.42028354749E+00  0.74645845516E+01  0.75644279123E+01  0.51100000000E-03 0. -1.
        -11    1    3    3    0    0  0.12743994019E+02  0.61236068296E+01  0.26434842451E+02  0.29978472940E+02  0.51100000000E-03 0.  1.
         12    1    3    3    0    0  0.70317410470E+01 -0.62059708081E+01  0.41215901650E+01  0.10244362416E+02  0.00000000000E+00 0. -1.
</event>
<event>
 7    1  0.1631716E-009  0.4778727E+02  0.7816164E-02  0.1312668E+00
        -11   -1    0    0    0    0  0.00000000000E+00  0.00000000000E+00  0.45593999997E+02  0.45594000000E+02  0.51100000000E-03 0.  1.
         11   -1    0    0    0    0 -0.00000000000E+00 -0.00000000000E+00 -0.45593999997E+02  0.45594000000E+02  0.51100000000E-03 0. -1.
    9900012    2    1    2    0    0 -0.97817550932E+01  0.33892389795E+02  0.25283323321E+02  0.47787271240E+02  0.20000000892E+02 0.  0.
         12    1    1    2    0    0  0.97817550932E+01 -0.33892389795E+02 -0.25283323321E+02  0.43400728760E+02  0.00000000000E+00 0. -1.
         11    1    3    3    0    0 -0.39758041368E+01  0.14373397914E+02  0.51537604442E+01  0.15778556116E+02  0.51100000000E-03 0. -1.
        -11    1    3    3    0    0 -0.83032706993E+00  0.19841189880E+02  0.15321332873E+02  0.25081975603E+02  0.51100000000E-03 0.  1.
        -12    1    3    3    0    0 -0.49756238864E+01 -0.32219799961E+00  0.48082300045E+01  0.69267395206E+01  0.00000000000E+00 0.  1.
</event>
<event>
 7    1  0.1631716E-009  0.4778727E+02  0.7816164E-02  0.1312668E+00
        -11   -1    0    0    0    0  0.00000000000E+00  0.00000000000E+00  0.45593999997E+02  0.45594000000E+02  0.51100000000E-03 0. -1.
         11   -1    0    0    0    0 -0.00000000000E+00 -0.00000000000E+00 -0.45593999997E+02  0.45594000000E+02  0.51100000000E-03 0.  1.
    9900012    2    1    2    0    0  0.42716776873E+02 -0.57671236785E+01  0.50636489247E+01  0.47787270946E+02  0.19999999552E+02 0.  0.
         12    1    1    2    0    0 -0.42716776873E+02  0.57671236785E+01 -0.50636489247E+01  0.43400729054E+02  0.00000000000E+00 0. -1.
         11    1    3    3    0    0  0.34791784641E+02 -0.43199518089E+01  0.10678389202E+02  0.36649123568E+02  0.51100000000E-03 0. -1.
        -11    1    3    3    0    0  0.38357299819E+01  0.19434382505E+01 -0.27285835073E+01  0.50926363452E+01  0.51100000000E-03 0.  1.
        -12    1    3    3    0    0  0.40892622508E+01 -0.33906101201E+01 -0.28861567703E+01  0.60455110326E+01  0.00000000000E+00 0.  1.
</event>
<event>
 7    1  0.1631716E-009  0.4778727E+02  0.7816164E-02  0.1312668E+00
        -11   -1    0    0    0    0  0.00000000000E+00  0.00000000000E+00  0.45593999997E+02  0.45594000000E+02  0.51100000000E-03 0.  1.
         11   -1    0    0    0    0 -0.00000000000E+00 -0.00000000000E+00 -0.45593999997E+02  0.45594000000E+02  0.51100000000E-03 0. -1.
    9900012    2    1    2    0    0 -0.12548790970E+02 -0.15154386204E+02  0.38684571316E+02  0.47787266896E+02  0.19999981087E+02 0.  0.
         12    1    1    2    0    0  0.12548790970E+02  0.15154386204E+02 -0.38684571316E+02  0.43400733104E+02  0.00000000000E+00 0. -1.
         11    1    3    3    0    0  0.53216279958E+00 -0.30030686957E+01 -0.10373327725E+01  0.32214404198E+01  0.51100000000E-03 0. -1.
        -11    1    3    3    0    0 -0.72399146433E+01 -0.10433069034E+02  0.18152177040E+02  0.22153257663E+02  0.51100000000E-03 0.  1.
         12    1    3    3    0    0 -0.58410391258E+01 -0.17182484743E+01  0.21569727049E+02  0.22412568814E+02  0.00000000000E+00 0. -1.
</event>
<event>
 7    1  0.1631716E-009  0.4778727E+02  0.7816164E-02  0.1312668E+00
        -11   -1    0    0    0    0  0.00000000000E+00  0.00000000000E+00  0.45593999997E+02  0.45594000000E+02  0.51100000000E-03 0.  1.
         11   -1    0    0    0    0 -0.00000000000E+00 -0.00000000000E+00 -0.45593999997E+02  0.45594000000E+02  0.51100000000E-03 0. -1.
    9900012    2    1    2    0    0 -0.27552882620E+02  0.23699157567E+02  0.23723657753E+02  0.47787270199E+02  0.19999996146E+02 0.  0.
         12    1    1    2    0    0  0.27552882620E+02 -0.23699157567E+02 -0.23723657753E+02  0.43400729801E+02  0.00000000000E+00 0. -1.
         11    1    3    3    0    0 -0.48937877712E+01 -0.19225146737E+01 -0.68511994651E+00  0.53023212863E+01  0.51100000000E-03 0. -1.
        -11    1    3    3    0    0 -0.24836359483E+01  0.13504622891E+01  0.40051487959E+01  0.49023885053E+01  0.51100000000E-03 0.  1.
        -12    1    3    3    0    0 -0.20175458901E+02  0.24271209951E+02  0.20403628904E+02  0.37582560408E+02  0.00000000000E+00 0.  1.
</event>
<event>
 7    1  0.1631716E-009  0.4778727E+02  0.7816164E-02  0.1312668E+00
        -11   -1    0    0    0    0  0.00000000000E+00  0.00000000000E+00  0.45593999997E+02  0.45594000000E+02  0.51100000000E-03 0.  1.
         11   -1    0    0    0    0 -0.00000000000E+00 -0.00000000000E+00 -0.45593999997E+02  0.45594000000E+02  0.51100000000E-03 0. -1.
    9900012    2    1    2    0    0 -0.21475965381E+02  0.98161605137E+01  0.36414957648E+02  0.47787271472E+02  0.20000001950E+02 0.  0.
         12    1    1    2    0    0  0.21475965381E+02 -0.98161605137E+01 -0.36414957648E+02  0.43400728528E+02  0.00000000000E+00 0. -1.
         11    1    3    3    0    0  0.17606110441E+01  0.56906849803E-01 -0.84364801433E-01  0.17635496361E+01  0.51100000000E-03 0. -1.
        -11    1    3    3    0    0 -0.88542212271E+01  0.10370642084E+02  0.17377917774E+02  0.22089352123E+02  0.51100000000E-03 0.  1.
         12    1    3    3    0    0 -0.14382355198E+02 -0.61138841983E+00  0.19121404675E+02  0.23934369713E+02  0.00000000000E+00 0. -1.
</event>
<event>
 7    1  0.1631716E-009  0.4778727E+02  0.7816164E-02  0.1312668E+00
        -11   -1    0    0    0    0  0.00000000000E+00  0.00000000000E+00  0.45593999997E+02  0.45594000000E+02  0.51100000000E-03 0.  1.
         11   -1    0    0    0    0 -0.00000000000E+00 -0.00000000000E+00 -0.45593999997E+02  0.45594000000E+02  0.51100000000E-03 0. -1.
    9900012    2    1    2    0    0  0.58670295355E+01 -0.74710682584E+00  0.42995845551E+02  0.47787274904E+02  0.20000017599E+02 0.  0.
         12    1    1    2    0    0 -0.58670295355E+01  0.74710682584E+00 -0.42995845551E+02  0.43400725096E+02  0.00000000000E+00 0. -1.
         11    1    3    3    0    0  0.43079884044E-02 -0.35956790463E+01  0.19007397341E+02  0.19344510340E+02  0.51100000000E-03 0. -1.
        -11    1    3    3    0    0  0.44144368119E+01  0.75711830432E+01  0.20779922689E+02  0.22552499911E+02  0.51100000000E-03 0.  1.
         12    1    3    3    0    0  0.14482847352E+01 -0.47226108227E+01  0.32085255212E+01  0.58902646526E+01  0.00000000000E+00 0. -1.
</event>
<event>
 7    1  0.1631716E-009  0.4778728E+02  0.7816164E-02  0.1312668E+00
        -11   -1    0    0    0    0  0.00000000000E+00  0.00000000000E+00  0.45593999997E+02  0.45594000000E+02  0.51100000000E-03 0.  1.
         11   -1    0    0    0    0 -0.00000000000E+00 -0.00000000000E+00 -0.45593999997E+02  0.45594000000E+02  0.51100000000E-03 0. -1.
    9900012    2    1    2    0    0 -0.23352962103E+02  0.31171237549E+02 -0.19147204444E+02  0.47787281949E+02  0.20000049719E+02 0.  0.
         12    1    1    2    0    0  0.23352962103E+02 -0.31171237549E+02  0.19147204444E+02  0.43400718051E+02  0.00000000000E+00 0. -1.
         11    1    3    3    0    0 -0.21676714235E+01 -0.12654358847E+01 -0.31928381883E+01  0.40613228555E+01  0.51100000000E-03 0. -1.
        -11    1    3    3    0    0 -0.19240712266E+02  0.19919906095E+02 -0.13553555763E+02  0.30833529500E+02  0.51100000000E-03 0.  1.
        -12    1    3    3    0    0 -0.19445784134E+01  0.12516767339E+02 -0.24008104925E+01  0.12892429594E+02  0.00000000000E+00 0.  1.
</event>
<event>
 7    1  0.1631716E-009  0.4778727E+02  0.7816164E-02  0.1312668E+00
        -11   -1    0    0    0    0  0.00000000000E+00  0.00000000000E+00  0.45593999997E+02  0.45594000000E+02  0.51100000000E-03 0.  1.
         11   -1    0    0    0    0 -0.00000000000E+00 -0.00000000000E+00 -0.45593999997E+02  0.45594000000E+02  0.51100000000E-03 0. -1.
    9900012    2    1    2    0    0  0.43111738076E+02 -0.26926942016E+01 -0.42131638103E+01  0.47787270614E+02  0.19999998035E+02 0.  0.
         12    1    1    2    0    0 -0.43111738076E+02  0.26926942016E+01  0.42131638103E+01  0.43400729386E+02  0.00000000000E+00 0. -1.
         11    1    3    3    0    0  0.14461389618E+01  0.22345068998E+01  0.16807105576E+01  0.31478766211E+01  0.51100000000E-03 0. -1.
        -11    1    3    3    0    0  0.16521518351E+02 -0.76458806116E+01 -0.65302992192E+01  0.19340756632E+02  0.51100000000E-03 0.  1.
        -12    1    3    3    0    0  0.25144080763E+02  0.27186795102E+01  0.63642485122E+00  0.25298637360E+02  0.00000000000E+00 0.  1.
</event>
<event>
 7    1  0.2059168E-009  0.4778727E+02  0.7816164E-02  0.1312668E+00
        -11   -1    0    0    0    0  0.00000000000E+00  0.00000000000E+00  0.45593999997E+02  0.45594000000E+02  0.51100000000E-03 0.  1.
         11   -1    0    0    0    0 -0.00000000000E+00 -0.00000000000E+00 -0.45593999997E+02  0.45594000000E+02  0.51100000000E-03 0. -1.
    9900012    2    1    2    0    0 -0.12660386373E+02 -0.38359837395E+02 -0.15870121597E+02  0.47787271117E+02  0.20000000331E+02 0.  0.
         12    1    1    2    0    0  0.12660386373E+02  0.38359837395E+02  0.15870121597E+02  0.43400728883E+02  0.00000000000E+00 0. -1.
         11    1    3    3    0    0 -0.10342608256E+02 -0.14515531476E+02 -0.44721798705E+01  0.18375815427E+02  0.51100000000E-03 0.  1.
        -11    1    3    3    0    0 -0.42816887170E+01 -0.17751164889E+02 -0.13460832545E+02  0.22685473904E+02  0.51100000000E-03 0. -1.
         12    1    3    3    0    0  0.19639105998E+01 -0.60931410297E+01  0.20628908182E+01  0.67259817855E+01  0.00000000000E+00 0. -1.
</event>
<event>
 7    1  0.1631716E-009  0.4778727E+02  0.7816164E-02  0.1312668E+00
        -11   -1    0    0    0    0  0.00000000000E+00  0.00000000000E+00  0.45593999997E+02  0.45594000000E+02  0.51100000000E-03 0.  1.
         11   -1    0    0    0    0 -0.00000000000E+00 -0.00000000000E+00 -0.45593999997E+02  0.45594000000E+02  0.51100000000E-03 0. -1.
    9900012    2    1    2    0    0  0.39865657975E+02 -0.20983752670E+00  0.17155419611E+02  0.47787272592E+02  0.20000007054E+02 0.  0.
         12    1    1    2    0    0 -0.39865657975E+02  0.20983752670E+00 -0.17155419611E+02  0.43400727408E+02  0.00000000000E+00 0. -1.
         11    1    3    3    0    0 -0.78245076109E+00 -0.46107450594E+00 -0.20858003447E+01  0.22749466439E+01  0.51100000000E-03 0. -1.
        -11    1    3    3    0    0  0.21861619597E+02  0.35933624863E+01  0.98755808194E+01  0.24256334475E+02  0.51100000000E-03 0.  1.
         12    1    3    3    0    0  0.18786489139E+02 -0.33421255071E+01  0.93656391365E+01  0.21255991473E+02  0.00000000000E+00 0. -1.
</event>
<event>
 7    1  0.1631716E-009  0.4778727E+02  0.7816164E-02  0.1312668E+00
        -11   -1    0    0    0    0  0.00000000000E+00  0.00000000000E+00  0.45593999997E+02  0.45594000000E+02  0.51100000000E-03 0.  1.
         11   -1    0    0    0    0 -0.00000000000E+00 -0.00000000000E+00 -0.45593999997E+02  0.45594000000E+02  0.51100000000E-03 0. -1.
    9900012    2    1    2    0    0  0.46968372060E+00  0.38654101293E+02 -0.19729753960E+02  0.47787270272E+02  0.19999996479E+02 0.  0.
         12    1    1    2    0    0 -0.46968372060E+00 -0.38654101293E+02  0.19729753960E+02  0.43400729728E+02  0.00000000000E+00 0. -1.
         11    1    3    3    0    0  0.47815340595E+01  0.86357063403E+01  0.85769016330E+00  0.99082856557E+01  0.51100000000E-03 0. -1.
        -11    1    3    3    0    0  0.22159169905E+01  0.15691785051E+02 -0.12472594849E+02  0.20167003465E+02  0.51100000000E-03 0.  1.
        -12    1    3    3    0    0 -0.65277673294E+01  0.14326609902E+02 -0.81148492740E+01  0.17711981152E+02  0.00000000000E+00 0.  1.
</event>
<event>
 7    1  0.1631716E-009  0.4778727E+02  0.7816164E-02  0.1312668E+00
        -11   -1    0    0    0    0  0.00000000000E+00  0.00000000000E+00  0.45593999997E+02  0.45594000000E+02  0.51100000000E-03 0.  1.
         11   -1    0    0    0    0 -0.00000000000E+00 -0.00000000000E+00 -0.45593999997E+02  0.45594000000E+02  0.51100000000E-03 0. -1.
    9900012    2    1    2    0    0  0.23609731102E+01 -0.29752514875E+02  0.31509322180E+02  0.47787265909E+02  0.19999976585E+02 0.  0.
         12    1    1    2    0    0 -0.23609731102E+01  0.29752514875E+02 -0.31509322180E+02  0.43400734091E+02  0.00000000000E+00 0. -1.
         11    1    3    3    0    0  0.63942248121E+01 -0.92424308822E+01  0.87634633408E+01  0.14251558846E+02  0.51100000000E-03 0. -1.
        -11    1    3    3    0    0 -0.14403611308E+01 -0.21211079344E+02  0.22304771891E+02  0.30813753042E+02  0.51100000000E-03 0.  1.
         12    1    3    3    0    0 -0.25928905712E+01  0.70099535136E+00  0.44108694753E+00  0.27219540209E+01  0.00000000000E+00 0. -1.
</event>
<event>
 7    1  0.1631716E-009  0.4778727E+02  0.7816164E-02  0.1312668E+00
        -11   -1    0    0    0    0  0.00000000000E+00  0.00000000000E+00  0.45593999997E+02  0.45594000000E+02  0.51100000000E-03 0.  1.
         11   -1    0    0    0    0 -0.00000000000E+00 -0.00000000000E+00 -0.45593999997E+02  0.45594000000E+02  0.51100000000E-03 0. -1.
    9900012    2    1    2    0    0  0.28704389799E+02 -0.24382566344E+02  0.21567845787E+02  0.47787268357E+02  0.19999987747E+02 0.  0.
         12    1    1    2    0    0 -0.28704389799E+02  0.24382566344E+02 -0.21567845787E+02  0.43400731643E+02  0.00000000000E+00 0. -1.
         11    1    3    3    0    0  0.11900512722E+02 -0.32551378923E+01  0.23076193383E+01  0.12551622724E+02  0.51100000000E-03 0. -1.
        -11    1    3    3    0    0 -0.14768456163E+01 -0.44766038137E+01  0.39693907630E+01  0.61625577457E+01  0.51100000000E-03 0.  1.
        -12    1    3    3    0    0  0.18280722694E+02 -0.16650824638E+02  0.15290835685E+02  0.29073087887E+02  0.00000000000E+00 0.  1.
</event>
<event>
 7    1  0.1631716E-009  0.4778727E+02  0.7816164E-02  0.1312668E+00
        -11   -1    0    0    0    0  0.00000000000E+00  0.00000000000E+00  0.45593999997E+02  0.45594000000E+02  0.51100000000E-03 0.  1.
         11   -1    0    0    0    0 -0.00000000000E+00 -0.00000000000E+00 -0.45593999997E+02  0.45594000000E+02  0.51100000000E-03 0. -1.
    9900012    2    1    2    0    0  0.21587833791E+02 -0.37208012442E+02 -0.57578236062E+01  0.47787270855E+02  0.19999999135E+02 0.  0.
         12    1    1    2    0    0 -0.21587833791E+02  0.37208012442E+02  0.57578236062E+01  0.43400729145E+02  0.00000000000E+00 0. -1.
         11    1    3    3    0    0  0.87610343192E+01 -0.32723295689E+01  0.12051266200E+00  0.93529881168E+01  0.51100000000E-03 0. -1.
        -11    1    3    3    0    0  0.13036580638E+02 -0.22485529285E+02 -0.70276028954E+01  0.26924685043E+02  0.51100000000E-03 0.  1.
        -12    1    3    3    0    0 -0.20978116529E+00 -0.11450153588E+02  0.11492666272E+01  0.11509597695E+02  0.00000000000E+00 0.  1.
</event>
<event>
 7    1  0.1631716E-009  0.4778727E+02  0.7816164E-02  0.1312668E+00
        -11   -1    0    0    0    0  0.00000000000E+00  0.00000000000E+00  0.45593999997E+02  0.45594000000E+02  0.51100000000E-03 0.  1.
         11   -1    0    0    0    0 -0.00000000000E+00 -0.00000000000E+00 -0.45593999997E+02  0.45594000000E+02  0.51100000000E-03 0. -1.
    9900012    2    1    2    0    0 -0.35960744411E+02  0.98452367820E+01  0.22215305789E+02  0.47787266859E+02  0.19999980919E+02 0.  0.
         12    1    1    2    0    0  0.35960744411E+02 -0.98452367820E+01 -0.22215305789E+02  0.43400733141E+02  0.00000000000E+00 0. -1.
         11    1    3    3    0    0 -0.16007499764E+02 -0.48072052517E+00  0.46769844737E+01  0.16683684394E+02  0.51100000000E-03 0. -1.
        -11    1    3    3    0    0 -0.14496359617E+02  0.51299609711E+01  0.44618490773E+01  0.16011528320E+02  0.51100000000E-03 0.  1.
        -12    1    3    3    0    0 -0.54568850298E+01  0.51959963361E+01  0.13076472238E+02  0.15092054146E+02  0.00000000000E+00 0.  1.
</event>
<event>
 7    1  0.1631716E-009  0.4778727E+02  0.7816164E-02  0.1312668E+00
        -11   -1    0    0    0    0  0.00000000000E+00  0.00000000000E+00  0.45593999997E+02  0.45594000000E+02  0.51100000000E-03 0.  1.
         11   -1    0    0    0    0 -0.00000000000E+00 -0.00000000000E+00 -0.45593999997E+02  0.45594000000E+02  0.51100000000E-03 0. -1.
    9900012    2    1    2    0    0  0.31207306808E+02  0.10206183357E+02  0.28382416264E+02  0.47787265790E+02  0.19999976044E+02 0.  0.
         12    1    1    2    0    0 -0.31207306808E+02 -0.10206183357E+02 -0.28382416264E+02  0.43400734210E+02  0.00000000000E+00 0. -1.
         11    1    3    3    0    0  0.18774463642E+01 -0.31818102102E+01  0.30552556389E+01  0.47940909820E+01  0.51100000000E-03 0. -1.
        -11    1    3    3    0    0  0.22189330647E+02  0.55382711570E+01  0.11603031037E+02  0.25645061347E+02  0.51100000000E-03 0.  1.
         12    1    3    3    0    0  0.71405297969E+01  0.78497224100E+01  0.13724129589E+02  0.17348113461E+02  0.00000000000E+00 0. -1.
</event>
<event>
 7    1  0.1631716E-009  0.4778725E+02  0.7816164E-02  0.1312668E+00
        -11   -1    0    0    0    0  0.00000000000E+00  0.00000000000E+00  0.45593999997E+02  0.45594000000E+02  0.51100000000E-03 0.  1.
         11   -1    0    0    0    0 -0.00000000000E+00 -0.00000000000E+00 -0.45593999997E+02  0.45594000000E+02  0.51100000000E-03 0. -1.
    9900012    2    1    2    0    0 -0.39407780971E+02 -0.17089095234E+02 -0.62140517029E+01  0.47787253283E+02  0.19999919020E+02 0.  0.
         12    1    1    2    0    0  0.39407780971E+02  0.17089095234E+02  0.62140517029E+01  0.43400746717E+02  0.00000000000E+00 0. -1.
         11    1    3    3    0    0 -0.19235090304E+02 -0.13161645144E+02 -0.27885634599E+01  0.23473254745E+02  0.51100000000E-03 0. -1.
        -11    1    3    3    0    0 -0.20739061729E+02 -0.21005824755E+01 -0.53999338050E+00  0.20852163467E+02  0.51100000000E-03 0.  1.
         12    1    3    3    0    0  0.56637106160E+00 -0.18268676146E+01 -0.28854948624E+01  0.34618350714E+01  0.00000000000E+00 0. -1.
</event>
<event>
 7    1  0.1631716E-009  0.4778728E+02  0.7816164E-02  0.1312668E+00
        -11   -1    0    0    0    0  0.00000000000E+00  0.00000000000E+00  0.45593999997E+02  0.45594000000E+02  0.51100000000E-03 0.  1.
         11   -1    0    0    0    0 -0.00000000000E+00 -0.00000000000E+00 -0.45593999997E+02  0.45594000000E+02  0.51100000000E-03 0. -1.
    9900012    2    1    2    0    0 -0.20983009866E+02 -0.11972937165E+02  0.36055299000E+02  0.47787279806E+02  0.20000039946E+02 0.  0.
         12    1    1    2    0    0  0.20983009866E+02  0.11972937165E+02 -0.36055299000E+02  0.43400720194E+02  0.00000000000E+00 0. -1.
         11    1    3    3    0    0 -0.71724658961E+01 -0.31773775699E+01  0.11091880315E+01  0.79227705761E+01  0.51100000000E-03 0. -1.
        -11    1    3    3    0    0  0.57131106101E+00 -0.36622168906E+01  0.93702867272E+01  0.10076730744E+02  0.51100000000E-03 0.  1.
        -12    1    3    3    0    0 -0.14381855031E+02 -0.51333427042E+01  0.25575824242E+02  0.29787778485E+02  0.00000000000E+00 0.  1.
</event>
<event>
 7    1  0.1631716E-009  0.4778728E+02  0.7816164E-02  0.1312668E+00
        -11   -1    0    0    0    0  0.00000000000E+00  0.00000000000E+00  0.45593999997E+02  0.45594000000E+02  0.51100000000E-03 0.  1.
         11   -1    0    0    0    0 -0.00000000000E+00 -0.00000000000E+00 -0.45593999997E+02  0.45594000000E+02  0.51100000000E-03 0. -1.
    9900012    2    1    2    0    0  0.18774778333E+02  0.63778753559E+01  0.38606380858E+02  0.47787282973E+02  0.20000054387E+02 0.  0.
         12    1    1    2    0    0 -0.18774778333E+02 -0.63778753559E+01 -0.38606380858E+02  0.43400717027E+02  0.00000000000E+00 0. -1.
         11    1    3    3    0    0 -0.26800957435E+01  0.33722639941E+00  0.15281397445E+01  0.31035215770E+01  0.51100000000E-03 0. -1.
        -11    1    3    3    0    0  0.10382912583E+02  0.74914525165E+01  0.25856164759E+02  0.28852521395E+02  0.51100000000E-03 0.  1.
         12    1    3    3    0    0  0.11071961494E+02 -0.14508035601E+01  0.11222076354E+02  0.15831240001E+02  0.00000000000E+00 0. -1.
</event>
<event>
 7    1  0.1631716E-009  0.4778726E+02  0.7816164E-02  0.1312668E+00
        -11   -1    0    0    0    0  0.00000000000E+00  0.00000000000E+00  0.45593999997E+02  0.45594000000E+02  0.51100000000E-03 0. -1.
         11   -1    0    0    0    0 -0.00000000000E+00 -0.00000000000E+00 -0.45593999997E+02  0.45594000000E+02  0.51100000000E-03 0.  1.
    9900012    2    1    2    0    0 -0.34242741191E+02  0.25306787901E+02  0.84038674003E+01  0.47787264690E+02  0.19999971029E+02 0.  0.
         12    1    1    2    0    0  0.34242741191E+02 -0.25306787901E+02 -0.84038674003E+01  0.43400735310E+02  0.00000000000E+00 0. -1.
         11    1    3    3    0    0  0.22676035652E+00  0.17753275780E+01  0.28346470480E+01  0.33523771291E+01  0.51100000000E-03 0. -1.
        -11    1    3    3    0    0 -0.26681674866E+02  0.11984357208E+02  0.79367079227E+01  0.30307225611E+02  0.51100000000E-03 0.  1.
        -12    1    3    3    0    0 -0.77878266819E+01  0.11547103115E+02 -0.23674875704E+01  0.14127661950E+02  0.00000000000E+00 0.  1.
</event>
<event>
 7    1  0.1631716E-009  0.4778726E+02  0.7816164E-02  0.1312668E+00
        -11   -1    0    0    0    0  0.00000000000E+00  0.00000000000E+00  0.45593999997E+02  0.45594000000E+02  0.51100000000E-03 0.  1.
         11   -1    0    0    0    0 -0.00000000000E+00 -0.00000000000E+00 -0.45593999997E+02  0.45594000000E+02  0.51100000000E-03 0. -1.
    9900012    2    1    2    0    0 -0.13509152210E+02 -0.59027517394E+01  0.40820145313E+02  0.47787263429E+02  0.19999965280E+02 0.  0.
         12    1    1    2    0    0  0.13509152210E+02  0.59027517394E+01 -0.40820145313E+02  0.43400736571E+02  0.00000000000E+00 0. -1.
         11    1    3    3    0    0 -0.39656941208E+00  0.16407250787E+01  0.20338515654E+02  0.20408441032E+02  0.51100000000E-03 0. -1.
        -11    1    3    3    0    0 -0.99701005119E+01 -0.21226817960E+01  0.17906192547E+02  0.20604378516E+02  0.51100000000E-03 0.  1.
         12    1    3    3    0    0 -0.31424822863E+01 -0.54207950222E+01  0.25754371115E+01  0.67744438818E+01  0.00000000000E+00 0. -1.
</event>
<event>
 7    1  0.1631716E-009  0.4778725E+02  0.7816164E-02  0.1312668E+00
        -11   -1    0    0    0    0  0.00000000000E+00  0.00000000000E+00  0.45593999997E+02  0.45594000000E+02  0.51100000000E-03 0. -1.
         11   -1    0    0    0    0 -0.00000000000E+00 -0.00000000000E+00 -0.45593999997E+02  0.45594000000E+02  0.51100000000E-03 0.  1.
    9900012    2    1    2    0    0 -0.42865935243E+02 -0.53996335385E+01 -0.41207455087E+01  0.47787251272E+02  0.19999909851E+02 0.  0.
         12    1    1    2    0    0  0.42865935243E+02  0.53996335385E+01  0.41207455087E+01  0.43400748728E+02  0.00000000000E+00 0. -1.
         11    1    3    3    0    0 -0.12084432553E+02  0.13281271532E+01 -0.70681354451E+01  0.14062573406E+02  0.51100000000E-03 0. -1.
        -11    1    3    3    0    0 -0.13467923954E+02  0.17271592450E+01  0.47208834930E+01  0.14375492893E+02  0.51100000000E-03 0.  1.
         12    1    3    3    0    0 -0.17313578736E+02 -0.84549199367E+01 -0.17734935566E+01  0.19349184974E+02  0.00000000000E+00 0. -1.
</event>
<event>
 7    1  0.1631716E-009  0.4778727E+02  0.7816164E-02  0.1312668E+00
        -11   -1    0    0    0    0  0.00000000000E+00  0.00000000000E+00  0.45593999997E+02  0.45594000000E+02  0.51100000000E-03 0. -1.
         11   -1    0    0    0    0 -0.00000000000E+00 -0.00000000000E+00 -0.45593999997E+02  0.45594000000E+02  0.51100000000E-03 0.  1.
    9900012    2    1    2    0    0 -0.31451940623E+02  0.17272117187E+02 -0.24414597672E+02  0.47787272120E+02  0.20000004903E+02 0.  0.
         12    1    1    2    0    0  0.31451940623E+02 -0.17272117187E+02  0.24414597672E+02  0.43400727880E+02  0.00000000000E+00 0. -1.
         11    1    3    3    0    0 -0.11866442128E+02  0.67677585650E+01 -0.59497206455E+01  0.14900140294E+02  0.51100000000E-03 0. -1.
        -11    1    3    3    0    0 -0.20794705969E+02  0.97220295507E+01 -0.20238191759E+02  0.30602647939E+02  0.51100000000E-03 0.  1.
         12    1    3    3    0    0  0.12092074743E+01  0.78232907095E+00  0.17733147322E+01  0.22844838871E+01  0.00000000000E+00 0. -1.
</event>
<event>
 7    1  0.1631716E-009  0.4778727E+02  0.7816164E-02  0.1312668E+00
        -11   -1    0    0    0    0  0.00000000000E+00  0.00000000000E+00  0.45593999997E+02  0.45594000000E+02  0.51100000000E-03 0.  1.
         11   -1    0    0    0    0 -0.00000000000E+00 -0.00000000000E+00 -0.45593999997E+02  0.45594000000E+02  0.51100000000E-03 0. -1.
    9900012    2    1    2    0    0 -0.40039514136E+02 -0.11141639127E+02  0.12502973173E+02  0.47787272439E+02  0.20000006357E+02 0.  0.
         12    1    1    2    0    0  0.40039514136E+02  0.11141639127E+02 -0.12502973173E+02  0.43400727561E+02  0.00000000000E+00 0. -1.
         11    1    3    3    0    0 -0.94756023547E+01 -0.85432220888E+01  0.10035776062E+02  0.16232389999E+02  0.51100000000E-03 0. -1.
        -11    1    3    3    0    0 -0.68650690270E+01 -0.11578957046E+01 -0.23123528970E+01  0.73359983227E+01  0.51100000000E-03 0.  1.
        -12    1    3    3    0    0 -0.23698842754E+02 -0.14405213336E+01  0.47795500076E+01  0.24218884117E+02  0.00000000000E+00 0.  1.
</event>
<event>
 7    1  0.1631716E-009  0.4778727E+02  0.7816164E-02  0.1312668E+00
        -11   -1    0    0    0    0  0.00000000000E+00  0.00000000000E+00  0.45593999997E+02  0.45594000000E+02  0.51100000000E-03 0. -1.
         11   -1    0    0    0    0 -0.00000000000E+00 -0.00000000000E+00 -0.45593999997E+02  0.45594000000E+02  0.51100000000E-03 0.  1.
    9900012    2    1    2    0    0  0.36051854969E+02  0.10594059743E+02  0.21717570086E+02  0.47787271908E+02  0.20000003936E+02 0.  0.
         12    1    1    2    0    0 -0.36051854969E+02 -0.10594059743E+02 -0.21717570086E+02  0.43400728092E+02  0.00000000000E+00 0. -1.
         11    1    3    3    0    0  0.22730953804E+02  0.50865789678E+01  0.15272462464E+02  0.27853503485E+02  0.51100000000E-03 0. -1.
        -11    1    3    3    0    0  0.10019473942E+02  0.67454835426E+01 -0.55980709260E+00  0.12091517296E+02  0.51100000000E-03 0.  1.
         12    1    3    3    0    0  0.33014272235E+01 -0.12380027677E+01  0.70049147149E+01  0.78422511263E+01  0.00000000000E+00 0. -1.
</event>
<event>
 7    1  0.1631716E-009  0.4778727E+02  0.7816164E-02  0.1312668E+00
        -11   -1    0    0    0    0  0.00000000000E+00  0.00000000000E+00  0.45593999997E+02  0.45594000000E+02  0.51100000000E-03 0.  1.
         11   -1    0    0    0    0 -0.00000000000E+00 -0.00000000000E+00 -0.45593999997E+02  0.45594000000E+02  0.51100000000E-03 0. -1.
    9900012    2    1    2    0    0 -0.34447557181E+02  0.16623407025E+02  0.20509788493E+02  0.47787270964E+02  0.19999999632E+02 0.  0.
         12    1    1    2    0    0  0.34447557181E+02 -0.16623407025E+02 -0.20509788493E+02  0.43400729036E+02  0.00000000000E+00 0. -1.
         11    1    3    3    0    0  0.14857753514E+01  0.10243974823E+01  0.19321866288E+01  0.26439107448E+01  0.51100000000E-03 0. -1.
        -11    1    3    3    0    0 -0.18427711318E+02  0.27255311606E+01  0.12980060867E+02  0.22704427870E+02  0.51100000000E-03 0.  1.
        -12    1    3    3    0    0 -0.17505621214E+02  0.12873478382E+02  0.55975409974E+01  0.22438932349E+02  0.00000000000E+00 0.  1.
</event>
<event>
 7    1  0.1631716E-009  0.4778727E+02  0.7816164E-02  0.1312668E+00
        -11   -1    0    0    0    0  0.00000000000E+00  0.00000000000E+00  0.45593999997E+02  0.45594000000E+02  0.51100000000E-03 0.  1.
         11   -1    0    0    0    0 -0.00000000000E+00 -0.00000000000E+00 -0.45593999997E+02  0.45594000000E+02  0.51100000000E-03 0. -1.
    9900012    2    1    2    0    0  0.14121427777E+02  0.62707210012E+01  0.40557200141E+02  0.47787272499E+02  0.20000006633E+02 0.  0.
         12    1    1    2    0    0 -0.14121427777E+02 -0.62707210012E+01 -0.40557200141E+02  0.43400727501E+02  0.00000000000E+00 0. -1.
         11    1    3    3    0    0  0.75817798151E+01  0.21125895585E+01  0.17462622897E+02  0.19154362910E+02  0.51100000000E-03 0. -1.
        -11    1    3    3    0    0  0.67539330570E+01  0.41035786447E+01  0.25254274258E+02  0.26461922417E+02  0.51100000000E-03 0.  1.
         12    1    3    3    0    0 -0.21428509543E+00  0.54552797971E-01 -0.21596970138E+01  0.21709871720E+01  0.00000000000E+00 0. -1.
</event>
<event>
 7    1  0.1631716E-009  0.4778724E+02  0.7816164E-02  0.1312668E+00
        -11   -1    0    0    0    0  0.00000000000E+00  0.00000000000E+00  0.45593999997E+02  0.45594000000E+02  0.51100000000E-03 0. -1.
         11   -1    0    0    0    0 -0.00000000000E+00 -0.00000000000E+00 -0.45593999997E+02  0.45594000000E+02  0.51100000000E-03 0.  1.
    9900012    2    1    2    0    0 -0.22396932732E+00  0.42243034630E+02  0.99549769634E+01  0.47787243056E+02  0.19999872389E+02 0.  0.
         12    1    1    2    0    0  0.22396932732E+00 -0.42243034630E+02 -0.99549769634E+01  0.43400756944E+02  0.00000000000E+00 0. -1.
         11    1    3    3    0    0 -0.58256854192E+01  0.30554313610E+01 -0.80100712163E+00  0.66269060711E+01  0.51100000000E-03 0. -1.
        -11    1    3    3    0    0  0.23276713917E+01  0.15995422911E+02  0.26774293068E+01  0.16384145879E+02  0.51100000000E-03 0.  1.
        -12    1    3    3    0    0  0.32740447001E+01  0.23192180357E+02  0.80785547782E+01  0.24776191106E+02  0.00000000000E+00 0.  1.
</event>
<event>
 7    1  0.1631716E-009  0.4778727E+02  0.7816164E-02  0.1312668E+00
        -11   -1    0    0    0    0  0.00000000000E+00  0.00000000000E+00  0.45593999997E+02  0.45594000000E+02  0.51100000000E-03 0.  1.
         11   -1    0    0    0    0 -0.00000000000E+00 -0.00000000000E+00 -0.45593999997E+02  0.45594000000E+02  0.51100000000E-03 0. -1.
    9900012    2    1    2    0    0  0.29233312469E+02  0.20199443115E+02  0.24920261247E+02  0.47787268661E+02  0.19999989134E+02 0.  0.
         12    1    1    2    0    0 -0.29233312469E+02 -0.20199443115E+02 -0.24920261247E+02  0.43400731339E+02  0.00000000000E+00 0. -1.
         11    1    3    3    0    0  0.25539262308E+01  0.59567567891E+00 -0.17817886755E+01  0.31705109765E+01  0.51100000000E-03 0. -1.
        -11    1    3    3    0    0  0.68466664067E+01  0.11556995291E+02  0.15321545278E+02  0.20376229558E+02  0.51100000000E-03 0.  1.
         12    1    3    3    0    0  0.19832719832E+02  0.80467721458E+01  0.11380504645E+02  0.24240528127E+02  0.00000000000E+00 0. -1.
</event>
<event>
 7    1  0.1631716E-009  0.4778727E+02  0.7816164E-02  0.1312668E+00
        -11   -1    0    0    0    0  0.00000000000E+00  0.00000000000E+00  0.45593999997E+02  0.45594000000E+02  0.51100000000E-03 0.  1.
         11   -1    0    0    0    0 -0.00000000000E+00 -0.00000000000E+00 -0.45593999997E+02  0.45594000000E+02  0.51100000000E-03 0. -1.
    9900012    2    1    2    0    0  0.27090923655E+02 -0.25303933090E+02  0.22570249588E+02  0.47787270273E+02  0.19999996484E+02 0.  0.
         12    1    1    2    0    0 -0.27090923655E+02  0.25303933090E+02 -0.22570249588E+02  0.43400729727E+02  0.00000000000E+00 0. -1.
         11    1    3    3    0    0  0.87325982284E+00 -0.55391203088E+01 -0.24884726994E+01  0.61348947139E+01  0.51100000000E-03 0. -1.
        -11    1    3    3    0    0  0.70454252782E+01 -0.38545342979E+01  0.87410912750E+01  0.11870220257E+02  0.51100000000E-03 0.  1.
        -12    1    3    3    0    0  0.19172238554E+02 -0.15910278484E+02  0.16317631012E+02  0.29782155303E+02  0.00000000000E+00 0.  1.
</event>
<event>
 7    1  0.1631716E-009  0.4778727E+02  0.7816164E-02  0.1312668E+00
        -11   -1    0    0    0    0  0.00000000000E+00  0.00000000000E+00  0.45593999997E+02  0.45594000000E+02  0.51100000000E-03 0. -1.
         11   -1    0    0    0    0 -0.00000000000E+00 -0.00000000000E+00 -0.45593999997E+02  0.45594000000E+02  0.51100000000E-03 0.  1.
    9900012    2    1    2    0    0  0.15099763526E+02 -0.87235854838E+00 -0.40679962318E+02  0.47787271870E+02  0.20000003764E+02 0.  0.
         12    1    1    2    0    0 -0.15099763526E+02  0.87235854838E+00  0.40679962318E+02  0.43400728130E+02  0.00000000000E+00 0. -1.
         11    1    3    3    0    0  0.71681992404E+01 -0.32254450276E+01 -0.29580360878E+02  0.30606932645E+02  0.51100000000E-03 0.  1.
        -11    1    3    3    0    0  0.21298534259E+01  0.51462049585E+01 -0.86564132995E+01  0.10293356720E+02  0.51100000000E-03 0. -1.
         12    1    3    3    0    0  0.58017108596E+01 -0.27931184793E+01 -0.24431881408E+01  0.68869825054E+01  0.00000000000E+00 0. -1.
</event>
<event>
 7    1  0.1631716E-009  0.4778727E+02  0.7816164E-02  0.1312668E+00
        -11   -1    0    0    0    0  0.00000000000E+00  0.00000000000E+00  0.45593999997E+02  0.45594000000E+02  0.51100000000E-03 0.  1.
         11   -1    0    0    0    0 -0.00000000000E+00 -0.00000000000E+00 -0.45593999997E+02  0.45594000000E+02  0.51100000000E-03 0. -1.
    9900012    2    1    2    0    0 -0.16700509730E+02 -0.16559267997E+01  0.40024666592E+02  0.47787273570E+02  0.20000011517E+02 0.  0.
         12    1    1    2    0    0  0.16700509730E+02  0.16559267997E+01 -0.40024666592E+02  0.43400726430E+02  0.00000000000E+00 0. -1.
         11    1    3    3    0    0 -0.73824215378E+01  0.44130619598E+00  0.75709100712E+01  0.10583646748E+02  0.51100000000E-03 0. -1.
        -11    1    3    3    0    0 -0.12963923219E+02 -0.42859213874E+01  0.21683974185E+02  0.25624737346E+02  0.51100000000E-03 0.  1.
        -12    1    3    3    0    0  0.36458350275E+01  0.21886883918E+01  0.10769782336E+02  0.11578889476E+02  0.00000000000E+00 0.  1.
</event>
<event>
 7    1  0.1631716E-009  0.4778727E+02  0.7816164E-02  0.1312668E+00
        -11   -1    0    0    0    0  0.00000000000E+00  0.00000000000E+00  0.45593999997E+02  0.45594000000E+02  0.51100000000E-03 0.  1.
         11   -1    0    0    0    0 -0.00000000000E+00 -0.00000000000E+00 -0.45593999997E+02  0.45594000000E+02  0.51100000000E-03 0. -1.
    9900012    2    1    2    0    0  0.10258252622E+02 -0.33903445269E+02  0.25078835599E+02  0.47787270249E+02  0.19999996371E+02 0.  0.
         12    1    1    2    0    0 -0.10258252622E+02  0.33903445269E+02 -0.25078835599E+02  0.43400729751E+02  0.00000000000E+00 0. -1.
         11    1    3    3    0    0  0.45483244259E+01 -0.17247430170E+02  0.12549873252E+02  0.21809640562E+02  0.51100000000E-03 0.  1.
        -11    1    3    3    0    0 -0.10655852765E+01 -0.12055920928E+02  0.13016173058E+02  0.17773617042E+02  0.51100000000E-03 0. -1.
         12    1    3    3    0    0  0.67755134725E+01 -0.46000941707E+01 -0.48721071111E+00  0.82040126446E+01  0.00000000000E+00 0. -1.
</event>
<event>
 7    1  0.1631716E-009  0.4778727E+02  0.7816164E-02  0.1312668E+00
        -11   -1    0    0    0    0  0.00000000000E+00  0.00000000000E+00  0.45593999997E+02  0.45594000000E+02  0.51100000000E-03 0. -1.
         11   -1    0    0    0    0 -0.00000000000E+00 -0.00000000000E+00 -0.45593999997E+02  0.45594000000E+02  0.51100000000E-03 0.  1.
    9900012    2    1    2    0    0  0.23610177774E-02  0.36234315072E+02 -0.23889282047E+02  0.47787269695E+02  0.19999993845E+02 0.  0.
         12    1    1    2    0    0 -0.23610177774E-02 -0.36234315072E+02  0.23889282047E+02  0.43400730305E+02  0.00000000000E+00 0. -1.
         11    1    3    3    0    0  0.28077789716E+01  0.16694143089E+02 -0.30530205922E+01  0.17201714194E+02  0.51100000000E-03 0. -1.
        -11    1    3    3    0    0  0.31579294267E+01  0.13106660633E+02 -0.10948461195E+02  0.17367379595E+02  0.51100000000E-03 0.  1.
         12    1    3    3    0    0 -0.59633473806E+01  0.64335113508E+01 -0.98878002598E+01  0.13218175905E+02  0.00000000000E+00 0. -1.
</event>
<event>
 7    1  0.1631716E-009  0.4778727E+02  0.7816164E-02  0.1312668E+00
        -11   -1    0    0    0    0  0.00000000000E+00  0.00000000000E+00  0.45593999997E+02  0.45594000000E+02  0.51100000000E-03 0.  1.
         11   -1    0    0    0    0 -0.00000000000E+00 -0.00000000000E+00 -0.45593999997E+02  0.45594000000E+02  0.51100000000E-03 0. -1.
    9900012    2    1    2    0    0 -0.41021852505E+02 -0.12936338222E+02  0.57863723491E+01  0.47787270346E+02  0.19999996817E+02 0.  0.
         12    1    1    2    0    0  0.41021852505E+02  0.12936338222E+02 -0.57863723491E+01  0.43400729654E+02  0.00000000000E+00 0. -1.
         11    1    3    3    0    0 -0.50922152935E+01  0.16909856319E+01  0.53256952906E+01  0.75599682269E+01  0.51100000000E-03 0. -1.
        -11    1    3    3    0    0 -0.24302806509E+02 -0.47813221729E+01 -0.17575452883E+01  0.24830956720E+02  0.51100000000E-03 0.  1.
         12    1    3    3    0    0 -0.11626830702E+02 -0.98460016806E+01  0.22182223468E+01  0.15396345399E+02  0.00000000000E+00 0. -1.
</event>
<event>
 7    1  0.1631716E-009  0.4778729E+02  0.7816164E-02  0.1312668E+00
        -11   -1    0    0    0    0  0.00000000000E+00  0.00000000000E+00  0.45593999997E+02  0.45594000000E+02  0.51100000000E-03 0.  1.
         11   -1    0    0    0    0 -0.00000000000E+00 -0.00000000000E+00 -0.45593999997E+02  0.45594000000E+02  0.51100000000E-03 0. -1.
    9900012    2    1    2    0    0 -0.35655443323E+02  0.95622785428E+00  0.24726442465E+02  0.47787286097E+02  0.20000068630E+02 0.  0.
         12    1    1    2    0    0  0.35655443323E+02 -0.95622785428E+00 -0.24726442465E+02  0.43400713903E+02  0.00000000000E+00 0. -1.
         11    1    3    3    0    0 -0.92944895068E+00 -0.45348560518E+01  0.12968213256E+01  0.48073423608E+01  0.51100000000E-03 0. -1.
        -11    1    3    3    0    0 -0.13825558510E+02  0.56646049090E+01  0.11961796820E+02  0.19139446186E+02  0.51100000000E-03 0.  1.
        -12    1    3    3    0    0 -0.20900435863E+02 -0.17352100294E+00  0.11467824320E+02  0.23840497550E+02  0.00000000000E+00 0.  1.
</event>
<event>
 7    1  0.1631716E-009  0.4778727E+02  0.7816164E-02  0.1312668E+00
        -11   -1    0    0    0    0  0.00000000000E+00  0.00000000000E+00  0.45593999997E+02  0.45594000000E+02  0.51100000000E-03 0.  1.
         11   -1    0    0    0    0 -0.00000000000E+00 -0.00000000000E+00 -0.45593999997E+02  0.45594000000E+02  0.51100000000E-03 0. -1.
    9900012    2    1    2    0    0 -0.57813756695E+01  0.70200119245E+01  0.42437229325E+02  0.47787270688E+02  0.19999998374E+02 0.  0.
         12    1    1    2    0    0  0.57813756695E+01 -0.70200119245E+01 -0.42437229325E+02  0.43400729312E+02  0.00000000000E+00 0. -1.
         11    1    3    3    0    0  0.64507529553E+00  0.16520831927E+01 -0.12963254043E+01  0.21968069618E+01  0.51100000000E-03 0. -1.
        -11    1    3    3    0    0  0.18557479813E+01  0.39524683080E+01  0.17898769164E+02  0.18423673470E+02  0.51100000000E-03 0.  1.
        -12    1    3    3    0    0 -0.82821989464E+01  0.14154604238E+01  0.25834785565E+02  0.27166790256E+02  0.00000000000E+00 0.  1.
</event>
<event>
 7    1  0.1631716E-009  0.4778727E+02  0.7816164E-02  0.1312668E+00
        -11   -1    0    0    0    0  0.00000000000E+00  0.00000000000E+00  0.45593999997E+02  0.45594000000E+02  0.51100000000E-03 0.  1.
         11   -1    0    0    0    0 -0.00000000000E+00 -0.00000000000E+00 -0.45593999997E+02  0.45594000000E+02  0.51100000000E-03 0. -1.
    9900012    2    1    2    0    0 -0.30754600818E+02  0.11140910578E+02  0.28524686368E+02  0.47787273135E+02  0.20000009531E+02 0.  0.
         12    1    1    2    0    0  0.30754600818E+02 -0.11140910578E+02 -0.28524686368E+02  0.43400726865E+02  0.00000000000E+00 0. -1.
         11    1    3    3    0    0 -0.24895705908E+00  0.39629547834E+00 -0.23001055618E+01  0.23472357316E+01  0.51100000000E-03 0. -1.
        -11    1    3    3    0    0 -0.17210993761E+02  0.51834570269E+01  0.11519241885E+02  0.21348992174E+02  0.51100000000E-03 0.  1.
        -12    1    3    3    0    0 -0.13294649999E+02  0.55611580733E+01  0.19305550045E+02  0.24091045229E+02  0.00000000000E+00 0.  1.
</event>
<event>
 7    1  0.1631716E-009  0.4778727E+02  0.7816164E-02  0.1312668E+00
        -11   -1    0    0    0    0  0.00000000000E+00  0.00000000000E+00  0.45593999997E+02  0.45594000000E+02  0.51100000000E-03 0.  1.
         11   -1    0    0    0    0 -0.00000000000E+00 -0.00000000000E+00 -0.45593999997E+02  0.45594000000E+02  0.51100000000E-03 0. -1.
    9900012    2    1    2    0    0 -0.68427649350E+01 -0.33895965505E+02  0.26227149398E+02  0.47787271031E+02  0.19999999941E+02 0.  0.
         12    1    1    2    0    0  0.68427649350E+01  0.33895965505E+02 -0.26227149398E+02  0.43400728969E+02  0.00000000000E+00 0. -1.
         11    1    3    3    0    0 -0.28030447430E+01 -0.44797573414E+01 -0.84947890717E-02  0.52844449180E+01  0.51100000000E-03 0. -1.
        -11    1    3    3    0    0  0.40435708516E+00 -0.51260176516E+01  0.14060222270E+02  0.14970952279E+02  0.51100000000E-03 0.  1.
        -12    1    3    3    0    0 -0.44440772772E+01 -0.24290190512E+02  0.12175421917E+02  0.27531873834E+02  0.00000000000E+00 0.  1.
</event>
<event>
 7    1  0.1631716E-009  0.4778727E+02  0.7816164E-02  0.1312668E+00
        -11   -1    0    0    0    0  0.00000000000E+00  0.00000000000E+00  0.45593999997E+02  0.45594000000E+02  0.51100000000E-03 0.  1.
         11   -1    0    0    0    0 -0.00000000000E+00 -0.00000000000E+00 -0.45593999997E+02  0.45594000000E+02  0.51100000000E-03 0. -1.
    9900012    2    1    2    0    0 -0.29137105761E+02  0.90784191997E+01  0.30858300999E+02  0.47787269962E+02  0.19999995063E+02 0.  0.
         12    1    1    2    0    0  0.29137105761E+02 -0.90784191997E+01 -0.30858300999E+02  0.43400730038E+02  0.00000000000E+00 0. -1.
         11    1    3    3    0    0 -0.16612005095E+02  0.32725028100E+01  0.61613990772E+01  0.18017514445E+02  0.51100000000E-03 0. -1.
        -11    1    3    3    0    0 -0.12364678057E+02  0.18238212784E+01  0.16972936588E+02  0.21078239115E+02  0.51100000000E-03 0.  1.
         12    1    3    3    0    0 -0.16042260966E+00  0.39820951113E+01  0.77239653340E+01  0.86915164022E+01  0.00000000000E+00 0. -1.
</event>
<event>
 7    1  0.1631716E-009  0.4778727E+02  0.7816164E-02  0.1312668E+00
        -11   -1    0    0    0    0  0.00000000000E+00  0.00000000000E+00  0.45593999997E+02  0.45594000000E+02  0.51100000000E-03 0. -1.
         11   -1    0    0    0    0 -0.00000000000E+00 -0.00000000000E+00 -0.45593999997E+02  0.45594000000E+02  0.51100000000E-03 0.  1.
    9900012    2    1    2    0    0  0.21218468567E+02 -0.70598632929E+01 -0.37196218605E+02  0.47787265484E+02  0.19999974646E+02 0.  0.
         12    1    1    2    0    0 -0.21218468567E+02  0.70598632929E+01  0.37196218605E+02  0.43400734516E+02  0.00000000000E+00 0. -1.
         11    1    3    3    0    0  0.38855088589E+01 -0.36079565733E+01 -0.21373161851E+01  0.57168741864E+01  0.51100000000E-03 0. -1.
        -11    1    3    3    0    0  0.54868727359E+01  0.15050805241E+01 -0.25326281554E+02  0.25957495592E+02  0.51100000000E-03 0.  1.
        -12    1    3    3    0    0  0.11846086972E+02 -0.49569872437E+01 -0.97326208662E+01  0.16112895706E+02  0.00000000000E+00 0.  1.
</event>
<event>
 7    1  0.1631716E-009  0.4778727E+02  0.7816164E-02  0.1312668E+00
        -11   -1    0    0    0    0  0.00000000000E+00  0.00000000000E+00  0.45593999997E+02  0.45594000000E+02  0.51100000000E-03 0.  1.
         11   -1    0    0    0    0 -0.00000000000E+00 -0.00000000000E+00 -0.45593999997E+02  0.45594000000E+02  0.51100000000E-03 0. -1.
    9900012    2    1    2    0    0  0.14787970177E+02 -0.20375124905E+02  0.35352416160E+02  0.47787272988E+02  0.20000008860E+02 0.  0.
         12    1    1    2    0    0 -0.14787970177E+02  0.20375124905E+02 -0.35352416160E+02  0.43400727012E+02  0.00000000000E+00 0. -1.
         11    1    3    3    0    0  0.35044586214E+01 -0.10333723861E+02  0.30581432559E+01  0.11332224826E+02  0.51100000000E-03 0. -1.
        -11    1    3    3    0    0  0.67702794451E+01 -0.62462008223E+01  0.10940205498E+02  0.14301741330E+02  0.51100000000E-03 0.  1.
        -12    1    3    3    0    0  0.45132321107E+01 -0.37952002216E+01  0.21354067406E+02  0.22153306832E+02  0.00000000000E+00 0.  1.
</event>
<event>
 7    1  0.1631716E-009  0.4778727E+02  0.7816164E-02  0.1312668E+00
        -11   -1    0    0    0    0  0.00000000000E+00  0.00000000000E+00  0.45593999997E+02  0.45594000000E+02  0.51100000000E-03 0.  1.
         11   -1    0    0    0    0 -0.00000000000E+00 -0.00000000000E+00 -0.45593999997E+02  0.45594000000E+02  0.51100000000E-03 0. -1.
    9900012    2    1    2    0    0 -0.18229574144E+02 -0.13473452182E+02  0.37010430531E+02  0.47787271259E+02  0.20000000978E+02 0.  0.
         12    1    1    2    0    0  0.18229574144E+02  0.13473452182E+02 -0.37010430531E+02  0.43400728741E+02  0.00000000000E+00 0. -1.
         11    1    3    3    0    0 -0.14940982824E+02 -0.47511629827E+01  0.21240612077E+02  0.26400191649E+02  0.51100000000E-03 0. -1.
        -11    1    3    3    0    0 -0.38154488664E+01 -0.95501348754E+01  0.16966214217E+02  0.19839736674E+02  0.51100000000E-03 0.  1.
        -12    1    3    3    0    0  0.52685754668E+00  0.82784567625E+00 -0.11963957631E+01  0.15473429355E+01  0.00000000000E+00 0.  1.
</event>
<event>
 7    1  0.1631716E-009  0.4778727E+02  0.7816164E-02  0.1312668E+00
        -11   -1    0    0    0    0  0.00000000000E+00  0.00000000000E+00  0.45593999997E+02  0.45594000000E+02  0.51100000000E-03 0. -1.
         11   -1    0    0    0    0 -0.00000000000E+00 -0.00000000000E+00 -0.45593999997E+02  0.45594000000E+02  0.51100000000E-03 0.  1.
    9900012    2    1    2    0    0  0.25773121408E+02  0.34462044456E+02 -0.56335454911E+01  0.47787272702E+02  0.20000007557E+02 0.  0.
         12    1    1    2    0    0 -0.25773121408E+02 -0.34462044456E+02  0.56335454911E+01  0.43400727298E+02  0.00000000000E+00 0. -1.
         11    1    3    3    0    0  0.80701518562E+01  0.61328044682E+01  0.63827614278E+01  0.11978242164E+02  0.51100000000E-03 0. -1.
        -11    1    3    3    0    0  0.89616752323E+01  0.10174039272E+02 -0.55054194485E+01  0.14633261483E+02  0.51100000000E-03 0.  1.
        -12    1    3    3    0    0  0.87412943195E+01  0.18155200716E+02 -0.65108874704E+01  0.21175769055E+02  0.00000000000E+00 0.  1.
</event>
<event>
 7    1  0.1631716E-009  0.4778728E+02  0.7816164E-02  0.1312668E+00
        -11   -1    0    0    0    0  0.00000000000E+00  0.00000000000E+00  0.45593999997E+02  0.45594000000E+02  0.51100000000E-03 0. -1.
         11   -1    0    0    0    0 -0.00000000000E+00 -0.00000000000E+00 -0.45593999997E+02  0.45594000000E+02  0.51100000000E-03 0.  1.
    9900012    2    1    2    0    0  0.32778751042E+02 -0.27201106888E+02  0.83231839346E+01  0.47787284262E+02  0.20000060263E+02 0.  0.
         12    1    1    2    0    0 -0.32778751042E+02  0.27201106888E+02 -0.83231839346E+01  0.43400715738E+02  0.00000000000E+00 0. -1.
         11    1    3    3    0    0  0.16056089397E+01 -0.95792073579E+01  0.48470012654E+01  0.10855073247E+02  0.51100000000E-03 0. -1.
        -11    1    3    3    0    0  0.74006392689E+01 -0.30537632999E+01 -0.25596089899E+01  0.84051490363E+01  0.51100000000E-03 0.  1.
         12    1    3    3    0    0  0.23772502833E+02 -0.14568136230E+02  0.60357916591E+01  0.28527061978E+02  0.00000000000E+00 0. -1.
</event>
<event>
 7    1  0.1631716E-009  0.4778726E+02  0.7816164E-02  0.1312668E+00
        -11   -1    0    0    0    0  0.00000000000E+00  0.00000000000E+00  0.45593999997E+02  0.45594000000E+02  0.51100000000E-03 0.  1.
         11   -1    0    0    0    0 -0.00000000000E+00 -0.00000000000E+00 -0.45593999997E+02  0.45594000000E+02  0.51100000000E-03 0. -1.
    9900012    2    1    2    0    0 -0.36975087806E+02 -0.74415324495E+01  0.21473024946E+02  0.47787258949E+02  0.19999944850E+02 0.  0.
         12    1    1    2    0    0  0.36975087806E+02  0.74415324495E+01 -0.21473024946E+02  0.43400741051E+02  0.00000000000E+00 0. -1.
         11    1    3    3    0    0 -0.11197894116E+02 -0.94614653394E+00  0.12921694800E+02  0.17124783872E+02  0.51100000000E-03 0. -1.
        -11    1    3    3    0    0 -0.24828167752E+02 -0.30759879123E+01  0.47550298580E+01  0.25465858022E+02  0.51100000000E-03 0.  1.
         12    1    3    3    0    0 -0.94902593805E+00 -0.34193980032E+01  0.37963002885E+01  0.51966170550E+01  0.00000000000E+00 0. -1.
</event>
<event>
 7    1  0.1631716E-009  0.4778727E+02  0.7816164E-02  0.1312668E+00
        -11   -1    0    0    0    0  0.00000000000E+00  0.00000000000E+00  0.45593999997E+02  0.45594000000E+02  0.51100000000E-03 0.  1.
         11   -1    0    0    0    0 -0.00000000000E+00 -0.00000000000E+00 -0.45593999997E+02  0.45594000000E+02  0.51100000000E-03 0. -1.
    9900012    2    1    2    0    0  0.21173131951E+02 -0.15241948425E+02  0.34684363394E+02  0.47787267605E+02  0.19999984319E+02 0.  0.
         12    1    1    2    0    0 -0.21173131951E+02  0.15241948425E+02 -0.34684363394E+02  0.43400732395E+02  0.00000000000E+00 0. -1.
         11    1    3    3    0    0 -0.66996832771E+00 -0.98739860648E+00  0.86802682239E+01  0.87618987821E+01  0.51100000000E-03 0. -1.
        -11    1    3    3    0    0  0.15488416612E+02 -0.27409852002E+01  0.16527272901E+02  0.22815670028E+02  0.51100000000E-03 0.  1.
         12    1    3    3    0    0  0.63546836662E+01 -0.11513564618E+02  0.94768222686E+01  0.16209698795E+02  0.00000000000E+00 0. -1.
</event>
<event>
 7    1  0.1631716E-009  0.4778727E+02  0.7816164E-02  0.1312668E+00
        -11   -1    0    0    0    0  0.00000000000E+00  0.00000000000E+00  0.45593999997E+02  0.45594000000E+02  0.51100000000E-03 0.  1.
         11   -1    0    0    0    0 -0.00000000000E+00 -0.00000000000E+00 -0.45593999997E+02  0.45594000000E+02  0.51100000000E-03 0. -1.
    9900012    2    1    2    0    0 -0.37687529200E+02 -0.13108045673E+02  0.17071982682E+02  0.47787270614E+02  0.19999998037E+02 0.  0.
         12    1    1    2    0    0  0.37687529200E+02  0.13108045673E+02 -0.17071982682E+02  0.43400729386E+02  0.00000000000E+00 0. -1.
         11    1    3    3    0    0 -0.68561507989E+01 -0.44952648141E+01  0.49032080016E+01  0.95527827618E+01  0.51100000000E-03 0. -1.
        -11    1    3    3    0    0 -0.32536797975E+02 -0.96982273235E+01  0.12512907115E+02  0.36183859391E+02  0.51100000000E-03 0.  1.
         12    1    3    3    0    0  0.17054195748E+01  0.10854464641E+01 -0.34413243406E+00  0.20506284609E+01  0.00000000000E+00 0. -1.
</event>
<event>
 7    1  0.1631716E-009  0.4778727E+02  0.7816164E-02  0.1312668E+00
        -11   -1    0    0    0    0  0.00000000000E+00  0.00000000000E+00  0.45593999997E+02  0.45594000000E+02  0.51100000000E-03 0.  1.
         11   -1    0    0    0    0 -0.00000000000E+00 -0.00000000000E+00 -0.45593999997E+02  0.45594000000E+02  0.51100000000E-03 0. -1.
    9900012    2    1    2    0    0 -0.15093748848E+02  0.39276694767E+01  0.40501549004E+02  0.47787270587E+02  0.19999997915E+02 0.  0.
         12    1    1    2    0    0  0.15093748848E+02 -0.39276694767E+01 -0.40501549004E+02  0.43400729413E+02  0.00000000000E+00 0. -1.
         11    1    3    3    0    0 -0.72560840826E+01  0.70984881946E+01  0.72806776314E+01  0.12491899691E+02  0.51100000000E-03 0. -1.
        -11    1    3    3    0    0  0.13592603681E+01 -0.58495457258E+00  0.11119938173E+02  0.11217967099E+02  0.51100000000E-03 0.  1.
        -12    1    3    3    0    0 -0.91969251338E+01 -0.25858641453E+01  0.22100933200E+02  0.24077403797E+02  0.00000000000E+00 0.  1.
</event>
<event>
 7    1  0.1631716E-009  0.4778726E+02  0.7816164E-02  0.1312668E+00
        -11   -1    0    0    0    0  0.00000000000E+00  0.00000000000E+00  0.45593999997E+02  0.45594000000E+02  0.51100000000E-03 0.  1.
         11   -1    0    0    0    0 -0.00000000000E+00 -0.00000000000E+00 -0.45593999997E+02  0.45594000000E+02  0.51100000000E-03 0. -1.
    9900012    2    1    2    0    0 -0.25113972275E+02  0.33281758495E+02  0.12051423793E+02  0.47787264208E+02  0.19999968828E+02 0.  0.
         12    1    1    2    0    0  0.25113972275E+02 -0.33281758495E+02 -0.12051423793E+02  0.43400735792E+02  0.00000000000E+00 0. -1.
         11    1    3    3    0    0 -0.41391620837E+01  0.12393842311E+02  0.86640043940E+01  0.15678168336E+02  0.51100000000E-03 0. -1.
        -11    1    3    3    0    0 -0.20256201616E+02  0.20497167849E+02  0.59446321325E+01  0.29424245873E+02  0.51100000000E-03 0.  1.
        -12    1    3    3    0    0 -0.71860857452E+00  0.39074833426E+00 -0.25572127339E+01  0.26848499977E+01  0.00000000000E+00 0.  1.
</event>
<event>
 7    1  0.1631716E-009  0.4778726E+02  0.7816164E-02  0.1312668E+00
        -11   -1    0    0    0    0  0.00000000000E+00  0.00000000000E+00  0.45593999997E+02  0.45594000000E+02  0.51100000000E-03 0. -1.
         11   -1    0    0    0    0 -0.00000000000E+00 -0.00000000000E+00 -0.45593999997E+02  0.45594000000E+02  0.51100000000E-03 0.  1.
    9900012    2    1    2    0    0  0.31574362259E+02 -0.22100288092E+02 -0.19956471940E+02  0.47787264314E+02  0.19999969313E+02 0.  0.
         12    1    1    2    0    0 -0.31574362259E+02  0.22100288092E+02  0.19956471940E+02  0.43400735686E+02  0.00000000000E+00 0. -1.
         11    1    3    3    0    0 -0.11485125512E+01 -0.23235628773E+01 -0.51615375068E+01  0.57757679334E+01  0.51100000000E-03 0. -1.
        -11    1    3    3    0    0  0.12319922307E+02 -0.11063791624E+02 -0.28087597265E+01  0.16795151152E+02  0.51100000000E-03 0.  1.
        -12    1    3    3    0    0  0.20402952503E+02 -0.87129335898E+01 -0.11986174707E+02  0.25216345228E+02  0.00000000000E+00 0.  1.
</event>
<event>
 7    1  0.1631716E-009  0.4778727E+02  0.7816164E-02  0.1312668E+00
        -11   -1    0    0    0    0  0.00000000000E+00  0.00000000000E+00  0.45593999997E+02  0.45594000000E+02  0.51100000000E-03 0.  1.
         11   -1    0    0    0    0 -0.00000000000E+00 -0.00000000000E+00 -0.45593999997E+02  0.45594000000E+02  0.51100000000E-03 0. -1.
    9900012    2    1    2    0    0 -0.22523252299E+02  0.16040331311E+02  0.33451964397E+02  0.47787273685E+02  0.20000012039E+02 0.  0.
         12    1    1    2    0    0  0.22523252299E+02 -0.16040331311E+02 -0.33451964397E+02  0.43400726315E+02  0.00000000000E+00 0. -1.
         11    1    3    3    0    0  0.93529947229E+00 -0.17872435648E+01  0.15163954636E+01  0.25235847769E+01  0.51100000000E-03 0. -1.
        -11    1    3    3    0    0 -0.86893424818E+01  0.14262511345E+02  0.14306652839E+02  0.21991003122E+02  0.51100000000E-03 0.  1.
        -12    1    3    3    0    0 -0.14769209289E+02  0.35650635311E+01  0.17628916094E+02  0.23272685786E+02  0.00000000000E+00 0.  1.
</event>
<event>
 7    1  0.1631716E-009  0.4778726E+02  0.7816164E-02  0.1312668E+00
        -11   -1    0    0    0    0  0.00000000000E+00  0.00000000000E+00  0.45593999997E+02  0.45594000000E+02  0.51100000000E-03 0.  1.
         11   -1    0    0    0    0 -0.00000000000E+00 -0.00000000000E+00 -0.45593999997E+02  0.45594000000E+02  0.51100000000E-03 0. -1.
    9900012    2    1    2    0    0 -0.41673718428E+02  0.63394700338E+01  0.10331324609E+02  0.47787263185E+02  0.19999964165E+02 0.  0.
         12    1    1    2    0    0  0.41673718428E+02 -0.63394700338E+01 -0.10331324609E+02  0.43400736815E+02  0.00000000000E+00 0. -1.
         11    1    3    3    0    0 -0.51865915637E+01  0.23506965123E+01 -0.28488285640E+01  0.63672859673E+01  0.51100000000E-03 0. -1.
        -11    1    3    3    0    0 -0.75710758271E+00  0.31715933489E+01 -0.17855113678E+00  0.32655929067E+01  0.51100000000E-03 0.  1.
        -12    1    3    3    0    0 -0.35730019282E+02  0.81718017258E+00  0.13358704310E+02  0.38154384311E+02  0.00000000000E+00 0.  1.
</event>
<event>
 7    1  0.1631716E-009  0.4778727E+02  0.7816164E-02  0.1312668E+00
        -11   -1    0    0    0    0  0.00000000000E+00  0.00000000000E+00  0.45593999997E+02  0.45594000000E+02  0.51100000000E-03 0. -1.
         11   -1    0    0    0    0 -0.00000000000E+00 -0.00000000000E+00 -0.45593999997E+02  0.45594000000E+02  0.51100000000E-03 0.  1.
    9900012    2    1    2    0    0 -0.27338877222E+02  0.30949785893E+02 -0.13353650918E+02  0.47787269045E+02  0.19999990885E+02 0.  0.
         12    1    1    2    0    0  0.27338877222E+02 -0.30949785893E+02  0.13353650918E+02  0.43400730955E+02  0.00000000000E+00 0. -1.
         11    1    3    3    0    0 -0.10201193378E+02  0.80996876688E+01 -0.11338236141E+02  0.17269188914E+02  0.51100000000E-03 0. -1.
        -11    1    3    3    0    0  0.37570619110E+00  0.55729042076E+01  0.11840569422E+01  0.57096766592E+01  0.51100000000E-03 0.  1.
        -12    1    3    3    0    0 -0.17513390034E+02  0.17277194016E+02 -0.31994717192E+01  0.24808403473E+02  0.00000000000E+00 0.  1.
</event>
<event>
 7    1  0.1631716E-009  0.4778727E+02  0.7816164E-02  0.1312668E+00
        -11   -1    0    0    0    0  0.00000000000E+00  0.00000000000E+00  0.45593999997E+02  0.45594000000E+02  0.51100000000E-03 0.  1.
         11   -1    0    0    0    0 -0.00000000000E+00 -0.00000000000E+00 -0.45593999997E+02  0.45594000000E+02  0.51100000000E-03 0. -1.
    9900012    2    1    2    0    0 -0.22242810926E+00 -0.19565036792E+02  0.38739940212E+02  0.47787272972E+02  0.20000008789E+02 0.  0.
         12    1    1    2    0    0  0.22242810926E+00  0.19565036792E+02 -0.38739940212E+02  0.43400727028E+02  0.00000000000E+00 0. -1.
         11    1    3    3    0    0 -0.24802604324E+00 -0.14827604056E+02  0.12365759297E+02  0.19308841555E+02  0.51100000000E-03 0. -1.
        -11    1    3    3    0    0  0.58386603218E+00 -0.75955666233E+01  0.21387243086E+02  0.22703473279E+02  0.51100000000E-03 0.  1.
         12    1    3    3    0    0 -0.55826809820E+00  0.28581338866E+01  0.49869378287E+01  0.57749581375E+01  0.00000000000E+00 0. -1.
</event>
<event>
 7    1  0.1631716E-009  0.4778727E+02  0.7816164E-02  0.1312668E+00
        -11   -1    0    0    0    0  0.00000000000E+00  0.00000000000E+00  0.45593999997E+02  0.45594000000E+02  0.51100000000E-03 0.  1.
         11   -1    0    0    0    0 -0.00000000000E+00 -0.00000000000E+00 -0.45593999997E+02  0.45594000000E+02  0.51100000000E-03 0. -1.
    9900012    2    1    2    0    0 -0.27205874405E+02 -0.24217100944E+01  0.33728318414E+02  0.47787265618E+02  0.19999975256E+02 0.  0.
         12    1    1    2    0    0  0.27205874405E+02  0.24217100944E+01 -0.33728318414E+02  0.43400734382E+02  0.00000000000E+00 0. -1.
         11    1    3    3    0    0 -0.55936212158E+01  0.49088480849E+01  0.11518030057E+02  0.13713147140E+02  0.51100000000E-03 0. -1.
        -11    1    3    3    0    0 -0.11972546799E+02  0.12848601186E+01  0.15119923696E+02  0.19328860163E+02  0.51100000000E-03 0.  1.
         12    1    3    3    0    0 -0.96397063902E+01 -0.86154182979E+01  0.70903646611E+01  0.14745258315E+02  0.00000000000E+00 0. -1.
</event>
<event>
 7    1  0.1631716E-009  0.4778727E+02  0.7816164E-02  0.1312668E+00
        -11   -1    0    0    0    0  0.00000000000E+00  0.00000000000E+00  0.45593999997E+02  0.45594000000E+02  0.51100000000E-03 0.  1.
         11   -1    0    0    0    0 -0.00000000000E+00 -0.00000000000E+00 -0.45593999997E+02  0.45594000000E+02  0.51100000000E-03 0. -1.
    9900012    2    1    2    0    0  0.35725920552E+02 -0.18310586711E+02  0.16492552156E+02  0.47787271185E+02  0.20000000643E+02 0.  0.
         12    1    1    2    0    0 -0.35725920552E+02  0.18310586711E+02 -0.16492552156E+02  0.43400728815E+02  0.00000000000E+00 0. -1.
         11    1    3    3    0    0  0.18212736653E+02 -0.69626267787E+00  0.71461930035E+01  0.19576941355E+02  0.51100000000E-03 0. -1.
        -11    1    3    3    0    0  0.89004992705E+01 -0.74312816745E+01 -0.54190559671E+00  0.11607605116E+02  0.51100000000E-03 0.  1.
         12    1    3    3    0    0  0.86126846287E+01 -0.10183042358E+02  0.98882647495E+01  0.16602724714E+02  0.00000000000E+00 0. -1.
</event>
<event>
 7    1  0.1631716E-009  0.4778727E+02  0.7816164E-02  0.1312668E+00
        -11   -1    0    0    0    0  0.00000000000E+00  0.00000000000E+00  0.45593999997E+02  0.45594000000E+02  0.51100000000E-03 0.  1.
         11   -1    0    0    0    0 -0.00000000000E+00 -0.00000000000E+00 -0.45593999997E+02  0.45594000000E+02  0.51100000000E-03 0. -1.
    9900012    2    1    2    0    0 -0.18482627496E+02  0.11584577217E+02  0.37520839354E+02  0.47787270349E+02  0.19999996828E+02 0.  0.
         12    1    1    2    0    0  0.18482627496E+02 -0.11584577217E+02 -0.37520839354E+02  0.43400729651E+02  0.00000000000E+00 0. -1.
         11    1    3    3    0    0  0.53706140775E+00  0.25565165287E+01  0.12706857062E+01  0.29049705923E+01  0.51100000000E-03 0. -1.
        -11    1    3    3    0    0 -0.16884503115E+02  0.71225878446E+01  0.37516451375E+02  0.41752866094E+02  0.51100000000E-03 0.  1.
         12    1    3    3    0    0 -0.21351857890E+01  0.19054728436E+01 -0.12662977275E+01  0.31294336621E+01  0.00000000000E+00 0. -1.
</event>
<event>
 7    1  0.1631716E-009  0.4778727E+02  0.7816164E-02  0.1312668E+00
        -11   -1    0    0    0    0  0.00000000000E+00  0.00000000000E+00  0.45593999997E+02  0.45594000000E+02  0.51100000000E-03 0. -1.
         11   -1    0    0    0    0 -0.00000000000E+00 -0.00000000000E+00 -0.45593999997E+02  0.45594000000E+02  0.51100000000E-03 0.  1.
    9900012    2    1    2    0    0  0.20738202260E+02  0.63921766114E+01 -0.37585770272E+02  0.47787273258E+02  0.20000010091E+02 0.  0.
         12    1    1    2    0    0 -0.20738202260E+02 -0.63921766114E+01  0.37585770272E+02  0.43400726742E+02  0.00000000000E+00 0. -1.
         11    1    3    3    0    0  0.34068677620E+01  0.46402540283E+00 -0.17203963687E+01  0.38447147422E+01  0.51100000000E-03 0. -1.
        -11    1    3    3    0    0  0.15525394095E+02  0.10642861865E+02 -0.33365464683E+02  0.38308779728E+02  0.51100000000E-03 0.  1.
        -12    1    3    3    0    0  0.18059404030E+01 -0.47147106566E+01 -0.24999092209E+01  0.56337787876E+01  0.00000000000E+00 0.  1.
</event>
<event>
 7    1  0.1631716E-009  0.4778727E+02  0.7816164E-02  0.1312668E+00
        -11   -1    0    0    0    0  0.00000000000E+00  0.00000000000E+00  0.45593999997E+02  0.45594000000E+02  0.51100000000E-03 0.  1.
         11   -1    0    0    0    0 -0.00000000000E+00 -0.00000000000E+00 -0.45593999997E+02  0.45594000000E+02  0.51100000000E-03 0. -1.
    9900012    2    1    2    0    0  0.95425078278E+01  0.17913877106E+02  0.38362177413E+02  0.47787272996E+02  0.20000008898E+02 0.  0.
         12    1    1    2    0    0 -0.95425078278E+01 -0.17913877106E+02 -0.38362177413E+02  0.43400727004E+02  0.00000000000E+00 0. -1.
         11    1    3    3    0    0 -0.45199567849E+00  0.20552885160E+01  0.16413745053E+01  0.26688239929E+01  0.51100000000E-03 0. -1.
        -11    1    3    3    0    0  0.13884234308E+02  0.10031341916E+02  0.16763002180E+02  0.23966602290E+02  0.51100000000E-03 0.  1.
        -12    1    3    3    0    0 -0.38897308018E+01  0.58272466736E+01  0.19957800728E+02  0.21151846713E+02  0.00000000000E+00 0.  1.
</event>
<event>
 7    1  0.1631716E-009  0.4778727E+02  0.7816164E-02  0.1312668E+00
        -11   -1    0    0    0    0  0.00000000000E+00  0.00000000000E+00  0.45593999997E+02  0.45594000000E+02  0.51100000000E-03 0.  1.
         11   -1    0    0    0    0 -0.00000000000E+00 -0.00000000000E+00 -0.45593999997E+02  0.45594000000E+02  0.51100000000E-03 0. -1.
    9900012    2    1    2    0    0  0.16165577472E+02  0.27304549668E+02  0.29610116280E+02  0.47787270586E+02  0.19999997909E+02 0.  0.
         12    1    1    2    0    0 -0.16165577472E+02 -0.27304549668E+02 -0.29610116280E+02  0.43400729414E+02  0.00000000000E+00 0. -1.
         11    1    3    3    0    0  0.56024725968E+01  0.18991516164E+02  0.17315506624E+02  0.26303842976E+02  0.51100000000E-03 0. -1.
        -11    1    3    3    0    0 -0.55716414980E+00  0.61545308225E+01  0.55088495128E+01  0.82786535590E+01  0.51100000000E-03 0.  1.
         12    1    3    3    0    0  0.11120269025E+02  0.21585026816E+01  0.67857601434E+01  0.13204774051E+02  0.00000000000E+00 0. -1.
</event>
<event>
 7    1  0.1631716E-009  0.4778728E+02  0.7816164E-02  0.1312668E+00
        -11   -1    0    0    0    0  0.00000000000E+00  0.00000000000E+00  0.45593999997E+02  0.45594000000E+02  0.51100000000E-03 0.  1.
         11   -1    0    0    0    0 -0.00000000000E+00 -0.00000000000E+00 -0.45593999997E+02  0.45594000000E+02  0.51100000000E-03 0. -1.
    9900012    2    1    2    0    0 -0.91621891987E+01 -0.25868687370E+02  0.33622733207E+02  0.47787275519E+02  0.20000020401E+02 0.  0.
         12    1    1    2    0    0  0.91621891987E+01  0.25868687370E+02 -0.33622733207E+02  0.43400724481E+02  0.00000000000E+00 0. -1.
         11    1    3    3    0    0  0.26539749914E+01 -0.75455741381E+01  0.22132149045E+01  0.82992525448E+01  0.51100000000E-03 0. -1.
        -11    1    3    3    0    0 -0.72964543488E+01 -0.12660754436E+02  0.12470650352E+02  0.19210675923E+02  0.51100000000E-03 0.  1.
        -12    1    3    3    0    0 -0.45197098413E+01 -0.56623587957E+01  0.18938867950E+02  0.20277347051E+02  0.00000000000E+00 0.  1.
</event>
<event>
 7    1  0.1631716E-009  0.4778727E+02  0.7816164E-02  0.1312668E+00
        -11   -1    0    0    0    0  0.00000000000E+00  0.00000000000E+00  0.45593999997E+02  0.45594000000E+02  0.51100000000E-03 0.  1.
         11   -1    0    0    0    0 -0.00000000000E+00 -0.00000000000E+00 -0.45593999997E+02  0.45594000000E+02  0.51100000000E-03 0. -1.
    9900012    2    1    2    0    0 -0.20937786260E+02 -0.24427964008E+02  0.29129137121E+02  0.47787274793E+02  0.20000017092E+02 0.  0.
         12    1    1    2    0    0  0.20937786260E+02  0.24427964008E+02 -0.29129137121E+02  0.43400725207E+02  0.00000000000E+00 0. -1.
         11    1    3    3    0    0 -0.53287597348E+01 -0.57629379087E+01 -0.72657811937E+00  0.78825788721E+01  0.51100000000E-03 0. -1.
        -11    1    3    3    0    0 -0.65644297908E+00  0.13172702759E+01  0.22625717075E+01  0.26991386324E+01  0.51100000000E-03 0.  1.
        -12    1    3    3    0    0 -0.14952583546E+02 -0.19982296375E+02  0.27593143533E+02  0.37205557289E+02  0.00000000000E+00 0.  1.
</event>
<event>
 7    1  0.1631716E-009  0.4778728E+02  0.7816164E-02  0.1312668E+00
        -11   -1    0    0    0    0  0.00000000000E+00  0.00000000000E+00  0.45593999997E+02  0.45594000000E+02  0.51100000000E-03 0.  1.
         11   -1    0    0    0    0 -0.00000000000E+00 -0.00000000000E+00 -0.45593999997E+02  0.45594000000E+02  0.51100000000E-03 0. -1.
    9900012    2    1    2    0    0  0.69263905039E+01  0.19453612837E+02  0.38173349798E+02  0.47787279123E+02  0.20000036833E+02 0.  0.
         12    1    1    2    0    0 -0.69263905039E+01 -0.19453612837E+02 -0.38173349798E+02  0.43400720877E+02  0.00000000000E+00 0. -1.
         11    1    3    3    0    0 -0.35984259071E+01 -0.52493878234E+00  0.31171419460E+01  0.47896559278E+01  0.51100000000E-03 0. -1.
        -11    1    3    3    0    0  0.89157441216E+01  0.63229144009E+01  0.18371669419E+02  0.21377277124E+02  0.51100000000E-03 0.  1.
         12    1    3    3    0    0  0.16090722894E+01  0.13655637219E+02  0.16684538433E+02  0.21620346071E+02  0.00000000000E+00 0. -1.
</event>
<event>
 7    1  0.1745697E-009  0.4778727E+02  0.7816164E-02  0.1312668E+00
        -11   -1    0    0    0    0  0.00000000000E+00  0.00000000000E+00  0.45593999997E+02  0.45594000000E+02  0.51100000000E-03 0. -1.
         11   -1    0    0    0    0 -0.00000000000E+00 -0.00000000000E+00 -0.45593999997E+02  0.45594000000E+02  0.51100000000E-03 0.  1.
    9900012    2    1    2    0    0  0.25184180765E+02  0.22869178038E+02 -0.26951453688E+02  0.47787272807E+02  0.20000008038E+02 0.  0.
         12    1    1    2    0    0 -0.25184180765E+02 -0.22869178038E+02  0.26951453688E+02  0.43400727193E+02  0.00000000000E+00 0. -1.
         11    1    3    3    0    0 -0.18070712587E+00  0.43096742913E+01  0.21514040578E+01  0.48202165142E+01  0.51100000000E-03 0. -1.
        -11    1    3    3    0    0  0.68499354816E+01  0.59129059615E+01 -0.10246928742E+02  0.13670538465E+02  0.51100000000E-03 0.  1.
         12    1    3    3    0    0  0.18514952410E+02  0.12646597786E+02 -0.18855929004E+02  0.29296517828E+02  0.00000000000E+00 0. -1.
</event>
<event>
 7    1  0.1631716E-009  0.4778727E+02  0.7816164E-02  0.1312668E+00
        -11   -1    0    0    0    0  0.00000000000E+00  0.00000000000E+00  0.45593999997E+02  0.45594000000E+02  0.51100000000E-03 0. -1.
         11   -1    0    0    0    0 -0.00000000000E+00 -0.00000000000E+00 -0.45593999997E+02  0.45594000000E+02  0.51100000000E-03 0.  1.
    9900012    2    1    2    0    0  0.64922458433E+01 -0.87346414219E+01 -0.42014045102E+02  0.47787271864E+02  0.20000003738E+02 0.  0.
         12    1    1    2    0    0 -0.64922458433E+01  0.87346414219E+01  0.42014045102E+02  0.43400728136E+02  0.00000000000E+00 0. -1.
         11    1    3    3    0    0 -0.37936745890E+01 -0.60559168524E+01 -0.17373110851E+02  0.18785395303E+02  0.51100000000E-03 0. -1.
        -11    1    3    3    0    0  0.16308546329E+01  0.36460078935E+01 -0.35530265116E+01  0.53457514015E+01  0.51100000000E-03 0.  1.
        -12    1    3    3    0    0  0.86550657994E+01 -0.63247324629E+01 -0.21087907740E+02  0.23656125160E+02  0.00000000000E+00 0.  1.
</event>
<event>
 7    1  0.1631716E-009  0.4778727E+02  0.7816164E-02  0.1312668E+00
        -11   -1    0    0    0    0  0.00000000000E+00  0.00000000000E+00  0.45593999997E+02  0.45594000000E+02  0.51100000000E-03 0. -1.
         11   -1    0    0    0    0 -0.00000000000E+00 -0.00000000000E+00 -0.45593999997E+02  0.45594000000E+02  0.51100000000E-03 0.  1.
    9900012    2    1    2    0    0 -0.41498821256E+01 -0.30379564549E+02 -0.30716180430E+02  0.47787271849E+02  0.20000003667E+02 0.  0.
         12    1    1    2    0    0  0.41498821256E+01  0.30379564549E+02  0.30716180430E+02  0.43400728151E+02  0.00000000000E+00 0. -1.
         11    1    3    3    0    0 -0.12091995757E+01 -0.18163046798E+02 -0.12726051418E+02  0.22210601468E+02  0.51100000000E-03 0. -1.
        -11    1    3    3    0    0  0.47357867554E+01 -0.23242927386E+01 -0.30893509253E+01  0.61134362128E+01  0.51100000000E-03 0.  1.
        -12    1    3    3    0    0 -0.76764693054E+01 -0.98922250123E+01 -0.14900778087E+02  0.19463234168E+02  0.00000000000E+00 0.  1.
</event>
<event>
 7    1  0.1631716E-009  0.4778727E+02  0.7816164E-02  0.1312668E+00
        -11   -1    0    0    0    0  0.00000000000E+00  0.00000000000E+00  0.45593999997E+02  0.45594000000E+02  0.51100000000E-03 0.  1.
         11   -1    0    0    0    0 -0.00000000000E+00 -0.00000000000E+00 -0.45593999997E+02  0.45594000000E+02  0.51100000000E-03 0. -1.
    9900012    2    1    2    0    0  0.10322712042E+02 -0.39315326615E+02  0.15210852277E+02  0.47787270539E+02  0.19999997694E+02 0.  0.
         12    1    1    2    0    0 -0.10322712042E+02  0.39315326615E+02 -0.15210852277E+02  0.43400729461E+02  0.00000000000E+00 0. -1.
         11    1    3    3    0    0 -0.62868983738E+00 -0.31964319043E+01 -0.22000080544E+01  0.39309621635E+01  0.51100000000E-03 0. -1.
        -11    1    3    3    0    0  0.51478823959E+01 -0.10934111927E+02  0.12799221942E+02  0.17603283199E+02  0.51100000000E-03 0.  1.
         12    1    3    3    0    0  0.58035194838E+01 -0.25184782784E+02  0.46116383892E+01  0.26253025176E+02  0.00000000000E+00 0. -1.
</event>
<event>
 7    1  0.1631716E-009  0.4778727E+02  0.7816164E-02  0.1312668E+00
        -11   -1    0    0    0    0  0.00000000000E+00  0.00000000000E+00  0.45593999997E+02  0.45594000000E+02  0.51100000000E-03 0.  1.
         11   -1    0    0    0    0 -0.00000000000E+00 -0.00000000000E+00 -0.45593999997E+02  0.45594000000E+02  0.51100000000E-03 0. -1.
    9900012    2    1    2    0    0 -0.26899746092E+02  0.13986387083E+01  0.34030444925E+02  0.47787265999E+02  0.19999976996E+02 0.  0.
         12    1    1    2    0    0  0.26899746092E+02 -0.13986387083E+01 -0.34030444925E+02  0.43400734001E+02  0.00000000000E+00 0. -1.
         11    1    3    3    0    0 -0.11839058490E+02  0.22734453729E+01  0.12028812547E+02  0.17030096633E+02  0.51100000000E-03 0. -1.
        -11    1    3    3    0    0  0.78704834273E+00 -0.49005681824E+01  0.35445862365E+01  0.60991069390E+01  0.51100000000E-03 0.  1.
        -12    1    3    3    0    0 -0.15847735945E+02  0.40257615177E+01  0.18457046142E+02  0.24658062427E+02  0.00000000000E+00 0.  1.
</event>
<event>
 7    1  0.1631716E-009  0.4778727E+02  0.7816164E-02  0.1312668E+00
        -11   -1    0    0    0    0  0.00000000000E+00  0.00000000000E+00  0.45593999997E+02  0.45594000000E+02  0.51100000000E-03 0.  1.
         11   -1    0    0    0    0 -0.00000000000E+00 -0.00000000000E+00 -0.45593999997E+02  0.45594000000E+02  0.51100000000E-03 0. -1.
    9900012    2    1    2    0    0 -0.61268363792E+01  0.42705303640E+02 -0.47267526099E+01  0.47787271052E+02  0.20000000033E+02 0.  0.
         12    1    1    2    0    0  0.61268363792E+01 -0.42705303640E+02  0.47267526099E+01  0.43400728948E+02  0.00000000000E+00 0. -1.
         11    1    3    3    0    0 -0.40771382682E+01  0.23766454643E+02 -0.61313465467E+01  0.24880933132E+02  0.51100000000E-03 0. -1.
        -11    1    3    3    0    0 -0.10295327075E+01  0.19688494174E+02  0.39098821517E+01  0.20099351211E+02  0.51100000000E-03 0.  1.
         12    1    3    3    0    0 -0.10201654036E+01 -0.74964517675E+00 -0.25052882148E+01  0.28069867084E+01  0.00000000000E+00 0. -1.
</event>
<event>
 7    1  0.1631716E-009  0.4778727E+02  0.7816164E-02  0.1312668E+00
        -11   -1    0    0    0    0  0.00000000000E+00  0.00000000000E+00  0.45593999997E+02  0.45594000000E+02  0.51100000000E-03 0. -1.
         11   -1    0    0    0    0 -0.00000000000E+00 -0.00000000000E+00 -0.45593999997E+02  0.45594000000E+02  0.51100000000E-03 0.  1.
    9900012    2    1    2    0    0  0.27533163806E+02  0.19506083670E+02 -0.27295803546E+02  0.47787270737E+02  0.19999998600E+02 0.  0.
         12    1    1    2    0    0 -0.27533163806E+02 -0.19506083670E+02  0.27295803546E+02  0.43400729263E+02  0.00000000000E+00 0. -1.
         11    1    3    3    0    0 -0.10122277621E+01 -0.77579679182E+00  0.12009849165E+01  0.17518078477E+01  0.51100000000E-03 0. -1.
        -11    1    3    3    0    0  0.84492034984E+01  0.11111469273E+02 -0.12773906612E+02  0.18921587660E+02  0.51100000000E-03 0.  1.
         12    1    3    3    0    0  0.20096188069E+02  0.91704111882E+01 -0.15722881851E+02  0.27113875230E+02  0.00000000000E+00 0. -1.
</event>
<event>
 7    1  0.1631716E-009  0.4778728E+02  0.7816164E-02  0.1312668E+00
        -11   -1    0    0    0    0  0.00000000000E+00  0.00000000000E+00  0.45593999997E+02  0.45594000000E+02  0.51100000000E-03 0.  1.
         11   -1    0    0    0    0 -0.00000000000E+00 -0.00000000000E+00 -0.45593999997E+02  0.45594000000E+02  0.51100000000E-03 0. -1.
    9900012    2    1    2    0    0 -0.40209209526E+02 -0.16181548089E+02  0.22360135659E+01  0.47787276666E+02  0.20000025630E+02 0.  0.
         12    1    1    2    0    0  0.40209209526E+02  0.16181548089E+02 -0.22360135659E+01  0.43400723334E+02  0.00000000000E+00 0. -1.
         11    1    3    3    0    0 -0.10639150487E+02 -0.23695449802E+01 -0.52476483539E+01  0.12097275727E+02  0.51100000000E-03 0. -1.
        -11    1    3    3    0    0 -0.23864516977E+02 -0.62166727747E+01  0.86169329545E+01  0.26123049682E+02  0.51100000000E-03 0.  1.
         12    1    3    3    0    0 -0.57055420622E+01 -0.75953303340E+01 -0.11332710347E+01  0.95669512565E+01  0.00000000000E+00 0. -1.
</event>
<event>
 7    1  0.1631716E-009  0.4778728E+02  0.7816164E-02  0.1312668E+00
        -11   -1    0    0    0    0  0.00000000000E+00  0.00000000000E+00  0.45593999997E+02  0.45594000000E+02  0.51100000000E-03 0. -1.
         11   -1    0    0    0    0 -0.00000000000E+00 -0.00000000000E+00 -0.45593999997E+02  0.45594000000E+02  0.51100000000E-03 0.  1.
    9900012    2    1    2    0    0 -0.39515830326E+02 -0.36280067175E+01 -0.17577231312E+02  0.47787281807E+02  0.20000049070E+02 0.  0.
         12    1    1    2    0    0  0.39515830326E+02  0.36280067175E+01  0.17577231312E+02  0.43400718193E+02  0.00000000000E+00 0. -1.
         11    1    3    3    0    0 -0.10005598420E+02 -0.17721919190E+01  0.22442529842E+01  0.10406216202E+02  0.51100000000E-03 0. -1.
        -11    1    3    3    0    0 -0.95584628399E+01 -0.36916385129E+01 -0.17415544864E+01  0.10393527749E+02  0.51100000000E-03 0.  1.
        -12    1    3    3    0    0 -0.19951769066E+02  0.18358237143E+01 -0.18079929810E+02  0.26987537856E+02  0.00000000000E+00 0.  1.
</event>
<event>
 7    1  0.1631716E-009  0.4778727E+02  0.7816164E-02  0.1312668E+00
        -11   -1    0    0    0    0  0.00000000000E+00  0.00000000000E+00  0.45593999997E+02  0.45594000000E+02  0.51100000000E-03 0. -1.
         11   -1    0    0    0    0 -0.00000000000E+00 -0.00000000000E+00 -0.45593999997E+02  0.45594000000E+02  0.51100000000E-03 0.  1.
    9900012    2    1    2    0    0 -0.91746332820E+01  0.40242099746E+02 -0.13417254688E+02  0.47787271767E+02  0.20000003293E+02 0.  0.
         12    1    1    2    0    0  0.91746332820E+01 -0.40242099746E+02  0.13417254688E+02  0.43400728233E+02  0.00000000000E+00 0. -1.
         11    1    3    3    0    0 -0.11474805801E+01  0.30620514056E+02 -0.36109035360E+01  0.30854030812E+02  0.51100000000E-03 0. -1.
        -11    1    3    3    0    0 -0.47039078056E+01  0.93065666325E+01 -0.68700911561E+01  0.12487477082E+02  0.51100000000E-03 0.  1.
         12    1    3    3    0    0 -0.33232448963E+01  0.31501905722E+00 -0.29362599954E+01  0.44457638722E+01  0.00000000000E+00 0. -1.
</event>
<event>
 7    1  0.1631716E-009  0.4778727E+02  0.7816164E-02  0.1312668E+00
        -11   -1    0    0    0    0  0.00000000000E+00  0.00000000000E+00  0.45593999997E+02  0.45594000000E+02  0.51100000000E-03 0.  1.
         11   -1    0    0    0    0 -0.00000000000E+00 -0.00000000000E+00 -0.45593999997E+02  0.45594000000E+02  0.51100000000E-03 0. -1.
    9900012    2    1    2    0    0  0.24272054204E+02 -0.26973290240E+02  0.23810341959E+02  0.47787269754E+02  0.19999994118E+02 0.  0.
         12    1    1    2    0    0 -0.24272054204E+02  0.26973290240E+02 -0.23810341959E+02  0.43400730246E+02  0.00000000000E+00 0. -1.
         11    1    3    3    0    0  0.12383157304E+02 -0.13099376880E+02  0.75625527881E+00  0.18041845298E+02  0.51100000000E-03 0. -1.
        -11    1    3    3    0    0  0.70522633011E+01 -0.49140180664E+01  0.98921581935E+01  0.13104838237E+02  0.51100000000E-03 0.  1.
         12    1    3    3    0    0  0.48366335992E+01 -0.89598952935E+01  0.13161928487E+02  0.16640586220E+02  0.00000000000E+00 0. -1.
</event>
<event>
 7    1  0.1631716E-009  0.4778727E+02  0.7816164E-02  0.1312668E+00
        -11   -1    0    0    0    0  0.00000000000E+00  0.00000000000E+00  0.45593999997E+02  0.45594000000E+02  0.51100000000E-03 0. -1.
         11   -1    0    0    0    0 -0.00000000000E+00 -0.00000000000E+00 -0.45593999997E+02  0.45594000000E+02  0.51100000000E-03 0.  1.
    9900012    2    1    2    0    0  0.30968697558E+02 -0.30390266676E+02 -0.99730766900E+00  0.47787272360E+02  0.20000006000E+02 0.  0.
         12    1    1    2    0    0 -0.30968697558E+02  0.30390266676E+02  0.99730766900E+00  0.43400727640E+02  0.00000000000E+00 0. -1.
         11    1    3    3    0    0  0.19996486223E+01 -0.12843280982E+01  0.34826002948E+01  0.42162303485E+01  0.51100000000E-03 0. -1.
        -11    1    3    3    0    0  0.89788210168E+01 -0.16394487953E+02 -0.65132953154E+01  0.19794481004E+02  0.51100000000E-03 0.  1.
         12    1    3    3    0    0  0.19990227919E+02 -0.12711450624E+02  0.20333873516E+01  0.23776561008E+02  0.00000000000E+00 0. -1.
</event>
<event>
 7    1  0.1631716E-009  0.4778727E+02  0.7816164E-02  0.1312668E+00
        -11   -1    0    0    0    0  0.00000000000E+00  0.00000000000E+00  0.45593999997E+02  0.45594000000E+02  0.51100000000E-03 0.  1.
         11   -1    0    0    0    0 -0.00000000000E+00 -0.00000000000E+00 -0.45593999997E+02  0.45594000000E+02  0.51100000000E-03 0. -1.
    9900012    2    1    2    0    0 -0.32351640202E+02  0.15010857129E+02  0.24731939063E+02  0.47787271143E+02  0.20000000451E+02 0.  0.
         12    1    1    2    0    0  0.32351640202E+02 -0.15010857129E+02 -0.24731939063E+02  0.43400728857E+02  0.00000000000E+00 0. -1.
         11    1    3    3    0    0 -0.14170594823E+02  0.80618151757E+01  0.42771536603E+01  0.16855048658E+02  0.51100000000E-03 0. -1.
        -11    1    3    3    0    0 -0.24777732546E+01 -0.33004910513E+01  0.18708265432E+01  0.45312905112E+01  0.51100000000E-03 0.  1.
        -12    1    3    3    0    0 -0.15703272124E+02  0.10249533004E+02  0.18583958859E+02  0.26400931974E+02  0.00000000000E+00 0.  1.
</event>
<event>
 7    1  0.1631716E-009  0.4778727E+02  0.7816164E-02  0.1312668E+00
        -11   -1    0    0    0    0  0.00000000000E+00  0.00000000000E+00  0.45593999997E+02  0.45594000000E+02  0.51100000000E-03 0.  1.
         11   -1    0    0    0    0 -0.00000000000E+00 -0.00000000000E+00 -0.45593999997E+02  0.45594000000E+02  0.51100000000E-03 0. -1.
    9900012    2    1    2    0    0  0.22385459467E+02  0.20448837388E+02  0.31054135234E+02  0.47787273494E+02  0.20000011169E+02 0.  0.
         12    1    1    2    0    0 -0.22385459467E+02 -0.20448837388E+02 -0.31054135234E+02  0.43400726506E+02  0.00000000000E+00 0. -1.
         11    1    3    3    0    0  0.91589614141E+00  0.65820029316E+01  0.29787943447E+01  0.72825026154E+01  0.51100000000E-03 0. -1.
        -11    1    3    3    0    0  0.11848494385E+00  0.45597209963E+01  0.78815406053E+00  0.46288531334E+01  0.51100000000E-03 0.  1.
         12    1    3    3    0    0  0.21351078382E+02  0.93071134600E+01  0.27287186829E+02  0.35875917745E+02  0.00000000000E+00 0. -1.
</event>
<event>
 7    1  0.1631716E-009  0.4778729E+02  0.7816164E-02  0.1312668E+00
        -11   -1    0    0    0    0  0.00000000000E+00  0.00000000000E+00  0.45593999997E+02  0.45594000000E+02  0.51100000000E-03 0.  1.
         11   -1    0    0    0    0 -0.00000000000E+00 -0.00000000000E+00 -0.45593999997E+02  0.45594000000E+02  0.51100000000E-03 0. -1.
    9900012    2    1    2    0    0  0.33487359361E+02  0.27604110648E+02  0.48090227431E+00  0.47787292302E+02  0.20000096922E+02 0.  0.
         12    1    1    2    0    0 -0.33487359361E+02 -0.27604110648E+02 -0.48090227431E+00  0.43400707698E+02  0.00000000000E+00 0. -1.
         11    1    3    3    0    0 -0.95009098121E+00  0.53208312506E+01 -0.33435522921E+01  0.63555692319E+01  0.51100000000E-03 0. -1.
        -11    1    3    3    0    0  0.16878028165E+01  0.23818342148E+01  0.26359728489E-02  0.29192156110E+01  0.51100000000E-03 0.  1.
         12    1    3    3    0    0  0.32749647526E+02  0.19901445183E+02  0.38218185936E+01  0.38512507459E+02  0.00000000000E+00 0. -1.
</event>
<event>
 7    1  0.1924025E-009  0.4778727E+02  0.7816164E-02  0.1312668E+00
        -11   -1    0    0    0    0  0.00000000000E+00  0.00000000000E+00  0.45593999997E+02  0.45594000000E+02  0.51100000000E-03 0. -1.
         11   -1    0    0    0    0 -0.00000000000E+00 -0.00000000000E+00 -0.45593999997E+02  0.45594000000E+02  0.51100000000E-03 0.  1.
    9900012    2    1    2    0    0  0.16703419148E+02  0.23014911074E+02 -0.32786165941E+02  0.47787273968E+02  0.20000013330E+02 0.  0.
         12    1    1    2    0    0 -0.16703419148E+02 -0.23014911074E+02  0.32786165941E+02  0.43400726032E+02  0.00000000000E+00 0. -1.
         11    1    3    3    0    0  0.46460454683E+01  0.60385438249E+00 -0.10880134222E+02  0.11845999306E+02  0.51100000000E-03 0. -1.
        -11    1    3    3    0    0  0.55671477295E+01  0.19028847248E+02 -0.20442362094E+02  0.28477716370E+02  0.51100000000E-03 0.  1.
         12    1    3    3    0    0  0.64902259500E+01  0.33822094437E+01 -0.14636696253E+01  0.74635582918E+01  0.00000000000E+00 0. -1.
</event>
<event>
 7    1  0.1631716E-009  0.4778725E+02  0.7816164E-02  0.1312668E+00
        -11   -1    0    0    0    0  0.00000000000E+00  0.00000000000E+00  0.45593999997E+02  0.45594000000E+02  0.51100000000E-03 0.  1.
         11   -1    0    0    0    0 -0.00000000000E+00 -0.00000000000E+00 -0.45593999997E+02  0.45594000000E+02  0.51100000000E-03 0. -1.
    9900012    2    1    2    0    0 -0.22504181315E+01 -0.43320232344E+02  0.13849828441E+01  0.47787250127E+02  0.19999904628E+02 0.  0.
         12    1    1    2    0    0  0.22504181315E+01  0.43320232344E+02 -0.13849828441E+01  0.43400749873E+02  0.00000000000E+00 0. -1.
         11    1    3    3    0    0  0.69694433929E+00 -0.57748801651E+01 -0.55433820025E+01  0.80351762035E+01  0.51100000000E-03 0. -1.
        -11    1    3    3    0    0 -0.62517289043E+01 -0.23522816087E+02  0.16009576168E+01  0.24392008045E+02  0.51100000000E-03 0.  1.
        -12    1    3    3    0    0  0.33043664335E+01 -0.14022536092E+02  0.53274072298E+01  0.15360065878E+02  0.00000000000E+00 0.  1.
</event>
<event>
 7    1  0.1631716E-009  0.4778727E+02  0.7816164E-02  0.1312668E+00
        -11   -1    0    0    0    0  0.00000000000E+00  0.00000000000E+00  0.45593999997E+02  0.45594000000E+02  0.51100000000E-03 0.  1.
         11   -1    0    0    0    0 -0.00000000000E+00 -0.00000000000E+00 -0.45593999997E+02  0.45594000000E+02  0.51100000000E-03 0. -1.
    9900012    2    1    2    0    0  0.20172541776E+02  0.74523159918E+01  0.37698208424E+02  0.47787269895E+02  0.19999994757E+02 0.  0.
         12    1    1    2    0    0 -0.20172541776E+02 -0.74523159918E+01 -0.37698208424E+02  0.43400730105E+02  0.00000000000E+00 0. -1.
         11    1    3    3    0    0  0.67010753505E+01 -0.28830842465E+01  0.10930399717E+02  0.13141165240E+02  0.51100000000E-03 0. -1.
        -11    1    3    3    0    0  0.54739901309E+01  0.28921626466E+01  0.21767727389E+02  0.22631021380E+02  0.51100000000E-03 0.  1.
        -12    1    3    3    0    0  0.79974762944E+01  0.74432375917E+01  0.50000813170E+01  0.12015083275E+02  0.00000000000E+00 0.  1.
</event>
<event>
 7    1  0.1631716E-009  0.4778728E+02  0.7816164E-02  0.1312668E+00
        -11   -1    0    0    0    0  0.00000000000E+00  0.00000000000E+00  0.45593999997E+02  0.45594000000E+02  0.51100000000E-03 0. -1.
         11   -1    0    0    0    0 -0.00000000000E+00 -0.00000000000E+00 -0.45593999997E+02  0.45594000000E+02  0.51100000000E-03 0.  1.
    9900012    2    1    2    0    0  0.41140749845E+02 -0.66930674608E+01 -0.12093979343E+02  0.47787276663E+02  0.20000025617E+02 0.  0.
         12    1    1    2    0    0 -0.41140749845E+02  0.66930674608E+01  0.12093979343E+02  0.43400723337E+02  0.00000000000E+00 0. -1.
         11    1    3    3    0    0  0.99108686508E+01 -0.43084695059E+00 -0.71895753173E+01  0.12251568880E+02  0.51100000000E-03 0. -1.
        -11    1    3    3    0    0  0.31994251959E+02 -0.59845664805E+01 -0.69951822472E+01  0.33292337997E+02  0.51100000000E-03 0.  1.
         12    1    3    3    0    0 -0.76437076492E+00 -0.27765402969E+00  0.20907782215E+01  0.22433697863E+01  0.00000000000E+00 0. -1.
</event>
<event>
 7    1  0.1631716E-009  0.4778725E+02  0.7816164E-02  0.1312668E+00
        -11   -1    0    0    0    0  0.00000000000E+00  0.00000000000E+00  0.45593999997E+02  0.45594000000E+02  0.51100000000E-03 0.  1.
         11   -1    0    0    0    0 -0.00000000000E+00 -0.00000000000E+00 -0.45593999997E+02  0.45594000000E+02  0.51100000000E-03 0. -1.
    9900012    2    1    2    0    0  0.26693990886E+02 -0.83873424967E+01  0.33176930279E+02  0.47787246938E+02  0.19999890090E+02 0.  0.
         12    1    1    2    0    0 -0.26693990886E+02  0.83873424967E+01 -0.33176930279E+02  0.43400753062E+02  0.00000000000E+00 0. -1.
         11    1    3    3    0    0 -0.11098833882E+00 -0.38212643895E+01  0.10153042920E+02  0.10848901361E+02  0.51100000000E-03 0. -1.
        -11    1    3    3    0    0  0.10193880310E+02 -0.17762611022E+01  0.30028844176E+01  0.10774396241E+02  0.51100000000E-03 0.  1.
        -12    1    3    3    0    0  0.16611098916E+02 -0.27898170050E+01  0.20021002941E+02  0.26163949336E+02  0.00000000000E+00 0.  1.
</event>
<event>
 7    1  0.1631716E-009  0.4778727E+02  0.7816164E-02  0.1312668E+00
        -11   -1    0    0    0    0  0.00000000000E+00  0.00000000000E+00  0.45593999997E+02  0.45594000000E+02  0.51100000000E-03 0.  1.
         11   -1    0    0    0    0 -0.00000000000E+00 -0.00000000000E+00 -0.45593999997E+02  0.45594000000E+02  0.51100000000E-03 0. -1.
    9900012    2    1    2    0    0 -0.18067072578E+02  0.71730881802E+01  0.38804005174E+02  0.47787272782E+02  0.20000007921E+02 0.  0.
         12    1    1    2    0    0  0.18067072578E+02 -0.71730881802E+01 -0.38804005174E+02  0.43400727218E+02  0.00000000000E+00 0. -1.
         11    1    3    3    0    0  0.10308344832E+01  0.21228640091E+01  0.11105953949E+01  0.26081782387E+01  0.51100000000E-03 0. -1.
        -11    1    3    3    0    0 -0.21883983872E+00  0.58140003535E+01  0.66321429345E+01  0.88224606063E+01  0.51100000000E-03 0.  1.
        -12    1    3    3    0    0 -0.18879067222E+02 -0.76377618231E+00  0.31061266844E+02  0.36356633937E+02  0.00000000000E+00 0.  1.
</event>
<event>
 7    1  0.1631716E-009  0.4778727E+02  0.7816164E-02  0.1312668E+00
        -11   -1    0    0    0    0  0.00000000000E+00  0.00000000000E+00  0.45593999997E+02  0.45594000000E+02  0.51100000000E-03 0. -1.
         11   -1    0    0    0    0 -0.00000000000E+00 -0.00000000000E+00 -0.45593999997E+02  0.45594000000E+02  0.51100000000E-03 0.  1.
    9900012    2    1    2    0    0  0.26341175353E+02 -0.23186706414E+02 -0.25537086128E+02  0.47787266813E+02  0.19999980705E+02 0.  0.
         12    1    1    2    0    0 -0.26341175353E+02  0.23186706414E+02  0.25537086128E+02  0.43400733187E+02  0.00000000000E+00 0. -1.
         11    1    3    3    0    0 -0.12840775961E+01 -0.52323647055E+01 -0.72767964813E+00  0.54365442715E+01  0.51100000000E-03 0. -1.
        -11    1    3    3    0    0  0.15229721451E+02 -0.95661288355E+01 -0.19354434868E+02  0.26420624249E+02  0.51100000000E-03 0.  1.
        -12    1    3    3    0    0  0.12395531498E+02 -0.83882128724E+01 -0.54549716125E+01  0.15930098292E+02  0.00000000000E+00 0.  1.
</event>
<event>
 7    1  0.1631716E-009  0.4778727E+02  0.7816164E-02  0.1312668E+00
        -11   -1    0    0    0    0  0.00000000000E+00  0.00000000000E+00  0.45593999997E+02  0.45594000000E+02  0.51100000000E-03 0. -1.
         11   -1    0    0    0    0 -0.00000000000E+00 -0.00000000000E+00 -0.45593999997E+02  0.45594000000E+02  0.51100000000E-03 0.  1.
    9900012    2    1    2    0    0 -0.13496532848E+01  0.35992737217E+02 -0.24214148869E+02  0.47787266114E+02  0.19999977522E+02 0.  0.
         12    1    1    2    0    0  0.13496532848E+01 -0.35992737217E+02  0.24214148869E+02  0.43400733886E+02  0.00000000000E+00 0. -1.
         11    1    3    3    0    0  0.89514429458E+00 -0.84061416524E+00  0.70224651937E-01  0.12299785550E+01  0.51100000000E-03 0. -1.
        -11    1    3    3    0    0  0.98687731170E+00  0.32280554454E+02 -0.14741125820E+02  0.35500829757E+02  0.51100000000E-03 0.  1.
        -12    1    3    3    0    0 -0.32316748910E+01  0.45527969279E+01 -0.95432477006E+01  0.11056457803E+02  0.00000000000E+00 0.  1.
</event>
<event>
 7    1  0.1631716E-009  0.4778727E+02  0.7816164E-02  0.1312668E+00
        -11   -1    0    0    0    0  0.00000000000E+00  0.00000000000E+00  0.45593999997E+02  0.45594000000E+02  0.51100000000E-03 0.  1.
         11   -1    0    0    0    0 -0.00000000000E+00 -0.00000000000E+00 -0.45593999997E+02  0.45594000000E+02  0.51100000000E-03 0. -1.
    9900012    2    1    2    0    0 -0.98717637935E+01 -0.20209674584E+02  0.37117925060E+02  0.47787273878E+02  0.20000012920E+02 0.  0.
         12    1    1    2    0    0  0.98717637935E+01  0.20209674584E+02 -0.37117925060E+02  0.43400726122E+02  0.00000000000E+00 0. -1.
         11    1    3    3    0    0 -0.54058567146E+01 -0.91308096216E+01  0.14214889711E+02  0.17738603692E+02  0.51100000000E-03 0. -1.
        -11    1    3    3    0    0 -0.56653315559E+01 -0.12755376598E+02  0.23962625273E+02  0.27730903772E+02  0.51100000000E-03 0.  1.
         12    1    3    3    0    0  0.11994244770E+01  0.16765116362E+01 -0.10595899246E+01  0.23177664142E+01  0.00000000000E+00 0. -1.
</event>
<event>
 7    1  0.1631716E-009  0.4778728E+02  0.7816164E-02  0.1312668E+00
        -11   -1    0    0    0    0  0.00000000000E+00  0.00000000000E+00  0.45593999997E+02  0.45594000000E+02  0.51100000000E-03 0.  1.
         11   -1    0    0    0    0 -0.00000000000E+00 -0.00000000000E+00 -0.45593999997E+02  0.45594000000E+02  0.51100000000E-03 0. -1.
    9900012    2    1    2    0    0 -0.43166172374E+02  0.30102004246E+01  0.33530795725E+01  0.47787275506E+02  0.20000020342E+02 0.  0.
         12    1    1    2    0    0  0.43166172374E+02 -0.30102004246E+01 -0.33530795725E+01  0.43400724494E+02  0.00000000000E+00 0. -1.
         11    1    3    3    0    0 -0.90672287032E+01  0.19586552741E+01 -0.48174798853E+01  0.10452706805E+02  0.51100000000E-03 0. -1.
        -11    1    3    3    0    0 -0.36274948949E+01 -0.13968744222E+01  0.53806390956E+01  0.66378652218E+01  0.51100000000E-03 0.  1.
        -12    1    3    3    0    0 -0.30471448776E+02  0.24484195727E+01  0.27899203622E+01  0.30696703480E+02  0.00000000000E+00 0.  1.
</event>
<event>
 7    1  0.1631716E-009  0.4778727E+02  0.7816164E-02  0.1312668E+00
        -11   -1    0    0    0    0  0.00000000000E+00  0.00000000000E+00  0.45593999997E+02  0.45594000000E+02  0.51100000000E-03 0.  1.
         11   -1    0    0    0    0 -0.00000000000E+00 -0.00000000000E+00 -0.45593999997E+02  0.45594000000E+02  0.51100000000E-03 0. -1.
    9900012    2    1    2    0    0  0.25256404380E+02  0.18143807460E+02  0.30274402144E+02  0.47787272626E+02  0.20000007212E+02 0.  0.
         12    1    1    2    0    0 -0.25256404380E+02 -0.18143807460E+02 -0.30274402144E+02  0.43400727374E+02  0.00000000000E+00 0. -1.
         11    1    3    3    0    0  0.48700298508E+01  0.29553734093E+01  0.13200035278E+00  0.56981441795E+01  0.51100000000E-03 0. -1.
        -11    1    3    3    0    0  0.48584426967E+01  0.12239659148E+00  0.14768166012E+02  0.15547288316E+02  0.51100000000E-03 0.  1.
        -12    1    3    3    0    0  0.15527931833E+02  0.15066037459E+02  0.15374235780E+02  0.26541840131E+02  0.00000000000E+00 0.  1.
</event>
<event>
 7    1  0.1631716E-009  0.4778728E+02  0.7816164E-02  0.1312668E+00
        -11   -1    0    0    0    0  0.00000000000E+00  0.00000000000E+00  0.45593999997E+02  0.45594000000E+02  0.51100000000E-03 0.  1.
         11   -1    0    0    0    0 -0.00000000000E+00 -0.00000000000E+00 -0.45593999997E+02  0.45594000000E+02  0.51100000000E-03 0. -1.
    9900012    2    1    2    0    0  0.93033962834E+01  0.26123846899E+01  0.42311288981E+02  0.47787275220E+02  0.20000019038E+02 0.  0.
         12    1    1    2    0    0 -0.93033962834E+01 -0.26123846899E+01 -0.42311288981E+02  0.43400724780E+02  0.00000000000E+00 0. -1.
         11    1    3    3    0    0  0.14157455638E+01 -0.72553605583E+00 -0.55094017885E+00  0.16835300447E+01  0.51100000000E-03 0. -1.
        -11    1    3    3    0    0  0.69377262563E+01 -0.38413029351E+01  0.32554139027E+02  0.33506113202E+02  0.51100000000E-03 0.  1.
         12    1    3    3    0    0  0.94992446334E+00  0.71792236808E+01  0.10308090133E+02  0.12597631974E+02  0.00000000000E+00 0. -1.
</event>
<event>
 7    1  0.1631716E-009  0.4778727E+02  0.7816164E-02  0.1312668E+00
        -11   -1    0    0    0    0  0.00000000000E+00  0.00000000000E+00  0.45593999997E+02  0.45594000000E+02  0.51100000000E-03 0.  1.
         11   -1    0    0    0    0 -0.00000000000E+00 -0.00000000000E+00 -0.45593999997E+02  0.45594000000E+02  0.51100000000E-03 0. -1.
    9900012    2    1    2    0    0  0.37801306704E+01  0.18962162827E+02  0.38855762610E+02  0.47787270801E+02  0.19999998891E+02 0.  0.
         12    1    1    2    0    0 -0.37801306704E+01 -0.18962162827E+02 -0.38855762610E+02  0.43400729199E+02  0.00000000000E+00 0. -1.
         11    1    3    3    0    0 -0.31619218276E+01  0.13619314152E+01  0.66084027966E+00  0.35056122090E+01  0.51100000000E-03 0. -1.
        -11    1    3    3    0    0 -0.11328039554E+01  0.96033024734E+01  0.25346045056E+02  0.27128005150E+02  0.51100000000E-03 0.  1.
        -12    1    3    3    0    0  0.80748564534E+01  0.79969289381E+01  0.12848877275E+02  0.17153653442E+02  0.00000000000E+00 0.  1.
</event>
<event>
 7    1  0.1631716E-009  0.4778727E+02  0.7816164E-02  0.1312668E+00
        -11   -1    0    0    0    0  0.00000000000E+00  0.00000000000E+00  0.45593999997E+02  0.45594000000E+02  0.51100000000E-03 0. -1.
         11   -1    0    0    0    0 -0.00000000000E+00 -0.00000000000E+00 -0.45593999997E+02  0.45594000000E+02  0.51100000000E-03 0.  1.
    9900012    2    1    2    0    0  0.42503875858E+02 -0.33054211663E+01  0.81313056251E+01  0.47787269555E+02  0.19999993207E+02 0.  0.
         12    1    1    2    0    0 -0.42503875858E+02  0.33054211663E+01 -0.81313056251E+01  0.43400730445E+02  0.00000000000E+00 0. -1.
         11    1    3    3    0    0  0.36072815676E+01  0.77045059598E+00  0.57114166306E+01  0.67989965891E+01  0.51100000000E-03 0. -1.
        -11    1    3    3    0    0  0.26249607619E+02 -0.65274723019E+01  0.58127696319E+01  0.27666551752E+02  0.51100000000E-03 0.  1.
         12    1    3    3    0    0  0.12646986671E+02  0.24516005396E+01 -0.33928806374E+01  0.13321721214E+02  0.00000000000E+00 0. -1.
</event>
<event>
 7    1  0.1631716E-009  0.4778727E+02  0.7816164E-02  0.1312668E+00
        -11   -1    0    0    0    0  0.00000000000E+00  0.00000000000E+00  0.45593999997E+02  0.45594000000E+02  0.51100000000E-03 0. -1.
         11   -1    0    0    0    0 -0.00000000000E+00 -0.00000000000E+00 -0.45593999997E+02  0.45594000000E+02  0.51100000000E-03 0.  1.
    9900012    2    1    2    0    0 -0.26723661373E+02 -0.14223532414E+02 -0.31099202678E+02  0.47787270067E+02  0.19999995543E+02 0.  0.
         12    1    1    2    0    0  0.26723661373E+02  0.14223532414E+02  0.31099202678E+02  0.43400729933E+02  0.00000000000E+00 0. -1.
         11    1    3    3    0    0 -0.13682322648E+02 -0.10839759529E+02 -0.10056999387E+02  0.20145708640E+02  0.51100000000E-03 0. -1.
        -11    1    3    3    0    0 -0.25382593186E+01 -0.56190274978E+01 -0.35455574403E+01  0.71124685035E+01  0.51100000000E-03 0.  1.
         12    1    3    3    0    0 -0.10503079407E+02  0.22352546132E+01 -0.17496645852E+02  0.20529092924E+02  0.00000000000E+00 0. -1.
</event>
<event>
 7    1  0.1631716E-009  0.4778726E+02  0.7816164E-02  0.1312668E+00
        -11   -1    0    0    0    0  0.00000000000E+00  0.00000000000E+00  0.45593999997E+02  0.45594000000E+02  0.51100000000E-03 0. -1.
         11   -1    0    0    0    0 -0.00000000000E+00 -0.00000000000E+00 -0.45593999997E+02  0.45594000000E+02  0.51100000000E-03 0.  1.
    9900012    2    1    2    0    0 -0.28970821647E+02  0.29842932806E+02  0.12398180310E+02  0.47787262445E+02  0.19999960791E+02 0.  0.
         12    1    1    2    0    0  0.28970821647E+02 -0.29842932806E+02 -0.12398180310E+02  0.43400737555E+02  0.00000000000E+00 0. -1.
         11    1    3    3    0    0 -0.79399951799E+01  0.87080374240E+01  0.10973475876E+02  0.16102503293E+02  0.51100000000E-03 0. -1.
        -11    1    3    3    0    0 -0.19250379214E+02  0.14989128353E+02  0.41174431268E+01  0.24742764737E+02  0.51100000000E-03 0.  1.
        -12    1    3    3    0    0 -0.17804472534E+01  0.61457670283E+01 -0.26927386931E+01  0.69419944150E+01  0.00000000000E+00 0.  1.
</event>
<event>
 7    1  0.1631716E-009  0.4778727E+02  0.7816164E-02  0.1312668E+00
        -11   -1    0    0    0    0  0.00000000000E+00  0.00000000000E+00  0.45593999997E+02  0.45594000000E+02  0.51100000000E-03 0. -1.
         11   -1    0    0    0    0 -0.00000000000E+00 -0.00000000000E+00 -0.45593999997E+02  0.45594000000E+02  0.51100000000E-03 0.  1.
    9900012    2    1    2    0    0 -0.39516203300E+02 -0.17945029093E+02 -0.26250733436E+00  0.47787270714E+02  0.19999998495E+02 0.  0.
         12    1    1    2    0    0  0.39516203300E+02  0.17945029093E+02  0.26250733436E+00  0.43400729286E+02  0.00000000000E+00 0. -1.
         11    1    3    3    0    0 -0.22460884866E+01  0.11134278988E+01 -0.36140948510E+01  0.43984448421E+01  0.51100000000E-03 0. -1.
        -11    1    3    3    0    0 -0.23145606387E+02 -0.11303533786E+02 -0.32758544355E+01  0.25965750396E+02  0.51100000000E-03 0.  1.
         12    1    3    3    0    0 -0.14124508427E+02 -0.77549232055E+01  0.66274419521E+01  0.17423075476E+02  0.00000000000E+00 0. -1.
</event>
<event>
 7    1  0.1631716E-009  0.4778726E+02  0.7816164E-02  0.1312668E+00
        -11   -1    0    0    0    0  0.00000000000E+00  0.00000000000E+00  0.45593999997E+02  0.45594000000E+02  0.51100000000E-03 0.  1.
         11   -1    0    0    0    0 -0.00000000000E+00 -0.00000000000E+00 -0.45593999997E+02  0.45594000000E+02  0.51100000000E-03 0. -1.
    9900012    2    1    2    0    0 -0.35124407994E+02 -0.24437644688E+02  0.72595708996E+01  0.47787264010E+02  0.19999967926E+02 0.  0.
         12    1    1    2    0    0  0.35124407994E+02  0.24437644688E+02 -0.72595708996E+01  0.43400735990E+02  0.00000000000E+00 0. -1.
         11    1    3    3    0    0 -0.19713842133E+02 -0.13794573523E+02 -0.44801912320E+01  0.24474434499E+02  0.51100000000E-03 0. -1.
        -11    1    3    3    0    0 -0.10399285398E+02 -0.10200144284E+02  0.62045766095E+01  0.15833030391E+02  0.51100000000E-03 0.  1.
         12    1    3    3    0    0 -0.50112804635E+01 -0.44292688128E+00  0.55351855221E+01  0.74797991197E+01  0.00000000000E+00 0. -1.
</event>
<event>
 7    1  0.1631716E-009  0.4778727E+02  0.7816164E-02  0.1312668E+00
        -11   -1    0    0    0    0  0.00000000000E+00  0.00000000000E+00  0.45593999997E+02  0.45594000000E+02  0.51100000000E-03 0.  1.
         11   -1    0    0    0    0 -0.00000000000E+00 -0.00000000000E+00 -0.45593999997E+02  0.45594000000E+02  0.51100000000E-03 0. -1.
    9900012    2    1    2    0    0 -0.73995744212E+01  0.35559323589E+01  0.42617191395E+02  0.47787270064E+02  0.19999995531E+02 0.  0.
         12    1    1    2    0    0  0.73995744212E+01 -0.35559323589E+01 -0.42617191395E+02  0.43400729936E+02  0.00000000000E+00 0. -1.
         11    1    3    3    0    0 -0.16844590107E+01  0.64070427104E+00 -0.56953734752E+00  0.18900468705E+01  0.51100000000E-03 0. -1.
        -11    1    3    3    0    0 -0.76412888137E+01  0.68504650046E+01  0.36400743274E+02  0.37819733958E+02  0.51100000000E-03 0.  1.
        -12    1    3    3    0    0  0.19261734031E+01 -0.39352369168E+01  0.67859854686E+01  0.80774892356E+01  0.00000000000E+00 0.  1.
</event>
<event>
 7    1  0.1631716E-009  0.4778727E+02  0.7816164E-02  0.1312668E+00
        -11   -1    0    0    0    0  0.00000000000E+00  0.00000000000E+00  0.45593999997E+02  0.45594000000E+02  0.51100000000E-03 0.  1.
         11   -1    0    0    0    0 -0.00000000000E+00 -0.00000000000E+00 -0.45593999997E+02  0.45594000000E+02  0.51100000000E-03 0. -1.
    9900012    2    1    2    0    0 -0.13744652815E+02 -0.35033674444E+01  0.41017486294E+02  0.47787271362E+02  0.20000001447E+02 0.  0.
         12    1    1    2    0    0  0.13744652815E+02  0.35033674444E+01 -0.41017486294E+02  0.43400728638E+02  0.00000000000E+00 0. -1.
         11    1    3    3    0    0 -0.75539751049E+01  0.10640334720E+01  0.72345809817E+01  0.10513508898E+02  0.51100000000E-03 0. -1.
        -11    1    3    3    0    0 -0.71862439154E+01 -0.58896441636E+01  0.10864679676E+02  0.14295848163E+02  0.51100000000E-03 0.  1.
        -12    1    3    3    0    0  0.99556620526E+00  0.13222432471E+01  0.22918225636E+02  0.22977914300E+02  0.00000000000E+00 0.  1.
</event>
<event>
 7    1  0.1631716E-009  0.4778727E+02  0.7816164E-02  0.1312668E+00
        -11   -1    0    0    0    0  0.00000000000E+00  0.00000000000E+00  0.45593999997E+02  0.45594000000E+02  0.51100000000E-03 0.  1.
         11   -1    0    0    0    0 -0.00000000000E+00 -0.00000000000E+00 -0.45593999997E+02  0.45594000000E+02  0.51100000000E-03 0. -1.
    9900012    2    1    2    0    0 -0.27142116773E+02 -0.18699210097E+02  0.28235943181E+02  0.47787269033E+02  0.19999990829E+02 0.  0.
         12    1    1    2    0    0  0.27142116773E+02  0.18699210097E+02 -0.28235943181E+02  0.43400730967E+02  0.00000000000E+00 0. -1.
         11    1    3    3    0    0 -0.16005524315E+02 -0.15859857668E+02  0.17384033810E+02  0.28459032408E+02  0.51100000000E-03 0. -1.
        -11    1    3    3    0    0  0.12364110330E+01 -0.29560406407E+01  0.60101099306E+00  0.32600771443E+01  0.51100000000E-03 0.  1.
         12    1    3    3    0    0 -0.12373003491E+02  0.11668821245E+00  0.10250898378E+02  0.16068159480E+02  0.00000000000E+00 0. -1.
</event>
<event>
 7    1  0.1631716E-009  0.4778727E+02  0.7816164E-02  0.1312668E+00
        -11   -1    0    0    0    0  0.00000000000E+00  0.00000000000E+00  0.45593999997E+02  0.45594000000E+02  0.51100000000E-03 0. -1.
         11   -1    0    0    0    0 -0.00000000000E+00 -0.00000000000E+00 -0.45593999997E+02  0.45594000000E+02  0.51100000000E-03 0.  1.
    9900012    2    1    2    0    0  0.27309199803E+02 -0.31968399360E+02  0.10763456144E+02  0.47787274894E+02  0.20000017553E+02 0.  0.
         12    1    1    2    0    0 -0.27309199803E+02  0.31968399360E+02 -0.10763456144E+02  0.43400725106E+02  0.00000000000E+00 0. -1.
         11    1    3    3    0    0  0.53473841893E+01 -0.74558498489E+01  0.62575317627E+01  0.11105895671E+02  0.51100000000E-03 0. -1.
        -11    1    3    3    0    0  0.14394083698E+02 -0.54585302786E+01 -0.10800354252E+01  0.15432163656E+02  0.51100000000E-03 0.  1.
        -12    1    3    3    0    0  0.75677319155E+01 -0.19054019233E+02  0.55859598067E+01  0.21249215567E+02  0.00000000000E+00 0.  1.
</event>
<event>
 7    1  0.1631716E-009  0.4778728E+02  0.7816164E-02  0.1312668E+00
        -11   -1    0    0    0    0  0.00000000000E+00  0.00000000000E+00  0.45593999997E+02  0.45594000000E+02  0.51100000000E-03 0.  1.
         11   -1    0    0    0    0 -0.00000000000E+00 -0.00000000000E+00 -0.45593999997E+02  0.45594000000E+02  0.51100000000E-03 0. -1.
    9900012    2    1    2    0    0 -0.30735438829E+02  0.23042241563E+02  0.20199269349E+02  0.47787279055E+02  0.20000036525E+02 0.  0.
         12    1    1    2    0    0  0.30735438829E+02 -0.23042241563E+02 -0.20199269349E+02  0.43400720945E+02  0.00000000000E+00 0. -1.
         11    1    3    3    0    0 -0.61758905725E+01 -0.21761803479E+00  0.92934391847E+01  0.11160510477E+02  0.51100000000E-03 0. -1.
        -11    1    3    3    0    0 -0.23829135563E+02  0.23620957518E+02  0.11655660996E+02  0.35519456207E+02  0.51100000000E-03 0.  1.
        -12    1    3    3    0    0 -0.73041269414E+00 -0.36109791933E+00 -0.74983083183E+00  0.11073123712E+01  0.00000000000E+00 0.  1.
</event>
<event>
 7    1  0.1631716E-009  0.4778727E+02  0.7816164E-02  0.1312668E+00
        -11   -1    0    0    0    0  0.00000000000E+00  0.00000000000E+00  0.45593999997E+02  0.45594000000E+02  0.51100000000E-03 0. -1.
         11   -1    0    0    0    0 -0.00000000000E+00 -0.00000000000E+00 -0.45593999997E+02  0.45594000000E+02  0.51100000000E-03 0.  1.
    9900012    2    1    2    0    0  0.32271278464E+02 -0.26588041897E+02  0.11630302918E+02  0.47787270380E+02  0.19999996971E+02 0.  0.
         12    1    1    2    0    0 -0.32271278464E+02  0.26588041897E+02 -0.11630302918E+02  0.43400729620E+02  0.00000000000E+00 0. -1.
         11    1    3    3    0    0  0.64391339554E+01  0.67450319333E+00 -0.26141400057E+01  0.69822008625E+01  0.51100000000E-03 0. -1.
        -11    1    3    3    0    0  0.10296555964E+02 -0.16051362091E+02  0.66478520938E+01  0.20195524935E+02  0.51100000000E-03 0.  1.
        -12    1    3    3    0    0  0.15535588544E+02 -0.11211182999E+02  0.75965908295E+01  0.20609544582E+02  0.00000000000E+00 0.  1.
</event>
<event>
 7    1  0.1631716E-009  0.4778728E+02  0.7816164E-02  0.1312668E+00
        -11   -1    0    0    0    0  0.00000000000E+00  0.00000000000E+00  0.45593999997E+02  0.45594000000E+02  0.51100000000E-03 0. -1.
         11   -1    0    0    0    0 -0.00000000000E+00 -0.00000000000E+00 -0.45593999997E+02  0.45594000000E+02  0.51100000000E-03 0.  1.
    9900012    2    1    2    0    0 -0.30534651727E+02 -0.30075818572E+02  0.68339507540E+01  0.47787277635E+02  0.20000030048E+02 0.  0.
         12    1    1    2    0    0  0.30534651727E+02  0.30075818572E+02 -0.68339507540E+01  0.43400722365E+02  0.00000000000E+00 0. -1.
         11    1    3    3    0    0 -0.17406839301E+01 -0.60512268805E+01  0.10790746002E+01  0.63884058698E+01  0.51100000000E-03 0. -1.
        -11    1    3    3    0    0 -0.29084170091E+02 -0.17880058657E+02  0.76007295259E+01  0.34976514078E+02  0.51100000000E-03 0.  1.
        -12    1    3    3    0    0  0.29020229385E+00 -0.61445330350E+01 -0.18458533721E+01  0.64223576871E+01  0.00000000000E+00 0.  1.
</event>
<event>
 7    1  0.1631716E-009  0.4778727E+02  0.7816164E-02  0.1312668E+00
        -11   -1    0    0    0    0  0.00000000000E+00  0.00000000000E+00  0.45593999997E+02  0.45594000000E+02  0.51100000000E-03 0.  1.
         11   -1    0    0    0    0 -0.00000000000E+00 -0.00000000000E+00 -0.45593999997E+02  0.45594000000E+02  0.51100000000E-03 0. -1.
    9900012    2    1    2    0    0 -0.30959118909E+02 -0.37733079318E+01  0.30181422954E+02  0.47787272035E+02  0.20000004516E+02 0.  0.
         12    1    1    2    0    0  0.30959118909E+02  0.37733079318E+01 -0.30181422954E+02  0.43400727965E+02  0.00000000000E+00 0. -1.
         11    1    3    3    0    0 -0.30074770509E+01 -0.13760394525E+01 -0.17573873826E+01  0.37452387721E+01  0.51100000000E-03 0. -1.
        -11    1    3    3    0    0 -0.21873038544E+02 -0.42358578258E+01  0.17711505031E+02  0.28461723725E+02  0.51100000000E-03 0.  1.
        -12    1    3    3    0    0 -0.60786033138E+01  0.18385893465E+01  0.14227305306E+02  0.15580309538E+02  0.00000000000E+00 0.  1.
</event>
<event>
 7    1  0.1631716E-009  0.4778726E+02  0.7816164E-02  0.1312668E+00
        -11   -1    0    0    0    0  0.00000000000E+00  0.00000000000E+00  0.45593999997E+02  0.45594000000E+02  0.51100000000E-03 0.  1.
         11   -1    0    0    0    0 -0.00000000000E+00 -0.00000000000E+00 -0.45593999997E+02  0.45594000000E+02  0.51100000000E-03 0. -1.
    9900012    2    1    2    0    0  0.34493207344E+02  0.12263598378E+02  0.23311952133E+02  0.47787259105E+02  0.19999945561E+02 0.  0.
         12    1    1    2    0    0 -0.34493207344E+02 -0.12263598378E+02 -0.23311952133E+02  0.43400740895E+02  0.00000000000E+00 0. -1.
         11    1    3    3    0    0  0.24877586910E+02  0.74580601925E+01  0.19091388784E+02  0.32233493734E+02  0.51100000000E-03 0.  1.
        -11    1    3    3    0    0  0.81934449126E+01 -0.72841681494E+00 -0.35545780691E+00  0.82334367736E+01  0.51100000000E-03 0. -1.
         12    1    3    3    0    0  0.14221755210E+01  0.55339550002E+01  0.45760211557E+01  0.73203285974E+01  0.00000000000E+00 0. -1.
</event>
<event>
 7    1  0.1631716E-009  0.4778727E+02  0.7816164E-02  0.1312668E+00
        -11   -1    0    0    0    0  0.00000000000E+00  0.00000000000E+00  0.45593999997E+02  0.45594000000E+02  0.51100000000E-03 0.  1.
         11   -1    0    0    0    0 -0.00000000000E+00 -0.00000000000E+00 -0.45593999997E+02  0.45594000000E+02  0.51100000000E-03 0. -1.
    9900012    2    1    2    0    0 -0.30988095123E+02 -0.29528766895E+02  0.71702875814E+01  0.47787272613E+02  0.20000007151E+02 0.  0.
         12    1    1    2    0    0  0.30988095123E+02  0.29528766895E+02 -0.71702875814E+01  0.43400727387E+02  0.00000000000E+00 0. -1.
         11    1    3    3    0    0 -0.31611875936E+01 -0.11101967291E+02  0.57369618059E+01  0.12890287652E+02  0.51100000000E-03 0. -1.
        -11    1    3    3    0    0 -0.19845803782E+02 -0.14267179460E+02  0.54486226053E+01  0.25041881440E+02  0.51100000000E-03 0.  1.
        -12    1    3    3    0    0 -0.79811037473E+01 -0.41596201452E+01 -0.40152968298E+01  0.98551035210E+01  0.00000000000E+00 0.  1.
</event>
<event>
 7    1  0.1631716E-009  0.4778729E+02  0.7816164E-02  0.1312668E+00
        -11   -1    0    0    0    0  0.00000000000E+00  0.00000000000E+00  0.45593999997E+02  0.45594000000E+02  0.51100000000E-03 0.  1.
         11   -1    0    0    0    0 -0.00000000000E+00 -0.00000000000E+00 -0.45593999997E+02  0.45594000000E+02  0.51100000000E-03 0. -1.
    9900012    2    1    2    0    0 -0.17503843522E+02 -0.19543880887E+02  0.34572736375E+02  0.47787286657E+02  0.20000071184E+02 0.  0.
         12    1    1    2    0    0  0.17503843522E+02  0.19543880887E+02 -0.34572736375E+02  0.43400713343E+02  0.00000000000E+00 0. -1.
         11    1    3    3    0    0 -0.93658270769E+01  0.51639633730E+00  0.10566962213E+02  0.14129616862E+02  0.51100000000E-03 0. -1.
        -11    1    3    3    0    0 -0.48524148720E+01 -0.13705211162E+02  0.21739567625E+02  0.26153155524E+02  0.51100000000E-03 0.  1.
        -12    1    3    3    0    0 -0.32856015736E+01 -0.63550660629E+01  0.22662065375E+01  0.75045142704E+01  0.00000000000E+00 0.  1.
</event>
<event>
 7    1  0.1631716E-009  0.4778727E+02  0.7816164E-02  0.1312668E+00
        -11   -1    0    0    0    0  0.00000000000E+00  0.00000000000E+00  0.45593999997E+02  0.45594000000E+02  0.51100000000E-03 0. -1.
         11   -1    0    0    0    0 -0.00000000000E+00 -0.00000000000E+00 -0.45593999997E+02  0.45594000000E+02  0.51100000000E-03 0.  1.
    9900012    2    1    2    0    0  0.41421098271E+02 -0.79545736395E+01 -0.10229405277E+02  0.47787270097E+02  0.19999995681E+02 0.  0.
         12    1    1    2    0    0 -0.41421098271E+02  0.79545736395E+01  0.10229405277E+02  0.43400729903E+02  0.00000000000E+00 0. -1.
         11    1    3    3    0    0  0.16421199801E+02  0.22190057157E+01 -0.21500492145E-01  0.16570463234E+02  0.51100000000E-03 0. -1.
        -11    1    3    3    0    0  0.22086238666E+00 -0.39351422021E+01 -0.11339749828E+01  0.41012222407E+01  0.51100000000E-03 0.  1.
         12    1    3    3    0    0  0.24779036084E+02 -0.62384371531E+01 -0.90739298025E+01  0.27115584622E+02  0.00000000000E+00 0. -1.
</event>
<event>
 7    1  0.1631716E-009  0.4778727E+02  0.7816164E-02  0.1312668E+00
        -11   -1    0    0    0    0  0.00000000000E+00  0.00000000000E+00  0.45593999997E+02  0.45594000000E+02  0.51100000000E-03 0. -1.
         11   -1    0    0    0    0 -0.00000000000E+00 -0.00000000000E+00 -0.45593999997E+02  0.45594000000E+02  0.51100000000E-03 0.  1.
    9900012    2    1    2    0    0  0.58292563004E+01  0.38745328462E+02  0.18666625936E+02  0.47787266936E+02  0.19999981270E+02 0.  0.
         12    1    1    2    0    0 -0.58292563004E+01 -0.38745328462E+02 -0.18666625936E+02  0.43400733064E+02  0.00000000000E+00 0. -1.
         11    1    3    3    0    0  0.64772632596E+01  0.21690634298E+01  0.56673097730E+01  0.88757070603E+01  0.51100000000E-03 0. -1.
        -11    1    3    3    0    0 -0.50046766285E+00  0.11966810896E+02  0.55366714305E+01  0.13195065809E+02  0.51100000000E-03 0.  1.
         12    1    3    3    0    0 -0.14753929637E+00  0.24609454136E+02  0.74626447324E+01  0.25716494067E+02  0.00000000000E+00 0. -1.
</event>
<event>
 7    1  0.1939626E-009  0.4778727E+02  0.7816164E-02  0.1312668E+00
        -11   -1    0    0    0    0  0.00000000000E+00  0.00000000000E+00  0.45593999997E+02  0.45594000000E+02  0.51100000000E-03 0. -1.
         11   -1    0    0    0    0 -0.00000000000E+00 -0.00000000000E+00 -0.45593999997E+02  0.45594000000E+02  0.51100000000E-03 0.  1.
    9900012    2    1    2    0    0  0.70824033598E+01  0.80725460290E+00 -0.42811342301E+02  0.47787272737E+02  0.20000007717E+02 0.  0.
         12    1    1    2    0    0 -0.70824033598E+01 -0.80725460290E+00  0.42811342301E+02  0.43400727263E+02  0.00000000000E+00 0. -1.
         11    1    3    3    0    0  0.26725633021E+01  0.79566875631E+01 -0.81641820539E+01  0.11709198967E+02  0.51100000000E-03 0. -1.
        -11    1    3    3    0    0  0.27928457336E+01 -0.36836461832E+01 -0.87121168547E+01  0.98625664431E+01  0.51100000000E-03 0.  1.
         12    1    3    3    0    0  0.16169943241E+01 -0.34657867770E+01 -0.25935043392E+02  0.26215507327E+02  0.00000000000E+00 0. -1.
</event>
<event>
 7    1  0.1631716E-009  0.4778727E+02  0.7816164E-02  0.1312668E+00
        -11   -1    0    0    0    0  0.00000000000E+00  0.00000000000E+00  0.45593999997E+02  0.45594000000E+02  0.51100000000E-03 0.  1.
         11   -1    0    0    0    0 -0.00000000000E+00 -0.00000000000E+00 -0.45593999997E+02  0.45594000000E+02  0.51100000000E-03 0. -1.
    9900012    2    1    2    0    0 -0.35302418617E+02  0.13344917717E+02  0.21430718743E+02  0.47787270802E+02  0.19999998895E+02 0.  0.
         12    1    1    2    0    0  0.35302418617E+02 -0.13344917717E+02 -0.21430718743E+02  0.43400729198E+02  0.00000000000E+00 0. -1.
         11    1    3    3    0    0 -0.57640157977E+01  0.69706069014E+01  0.11145720676E+02  0.14354104930E+02  0.51100000000E-03 0. -1.
        -11    1    3    3    0    0 -0.24351796095E+02  0.85386240087E+01  0.10373601457E+02  0.27812401559E+02  0.51100000000E-03 0.  1.
        -12    1    3    3    0    0 -0.51866067240E+01 -0.21643131935E+01 -0.88603389361E-01  0.56207643136E+01  0.00000000000E+00 0.  1.
</event>
<event>
 7    1  0.1631716E-009  0.4778727E+02  0.7816164E-02  0.1312668E+00
        -11   -1    0    0    0    0  0.00000000000E+00  0.00000000000E+00  0.45593999997E+02  0.45594000000E+02  0.51100000000E-03 0.  1.
         11   -1    0    0    0    0 -0.00000000000E+00 -0.00000000000E+00 -0.45593999997E+02  0.45594000000E+02  0.51100000000E-03 0. -1.
    9900012    2    1    2    0    0  0.27029788686E+02 -0.96665793254E+01  0.32551054341E+02  0.47787269926E+02  0.19999994902E+02 0.  0.
         12    1    1    2    0    0 -0.27029788686E+02  0.96665793254E+01 -0.32551054341E+02  0.43400730074E+02  0.00000000000E+00 0. -1.
         11    1    3    3    0    0  0.32498247322E+01 -0.13495890037E+01  0.14329934831E+02  0.14755669547E+02  0.51100000000E-03 0. -1.
        -11    1    3    3    0    0  0.21233378920E+02 -0.46416497952E+01  0.18513253535E+02  0.28550689131E+02  0.51100000000E-03 0.  1.
         12    1    3    3    0    0  0.25465850339E+01 -0.36753405265E+01 -0.29213402502E+00  0.44809112476E+01  0.00000000000E+00 0. -1.
</event>
<event>
 7    1  0.1631716E-009  0.4778727E+02  0.7816164E-02  0.1312668E+00
        -11   -1    0    0    0    0  0.00000000000E+00  0.00000000000E+00  0.45593999997E+02  0.45594000000E+02  0.51100000000E-03 0. -1.
         11   -1    0    0    0    0 -0.00000000000E+00 -0.00000000000E+00 -0.45593999997E+02  0.45594000000E+02  0.51100000000E-03 0.  1.
    9900012    2    1    2    0    0  0.33158153297E+02  0.24084769305E+02  0.14285798819E+02  0.47787270853E+02  0.19999999129E+02 0.  0.
         12    1    1    2    0    0 -0.33158153297E+02 -0.24084769305E+02 -0.14285798819E+02  0.43400729147E+02  0.00000000000E+00 0. -1.
         11    1    3    3    0    0  0.23727609846E+02  0.13775771078E+02  0.97211536892E+01  0.29107939932E+02  0.51100000000E-03 0. -1.
        -11    1    3    3    0    0  0.99283218669E+01  0.11381143485E+02  0.12435644476E+01  0.15154156358E+02  0.51100000000E-03 0.  1.
         12    1    3    3    0    0 -0.49777841570E+00 -0.10721452574E+01  0.33210806826E+01  0.35251745637E+01  0.00000000000E+00 0. -1.
</event>
<event>
 7    1  0.1631716E-009  0.4778727E+02  0.7816164E-02  0.1312668E+00
        -11   -1    0    0    0    0  0.00000000000E+00  0.00000000000E+00  0.45593999997E+02  0.45594000000E+02  0.51100000000E-03 0. -1.
         11   -1    0    0    0    0 -0.00000000000E+00 -0.00000000000E+00 -0.45593999997E+02  0.45594000000E+02  0.51100000000E-03 0.  1.
    9900012    2    1    2    0    0 -0.29049783137E+02 -0.28212979129E+02  0.15612854647E+02  0.47787270492E+02  0.19999997479E+02 0.  0.
         12    1    1    2    0    0  0.29049783137E+02  0.28212979129E+02 -0.15612854647E+02  0.43400729508E+02  0.00000000000E+00 0. -1.
         11    1    3    3    0    0 -0.11833143982E+02 -0.79557456619E+01 -0.19752693217E+01  0.14395098981E+02  0.51100000000E-03 0. -1.
        -11    1    3    3    0    0 -0.99382742443E+01 -0.55226176512E+01  0.39504648253E+01  0.12036393699E+02  0.51100000000E-03 0.  1.
         12    1    3    3    0    0 -0.72783649111E+01 -0.14734615816E+02  0.13637659143E+02  0.21355777811E+02  0.00000000000E+00 0. -1.
</event>
<event>
 7    1  0.1631716E-009  0.4778729E+02  0.7816164E-02  0.1312668E+00
        -11   -1    0    0    0    0  0.00000000000E+00  0.00000000000E+00  0.45593999997E+02  0.45594000000E+02  0.51100000000E-03 0.  1.
         11   -1    0    0    0    0 -0.00000000000E+00 -0.00000000000E+00 -0.45593999997E+02  0.45594000000E+02  0.51100000000E-03 0. -1.
    9900012    2    1    2    0    0  0.31382196335E+02 -0.85316323004E+01  0.28740060114E+02  0.47787285122E+02  0.20000064186E+02 0.  0.
         12    1    1    2    0    0 -0.31382196335E+02  0.85316323004E+01 -0.28740060114E+02  0.43400714878E+02  0.00000000000E+00 0. -1.
         11    1    3    3    0    0  0.38364447191E+01 -0.27660796860E+00  0.92582483815E+01  0.10025466743E+02  0.51100000000E-03 0. -1.
        -11    1    3    3    0    0  0.65558055712E+01 -0.61163957395E+01 -0.11427273644E+00  0.89667130014E+01  0.51100000000E-03 0.  1.
         12    1    3    3    0    0  0.20989946045E+02 -0.21386285924E+01  0.19596084469E+02  0.28795105378E+02  0.00000000000E+00 0. -1.
</event>
<event>
 7    1  0.1631716E-009  0.4778727E+02  0.7816164E-02  0.1312668E+00
        -11   -1    0    0    0    0  0.00000000000E+00  0.00000000000E+00  0.45593999997E+02  0.45594000000E+02  0.51100000000E-03 0.  1.
         11   -1    0    0    0    0 -0.00000000000E+00 -0.00000000000E+00 -0.45593999997E+02  0.45594000000E+02  0.51100000000E-03 0. -1.
    9900012    2    1    2    0    0 -0.17369081237E+02  0.37384793628E+02  0.13576283325E+02  0.47787271359E+02  0.20000001433E+02 0.  0.
         12    1    1    2    0    0  0.17369081237E+02 -0.37384793628E+02 -0.13576283325E+02  0.43400728641E+02  0.00000000000E+00 0. -1.
         11    1    3    3    0    0 -0.44041167832E+01  0.43165208872E+01  0.31947577959E+01  0.69451475755E+01  0.51100000000E-03 0. -1.
        -11    1    3    3    0    0 -0.16611037759E+02  0.30197869785E+02  0.71813141872E+01  0.35205243768E+02  0.51100000000E-03 0.  1.
         12    1    3    3    0    0  0.36460733053E+01  0.28704029559E+01  0.32002113421E+01  0.56368800157E+01  0.00000000000E+00 0. -1.
</event>
<event>
 7    1  0.1631716E-009  0.4778727E+02  0.7816164E-02  0.1312668E+00
        -11   -1    0    0    0    0  0.00000000000E+00  0.00000000000E+00  0.45593999997E+02  0.45594000000E+02  0.51100000000E-03 0. -1.
         11   -1    0    0    0    0 -0.00000000000E+00 -0.00000000000E+00 -0.45593999997E+02  0.45594000000E+02  0.51100000000E-03 0.  1.
    9900012    2    1    2    0    0  0.11883816272E+02  0.25791318462E+02 -0.32820818341E+02  0.47787270585E+02  0.19999997904E+02 0.  0.
         12    1    1    2    0    0 -0.11883816272E+02 -0.25791318462E+02  0.32820818341E+02  0.43400729415E+02  0.00000000000E+00 0. -1.
         11    1    3    3    0    0 -0.16332659250E+01  0.43976287852E+01  0.20285601695E+00  0.46955135331E+01  0.51100000000E-03 0. -1.
        -11    1    3    3    0    0  0.99189933109E+01  0.56408477033E+01 -0.15611586735E+02  0.19337198136E+02  0.51100000000E-03 0.  1.
         12    1    3    3    0    0  0.35980888859E+01  0.15752841973E+02 -0.17412087623E+02  0.23754558915E+02  0.00000000000E+00 0. -1.
</event>
<event>
 7    1  0.1631716E-009  0.4778726E+02  0.7816164E-02  0.1312668E+00
        -11   -1    0    0    0    0  0.00000000000E+00  0.00000000000E+00  0.45593999997E+02  0.45594000000E+02  0.51100000000E-03 0. -1.
         11   -1    0    0    0    0 -0.00000000000E+00 -0.00000000000E+00 -0.45593999997E+02  0.45594000000E+02  0.51100000000E-03 0.  1.
    9900012    2    1    2    0    0 -0.36377995814E+02 -0.22584847132E+02  0.70845132486E+01  0.47787260060E+02  0.19999949917E+02 0.  0.
         12    1    1    2    0    0  0.36377995814E+02  0.22584847132E+02 -0.70845132486E+01  0.43400739940E+02  0.00000000000E+00 0. -1.
         11    1    3    3    0    0 -0.52796556837E+00 -0.43936003765E+00 -0.18671585489E+01  0.19894889274E+01  0.51100000000E-03 0. -1.
        -11    1    3    3    0    0 -0.22630083845E+02 -0.67466024436E+01 -0.44265965729E-02  0.23614346470E+02  0.51100000000E-03 0.  1.
         12    1    3    3    0    0 -0.13219946401E+02 -0.15398884650E+02  0.89560983941E+01  0.22183424663E+02  0.00000000000E+00 0. -1.
</event>
<event>
 7    1  0.1631716E-009  0.4778727E+02  0.7816164E-02  0.1312668E+00
        -11   -1    0    0    0    0  0.00000000000E+00  0.00000000000E+00  0.45593999997E+02  0.45594000000E+02  0.51100000000E-03 0.  1.
         11   -1    0    0    0    0 -0.00000000000E+00 -0.00000000000E+00 -0.45593999997E+02  0.45594000000E+02  0.51100000000E-03 0. -1.
    9900012    2    1    2    0    0  0.28589310305E+02 -0.32467927314E+02  0.34797099966E+01  0.47787270173E+02  0.19999996029E+02 0.  0.
         12    1    1    2    0    0 -0.28589310305E+02  0.32467927314E+02 -0.34797099966E+01  0.43400729827E+02  0.00000000000E+00 0. -1.
         11    1    3    3    0    0 -0.16166401043E+00  0.10397494220E+01  0.19504764016E+01  0.22162067970E+01  0.51100000000E-03 0. -1.
        -11    1    3    3    0    0  0.15813439391E+02 -0.17505118988E+02  0.63621206467E+01  0.24432982534E+02  0.51100000000E-03 0.  1.
        -12    1    3    3    0    0  0.12937534925E+02 -0.16002557749E+02 -0.48328870517E+01  0.21138080842E+02  0.00000000000E+00 0.  1.
</event>
<event>
 7    1  0.1631716E-009  0.4778727E+02  0.7816164E-02  0.1312668E+00
        -11   -1    0    0    0    0  0.00000000000E+00  0.00000000000E+00  0.45593999997E+02  0.45594000000E+02  0.51100000000E-03 0.  1.
         11   -1    0    0    0    0 -0.00000000000E+00 -0.00000000000E+00 -0.45593999997E+02  0.45594000000E+02  0.51100000000E-03 0. -1.
    9900012    2    1    2    0    0  0.17663876097E+01  0.17264494184E+02  0.39779900443E+02  0.47787270008E+02  0.19999995275E+02 0.  0.
         12    1    1    2    0    0 -0.17663876097E+01 -0.17264494184E+02 -0.39779900443E+02  0.43400729992E+02  0.00000000000E+00 0. -1.
         11    1    3    3    0    0  0.55405651974E+01  0.69897621724E+00  0.35443567059E+01  0.66142947605E+01  0.51100000000E-03 0. -1.
        -11    1    3    3    0    0  0.17705804008E+01  0.12392440211E+02  0.21351860312E+02  0.24750948838E+02  0.51100000000E-03 0.  1.
        -12    1    3    3    0    0 -0.55447579886E+01  0.41730777558E+01  0.14883683425E+02  0.16422026410E+02  0.00000000000E+00 0.  1.
</event>
<event>
 7    1  0.1631716E-009  0.4778727E+02  0.7816164E-02  0.1312668E+00
        -11   -1    0    0    0    0  0.00000000000E+00  0.00000000000E+00  0.45593999997E+02  0.45594000000E+02  0.51100000000E-03 0. -1.
         11   -1    0    0    0    0 -0.00000000000E+00 -0.00000000000E+00 -0.45593999997E+02  0.45594000000E+02  0.51100000000E-03 0.  1.
    9900012    2    1    2    0    0  0.17883324648E+01  0.43119916080E+02 -0.45932494697E+01  0.47787271476E+02  0.20000001967E+02 0.  0.
         12    1    1    2    0    0 -0.17883324648E+01 -0.43119916080E+02  0.45932494697E+01  0.43400728524E+02  0.00000000000E+00 0. -1.
         11    1    3    3    0    0 -0.21788526619E+01  0.13072589820E+02  0.63099771055E+00  0.13267937364E+02  0.51100000000E-03 0. -1.
        -11    1    3    3    0    0  0.99042229940E+01  0.15535827816E+02 -0.22577715001E+01  0.18562141887E+02  0.51100000000E-03 0.  1.
        -12    1    3    3    0    0 -0.59370378673E+01  0.14511498444E+02 -0.29664756802E+01  0.15957192225E+02  0.00000000000E+00 0.  1.
</event>
<event>
 7    1  0.1631716E-009  0.4778727E+02  0.7816164E-02  0.1312668E+00
        -11   -1    0    0    0    0  0.00000000000E+00  0.00000000000E+00  0.45593999997E+02  0.45594000000E+02  0.51100000000E-03 0. -1.
         11   -1    0    0    0    0 -0.00000000000E+00 -0.00000000000E+00 -0.45593999997E+02  0.45594000000E+02  0.51100000000E-03 0.  1.
    9900012    2    1    2    0    0 -0.10695575162E+02 -0.31405587261E+02 -0.27980656947E+02  0.47787269563E+02  0.19999993246E+02 0.  0.
         12    1    1    2    0    0  0.10695575162E+02  0.31405587261E+02  0.27980656947E+02  0.43400730437E+02  0.00000000000E+00 0. -1.
         11    1    3    3    0    0 -0.11141556298E+02 -0.20516773226E+02 -0.17337094224E+02  0.29080011980E+02  0.51100000000E-03 0.  1.
        -11    1    3    3    0    0 -0.64436645905E+00 -0.68192208270E+01  0.42620169636E+00  0.68628440875E+01  0.51100000000E-03 0. -1.
         12    1    3    3    0    0  0.10903475957E+01 -0.40695932082E+01 -0.11069764419E+02  0.11844413495E+02  0.00000000000E+00 0. -1.
</event>
<event>
 7    1  0.1631716E-009  0.4778728E+02  0.7816164E-02  0.1312668E+00
        -11   -1    0    0    0    0  0.00000000000E+00  0.00000000000E+00  0.45593999997E+02  0.45594000000E+02  0.51100000000E-03 0. -1.
         11   -1    0    0    0    0 -0.00000000000E+00 -0.00000000000E+00 -0.45593999997E+02  0.45594000000E+02  0.51100000000E-03 0.  1.
    9900012    2    1    2    0    0 -0.41920957784E+02  0.73278715929E+01  0.85181274344E+01  0.47787275368E+02  0.20000019712E+02 0.  0.
         12    1    1    2    0    0  0.41920957784E+02 -0.73278715929E+01 -0.85181274344E+01  0.43400724632E+02  0.00000000000E+00 0. -1.
         11    1    3    3    0    0 -0.11183940165E+02  0.65478981587E+01  0.90878245904E+01  0.15828583132E+02  0.51100000000E-03 0. -1.
        -11    1    3    3    0    0 -0.13140897909E+02  0.42760267558E+01 -0.19938109976E+01  0.13962194857E+02  0.51100000000E-03 0.  1.
         12    1    3    3    0    0 -0.17596119710E+02 -0.34960533216E+01  0.14241138416E+01  0.17996497379E+02  0.00000000000E+00 0. -1.
</event>
<event>
 7    1  0.1758900E-009  0.4778727E+02  0.7816164E-02  0.1312668E+00
        -11   -1    0    0    0    0  0.00000000000E+00  0.00000000000E+00  0.45593999997E+02  0.45594000000E+02  0.51100000000E-03 0. -1.
         11   -1    0    0    0    0 -0.00000000000E+00 -0.00000000000E+00 -0.45593999997E+02  0.45594000000E+02  0.51100000000E-03 0.  1.
    9900012    2    1    2    0    0  0.71293938442E+00  0.31372732936E+02 -0.29981105170E+02  0.47787270494E+02  0.19999997491E+02 0.  0.
         12    1    1    2    0    0 -0.71293938442E+00 -0.31372732936E+02  0.29981105170E+02  0.43400729506E+02  0.00000000000E+00 0. -1.
         11    1    3    3    0    0 -0.78905872352E+01  0.10191989755E+02 -0.47811084756E+01  0.13747618725E+02  0.51100000000E-03 0. -1.
        -11    1    3    3    0    0  0.28531802581E+01  0.83234571354E+01 -0.97300305047E+01  0.13118462949E+02  0.51100000000E-03 0.  1.
         12    1    3    3    0    0  0.57503463615E+01  0.12857286045E+02 -0.15469966190E+02  0.20921188820E+02  0.00000000000E+00 0. -1.
</event>
<event>
 7    1  0.1631716E-009  0.4778727E+02  0.7816164E-02  0.1312668E+00
        -11   -1    0    0    0    0  0.00000000000E+00  0.00000000000E+00  0.45593999997E+02  0.45594000000E+02  0.51100000000E-03 0.  1.
         11   -1    0    0    0    0 -0.00000000000E+00 -0.00000000000E+00 -0.45593999997E+02  0.45594000000E+02  0.51100000000E-03 0. -1.
    9900012    2    1    2    0    0 -0.16322516390E+02 -0.98069326431E+01  0.39000294781E+02  0.47787268875E+02  0.19999990111E+02 0.  0.
         12    1    1    2    0    0  0.16322516390E+02  0.98069326431E+01 -0.39000294781E+02  0.43400731125E+02  0.00000000000E+00 0. -1.
         11    1    3    3    0    0 -0.32109189779E+01 -0.45425965530E+01  0.65280409661E+01  0.85767419946E+01  0.51100000000E-03 0. -1.
        -11    1    3    3    0    0 -0.91710780608E+01 -0.85940859578E+01  0.97415185083E+01  0.15901703348E+02  0.51100000000E-03 0.  1.
         12    1    3    3    0    0 -0.39405193511E+01  0.33297498677E+01  0.22730735306E+02  0.23308823533E+02  0.00000000000E+00 0. -1.
</event>
<event>
 7    1  0.1631716E-009  0.4778727E+02  0.7816164E-02  0.1312668E+00
        -11   -1    0    0    0    0  0.00000000000E+00  0.00000000000E+00  0.45593999997E+02  0.45594000000E+02  0.51100000000E-03 0.  1.
         11   -1    0    0    0    0 -0.00000000000E+00 -0.00000000000E+00 -0.45593999997E+02  0.45594000000E+02  0.51100000000E-03 0. -1.
    9900012    2    1    2    0    0 -0.15516079318E+02 -0.13507869912E+02  0.38215336525E+02  0.47787271749E+02  0.20000003214E+02 0.  0.
         12    1    1    2    0    0  0.15516079318E+02  0.13507869912E+02 -0.38215336525E+02  0.43400728251E+02  0.00000000000E+00 0. -1.
         11    1    3    3    0    0 -0.11572591607E+02 -0.68620343308E+01  0.10906318528E+02  0.17319358411E+02  0.51100000000E-03 0. -1.
        -11    1    3    3    0    0 -0.77392667116E+01 -0.32156579642E+01  0.16305675142E+02  0.18333350688E+02  0.51100000000E-03 0.  1.
         12    1    3    3    0    0  0.37957790011E+01 -0.34301776167E+01  0.11003342856E+02  0.12134562650E+02  0.00000000000E+00 0. -1.
</event>
<event>
 7    1  0.1631716E-009  0.4778727E+02  0.7816164E-02  0.1312668E+00
        -11   -1    0    0    0    0  0.00000000000E+00  0.00000000000E+00  0.45593999997E+02  0.45594000000E+02  0.51100000000E-03 0.  1.
         11   -1    0    0    0    0 -0.00000000000E+00 -0.00000000000E+00 -0.45593999997E+02  0.45594000000E+02  0.51100000000E-03 0. -1.
    9900012    2    1    2    0    0  0.37312428870E+02 -0.20625848009E+02  0.81228146689E+01  0.47787273365E+02  0.20000010581E+02 0.  0.
         12    1    1    2    0    0 -0.37312428870E+02  0.20625848009E+02 -0.81228146689E+01  0.43400726635E+02  0.00000000000E+00 0. -1.
         11    1    3    3    0    0  0.73914964662E+01  0.22885021649E+01 -0.57785987148E+00  0.77592128764E+01  0.51100000000E-03 0. -1.
        -11    1    3    3    0    0  0.14300852592E+02 -0.85958978324E+01  0.87451024915E+01  0.18838276520E+02  0.51100000000E-03 0.  1.
         12    1    3    3    0    0  0.15620079812E+02 -0.14318452341E+02 -0.44427951113E-01  0.21189783969E+02  0.00000000000E+00 0. -1.
</event>
<event>
 7    1  0.1631716E-009  0.4778728E+02  0.7816164E-02  0.1312668E+00
        -11   -1    0    0    0    0  0.00000000000E+00  0.00000000000E+00  0.45593999997E+02  0.45594000000E+02  0.51100000000E-03 0.  1.
         11   -1    0    0    0    0 -0.00000000000E+00 -0.00000000000E+00 -0.45593999997E+02  0.45594000000E+02  0.51100000000E-03 0. -1.
    9900012    2    1    2    0    0  0.25708898377E+02  0.34862595902E+02  0.26971830479E+01  0.47787275983E+02  0.20000022517E+02 0.  0.
         12    1    1    2    0    0 -0.25708898377E+02 -0.34862595902E+02 -0.26971830479E+01  0.43400724017E+02  0.00000000000E+00 0. -1.
         11    1    3    3    0    0  0.61726859220E+01  0.42771748696E+01  0.40190306340E+01  0.85175632581E+01  0.51100000000E-03 0. -1.
        -11    1    3    3    0    0 -0.31218157050E+00  0.12042132595E+02 -0.12098522648E+01  0.12106781469E+02  0.51100000000E-03 0.  1.
         12    1    3    3    0    0  0.19848394025E+02  0.18543288437E+02 -0.11199532133E+00  0.27162931256E+02  0.00000000000E+00 0. -1.
</event>
<event>
 7    1  0.1631716E-009  0.4778727E+02  0.7816164E-02  0.1312668E+00
        -11   -1    0    0    0    0  0.00000000000E+00  0.00000000000E+00  0.45593999997E+02  0.45594000000E+02  0.51100000000E-03 0. -1.
         11   -1    0    0    0    0 -0.00000000000E+00 -0.00000000000E+00 -0.45593999997E+02  0.45594000000E+02  0.51100000000E-03 0.  1.
    9900012    2    1    2    0    0  0.74419699292E+01  0.38313418784E+02  0.18982158205E+02  0.47787270680E+02  0.19999998340E+02 0.  0.
         12    1    1    2    0    0 -0.74419699292E+01 -0.38313418784E+02 -0.18982158205E+02  0.43400729320E+02  0.00000000000E+00 0. -1.
         11    1    3    3    0    0  0.18641323884E+00  0.12033226451E+02  0.55454486482E+01  0.13250859961E+02  0.51100000000E-03 0. -1.
        -11    1    3    3    0    0  0.18206053364E+01 -0.21519644284E+01  0.65937929278E+00  0.28948810002E+01  0.51100000000E-03 0.  1.
        -12    1    3    3    0    0  0.54349513540E+01  0.28432156761E+02  0.12777330264E+02  0.31641529720E+02  0.00000000000E+00 0.  1.
</event>
<event>
 7    1  0.1631716E-009  0.4778727E+02  0.7816164E-02  0.1312668E+00
        -11   -1    0    0    0    0  0.00000000000E+00  0.00000000000E+00  0.45593999997E+02  0.45594000000E+02  0.51100000000E-03 0. -1.
         11   -1    0    0    0    0 -0.00000000000E+00 -0.00000000000E+00 -0.45593999997E+02  0.45594000000E+02  0.51100000000E-03 0.  1.
    9900012    2    1    2    0    0 -0.20536391358E+02  0.26586899016E+02 -0.27477571855E+02  0.47787268159E+02  0.19999986842E+02 0.  0.
         12    1    1    2    0    0  0.20536391358E+02 -0.26586899016E+02  0.27477571855E+02  0.43400731841E+02  0.00000000000E+00 0. -1.
         11    1    3    3    0    0  0.11571363232E+01  0.76913428631E+01 -0.22052196538E+01  0.80844736063E+01  0.51100000000E-03 0. -1.
        -11    1    3    3    0    0 -0.13256019119E+02  0.13879935803E+02 -0.22352553717E+02  0.29462031816E+02  0.51100000000E-03 0.  1.
         12    1    3    3    0    0 -0.84375085623E+01  0.50156203496E+01 -0.29197984843E+01  0.10240762736E+02  0.00000000000E+00 0. -1.
</event>
<event>
 7    1  0.1631716E-009  0.4778727E+02  0.7816164E-02  0.1312668E+00
        -11   -1    0    0    0    0  0.00000000000E+00  0.00000000000E+00  0.45593999997E+02  0.45594000000E+02  0.51100000000E-03 0.  1.
         11   -1    0    0    0    0 -0.00000000000E+00 -0.00000000000E+00 -0.45593999997E+02  0.45594000000E+02  0.51100000000E-03 0. -1.
    9900012    2    1    2    0    0 -0.43242587975E+02  0.35129537737E+01 -0.11667033997E+01  0.47787268948E+02  0.19999990441E+02 0.  0.
         12    1    1    2    0    0  0.43242587975E+02 -0.35129537737E+01  0.11667033997E+01  0.43400731052E+02  0.00000000000E+00 0. -1.
         11    1    3    3    0    0 -0.14015859736E+02  0.52272290913E+01  0.82782521941E+00  0.14981773692E+02  0.51100000000E-03 0. -1.
        -11    1    3    3    0    0 -0.23347224665E+02 -0.54508741500E+00 -0.76394778029E+01  0.24571358147E+02  0.51100000000E-03 0.  1.
         12    1    3    3    0    0 -0.58795035751E+01 -0.11691879026E+01  0.56449491838E+01  0.82341371090E+01  0.00000000000E+00 0. -1.
</event>
<event>
 7    1  0.1631716E-009  0.4778728E+02  0.7816164E-02  0.1312668E+00
        -11   -1    0    0    0    0  0.00000000000E+00  0.00000000000E+00  0.45593999997E+02  0.45594000000E+02  0.51100000000E-03 0.  1.
         11   -1    0    0    0    0 -0.00000000000E+00 -0.00000000000E+00 -0.45593999997E+02  0.45594000000E+02  0.51100000000E-03 0. -1.
    9900012    2    1    2    0    0  0.58548053933E+01 -0.41862794008E+02  0.98412553964E+01  0.47787279083E+02  0.20000036651E+02 0.  0.
         12    1    1    2    0    0 -0.58548053933E+01  0.41862794008E+02 -0.98412553964E+01  0.43400720917E+02  0.00000000000E+00 0. -1.
         11    1    3    3    0    0 -0.20400780736E+01 -0.53549992209E+01 -0.93676215862E+00  0.58065014256E+01  0.51100000000E-03 0. -1.
        -11    1    3    3    0    0  0.86994881342E+01 -0.37674705822E+02  0.89869844188E+01  0.39696730870E+02  0.51100000000E-03 0.  1.
        -12    1    3    3    0    0 -0.80460466731E+00  0.11669110347E+01  0.17910331362E+01  0.22840467878E+01  0.00000000000E+00 0.  1.
</event>
<event>
 7    1  0.1631716E-009  0.4778727E+02  0.7816164E-02  0.1312668E+00
        -11   -1    0    0    0    0  0.00000000000E+00  0.00000000000E+00  0.45593999997E+02  0.45594000000E+02  0.51100000000E-03 0.  1.
         11   -1    0    0    0    0 -0.00000000000E+00 -0.00000000000E+00 -0.45593999997E+02  0.45594000000E+02  0.51100000000E-03 0. -1.
    9900012    2    1    2    0    0  0.42954012247E+02 -0.41662259982E+01  0.46063767489E+01  0.47787270582E+02  0.19999997894E+02 0.  0.
         12    1    1    2    0    0 -0.42954012247E+02  0.41662259982E+01 -0.46063767489E+01  0.43400729418E+02  0.00000000000E+00 0. -1.
         11    1    3    3    0    0  0.57774366042E-01  0.19722571356E+00 -0.13442522054E+01  0.13598713588E+01  0.51100000000E-03 0. -1.
        -11    1    3    3    0    0  0.42378421332E+02 -0.18979488316E+01  0.29700472755E+01  0.42524745566E+02  0.51100000000E-03 0.  1.
        -12    1    3    3    0    0  0.51781654965E+00 -0.24655028802E+01  0.29805816789E+01  0.39026536582E+01  0.00000000000E+00 0.  1.
</event>
<event>
 7    1  0.1631716E-009  0.4778727E+02  0.7816164E-02  0.1312668E+00
        -11   -1    0    0    0    0  0.00000000000E+00  0.00000000000E+00  0.45593999997E+02  0.45594000000E+02  0.51100000000E-03 0. -1.
         11   -1    0    0    0    0 -0.00000000000E+00 -0.00000000000E+00 -0.45593999997E+02  0.45594000000E+02  0.51100000000E-03 0.  1.
    9900012    2    1    2    0    0 -0.11273475892E+02  0.29241635008E+02 -0.30024308467E+02  0.47787267569E+02  0.19999984155E+02 0.  0.
         12    1    1    2    0    0  0.11273475892E+02 -0.29241635008E+02  0.30024308467E+02  0.43400732431E+02  0.00000000000E+00 0. -1.
         11    1    3    3    0    0 -0.92213319066E+00  0.14990006784E+02 -0.12551645233E+02  0.19572798250E+02  0.51100000000E-03 0. -1.
        -11    1    3    3    0    0 -0.47406251285E+01  0.65828092051E+01 -0.16839080491E+02  0.18691215468E+02  0.51100000000E-03 0.  1.
        -12    1    3    3    0    0 -0.56107175730E+01  0.76688190184E+01 -0.63358274303E+00  0.95232538512E+01  0.00000000000E+00 0.  1.
</event>
<event>
 7    1  0.1631716E-009  0.4778728E+02  0.7816164E-02  0.1312668E+00
        -11   -1    0    0    0    0  0.00000000000E+00  0.00000000000E+00  0.45593999997E+02  0.45594000000E+02  0.51100000000E-03 0.  1.
         11   -1    0    0    0    0 -0.00000000000E+00 -0.00000000000E+00 -0.45593999997E+02  0.45594000000E+02  0.51100000000E-03 0. -1.
    9900012    2    1    2    0    0  0.21345893601E+02  0.13247042967E+02  0.35390552849E+02  0.47787279362E+02  0.20000037922E+02 0.  0.
         12    1    1    2    0    0 -0.21345893601E+02 -0.13247042967E+02 -0.35390552849E+02  0.43400720638E+02  0.00000000000E+00 0. -1.
         11    1    3    3    0    0 -0.99049926115E+00  0.47274163109E+01  0.93961089176E+00  0.49206120200E+01  0.51100000000E-03 0. -1.
        -11    1    3    3    0    0  0.90456872436E+01 -0.10383043564E+01  0.11283763767E+02  0.14499167516E+02  0.51100000000E-03 0.  1.
        -12    1    3    3    0    0  0.13290705618E+02  0.95579310124E+01  0.23167178190E+02  0.28367499825E+02  0.00000000000E+00 0.  1.
</event>
<event>
 7    1  0.1631716E-009  0.4778727E+02  0.7816164E-02  0.1312668E+00
        -11   -1    0    0    0    0  0.00000000000E+00  0.00000000000E+00  0.45593999997E+02  0.45594000000E+02  0.51100000000E-03 0. -1.
         11   -1    0    0    0    0 -0.00000000000E+00 -0.00000000000E+00 -0.45593999997E+02  0.45594000000E+02  0.51100000000E-03 0.  1.
    9900012    2    1    2    0    0  0.94523463898E-01  0.11896183786E+02 -0.41738415154E+02  0.47787269328E+02  0.19999992173E+02 0.  0.
         12    1    1    2    0    0 -0.94523463898E-01 -0.11896183786E+02  0.41738415154E+02  0.43400730672E+02  0.00000000000E+00 0. -1.
         11    1    3    3    0    0 -0.39604247745E+01  0.38621043013E+01 -0.70041246520E+01  0.89251653447E+01  0.51100000000E-03 0.  1.
        -11    1    3    3    0    0  0.70783681067E+01  0.22984623445E+01 -0.29797597480E+02  0.30712913245E+02  0.51100000000E-03 0. -1.
         12    1    3    3    0    0 -0.30234198683E+01  0.57356171407E+01 -0.49366930220E+01  0.81491907376E+01  0.00000000000E+00 0. -1.
</event>
<event>
 7    1  0.1631716E-009  0.4778727E+02  0.7816164E-02  0.1312668E+00
        -11   -1    0    0    0    0  0.00000000000E+00  0.00000000000E+00  0.45593999997E+02  0.45594000000E+02  0.51100000000E-03 0. -1.
         11   -1    0    0    0    0 -0.00000000000E+00 -0.00000000000E+00 -0.45593999997E+02  0.45594000000E+02  0.51100000000E-03 0.  1.
    9900012    2    1    2    0    0 -0.16159194548E+02 -0.39462756313E+02 -0.80743203827E+01  0.47787270122E+02  0.19999995796E+02 0.  0.
         12    1    1    2    0    0  0.16159194548E+02  0.39462756313E+02  0.80743203827E+01  0.43400729878E+02  0.00000000000E+00 0. -1.
         11    1    3    3    0    0 -0.17161782108E+02 -0.23536123789E+02 -0.56575900193E+01  0.29672954238E+02  0.51100000000E-03 0. -1.
        -11    1    3    3    0    0 -0.42217505691E+00 -0.13118139666E+02 -0.49960231166E+01  0.14043648647E+02  0.51100000000E-03 0.  1.
        -12    1    3    3    0    0  0.14247626171E+01 -0.28084928579E+01  0.25792927532E+01  0.40706672371E+01  0.00000000000E+00 0.  1.
</event>
<event>
 7    1  0.1631716E-009  0.4778727E+02  0.7816164E-02  0.1312668E+00
        -11   -1    0    0    0    0  0.00000000000E+00  0.00000000000E+00  0.45593999997E+02  0.45594000000E+02  0.51100000000E-03 0.  1.
         11   -1    0    0    0    0 -0.00000000000E+00 -0.00000000000E+00 -0.45593999997E+02  0.45594000000E+02  0.51100000000E-03 0. -1.
    9900012    2    1    2    0    0 -0.98111268560E+01 -0.35644718597E+02 -0.22733650672E+02  0.47787273659E+02  0.20000011920E+02 0.  0.
         12    1    1    2    0    0  0.98111268560E+01  0.35644718597E+02  0.22733650672E+02  0.43400726341E+02  0.00000000000E+00 0. -1.
         11    1    3    3    0    0 -0.56381358117E+01 -0.99578384839E+01 -0.11793728937E+00  0.11443820698E+02  0.51100000000E-03 0. -1.
        -11    1    3    3    0    0  0.19448091362E+01 -0.11522799283E+02 -0.15343188641E+02  0.19286539966E+02  0.51100000000E-03 0.  1.
         12    1    3    3    0    0 -0.61178001805E+01 -0.14164080830E+02 -0.72725247415E+01  0.17056912995E+02  0.00000000000E+00 0. -1.
</event>
<event>
 7    1  0.1631716E-009  0.4778727E+02  0.7816164E-02  0.1312668E+00
        -11   -1    0    0    0    0  0.00000000000E+00  0.00000000000E+00  0.45593999997E+02  0.45594000000E+02  0.51100000000E-03 0.  1.
         11   -1    0    0    0    0 -0.00000000000E+00 -0.00000000000E+00 -0.45593999997E+02  0.45594000000E+02  0.51100000000E-03 0. -1.
    9900012    2    1    2    0    0 -0.36005341086E+02  0.16564976790E+02  0.17687291420E+02  0.47787270507E+02  0.19999997551E+02 0.  0.
         12    1    1    2    0    0  0.36005341086E+02 -0.16564976790E+02 -0.17687291420E+02  0.43400729493E+02  0.00000000000E+00 0. -1.
         11    1    3    3    0    0  0.87476277170E+00  0.25310098808E+01  0.45920525659E+01  0.53158412272E+01  0.51100000000E-03 0. -1.
        -11    1    3    3    0    0 -0.21628139504E+02  0.12166355771E+02  0.59137578916E+01  0.25510177651E+02  0.51100000000E-03 0.  1.
        -12    1    3    3    0    0 -0.15251964354E+02  0.18676111380E+01  0.71814809621E+01  0.16961251629E+02  0.00000000000E+00 0.  1.
</event>
<event>
 7    1  0.1631716E-009  0.4778727E+02  0.7816164E-02  0.1312668E+00
        -11   -1    0    0    0    0  0.00000000000E+00  0.00000000000E+00  0.45593999997E+02  0.45594000000E+02  0.51100000000E-03 0. -1.
         11   -1    0    0    0    0 -0.00000000000E+00 -0.00000000000E+00 -0.45593999997E+02  0.45594000000E+02  0.51100000000E-03 0.  1.
    9900012    2    1    2    0    0 -0.32645860857E+02 -0.28156245753E+02 -0.50096806026E+01  0.47787270677E+02  0.19999998326E+02 0.  0.
         12    1    1    2    0    0  0.32645860857E+02  0.28156245753E+02  0.50096806026E+01  0.43400729323E+02  0.00000000000E+00 0. -1.
         11    1    3    3    0    0 -0.22021591409E+02 -0.20458156502E+02  0.31548157888E+01  0.30223161956E+02  0.51100000000E-03 0. -1.
        -11    1    3    3    0    0  0.26056380653E-01  0.12396358115E+01  0.31423344202E+00  0.12791085948E+01  0.51100000000E-03 0.  1.
        -12    1    3    3    0    0 -0.10650325828E+02 -0.89377250624E+01 -0.84787298334E+01  0.16285000127E+02  0.00000000000E+00 0.  1.
</event>
<event>
 7    1  0.1631716E-009  0.4778727E+02  0.7816164E-02  0.1312668E+00
        -11   -1    0    0    0    0  0.00000000000E+00  0.00000000000E+00  0.45593999997E+02  0.45594000000E+02  0.51100000000E-03 0.  1.
         11   -1    0    0    0    0 -0.00000000000E+00 -0.00000000000E+00 -0.45593999997E+02  0.45594000000E+02  0.51100000000E-03 0. -1.
    9900012    2    1    2    0    0  0.22801751365E+02 -0.30908717692E+02  0.20207785201E+02  0.47787271004E+02  0.19999999816E+02 0.  0.
         12    1    1    2    0    0 -0.22801751365E+02  0.30908717692E+02 -0.20207785201E+02  0.43400728996E+02  0.00000000000E+00 0. -1.
         11    1    3    3    0    0  0.31254632406E+01 -0.33591472265E+01 -0.15799341672E+01  0.48526882026E+01  0.51100000000E-03 0. -1.
        -11    1    3    3    0    0  0.64321049261E+01 -0.48563080692E+01  0.12873621791E+02  0.15188345536E+02  0.51100000000E-03 0.  1.
        -12    1    3    3    0    0  0.13244183198E+02 -0.22693262396E+02  0.89140975767E+01  0.27746237265E+02  0.00000000000E+00 0.  1.
</event>
<event>
 7    1  0.1631716E-009  0.4778727E+02  0.7816164E-02  0.1312668E+00
        -11   -1    0    0    0    0  0.00000000000E+00  0.00000000000E+00  0.45593999997E+02  0.45594000000E+02  0.51100000000E-03 0.  1.
         11   -1    0    0    0    0 -0.00000000000E+00 -0.00000000000E+00 -0.45593999997E+02  0.45594000000E+02  0.51100000000E-03 0. -1.
    9900012    2    1    2    0    0 -0.13124396334E+02  0.37726904928E+02  0.16972152092E+02  0.47787273264E+02  0.20000010118E+02 0.  0.
         12    1    1    2    0    0  0.13124396334E+02 -0.37726904928E+02 -0.16972152092E+02  0.43400726736E+02  0.00000000000E+00 0. -1.
         11    1    3    3    0    0  0.41183805911E+01  0.86687377321E+01  0.59107173618E+01  0.11271408632E+02  0.51100000000E-03 0. -1.
        -11    1    3    3    0    0 -0.67477585066E+01  0.10593457901E+02  0.84018823580E+01  0.15111096008E+02  0.51100000000E-03 0.  1.
         12    1    3    3    0    0 -0.10495018419E+02  0.18464709296E+02  0.26595523718E+01  0.21404768623E+02  0.00000000000E+00 0. -1.
</event>
<event>
 7    1  0.1631716E-009  0.4778727E+02  0.7816164E-02  0.1312668E+00
        -11   -1    0    0    0    0  0.00000000000E+00  0.00000000000E+00  0.45593999997E+02  0.45594000000E+02  0.51100000000E-03 0.  1.
         11   -1    0    0    0    0 -0.00000000000E+00 -0.00000000000E+00 -0.45593999997E+02  0.45594000000E+02  0.51100000000E-03 0. -1.
    9900012    2    1    2    0    0 -0.11898773613E+02  0.13056446101E+02  0.39643054926E+02  0.47787269567E+02  0.19999993263E+02 0.  0.
         12    1    1    2    0    0  0.11898773613E+02 -0.13056446101E+02 -0.39643054926E+02  0.43400730433E+02  0.00000000000E+00 0. -1.
         11    1    3    3    0    0  0.18225690141E+01  0.60919850864E+00 -0.43027310325E+00  0.19692678433E+01  0.51100000000E-03 0. -1.
        -11    1    3    3    0    0 -0.89976613101E+01  0.23907695051E+00  0.14011517267E+02  0.16653458597E+02  0.51100000000E-03 0.  1.
        -12    1    3    3    0    0 -0.47236813175E+01  0.12208170642E+02  0.26061810762E+02  0.29164543127E+02  0.00000000000E+00 0.  1.
</event>
<event>
 7    1  0.1631716E-009  0.4778728E+02  0.7816164E-02  0.1312668E+00
        -11   -1    0    0    0    0  0.00000000000E+00  0.00000000000E+00  0.45593999997E+02  0.45594000000E+02  0.51100000000E-03 0.  1.
         11   -1    0    0    0    0 -0.00000000000E+00 -0.00000000000E+00 -0.45593999997E+02  0.45594000000E+02  0.51100000000E-03 0. -1.
    9900012    2    1    2    0    0 -0.17170769138E+02 -0.80915282574E+01  0.39029663871E+02  0.47787276455E+02  0.20000024671E+02 0.  0.
         12    1    1    2    0    0  0.17170769138E+02  0.80915282574E+01 -0.39029663871E+02  0.43400723545E+02  0.00000000000E+00 0. -1.
         11    1    3    3    0    0 -0.72653316482E+01 -0.31165569623E+01  0.26286218868E+01  0.83311238463E+01  0.51100000000E-03 0. -1.
        -11    1    3    3    0    0 -0.11224634448E+02 -0.37928589882E+01  0.22371752738E+02  0.25315479822E+02  0.51100000000E-03 0.  1.
         12    1    3    3    0    0  0.13191969580E+01 -0.11821123068E+01  0.14029289246E+02  0.14140672787E+02  0.00000000000E+00 0. -1.
</event>
<event>
 7    1  0.1631716E-009  0.4778729E+02  0.7816164E-02  0.1312668E+00
        -11   -1    0    0    0    0  0.00000000000E+00  0.00000000000E+00  0.45593999997E+02  0.45594000000E+02  0.51100000000E-03 0.  1.
         11   -1    0    0    0    0 -0.00000000000E+00 -0.00000000000E+00 -0.45593999997E+02  0.45594000000E+02  0.51100000000E-03 0. -1.
    9900012    2    1    2    0    0 -0.11126636008E+02  0.17274027847E+02  0.38228627135E+02  0.47787285725E+02  0.20000066935E+02 0.  0.
         12    1    1    2    0    0  0.11126636008E+02 -0.17274027847E+02 -0.38228627135E+02  0.43400714275E+02  0.00000000000E+00 0. -1.
         11    1    3    3    0    0 -0.24761157353E+01  0.96836667720E+01  0.97744745780E+01  0.13980161116E+02  0.51100000000E-03 0. -1.
        -11    1    3    3    0    0 -0.77385812886E+01 -0.74261034363E+00  0.59420183292E+01  0.97849216945E+01  0.51100000000E-03 0.  1.
        -12    1    3    3    0    0 -0.91193898416E+00  0.83329714189E+01  0.22512134228E+02  0.24022202915E+02  0.00000000000E+00 0.  1.
</event>
<event>
 7    1  0.1631716E-009  0.4778727E+02  0.7816164E-02  0.1312668E+00
        -11   -1    0    0    0    0  0.00000000000E+00  0.00000000000E+00  0.45593999997E+02  0.45594000000E+02  0.51100000000E-03 0.  1.
         11   -1    0    0    0    0 -0.00000000000E+00 -0.00000000000E+00 -0.45593999997E+02  0.45594000000E+02  0.51100000000E-03 0. -1.
    9900012    2    1    2    0    0 -0.42549812801E+02  0.83584652908E+01  0.18091560937E+01  0.47787267780E+02  0.19999985117E+02 0.  0.
         12    1    1    2    0    0  0.42549812801E+02 -0.83584652908E+01 -0.18091560937E+01  0.43400732220E+02  0.00000000000E+00 0. -1.
         11    1    3    3    0    0 -0.10917890945E+02  0.42862767538E+00  0.46728132472E+00  0.10936288971E+02  0.51100000000E-03 0. -1.
        -11    1    3    3    0    0 -0.31078665080E+02  0.32401271665E+01  0.38846609540E+01  0.31487655330E+02  0.51100000000E-03 0.  1.
         12    1    3    3    0    0 -0.55325677672E+00  0.46897104489E+01 -0.25427861850E+01  0.53633234788E+01  0.00000000000E+00 0. -1.
</event>
<event>
 7    1  0.1631716E-009  0.4778727E+02  0.7816164E-02  0.1312668E+00
        -11   -1    0    0    0    0  0.00000000000E+00  0.00000000000E+00  0.45593999997E+02  0.45594000000E+02  0.51100000000E-03 0.  1.
         11   -1    0    0    0    0 -0.00000000000E+00 -0.00000000000E+00 -0.45593999997E+02  0.45594000000E+02  0.51100000000E-03 0. -1.
    9900012    2    1    2    0    0  0.27450748049E+02  0.24532561507E+01  0.33527024787E+02  0.47787269300E+02  0.19999992048E+02 0.  0.
         12    1    1    2    0    0 -0.27450748049E+02 -0.24532561507E+01 -0.33527024787E+02  0.43400730700E+02  0.00000000000E+00 0. -1.
         11    1    3    3    0    0  0.74534484159E+00 -0.21941799096E+01  0.96977651376E+00  0.25120571562E+01  0.51100000000E-03 0. -1.
        -11    1    3    3    0    0 -0.20887544845E+01  0.54980616676E+00  0.10679853104E+01  0.24095175870E+01  0.51100000000E-03 0.  1.
        -12    1    3    3    0    0  0.28794157692E+02  0.40976298936E+01  0.31489262963E+02  0.42865694557E+02  0.00000000000E+00 0.  1.
</event>
<event>
 7    1  0.1631716E-009  0.4778724E+02  0.7816164E-02  0.1312668E+00
        -11   -1    0    0    0    0  0.00000000000E+00  0.00000000000E+00  0.45593999997E+02  0.45594000000E+02  0.51100000000E-03 0.  1.
         11   -1    0    0    0    0 -0.00000000000E+00 -0.00000000000E+00 -0.45593999997E+02  0.45594000000E+02  0.51100000000E-03 0. -1.
    9900012    2    1    2    0    0  0.51849904804E+01 -0.41344860730E+02  0.12138550189E+02  0.47787239226E+02  0.19999854926E+02 0.  0.
         12    1    1    2    0    0 -0.51849904804E+01  0.41344860730E+02 -0.12138550189E+02  0.43400760774E+02  0.00000000000E+00 0. -1.
         11    1    3    3    0    0 -0.35436294557E+01 -0.31573577799E+02  0.96322001489E+01  0.33199810311E+02  0.51100000000E-03 0. -1.
        -11    1    3    3    0    0  0.14013573923E+01 -0.10491149520E+00  0.20037447928E+01  0.24474072850E+01  0.51100000000E-03 0.  1.
        -12    1    3    3    0    0  0.73272625438E+01 -0.96663714366E+01  0.50260524685E+00  0.12140021630E+02  0.00000000000E+00 0.  1.
</event>
<event>
 7    1  0.1631716E-009  0.4778727E+02  0.7816164E-02  0.1312668E+00
        -11   -1    0    0    0    0  0.00000000000E+00  0.00000000000E+00  0.45593999997E+02  0.45594000000E+02  0.51100000000E-03 0. -1.
         11   -1    0    0    0    0 -0.00000000000E+00 -0.00000000000E+00 -0.45593999997E+02  0.45594000000E+02  0.51100000000E-03 0.  1.
    9900012    2    1    2    0    0 -0.25944324343E+02  0.14315991670E+02 -0.31710688865E+02  0.47787269921E+02  0.19999994877E+02 0.  0.
         12    1    1    2    0    0  0.25944324343E+02 -0.14315991670E+02  0.31710688865E+02  0.43400730079E+02  0.00000000000E+00 0. -1.
         11    1    3    3    0    0 -0.59288224918E+01 -0.30728581149E+01 -0.67617259649E+01  0.95033852610E+01  0.51100000000E-03 0. -1.
        -11    1    3    3    0    0 -0.18502181659E+02  0.96244372671E+01 -0.20322356098E+02  0.29119730020E+02  0.51100000000E-03 0.  1.
        -12    1    3    3    0    0 -0.15133201920E+01  0.77644125176E+01 -0.46266068027E+01  0.91641546393E+01  0.00000000000E+00 0.  1.
</event>
<event>
 7    1  0.1631716E-009  0.4778727E+02  0.7816164E-02  0.1312668E+00
        -11   -1    0    0    0    0  0.00000000000E+00  0.00000000000E+00  0.45593999997E+02  0.45594000000E+02  0.51100000000E-03 0.  1.
         11   -1    0    0    0    0 -0.00000000000E+00 -0.00000000000E+00 -0.45593999997E+02  0.45594000000E+02  0.51100000000E-03 0. -1.
    9900012    2    1    2    0    0  0.57050433042E+01  0.29807228845E+01  0.42920753979E+02  0.47787270166E+02  0.19999995994E+02 0.  0.
         12    1    1    2    0    0 -0.57050433042E+01 -0.29807228845E+01 -0.42920753979E+02  0.43400729834E+02  0.00000000000E+00 0. -1.
         11    1    3    3    0    0  0.36021100745E+01 -0.67819084375E+00  0.30201988356E+01  0.47493937589E+01  0.51100000000E-03 0. -1.
        -11    1    3    3    0    0 -0.22337817702E+01  0.43164891106E+01  0.37911327735E+02  0.38221599001E+02  0.51100000000E-03 0.  1.
        -12    1    3    3    0    0  0.43367149999E+01 -0.65757538234E+00  0.19892274079E+01  0.48162774063E+01  0.00000000000E+00 0.  1.
</event>
<event>
 7    1  0.1631716E-009  0.4778727E+02  0.7816164E-02  0.1312668E+00
        -11   -1    0    0    0    0  0.00000000000E+00  0.00000000000E+00  0.45593999997E+02  0.45594000000E+02  0.51100000000E-03 0. -1.
         11   -1    0    0    0    0 -0.00000000000E+00 -0.00000000000E+00 -0.45593999997E+02  0.45594000000E+02  0.51100000000E-03 0.  1.
    9900012    2    1    2    0    0 -0.41485399400E+01  0.37926833970E+02 -0.20687385429E+02  0.47787273802E+02  0.20000012574E+02 0.  0.
         12    1    1    2    0    0  0.41485399400E+01 -0.37926833970E+02  0.20687385429E+02  0.43400726198E+02  0.00000000000E+00 0. -1.
         11    1    3    3    0    0 -0.38778963745E+01  0.49985066318E+01 -0.82565067460E+01  0.10401588953E+02  0.51100000000E-03 0. -1.
        -11    1    3    3    0    0 -0.38710435323E+01  0.49920990921E+01 -0.55055117943E+01  0.83795400681E+01  0.51100000000E-03 0.  1.
        -12    1    3    3    0    0  0.36003999668E+01  0.27936228246E+02 -0.69253668891E+01  0.29006144781E+02  0.00000000000E+00 0.  1.
</event>
<event>
 7    1  0.1631716E-009  0.4778728E+02  0.7816164E-02  0.1312668E+00
        -11   -1    0    0    0    0  0.00000000000E+00  0.00000000000E+00  0.45593999997E+02  0.45594000000E+02  0.51100000000E-03 0.  1.
         11   -1    0    0    0    0 -0.00000000000E+00 -0.00000000000E+00 -0.45593999997E+02  0.45594000000E+02  0.51100000000E-03 0. -1.
    9900012    2    1    2    0    0  0.28934820542E+01  0.31867686216E+02  0.29320660700E+02  0.47787276423E+02  0.20000024522E+02 0.  0.
         12    1    1    2    0    0 -0.28934820542E+01 -0.31867686216E+02 -0.29320660700E+02  0.43400723577E+02  0.00000000000E+00 0. -1.
         11    1    3    3    0    0  0.52595222771E+01  0.35450651874E+01  0.12231388718E+01  0.64595766678E+01  0.51100000000E-03 0. -1.
        -11    1    3    3    0    0 -0.32094951451E+01  0.13910137829E+02  0.73643846283E+01  0.16063217446E+02  0.51100000000E-03 0.  1.
        -12    1    3    3    0    0  0.84345492221E+00  0.14412483199E+02  0.20733137200E+02  0.25264482309E+02  0.00000000000E+00 0.  1.
</event>
<event>
 7    1  0.1631716E-009  0.4778727E+02  0.7816164E-02  0.1312668E+00
        -11   -1    0    0    0    0  0.00000000000E+00  0.00000000000E+00  0.45593999997E+02  0.45594000000E+02  0.51100000000E-03 0. -1.
         11   -1    0    0    0    0 -0.00000000000E+00 -0.00000000000E+00 -0.45593999997E+02  0.45594000000E+02  0.51100000000E-03 0.  1.
    9900012    2    1    2    0    0 -0.25652481996E+02 -0.89556725762E+01 -0.33843305730E+02  0.47787271359E+02  0.20000001435E+02 0.  0.
         12    1    1    2    0    0  0.25652481996E+02  0.89556725762E+01  0.33843305730E+02  0.43400728641E+02  0.00000000000E+00 0. -1.
         11    1    3    3    0    0  0.53239001723E+00 -0.32668391551E+01 -0.34135697002E+01  0.47548013160E+01  0.51100000000E-03 0. -1.
        -11    1    3    3    0    0 -0.12620819530E+01  0.35901547262E+01 -0.44389371293E+01  0.58468987432E+01  0.51100000000E-03 0.  1.
        -12    1    3    3    0    0 -0.24922790060E+02 -0.92789881474E+01 -0.25990798900E+02  0.37185571300E+02  0.00000000000E+00 0.  1.
</event>
<event>
 7    1  0.1631716E-009  0.4778727E+02  0.7816164E-02  0.1312668E+00
        -11   -1    0    0    0    0  0.00000000000E+00  0.00000000000E+00  0.45593999997E+02  0.45594000000E+02  0.51100000000E-03 0.  1.
         11   -1    0    0    0    0 -0.00000000000E+00 -0.00000000000E+00 -0.45593999997E+02  0.45594000000E+02  0.51100000000E-03 0. -1.
    9900012    2    1    2    0    0 -0.28697210062E+02  0.20827180571E+02  0.25026428741E+02  0.47787268999E+02  0.19999990674E+02 0.  0.
         12    1    1    2    0    0  0.28697210062E+02 -0.20827180571E+02 -0.25026428741E+02  0.43400731001E+02  0.00000000000E+00 0. -1.
         11    1    3    3    0    0 -0.21736952915E+02  0.63810150263E+01  0.10240796856E+02  0.24861343393E+02  0.51100000000E-03 0. -1.
        -11    1    3    3    0    0 -0.75517760348E+01  0.11962688696E+02  0.94554406691E+01  0.17015892590E+02  0.51100000000E-03 0.  1.
         12    1    3    3    0    0  0.59151888815E+00  0.24834768486E+01  0.53301912158E+01  0.59100330160E+01  0.00000000000E+00 0. -1.
</event>
<event>
 7    1  0.1892987E-009  0.4778728E+02  0.7816164E-02  0.1312668E+00
        -11   -1    0    0    0    0  0.00000000000E+00  0.00000000000E+00  0.45593999997E+02  0.45594000000E+02  0.51100000000E-03 0.  1.
         11   -1    0    0    0    0 -0.00000000000E+00 -0.00000000000E+00 -0.45593999997E+02  0.45594000000E+02  0.51100000000E-03 0. -1.
    9900012    2    1    2    0    0  0.14876985037E+02  0.39547455549E+02  0.99144754757E+01  0.47787277101E+02  0.20000027616E+02 0.  0.
         12    1    1    2    0    0 -0.14876985037E+02 -0.39547455549E+02 -0.99144754757E+01  0.43400722899E+02  0.00000000000E+00 0. -1.
         11    1    3    3    0    0 -0.14214082225E+00 -0.10891460589E+01 -0.66907071666E+00  0.12861178158E+01  0.51100000000E-03 0. -1.
        -11    1    3    3    0    0  0.14153896575E+02  0.27385975104E+02  0.24392220774E+01  0.30923683889E+02  0.51100000000E-03 0.  1.
         12    1    3    3    0    0  0.86522928416E+00  0.13250626504E+02  0.81443241150E+01  0.15577475397E+02  0.00000000000E+00 0. -1.
</event>
<event>
 7    1  0.2156724E-009  0.4778724E+02  0.7816164E-02  0.1312668E+00
        -11   -1    0    0    0    0  0.00000000000E+00  0.00000000000E+00  0.45593999997E+02  0.45594000000E+02  0.51100000000E-03 0.  1.
         11   -1    0    0    0    0 -0.00000000000E+00 -0.00000000000E+00 -0.45593999997E+02  0.45594000000E+02  0.51100000000E-03 0. -1.
    9900012    2    1    2    0    0  0.14674625676E+02  0.38412698395E+02 -0.13883287620E+02  0.47787242958E+02  0.19999871942E+02 0.  0.
         12    1    1    2    0    0 -0.14674625676E+02 -0.38412698395E+02  0.13883287620E+02  0.43400757042E+02  0.00000000000E+00 0. -1.
         11    1    3    3    0    0  0.81139174332E+00  0.76939368891E+01  0.42427840870E+01  0.88236182196E+01  0.51100000000E-03 0. -1.
        -11    1    3    3    0    0  0.83606342241E+01  0.12454401293E+02 -0.50130556669E+01  0.15815911089E+02  0.51100000000E-03 0.  1.
         12    1    3    3    0    0  0.55025997082E+01  0.18264360212E+02 -0.13113016040E+02  0.23147713649E+02  0.00000000000E+00 0. -1.
</event>
<event>
 7    1  0.1631716E-009  0.4778727E+02  0.7816164E-02  0.1312668E+00
        -11   -1    0    0    0    0  0.00000000000E+00  0.00000000000E+00  0.45593999997E+02  0.45594000000E+02  0.51100000000E-03 0. -1.
         11   -1    0    0    0    0 -0.00000000000E+00 -0.00000000000E+00 -0.45593999997E+02  0.45594000000E+02  0.51100000000E-03 0.  1.
    9900012    2    1    2    0    0 -0.25705543823E+02 -0.38629642410E+01 -0.34755230686E+02  0.47787268025E+02  0.19999986231E+02 0.  0.
         12    1    1    2    0    0  0.25705543823E+02  0.38629642410E+01  0.34755230686E+02  0.43400731975E+02  0.00000000000E+00 0. -1.
         11    1    3    3    0    0 -0.94953447999E+01  0.12556481612E+00 -0.40131117901E+01  0.10309335861E+02  0.51100000000E-03 0. -1.
        -11    1    3    3    0    0 -0.70801959785E+01  0.46026617329E+01 -0.87293065027E+01  0.12145553195E+02  0.51100000000E-03 0.  1.
        -12    1    3    3    0    0 -0.91300030449E+01 -0.85911907900E+01 -0.22012812393E+02  0.25332378969E+02  0.00000000000E+00 0.  1.
</event>
<event>
 7    1  0.1631716E-009  0.4778727E+02  0.7816164E-02  0.1312668E+00
        -11   -1    0    0    0    0  0.00000000000E+00  0.00000000000E+00  0.45593999997E+02  0.45594000000E+02  0.51100000000E-03 0.  1.
         11   -1    0    0    0    0 -0.00000000000E+00 -0.00000000000E+00 -0.45593999997E+02  0.45594000000E+02  0.51100000000E-03 0. -1.
    9900012    2    1    2    0    0  0.12880377637E+02 -0.21106760145E+02  0.35668249190E+02  0.47787268990E+02  0.19999990634E+02 0.  0.
         12    1    1    2    0    0 -0.12880377637E+02  0.21106760145E+02 -0.35668249190E+02  0.43400731010E+02  0.00000000000E+00 0. -1.
         11    1    3    3    0    0 -0.37213133184E+01 -0.95529058000E+01  0.13265617762E+02  0.16765524057E+02  0.51100000000E-03 0. -1.
        -11    1    3    3    0    0  0.76891550511E+01 -0.59260686563E+01  0.56597685017E+01  0.11237187142E+02  0.51100000000E-03 0.  1.
        -12    1    3    3    0    0  0.89125359042E+01 -0.56277856883E+01  0.16742862927E+02  0.19784557791E+02  0.00000000000E+00 0.  1.
</event>
<event>
 7    1  0.1631716E-009  0.4778727E+02  0.7816164E-02  0.1312668E+00
        -11   -1    0    0    0    0  0.00000000000E+00  0.00000000000E+00  0.45593999997E+02  0.45594000000E+02  0.51100000000E-03 0. -1.
         11   -1    0    0    0    0 -0.00000000000E+00 -0.00000000000E+00 -0.45593999997E+02  0.45594000000E+02  0.51100000000E-03 0.  1.
    9900012    2    1    2    0    0 -0.31377241690E+02 -0.53050940964E+01 -0.29511825513E+02  0.47787272304E+02  0.20000005742E+02 0.  0.
         12    1    1    2    0    0  0.31377241690E+02  0.53050940964E+01  0.29511825513E+02  0.43400727696E+02  0.00000000000E+00 0. -1.
         11    1    3    3    0    0 -0.25351149994E+01  0.35630297151E+01 -0.15572450462E+01  0.46418747512E+01  0.51100000000E-03 0. -1.
        -11    1    3    3    0    0 -0.64072623009E+01 -0.80467193063E+01 -0.10594183752E+02  0.14766158316E+02  0.51100000000E-03 0.  1.
        -12    1    3    3    0    0 -0.22434864390E+02 -0.82140450519E+00 -0.17360396715E+02  0.28379239236E+02  0.00000000000E+00 0.  1.
</event>
<event>
 7    1  0.1631716E-009  0.4778727E+02  0.7816164E-02  0.1312668E+00
        -11   -1    0    0    0    0  0.00000000000E+00  0.00000000000E+00  0.45593999997E+02  0.45594000000E+02  0.51100000000E-03 0.  1.
         11   -1    0    0    0    0 -0.00000000000E+00 -0.00000000000E+00 -0.45593999997E+02  0.45594000000E+02  0.51100000000E-03 0. -1.
    9900012    2    1    2    0    0  0.10688158925E+02  0.36279693697E+02  0.21287799651E+02  0.47787270398E+02  0.19999997053E+02 0.  0.
         12    1    1    2    0    0 -0.10688158925E+02 -0.36279693697E+02 -0.21287799651E+02  0.43400729602E+02  0.00000000000E+00 0. -1.
         11    1    3    3    0    0 -0.57078670202E+01  0.10671904672E+02  0.53507992566E+01  0.13232548817E+02  0.51100000000E-03 0. -1.
        -11    1    3    3    0    0  0.12051452936E+01  0.37441588154E+01  0.30468837804E+01  0.49753996267E+01  0.51100000000E-03 0.  1.
         12    1    3    3    0    0  0.15190880652E+02  0.21863630210E+02  0.12890116614E+02  0.29579321954E+02  0.00000000000E+00 0. -1.
</event>
<event>
 7    1  0.1631716E-009  0.4778728E+02  0.7816164E-02  0.1312668E+00
        -11   -1    0    0    0    0  0.00000000000E+00  0.00000000000E+00  0.45593999997E+02  0.45594000000E+02  0.51100000000E-03 0.  1.
         11   -1    0    0    0    0 -0.00000000000E+00 -0.00000000000E+00 -0.45593999997E+02  0.45594000000E+02  0.51100000000E-03 0. -1.
    9900012    2    1    2    0    0  0.37611617137E+02 -0.42307345580E+01  0.21238879069E+02  0.47787276013E+02  0.20000022651E+02 0.  0.
         12    1    1    2    0    0 -0.37611617137E+02  0.42307345580E+01 -0.21238879069E+02  0.43400723987E+02  0.00000000000E+00 0. -1.
         11    1    3    3    0    0  0.28568526645E+02 -0.30350045516E+01  0.77995283506E+01  0.29769188938E+02  0.51100000000E-03 0. -1.
        -11    1    3    3    0    0  0.10451986039E+02 -0.14267323768E+01  0.11439509623E+02  0.15560911223E+02  0.51100000000E-03 0.  1.
        -12    1    3    3    0    0 -0.14088955466E+01  0.23100237040E+00  0.19998410957E+01  0.24571758513E+01  0.00000000000E+00 0.  1.
</event>
<event>
 7    1  0.1631716E-009  0.4778728E+02  0.7816164E-02  0.1312668E+00
        -11   -1    0    0    0    0  0.00000000000E+00  0.00000000000E+00  0.45593999997E+02  0.45594000000E+02  0.51100000000E-03 0.  1.
         11   -1    0    0    0    0 -0.00000000000E+00 -0.00000000000E+00 -0.45593999997E+02  0.45594000000E+02  0.51100000000E-03 0. -1.
    9900012    2    1    2    0    0  0.28292971643E+02 -0.98572667089E+01  0.31400065692E+02  0.47787284835E+02  0.20000062876E+02 0.  0.
         12    1    1    2    0    0 -0.28292971643E+02  0.98572667089E+01 -0.31400065692E+02  0.43400715165E+02  0.00000000000E+00 0. -1.
         11    1    3    3    0    0  0.22041844316E+01  0.37759917203E+01  0.34608577551E+01  0.55762065189E+01  0.51100000000E-03 0. -1.
        -11    1    3    3    0    0  0.16007772998E+02 -0.72919049516E+01  0.87996362002E+01  0.19668611331E+02  0.51100000000E-03 0.  1.
        -12    1    3    3    0    0  0.10081014214E+02 -0.63413534775E+01  0.19139571737E+02  0.22542466985E+02  0.00000000000E+00 0.  1.
</event>
<event>
 7    1  0.1631716E-009  0.4778727E+02  0.7816164E-02  0.1312668E+00
        -11   -1    0    0    0    0  0.00000000000E+00  0.00000000000E+00  0.45593999997E+02  0.45594000000E+02  0.51100000000E-03 0. -1.
         11   -1    0    0    0    0 -0.00000000000E+00 -0.00000000000E+00 -0.45593999997E+02  0.45594000000E+02  0.51100000000E-03 0.  1.
    9900012    2    1    2    0    0  0.17319162346E+02 -0.39779371418E+02  0.11276138394E+01  0.47787270884E+02  0.19999999270E+02 0.  0.
         12    1    1    2    0    0 -0.17319162346E+02  0.39779371418E+02 -0.11276138394E+01  0.43400729116E+02  0.00000000000E+00 0. -1.
         11    1    3    3    0    0  0.13861993440E+02 -0.36805093232E+02 -0.17447322808E+01  0.39367675077E+02  0.51100000000E-03 0.  1.
        -11    1    3    3    0    0  0.33644573720E+01 -0.37596217240E+01  0.44032644449E+01  0.66964966175E+01  0.51100000000E-03 0. -1.
        -12    1    3    3    0    0  0.92711534193E-01  0.78534353809E+00 -0.15309183246E+01  0.17230991898E+01  0.00000000000E+00 0.  1.
</event>
<event>
 7    1  0.1631716E-009  0.4778727E+02  0.7816164E-02  0.1312668E+00
        -11   -1    0    0    0    0  0.00000000000E+00  0.00000000000E+00  0.45593999997E+02  0.45594000000E+02  0.51100000000E-03 0. -1.
         11   -1    0    0    0    0 -0.00000000000E+00 -0.00000000000E+00 -0.45593999997E+02  0.45594000000E+02  0.51100000000E-03 0.  1.
    9900012    2    1    2    0    0  0.20968599086E+01  0.11537865319E+02 -0.41786409088E+02  0.47787272563E+02  0.20000006926E+02 0.  0.
         12    1    1    2    0    0 -0.20968599086E+01 -0.11537865319E+02  0.41786409088E+02  0.43400727437E+02  0.00000000000E+00 0. -1.
         11    1    3    3    0    0 -0.16811560563E+01  0.68789477273E+01 -0.16033423324E+02  0.17527603124E+02  0.51100000000E-03 0. -1.
        -11    1    3    3    0    0  0.21872677289E+01 -0.45753461932E+01 -0.15781827487E+02  0.16576610389E+02  0.51100000000E-03 0.  1.
        -12    1    3    3    0    0  0.15907482360E+01  0.92342637847E+01 -0.99711582763E+01  0.13683059050E+02  0.00000000000E+00 0.  1.
</event>
<event>
 7    1  0.1631716E-009  0.4778728E+02  0.7816164E-02  0.1312668E+00
        -11   -1    0    0    0    0  0.00000000000E+00  0.00000000000E+00  0.45593999997E+02  0.45594000000E+02  0.51100000000E-03 0. -1.
         11   -1    0    0    0    0 -0.00000000000E+00 -0.00000000000E+00 -0.45593999997E+02  0.45594000000E+02  0.51100000000E-03 0.  1.
    9900012    2    1    2    0    0 -0.69462335579E+01  0.19350409750E+02 -0.38222170688E+02  0.47787275925E+02  0.20000022251E+02 0.  0.
         12    1    1    2    0    0  0.69462335579E+01 -0.19350409750E+02  0.38222170688E+02  0.43400724075E+02  0.00000000000E+00 0. -1.
         11    1    3    3    0    0 -0.38811919205E+01 -0.86220442013E+00 -0.11863417630E+02  0.12511903345E+02  0.51100000000E-03 0. -1.
        -11    1    3    3    0    0 -0.31544586917E+01  0.79091728399E+00 -0.76307742370E+01  0.82948704333E+01  0.51100000000E-03 0.  1.
        -12    1    3    3    0    0  0.89417054326E-01  0.19421696886E+02 -0.18727978821E+02  0.26980502146E+02  0.00000000000E+00 0.  1.
</event>
<event>
 7    1  0.1631716E-009  0.4778727E+02  0.7816164E-02  0.1312668E+00
        -11   -1    0    0    0    0  0.00000000000E+00  0.00000000000E+00  0.45593999997E+02  0.45594000000E+02  0.51100000000E-03 0.  1.
         11   -1    0    0    0    0 -0.00000000000E+00 -0.00000000000E+00 -0.45593999997E+02  0.45594000000E+02  0.51100000000E-03 0. -1.
    9900012    2    1    2    0    0  0.27357849186E+02 -0.31060726936E+02  0.13053831865E+02  0.47787271939E+02  0.20000004079E+02 0.  0.
         12    1    1    2    0    0 -0.27357849186E+02  0.31060726936E+02 -0.13053831865E+02  0.43400728061E+02  0.00000000000E+00 0. -1.
         11    1    3    3    0    0  0.13451476824E+02 -0.11968784732E+02  0.40120440635E+01  0.18446965456E+02  0.51100000000E-03 0. -1.
        -11    1    3    3    0    0  0.16970015490E+02 -0.15440655405E+02  0.87829653339E+01  0.24566964512E+02  0.51100000000E-03 0.  1.
         12    1    3    3    0    0 -0.30636431271E+01 -0.36512867991E+01  0.25882246748E+00  0.47733419707E+01  0.00000000000E+00 0. -1.
</event>
<event>
 7    1  0.1631716E-009  0.4778727E+02  0.7816164E-02  0.1312668E+00
        -11   -1    0    0    0    0  0.00000000000E+00  0.00000000000E+00  0.45593999997E+02  0.45594000000E+02  0.51100000000E-03 0.  1.
         11   -1    0    0    0    0 -0.00000000000E+00 -0.00000000000E+00 -0.45593999997E+02  0.45594000000E+02  0.51100000000E-03 0. -1.
    9900012    2    1    2    0    0  0.24286278395E+01 -0.80278791138E+01  0.42582608922E+02  0.47787266609E+02  0.19999979779E+02 0.  0.
         12    1    1    2    0    0 -0.24286278395E+01  0.80278791138E+01 -0.42582608922E+02  0.43400733391E+02  0.00000000000E+00 0. -1.
         11    1    3    3    0    0  0.94682019112E+00 -0.26191926720E+01  0.24682904761E+01  0.37214374727E+01  0.51100000000E-03 0. -1.
        -11    1    3    3    0    0  0.88565095857E+00  0.10199826872E+01  0.36770018228E+02  0.36794822775E+02  0.51100000000E-03 0.  1.
        -12    1    3    3    0    0  0.59615668977E+00 -0.64286691290E+01  0.33443002181E+01  0.72710063621E+01  0.00000000000E+00 0.  1.
</event>
<event>
 7    1  0.1631716E-009  0.4778727E+02  0.7816164E-02  0.1312668E+00
        -11   -1    0    0    0    0  0.00000000000E+00  0.00000000000E+00  0.45593999997E+02  0.45594000000E+02  0.51100000000E-03 0. -1.
         11   -1    0    0    0    0 -0.00000000000E+00 -0.00000000000E+00 -0.45593999997E+02  0.45594000000E+02  0.51100000000E-03 0.  1.
    9900012    2    1    2    0    0 -0.12354418100E+02 -0.37744943239E+02  0.17501741385E+02  0.47787270303E+02  0.19999996621E+02 0.  0.
         12    1    1    2    0    0  0.12354418100E+02  0.37744943239E+02 -0.17501741385E+02  0.43400729697E+02  0.00000000000E+00 0. -1.
         11    1    3    3    0    0  0.19567902149E+01 -0.42677009291E+01  0.39625341504E+01  0.61436126440E+01  0.51100000000E-03 0. -1.
        -11    1    3    3    0    0 -0.10052516056E+02 -0.31478328034E+02  0.73200028927E+01  0.33845541176E+02  0.51100000000E-03 0.  1.
         12    1    3    3    0    0 -0.42586922594E+01 -0.19989142756E+01  0.62192043423E+01  0.77981164837E+01  0.00000000000E+00 0. -1.
</event>
<event>
 7    1  0.1631716E-009  0.4778727E+02  0.7816164E-02  0.1312668E+00
        -11   -1    0    0    0    0  0.00000000000E+00  0.00000000000E+00  0.45593999997E+02  0.45594000000E+02  0.51100000000E-03 0.  1.
         11   -1    0    0    0    0 -0.00000000000E+00 -0.00000000000E+00 -0.45593999997E+02  0.45594000000E+02  0.51100000000E-03 0. -1.
    9900012    2    1    2    0    0  0.18748234535E+02 -0.38822543256E+02  0.49937064305E+01  0.47787271124E+02  0.20000000362E+02 0.  0.
         12    1    1    2    0    0 -0.18748234535E+02  0.38822543256E+02 -0.49937064305E+01  0.43400728876E+02  0.00000000000E+00 0. -1.
         11    1    3    3    0    0 -0.39793298696E+00 -0.11817841216E+02 -0.17130552505E+01  0.11947982265E+02  0.51100000000E-03 0. -1.
        -11    1    3    3    0    0  0.53600655784E+01 -0.85223209271E+01  0.78301790751E+01  0.12754291889E+02  0.51100000000E-03 0.  1.
        -12    1    3    3    0    0  0.13786101943E+02 -0.18482381114E+02 -0.11234173942E+01  0.23084996969E+02  0.00000000000E+00 0.  1.
</event>
<event>
 7    1  0.1631716E-009  0.4778727E+02  0.7816164E-02  0.1312668E+00
        -11   -1    0    0    0    0  0.00000000000E+00  0.00000000000E+00  0.45593999997E+02  0.45594000000E+02  0.51100000000E-03 0.  1.
         11   -1    0    0    0    0 -0.00000000000E+00 -0.00000000000E+00 -0.45593999997E+02  0.45594000000E+02  0.51100000000E-03 0. -1.
    9900012    2    1    2    0    0  0.13972492220E+02  0.40927896441E+02  0.36469302408E+01  0.47787270213E+02  0.19999996208E+02 0.  0.
         12    1    1    2    0    0 -0.13972492220E+02 -0.40927896441E+02 -0.36469302408E+01  0.43400729787E+02  0.00000000000E+00 0. -1.
         11    1    3    3    0    0 -0.44535959478E+00  0.49877692064E+01  0.16319351006E+00  0.50102713707E+01  0.51100000000E-03 0. -1.
        -11    1    3    3    0    0  0.96241632594E+01  0.33573716816E+02 -0.21734686204E+01  0.34993470040E+02  0.51100000000E-03 0.  1.
         12    1    3    3    0    0  0.47936885555E+01  0.23664104179E+01  0.56572053511E+01  0.77835288024E+01  0.00000000000E+00 0. -1.
</event>
<event>
 7    1  0.1631716E-009  0.4778727E+02  0.7816164E-02  0.1312668E+00
        -11   -1    0    0    0    0  0.00000000000E+00  0.00000000000E+00  0.45593999997E+02  0.45594000000E+02  0.51100000000E-03 0.  1.
         11   -1    0    0    0    0 -0.00000000000E+00 -0.00000000000E+00 -0.45593999997E+02  0.45594000000E+02  0.51100000000E-03 0. -1.
    9900012    2    1    2    0    0  0.39509607306E+02 -0.45663069563E+01  0.17371326638E+02  0.47787271690E+02  0.20000002943E+02 0.  0.
         12    1    1    2    0    0 -0.39509607306E+02  0.45663069563E+01 -0.17371326638E+02  0.43400728310E+02  0.00000000000E+00 0. -1.
         11    1    3    3    0    0  0.66743626809E+01  0.45192877898E+01  0.34476338938E+01  0.87668271940E+01  0.51100000000E-03 0. -1.
        -11    1    3    3    0    0  0.13820737699E+02 -0.10398465672E+01 -0.44347729619E+00  0.13866893805E+02  0.51100000000E-03 0.  1.
         12    1    3    3    0    0  0.19014506926E+02 -0.80457481790E+01  0.14367170040E+02  0.25153550691E+02  0.00000000000E+00 0. -1.
</event>
<event>
 7    1  0.1631716E-009  0.4778727E+02  0.7816164E-02  0.1312668E+00
        -11   -1    0    0    0    0  0.00000000000E+00  0.00000000000E+00  0.45593999997E+02  0.45594000000E+02  0.51100000000E-03 0. -1.
         11   -1    0    0    0    0 -0.00000000000E+00 -0.00000000000E+00 -0.45593999997E+02  0.45594000000E+02  0.51100000000E-03 0.  1.
    9900012    2    1    2    0    0 -0.37258129671E+02 -0.22049839645E+02 -0.30429344252E+01  0.47787272991E+02  0.20000008876E+02 0.  0.
         12    1    1    2    0    0  0.37258129671E+02  0.22049839645E+02  0.30429344252E+01  0.43400727009E+02  0.00000000000E+00 0. -1.
         11    1    3    3    0    0 -0.14997601838E+02 -0.98344410827E+01 -0.33984661164E+01  0.18253598673E+02  0.51100000000E-03 0.  1.
        -11    1    3    3    0    0 -0.54281836059E+01  0.21064566243E+01 -0.39253218145E+01  0.70221427198E+01  0.51100000000E-03 0. -1.
         12    1    3    3    0    0 -0.16832344227E+02 -0.14321855187E+02  0.42808535057E+01  0.22511531598E+02  0.00000000000E+00 0. -1.
</event>
<event>
 7    1  0.1631716E-009  0.4778729E+02  0.7816164E-02  0.1312668E+00
        -11   -1    0    0    0    0  0.00000000000E+00  0.00000000000E+00  0.45593999997E+02  0.45594000000E+02  0.51100000000E-03 0.  1.
         11   -1    0    0    0    0 -0.00000000000E+00 -0.00000000000E+00 -0.45593999997E+02  0.45594000000E+02  0.51100000000E-03 0. -1.
    9900012    2    1    2    0    0  0.12596260148E+02  0.38758889698E+02  0.14923293399E+02  0.47787285879E+02  0.20000067637E+02 0.  0.
         12    1    1    2    0    0 -0.12596260148E+02 -0.38758889698E+02 -0.14923293399E+02  0.43400714121E+02  0.00000000000E+00 0. -1.
         11    1    3    3    0    0  0.24534969181E+01  0.21860178724E+02  0.17454661208E+01  0.22066574569E+02  0.51100000000E-03 0. -1.
        -11    1    3    3    0    0 -0.13796241860E+01  0.50182115424E+01  0.13446624036E+01  0.53753071745E+01  0.51100000000E-03 0.  1.
         12    1    3    3    0    0  0.11522387416E+02  0.11880499432E+02  0.11833164875E+02  0.20345404136E+02  0.00000000000E+00 0. -1.
</event>
<event>
 7    1  0.1631716E-009  0.4778727E+02  0.7816164E-02  0.1312668E+00
        -11   -1    0    0    0    0  0.00000000000E+00  0.00000000000E+00  0.45593999997E+02  0.45594000000E+02  0.51100000000E-03 0.  1.
         11   -1    0    0    0    0 -0.00000000000E+00 -0.00000000000E+00 -0.45593999997E+02  0.45594000000E+02  0.51100000000E-03 0. -1.
    9900012    2    1    2    0    0  0.46297925274E-01  0.25385897780E+02  0.35201952767E+02  0.47787269266E+02  0.19999991893E+02 0.  0.
         12    1    1    2    0    0 -0.46297925274E-01 -0.25385897780E+02 -0.35201952767E+02  0.43400730734E+02  0.00000000000E+00 0. -1.
         11    1    3    3    0    0 -0.22701341107E+01  0.72908233682E+00  0.13915570294E+02  0.14118362752E+02  0.51100000000E-03 0. -1.
        -11    1    3    3    0    0  0.45325263674E+01  0.73451726327E+01  0.72467100621E+01  0.11269878582E+02  0.51100000000E-03 0.  1.
         12    1    3    3    0    0 -0.22160943315E+01  0.17311642811E+02  0.14039672411E+02  0.22399027932E+02  0.00000000000E+00 0. -1.
</event>
<event>
 7    1  0.1631716E-009  0.4778728E+02  0.7816164E-02  0.1312668E+00
        -11   -1    0    0    0    0  0.00000000000E+00  0.00000000000E+00  0.45593999997E+02  0.45594000000E+02  0.51100000000E-03 0.  1.
         11   -1    0    0    0    0 -0.00000000000E+00 -0.00000000000E+00 -0.45593999997E+02  0.45594000000E+02  0.51100000000E-03 0. -1.
    9900012    2    1    2    0    0 -0.12328106111E+02  0.36432382409E+02  0.20107761673E+02  0.47787276875E+02  0.20000026582E+02 0.  0.
         12    1    1    2    0    0  0.12328106111E+02 -0.36432382409E+02 -0.20107761673E+02  0.43400723125E+02  0.00000000000E+00 0. -1.
         11    1    3    3    0    0  0.16972538676E+01  0.12124782097E+02  0.34023610112E+00  0.12247725195E+02  0.51100000000E-03 0. -1.
        -11    1    3    3    0    0 -0.29683080232E+01  0.32097322804E+01  0.76588572683E+01  0.88188054038E+01  0.51100000000E-03 0.  1.
        -12    1    3    3    0    0 -0.11057051956E+02  0.21097868032E+02  0.12108668304E+02  0.26720746275E+02  0.00000000000E+00 0.  1.
</event>
<event>
 7    1  0.1631716E-009  0.4778728E+02  0.7816164E-02  0.1312668E+00
        -11   -1    0    0    0    0  0.00000000000E+00  0.00000000000E+00  0.45593999997E+02  0.45594000000E+02  0.51100000000E-03 0. -1.
         11   -1    0    0    0    0 -0.00000000000E+00 -0.00000000000E+00 -0.45593999997E+02  0.45594000000E+02  0.51100000000E-03 0.  1.
    9900012    2    1    2    0    0  0.38385384824E+02 -0.11323156120E+02 -0.16791999211E+02  0.47787275696E+02  0.20000021210E+02 0.  0.
         12    1    1    2    0    0 -0.38385384824E+02  0.11323156120E+02  0.16791999211E+02  0.43400724304E+02  0.00000000000E+00 0. -1.
         11    1    3    3    0    0  0.24303250514E+02 -0.75808646220E+01 -0.14979920649E+02  0.29538373633E+02  0.51100000000E-03 0.  1.
        -11    1    3    3    0    0 -0.28839649234E+00  0.10867775045E+01 -0.28393971129E+01  0.30539211036E+01  0.51100000000E-03 0. -1.
         12    1    3    3    0    0  0.14370530802E+02 -0.48290690023E+01  0.10273185508E+01  0.15194980960E+02  0.00000000000E+00 0. -1.
</event>
<event>
 7    1  0.1631716E-009  0.4778727E+02  0.7816164E-02  0.1312668E+00
        -11   -1    0    0    0    0  0.00000000000E+00  0.00000000000E+00  0.45593999997E+02  0.45594000000E+02  0.51100000000E-03 0.  1.
         11   -1    0    0    0    0 -0.00000000000E+00 -0.00000000000E+00 -0.45593999997E+02  0.45594000000E+02  0.51100000000E-03 0. -1.
    9900012    2    1    2    0    0 -0.88491612494E+01 -0.42120655821E+02 -0.55826419359E+01  0.47787271981E+02  0.20000004268E+02 0.  0.
         12    1    1    2    0    0  0.88491612494E+01  0.42120655821E+02  0.55826419359E+01  0.43400728019E+02  0.00000000000E+00 0. -1.
         11    1    3    3    0    0  0.18949414767E+01 -0.16713715419E+02  0.19719360815E+01  0.16935985902E+02  0.51100000000E-03 0. -1.
        -11    1    3    3    0    0 -0.60980897847E+01 -0.22666929583E+02 -0.92010021956E+01  0.25211799567E+02  0.51100000000E-03 0.  1.
         12    1    3    3    0    0 -0.46460129414E+01 -0.27400108198E+01  0.16464241782E+01  0.56394865120E+01  0.00000000000E+00 0. -1.
</event>
<event>
 7    1  0.1631716E-009  0.4778728E+02  0.7816164E-02  0.1312668E+00
        -11   -1    0    0    0    0  0.00000000000E+00  0.00000000000E+00  0.45593999997E+02  0.45594000000E+02  0.51100000000E-03 0.  1.
         11   -1    0    0    0    0 -0.00000000000E+00 -0.00000000000E+00 -0.45593999997E+02  0.45594000000E+02  0.51100000000E-03 0. -1.
    9900012    2    1    2    0    0 -0.30464434394E+02  0.30895385428E+02 -0.10079545433E+01  0.47787279084E+02  0.20000036653E+02 0.  0.
         12    1    1    2    0    0  0.30464434394E+02 -0.30895385428E+02  0.10079545433E+01  0.43400720916E+02  0.00000000000E+00 0. -1.
         11    1    3    3    0    0 -0.13102791821E+02  0.75481611833E+01  0.38457472792E+01  0.15602809464E+02  0.51100000000E-03 0. -1.
        -11    1    3    3    0    0 -0.39538562634E+01  0.16783020992E+01 -0.51436313205E+01  0.67012402368E+01  0.51100000000E-03 0.  1.
        -12    1    3    3    0    0 -0.13407786309E+02  0.21668922146E+02  0.28992949802E+00  0.25483229383E+02  0.00000000000E+00 0.  1.
</event>
<event>
 7    1  0.1631716E-009  0.4778727E+02  0.7816164E-02  0.1312668E+00
        -11   -1    0    0    0    0  0.00000000000E+00  0.00000000000E+00  0.45593999997E+02  0.45594000000E+02  0.51100000000E-03 0. -1.
         11   -1    0    0    0    0 -0.00000000000E+00 -0.00000000000E+00 -0.45593999997E+02  0.45594000000E+02  0.51100000000E-03 0.  1.
    9900012    2    1    2    0    0 -0.23466333335E+02  0.36003950598E+02 -0.60555911071E+01  0.47787269102E+02  0.19999991142E+02 0.  0.
         12    1    1    2    0    0  0.23466333335E+02 -0.36003950598E+02  0.60555911071E+01  0.43400730898E+02  0.00000000000E+00 0. -1.
         11    1    3    3    0    0  0.19403839044E+01  0.57765822455E+01 -0.40226176865E+01  0.73017426309E+01  0.51100000000E-03 0. -1.
        -11    1    3    3    0    0 -0.12957177492E+02  0.19757449455E+02 -0.44423719503E+01  0.24041213079E+02  0.51100000000E-03 0.  1.
        -12    1    3    3    0    0 -0.12449539747E+02  0.10469918898E+02  0.24093985297E+01  0.16444313391E+02  0.00000000000E+00 0.  1.
</event>
<event>
 7    1  0.1631716E-009  0.4778727E+02  0.7816164E-02  0.1312668E+00
        -11   -1    0    0    0    0  0.00000000000E+00  0.00000000000E+00  0.45593999997E+02  0.45594000000E+02  0.51100000000E-03 0.  1.
         11   -1    0    0    0    0 -0.00000000000E+00 -0.00000000000E+00 -0.45593999997E+02  0.45594000000E+02  0.51100000000E-03 0. -1.
    9900012    2    1    2    0    0  0.31474755789E+02  0.24029407666E+02  0.17763743168E+02  0.47787271250E+02  0.20000000935E+02 0.  0.
         12    1    1    2    0    0 -0.31474755789E+02 -0.24029407666E+02 -0.17763743168E+02  0.43400728750E+02  0.00000000000E+00 0. -1.
         11    1    3    3    0    0  0.95551332787E+00  0.37961962755E+01  0.26668553619E+00  0.39236759956E+01  0.51100000000E-03 0. -1.
        -11    1    3    3    0    0  0.30360425967E+02  0.15955543998E+02  0.19141920939E+02  0.39277830728E+02  0.51100000000E-03 0.  1.
        -12    1    3    3    0    0  0.15881649418E+00  0.42776673915E+01 -0.16448633071E+01  0.45857645263E+01  0.00000000000E+00 0.  1.
</event>
<event>
 7    1  0.1631716E-009  0.4778727E+02  0.7816164E-02  0.1312668E+00
        -11   -1    0    0    0    0  0.00000000000E+00  0.00000000000E+00  0.45593999997E+02  0.45594000000E+02  0.51100000000E-03 0.  1.
         11   -1    0    0    0    0 -0.00000000000E+00 -0.00000000000E+00 -0.45593999997E+02  0.45594000000E+02  0.51100000000E-03 0. -1.
    9900012    2    1    2    0    0 -0.38686469392E+02  0.11681923263E+02 -0.15827610148E+02  0.47787268575E+02  0.19999988743E+02 0.  0.
         12    1    1    2    0    0  0.38686469392E+02 -0.11681923263E+02  0.15827610148E+02  0.43400731425E+02  0.00000000000E+00 0. -1.
         11    1    3    3    0    0 -0.13470285175E+02  0.86291558597E+01 -0.52073616559E+01  0.16823422043E+02  0.51100000000E-03 0. -1.
        -11    1    3    3    0    0 -0.24928130542E+02 -0.23098487259E+00 -0.66449064021E+01  0.25799609061E+02  0.51100000000E-03 0.  1.
         12    1    3    3    0    0 -0.28805367489E+00  0.32837522760E+01 -0.39753420903E+01  0.51642374718E+01  0.00000000000E+00 0. -1.
</event>
<event>
 7    1  0.1631716E-009  0.4778723E+02  0.7816164E-02  0.1312668E+00
        -11   -1    0    0    0    0  0.00000000000E+00  0.00000000000E+00  0.45593999997E+02  0.45594000000E+02  0.51100000000E-03 0.  1.
         11   -1    0    0    0    0 -0.00000000000E+00 -0.00000000000E+00 -0.45593999997E+02  0.45594000000E+02  0.51100000000E-03 0. -1.
    9900012    2    1    2    0    0  0.39045027144E+02  0.15079499557E+02  0.11476990716E+02  0.47787230797E+02  0.19999816495E+02 0.  0.
         12    1    1    2    0    0 -0.39045027144E+02 -0.15079499557E+02 -0.11476990716E+02  0.43400769203E+02  0.00000000000E+00 0. -1.
         11    1    3    3    0    0  0.25003474975E+02  0.17152187366E+02  0.63034625464E+01  0.30969419314E+02  0.51100000000E-03 0. -1.
        -11    1    3    3    0    0  0.12163056761E+02  0.84173868633E+00  0.25157084728E+01  0.12448986432E+02  0.51100000000E-03 0.  1.
         12    1    3    3    0    0  0.18784954073E+01 -0.29144264961E+01  0.26578196964E+01  0.43688250520E+01  0.00000000000E+00 0. -1.
</event>
<event>
 7    1  0.1631716E-009  0.4778727E+02  0.7816164E-02  0.1312668E+00
        -11   -1    0    0    0    0  0.00000000000E+00  0.00000000000E+00  0.45593999997E+02  0.45594000000E+02  0.51100000000E-03 0.  1.
         11   -1    0    0    0    0 -0.00000000000E+00 -0.00000000000E+00 -0.45593999997E+02  0.45594000000E+02  0.51100000000E-03 0. -1.
    9900012    2    1    2    0    0 -0.16033013559E+01 -0.14320640654E+02  0.40938634771E+02  0.47787272577E+02  0.20000006985E+02 0.  0.
         12    1    1    2    0    0  0.16033013559E+01  0.14320640654E+02 -0.40938634771E+02  0.43400727423E+02  0.00000000000E+00 0. -1.
         11    1    3    3    0    0 -0.17816622427E+01 -0.74055628609E+01  0.13679087615E+02  0.15656759559E+02  0.51100000000E-03 0. -1.
        -11    1    3    3    0    0 -0.32869401937E+01 -0.82998881794E+01  0.26945259813E+02  0.28385544671E+02  0.51100000000E-03 0.  1.
         12    1    3    3    0    0  0.34653010804E+01  0.13848103864E+01  0.31428734289E+00  0.37449683468E+01  0.00000000000E+00 0. -1.
</event>
<event>
 7    1  0.1631716E-009  0.4778727E+02  0.7816164E-02  0.1312668E+00
        -11   -1    0    0    0    0  0.00000000000E+00  0.00000000000E+00  0.45593999997E+02  0.45594000000E+02  0.51100000000E-03 0. -1.
         11   -1    0    0    0    0 -0.00000000000E+00 -0.00000000000E+00 -0.45593999997E+02  0.45594000000E+02  0.51100000000E-03 0.  1.
    9900012    2    1    2    0    0 -0.17320859370E+00  0.64964923070E+01 -0.42911409778E+02  0.47787268409E+02  0.19999987982E+02 0.  0.
         12    1    1    2    0    0  0.17320859370E+00 -0.64964923070E+01  0.42911409778E+02  0.43400731591E+02  0.00000000000E+00 0. -1.
         11    1    3    3    0    0 -0.45021408205E+01  0.16236604425E+01 -0.24875605477E+02  0.25331823726E+02  0.51100000000E-03 0. -1.
        -11    1    3    3    0    0  0.43709977519E+01  0.83316350207E+01 -0.15625435555E+02  0.18239407885E+02  0.51100000000E-03 0.  1.
         12    1    3    3    0    0 -0.42065525030E-01 -0.34588031562E+01 -0.24103687468E+01  0.42160367974E+01  0.00000000000E+00 0. -1.
</event>
<event>
 7    1  0.1631716E-009  0.4778728E+02  0.7816164E-02  0.1312668E+00
        -11   -1    0    0    0    0  0.00000000000E+00  0.00000000000E+00  0.45593999997E+02  0.45594000000E+02  0.51100000000E-03 0.  1.
         11   -1    0    0    0    0 -0.00000000000E+00 -0.00000000000E+00 -0.45593999997E+02  0.45594000000E+02  0.51100000000E-03 0. -1.
    9900012    2    1    2    0    0  0.28148131903E+02 -0.25447959815E+01  0.32936745393E+02  0.47787279806E+02  0.20000039950E+02 0.  0.
         12    1    1    2    0    0 -0.28148131903E+02  0.25447959815E+01 -0.32936745393E+02  0.43400720194E+02  0.00000000000E+00 0. -1.
         11    1    3    3    0    0  0.76774104176E+01 -0.48060564078E+01  0.28230200601E+01  0.94873732633E+01  0.51100000000E-03 0. -1.
        -11    1    3    3    0    0  0.13734283474E+02 -0.33640351882E+01  0.23016157583E+02  0.27012789294E+02  0.51100000000E-03 0.  1.
         12    1    3    3    0    0  0.67364380111E+01  0.56252956145E+01  0.70975677507E+01  0.11287117250E+02  0.00000000000E+00 0. -1.
</event>
<event>
 7    1  0.1631716E-009  0.4778727E+02  0.7816164E-02  0.1312668E+00
        -11   -1    0    0    0    0  0.00000000000E+00  0.00000000000E+00  0.45593999997E+02  0.45594000000E+02  0.51100000000E-03 0.  1.
         11   -1    0    0    0    0 -0.00000000000E+00 -0.00000000000E+00 -0.45593999997E+02  0.45594000000E+02  0.51100000000E-03 0. -1.
    9900012    2    1    2    0    0 -0.25135512508E+02  0.18717183120E+02  0.30024929535E+02  0.47787270437E+02  0.19999997231E+02 0.  0.
         12    1    1    2    0    0  0.25135512508E+02 -0.18717183120E+02 -0.30024929535E+02  0.43400729563E+02  0.00000000000E+00 0. -1.
         11    1    3    3    0    0 -0.74519569292E+00 -0.18201869673E+01 -0.11365346142E+01  0.22715872000E+01  0.51100000000E-03 0. -1.
        -11    1    3    3    0    0 -0.83703962886E+01  0.12387912275E+02  0.16957388386E+02  0.22607010543E+02  0.51100000000E-03 0.  1.
        -12    1    3    3    0    0 -0.16019920527E+02  0.81494578124E+01  0.14204075763E+02  0.22908672694E+02  0.00000000000E+00 0.  1.
</event>
<event>
 7    1  0.1631716E-009  0.4778727E+02  0.7816164E-02  0.1312668E+00
        -11   -1    0    0    0    0  0.00000000000E+00  0.00000000000E+00  0.45593999997E+02  0.45594000000E+02  0.51100000000E-03 0.  1.
         11   -1    0    0    0    0 -0.00000000000E+00 -0.00000000000E+00 -0.45593999997E+02  0.45594000000E+02  0.51100000000E-03 0. -1.
    9900012    2    1    2    0    0 -0.17726722589E+02 -0.39116899266E+02 -0.62653591287E+01  0.47787271585E+02  0.20000002464E+02 0.  0.
         12    1    1    2    0    0  0.17726722589E+02  0.39116899266E+02  0.62653591287E+01  0.43400728415E+02  0.00000000000E+00 0. -1.
         11    1    3    3    0    0 -0.54128334019E+01 -0.75391819678E+00  0.18768024501E+01  0.57783687821E+01  0.51100000000E-03 0. -1.
        -11    1    3    3    0    0 -0.27936453679E+01 -0.19638413842E+02 -0.11481211083E+01  0.19869321453E+02  0.51100000000E-03 0.  1.
        -12    1    3    3    0    0 -0.95202438196E+01 -0.18724567228E+02 -0.69940404706E+01  0.22139581350E+02  0.00000000000E+00 0.  1.
</event>
<event>
 7    1  0.1631716E-009  0.4778727E+02  0.7816164E-02  0.1312668E+00
        -11   -1    0    0    0    0  0.00000000000E+00  0.00000000000E+00  0.45593999997E+02  0.45594000000E+02  0.51100000000E-03 0.  1.
         11   -1    0    0    0    0 -0.00000000000E+00 -0.00000000000E+00 -0.45593999997E+02  0.45594000000E+02  0.51100000000E-03 0. -1.
    9900012    2    1    2    0    0  0.13840967387E+02 -0.65844429981E+01  0.40604138185E+02  0.47787270680E+02  0.19999998338E+02 0.  0.
         12    1    1    2    0    0 -0.13840967387E+02  0.65844429981E+01 -0.40604138185E+02  0.43400729320E+02  0.00000000000E+00 0. -1.
         11    1    3    3    0    0  0.31341866803E+00  0.87067007023E-01  0.12795068673E+02  0.12799202887E+02  0.51100000000E-03 0. -1.
        -11    1    3    3    0    0  0.13097908694E+02 -0.10707214376E+02  0.24381352760E+02  0.29675747919E+02  0.51100000000E-03 0.  1.
         12    1    3    3    0    0  0.42964002465E+00  0.40357043709E+01  0.34277167512E+01  0.53123198742E+01  0.00000000000E+00 0. -1.
</event>
<event>
 7    1  0.1631716E-009  0.4778727E+02  0.7816164E-02  0.1312668E+00
        -11   -1    0    0    0    0  0.00000000000E+00  0.00000000000E+00  0.45593999997E+02  0.45594000000E+02  0.51100000000E-03 0. -1.
         11   -1    0    0    0    0 -0.00000000000E+00 -0.00000000000E+00 -0.45593999997E+02  0.45594000000E+02  0.51100000000E-03 0.  1.
    9900012    2    1    2    0    0  0.26697484935E+02 -0.33540138305E+02 -0.67769138525E+01  0.47787272578E+02  0.20000006991E+02 0.  0.
         12    1    1    2    0    0 -0.26697484935E+02  0.33540138305E+02  0.67769138525E+01  0.43400727422E+02  0.00000000000E+00 0. -1.
         11    1    3    3    0    0  0.67206875288E+01 -0.12291325986E+01 -0.37469661497E+01  0.77921860472E+01  0.51100000000E-03 0. -1.
        -11    1    3    3    0    0  0.30068340488E+01 -0.16191334649E+02 -0.89981614367E+00  0.16492726823E+02  0.51100000000E-03 0.  1.
         12    1    3    3    0    0  0.16969963358E+02 -0.16119671058E+02 -0.21301315592E+01  0.23502359708E+02  0.00000000000E+00 0. -1.
</event>
<event>
 7    1  0.1631716E-009  0.4778727E+02  0.7816164E-02  0.1312668E+00
        -11   -1    0    0    0    0  0.00000000000E+00  0.00000000000E+00  0.45593999997E+02  0.45594000000E+02  0.51100000000E-03 0.  1.
         11   -1    0    0    0    0 -0.00000000000E+00 -0.00000000000E+00 -0.45593999997E+02  0.45594000000E+02  0.51100000000E-03 0. -1.
    9900012    2    1    2    0    0 -0.90757826308E+01  0.18210145813E+02 -0.38335936186E+02  0.47787271387E+02  0.20000001563E+02 0.  0.
         12    1    1    2    0    0  0.90757826308E+01 -0.18210145813E+02  0.38335936186E+02  0.43400728613E+02  0.00000000000E+00 0. -1.
         11    1    3    3    0    0 -0.26570483075E+01 -0.20247252679E+00 -0.86188048664E+01  0.90213468185E+01  0.51100000000E-03 0.  1.
        -11    1    3    3    0    0 -0.77374977319E+00  0.13202611555E+01 -0.16157417701E+02  0.16229723512E+02  0.51100000000E-03 0. -1.
        -12    1    3    3    0    0 -0.56449845502E+01  0.17092357184E+02 -0.13559713618E+02  0.22536201057E+02  0.00000000000E+00 0.  1.
</event>
<event>
 7    1  0.1631716E-009  0.4778727E+02  0.7816164E-02  0.1312668E+00
        -11   -1    0    0    0    0  0.00000000000E+00  0.00000000000E+00  0.45593999997E+02  0.45594000000E+02  0.51100000000E-03 0.  1.
         11   -1    0    0    0    0 -0.00000000000E+00 -0.00000000000E+00 -0.45593999997E+02  0.45594000000E+02  0.51100000000E-03 0. -1.
    9900012    2    1    2    0    0  0.18745555079E+02 -0.38043800060E+02  0.92139472660E+01  0.47787269793E+02  0.19999994296E+02 0.  0.
         12    1    1    2    0    0 -0.18745555079E+02  0.38043800060E+02 -0.92139472660E+01  0.43400730207E+02  0.00000000000E+00 0. -1.
         11    1    3    3    0    0  0.52499480214E+01 -0.18835339031E+02  0.12382080983E+02  0.23144067931E+02  0.51100000000E-03 0.  1.
        -11    1    3    3    0    0  0.75562418080E+01 -0.56253315465E+01  0.27286374880E+00  0.94242028923E+01  0.51100000000E-03 0. -1.
        -12    1    3    3    0    0  0.59393652501E+01 -0.13583129482E+02 -0.34409974657E+01  0.15218998970E+02  0.00000000000E+00 0.  1.
</event>
<event>
 7    1  0.1631716E-009  0.4778727E+02  0.7816164E-02  0.1312668E+00
        -11   -1    0    0    0    0  0.00000000000E+00  0.00000000000E+00  0.45593999997E+02  0.45594000000E+02  0.51100000000E-03 0.  1.
         11   -1    0    0    0    0 -0.00000000000E+00 -0.00000000000E+00 -0.45593999997E+02  0.45594000000E+02  0.51100000000E-03 0. -1.
    9900012    2    1    2    0    0 -0.39676712010E+01  0.27201357909E+01  0.43133302473E+02  0.47787270332E+02  0.19999996754E+02 0.  0.
         12    1    1    2    0    0  0.39676712010E+01 -0.27201357909E+01 -0.43133302473E+02  0.43400729668E+02  0.00000000000E+00 0. -1.
         11    1    3    3    0    0 -0.24117642030E+01 -0.53226143060E+00  0.29035189611E+02  0.29140043665E+02  0.51100000000E-03 0.  1.
        -11    1    3    3    0    0  0.27585653918E+01 -0.33185759573E+01  0.43936452134E+01  0.61584696092E+01  0.51100000000E-03 0. -1.
        -12    1    3    3    0    0 -0.43144723898E+01  0.65709731789E+01  0.97044676487E+01  0.12488757058E+02  0.00000000000E+00 0.  1.
</event>
<event>
 7    1  0.1631716E-009  0.4778727E+02  0.7816164E-02  0.1312668E+00
        -11   -1    0    0    0    0  0.00000000000E+00  0.00000000000E+00  0.45593999997E+02  0.45594000000E+02  0.51100000000E-03 0. -1.
         11   -1    0    0    0    0 -0.00000000000E+00 -0.00000000000E+00 -0.45593999997E+02  0.45594000000E+02  0.51100000000E-03 0.  1.
    9900012    2    1    2    0    0  0.39842690826E+02  0.14183117516E+02 -0.97479486914E+01  0.47787270300E+02  0.19999996607E+02 0.  0.
         12    1    1    2    0    0 -0.39842690826E+02 -0.14183117516E+02  0.97479486914E+01  0.43400729700E+02  0.00000000000E+00 0. -1.
         11    1    3    3    0    0  0.29181280267E+02  0.44115655992E+01 -0.12504670881E+02  0.32052703835E+02  0.51100000000E-03 0. -1.
        -11    1    3    3    0    0  0.59685746238E+01  0.77417063165E+01 -0.29546213788E+00  0.97798362904E+01  0.51100000000E-03 0.  1.
        -12    1    3    3    0    0  0.46928359356E+01  0.20298456007E+01  0.30521843274E+01  0.59547301744E+01  0.00000000000E+00 0.  1.
</event>
<event>
 7    1  0.1631716E-009  0.4778727E+02  0.7816164E-02  0.1312668E+00
        -11   -1    0    0    0    0  0.00000000000E+00  0.00000000000E+00  0.45593999997E+02  0.45594000000E+02  0.51100000000E-03 0.  1.
         11   -1    0    0    0    0 -0.00000000000E+00 -0.00000000000E+00 -0.45593999997E+02  0.45594000000E+02  0.51100000000E-03 0. -1.
    9900012    2    1    2    0    0  0.10152492969E+02 -0.32356336908E+02  0.27085378465E+02  0.47787269843E+02  0.19999994521E+02 0.  0.
         12    1    1    2    0    0 -0.10152492969E+02  0.32356336908E+02 -0.27085378465E+02  0.43400730157E+02  0.00000000000E+00 0. -1.
         11    1    3    3    0    0  0.46114943633E+01 -0.76197875493E+01  0.16790303610E+02  0.19006349943E+02  0.51100000000E-03 0. -1.
        -11    1    3    3    0    0 -0.18088992271E+01 -0.28139223052E+01 -0.27711350025E+00  0.33566452459E+01  0.51100000000E-03 0.  1.
        -12    1    3    3    0    0  0.73498978326E+01 -0.21922627054E+02  0.10572188355E+02  0.25424274654E+02  0.00000000000E+00 0.  1.
</event>
<event>
 7    1  0.1631716E-009  0.4778727E+02  0.7816164E-02  0.1312668E+00
        -11   -1    0    0    0    0  0.00000000000E+00  0.00000000000E+00  0.45593999997E+02  0.45594000000E+02  0.51100000000E-03 0.  1.
         11   -1    0    0    0    0 -0.00000000000E+00 -0.00000000000E+00 -0.45593999997E+02  0.45594000000E+02  0.51100000000E-03 0. -1.
    9900012    2    1    2    0    0 -0.39111769099E+02  0.16095494413E+02  0.97379534719E+01  0.47787272353E+02  0.20000005965E+02 0.  0.
         12    1    1    2    0    0  0.39111769099E+02 -0.16095494413E+02 -0.97379534719E+01  0.43400727647E+02  0.00000000000E+00 0. -1.
         11    1    3    3    0    0 -0.10421615988E+02  0.80418138868E+01  0.11876317403E+02  0.17729291179E+02  0.51100000000E-03 0. -1.
        -11    1    3    3    0    0 -0.12177646535E+02  0.50077278819E+01 -0.34777804474E+00  0.13171687952E+02  0.51100000000E-03 0.  1.
         12    1    3    3    0    0 -0.16512506576E+02  0.30459526447E+01 -0.17905858868E+01  0.16886293222E+02  0.00000000000E+00 0. -1.
</event>
<event>
 7    1  0.1750018E-009  0.4778727E+02  0.7816164E-02  0.1312668E+00
        -11   -1    0    0    0    0  0.00000000000E+00  0.00000000000E+00  0.45593999997E+02  0.45594000000E+02  0.51100000000E-03 0. -1.
         11   -1    0    0    0    0 -0.00000000000E+00 -0.00000000000E+00 -0.45593999997E+02  0.45594000000E+02  0.51100000000E-03 0.  1.
    9900012    2    1    2    0    0 -0.28793246206E+02  0.14224888922E+02 -0.29192888214E+02  0.47787271732E+02  0.20000003133E+02 0.  0.
         12    1    1    2    0    0  0.28793246206E+02 -0.14224888922E+02  0.29192888214E+02  0.43400728268E+02  0.00000000000E+00 0. -1.
         11    1    3    3    0    0 -0.67934681121E+01  0.39033398259E+01 -0.85655577839E-01  0.78354711361E+01  0.51100000000E-03 0. -1.
        -11    1    3    3    0    0 -0.23629336862E+02  0.91847924391E+01 -0.27435184056E+02  0.37354990258E+02  0.51100000000E-03 0.  1.
         12    1    3    3    0    0  0.16295587680E+01  0.11367566567E+01 -0.16720485807E+01  0.25968103379E+01  0.00000000000E+00 0. -1.
</event>
<event>
 7    1  0.1631716E-009  0.4778727E+02  0.7816164E-02  0.1312668E+00
        -11   -1    0    0    0    0  0.00000000000E+00  0.00000000000E+00  0.45593999997E+02  0.45594000000E+02  0.51100000000E-03 0. -1.
         11   -1    0    0    0    0 -0.00000000000E+00 -0.00000000000E+00 -0.45593999997E+02  0.45594000000E+02  0.51100000000E-03 0.  1.
    9900012    2    1    2    0    0  0.11114734951E+02 -0.23259944984E+02 -0.34915053535E+02  0.47787270317E+02  0.19999996682E+02 0.  0.
         12    1    1    2    0    0 -0.11114734951E+02  0.23259944984E+02  0.34915053535E+02  0.43400729683E+02  0.00000000000E+00 0. -1.
         11    1    3    3    0    0  0.11214324646E+01 -0.36761670384E+01 -0.16173395110E+02  0.16623793926E+02  0.51100000000E-03 0. -1.
        -11    1    3    3    0    0  0.10604622973E+02 -0.12284855410E+02 -0.17258530555E+02  0.23690347782E+02  0.51100000000E-03 0.  1.
        -12    1    3    3    0    0 -0.61132048681E+00 -0.72989225355E+01 -0.14831278703E+01  0.74731286083E+01  0.00000000000E+00 0.  1.
</event>
<event>
 7    1  0.1631716E-009  0.4778727E+02  0.7816164E-02  0.1312668E+00
        -11   -1    0    0    0    0  0.00000000000E+00  0.00000000000E+00  0.45593999997E+02  0.45594000000E+02  0.51100000000E-03 0. -1.
         11   -1    0    0    0    0 -0.00000000000E+00 -0.00000000000E+00 -0.45593999997E+02  0.45594000000E+02  0.51100000000E-03 0.  1.
    9900012    2    1    2    0    0 -0.42520030443E+02  0.86804708558E+01 -0.56575976187E+00  0.47787266743E+02  0.19999980386E+02 0.  0.
         12    1    1    2    0    0  0.42520030443E+02 -0.86804708558E+01  0.56575976187E+00  0.43400733257E+02  0.00000000000E+00 0. -1.
         11    1    3    3    0    0 -0.30152114538E+01  0.75318638788E+00  0.58420418585E+01  0.66172685591E+01  0.51100000000E-03 0. -1.
        -11    1    3    3    0    0 -0.14582194555E+02  0.44833412304E+01 -0.20505509000E+00  0.15257221061E+02  0.51100000000E-03 0.  1.
         12    1    3    3    0    0 -0.24922624434E+02  0.34439432375E+01 -0.62027465304E+01  0.25912777123E+02  0.00000000000E+00 0. -1.
</event>
<event>
 7    1  0.1631716E-009  0.4778727E+02  0.7816164E-02  0.1312668E+00
        -11   -1    0    0    0    0  0.00000000000E+00  0.00000000000E+00  0.45593999997E+02  0.45594000000E+02  0.51100000000E-03 0.  1.
         11   -1    0    0    0    0 -0.00000000000E+00 -0.00000000000E+00 -0.45593999997E+02  0.45594000000E+02  0.51100000000E-03 0. -1.
    9900012    2    1    2    0    0 -0.18705082962E+02 -0.16412325511E+02  0.35558100058E+02  0.47787273773E+02  0.20000012440E+02 0.  0.
         12    1    1    2    0    0  0.18705082962E+02  0.16412325511E+02 -0.35558100058E+02  0.43400726227E+02  0.00000000000E+00 0. -1.
         11    1    3    3    0    0 -0.33897402295E+01 -0.38111013872E+01 -0.45813878709E+00  0.51210081055E+01  0.51100000000E-03 0. -1.
        -11    1    3    3    0    0 -0.14680654521E+02 -0.11597890096E+02  0.23240309063E+02  0.29835291812E+02  0.51100000000E-03 0.  1.
         12    1    3    3    0    0 -0.63468821072E+00 -0.10033340282E+01  0.12775929782E+02  0.12830973856E+02  0.00000000000E+00 0. -1.
</event>
<event>
 7    1  0.1631716E-009  0.4778727E+02  0.7816164E-02  0.1312668E+00
        -11   -1    0    0    0    0  0.00000000000E+00  0.00000000000E+00  0.45593999997E+02  0.45594000000E+02  0.51100000000E-03 0.  1.
         11   -1    0    0    0    0 -0.00000000000E+00 -0.00000000000E+00 -0.45593999997E+02  0.45594000000E+02  0.51100000000E-03 0. -1.
    9900012    2    1    2    0    0  0.29486721776E+02 -0.16919494129E+01  0.31800841067E+02  0.47787274816E+02  0.20000017198E+02 0.  0.
         12    1    1    2    0    0 -0.29486721776E+02  0.16919494129E+01 -0.31800841067E+02  0.43400725184E+02  0.00000000000E+00 0. -1.
         11    1    3    3    0    0  0.15999856333E+01 -0.17789348143E+01 -0.73851610129E+00  0.25039906935E+01  0.51100000000E-03 0. -1.
        -11    1    3    3    0    0  0.81554103855E+01 -0.45629826238E+01  0.37423872418E+01  0.10066627614E+02  0.51100000000E-03 0.  1.
         12    1    3    3    0    0  0.19731325757E+02  0.46499680251E+01  0.28796969926E+02  0.35216656509E+02  0.00000000000E+00 0. -1.
</event>
<event>
 7    1  0.1631716E-009  0.4778727E+02  0.7816164E-02  0.1312668E+00
        -11   -1    0    0    0    0  0.00000000000E+00  0.00000000000E+00  0.45593999997E+02  0.45594000000E+02  0.51100000000E-03 0.  1.
         11   -1    0    0    0    0 -0.00000000000E+00 -0.00000000000E+00 -0.45593999997E+02  0.45594000000E+02  0.51100000000E-03 0. -1.
    9900012    2    1    2    0    0 -0.11928794940E+02 -0.30713272534E+02  0.28249282338E+02  0.47787271768E+02  0.20000003298E+02 0.  0.
         12    1    1    2    0    0  0.11928794940E+02  0.30713272534E+02 -0.28249282338E+02  0.43400728232E+02  0.00000000000E+00 0. -1.
         11    1    3    3    0    0 -0.77350651567E+01 -0.10124998714E+02  0.17050766874E+02  0.21285569835E+02  0.51100000000E-03 0.  1.
        -11    1    3    3    0    0 -0.49874387615E+01 -0.15212610842E+02  0.13160606638E+02  0.20724373124E+02  0.51100000000E-03 0. -1.
         12    1    3    3    0    0  0.79370897803E+00 -0.53756629780E+01 -0.19620911741E+01  0.57773288092E+01  0.00000000000E+00 0. -1.
</event>
<event>
 7    1  0.1631716E-009  0.4778727E+02  0.7816164E-02  0.1312668E+00
        -11   -1    0    0    0    0  0.00000000000E+00  0.00000000000E+00  0.45593999997E+02  0.45594000000E+02  0.51100000000E-03 0.  1.
         11   -1    0    0    0    0 -0.00000000000E+00 -0.00000000000E+00 -0.45593999997E+02  0.45594000000E+02  0.51100000000E-03 0. -1.
    9900012    2    1    2    0    0 -0.38493417556E+02 -0.80200769215E+01  0.18372769458E+02  0.47787268594E+02  0.19999988829E+02 0.  0.
         12    1    1    2    0    0  0.38493417556E+02  0.80200769215E+01 -0.18372769458E+02  0.43400731406E+02  0.00000000000E+00 0. -1.
         11    1    3    3    0    0 -0.32206381239E+02 -0.12247559647E+02  0.11533962788E+02  0.36335740087E+02  0.51100000000E-03 0.  1.
        -11    1    3    3    0    0 -0.35928246346E+01 -0.56873146198E+00  0.32927656059E+01  0.49065415444E+01  0.51100000000E-03 0. -1.
         12    1    3    3    0    0 -0.26942116829E+01  0.47962141870E+01  0.35460410639E+01  0.65449869631E+01  0.00000000000E+00 0. -1.
</event>
<event>
 7    1  0.1631716E-009  0.4778727E+02  0.7816164E-02  0.1312668E+00
        -11   -1    0    0    0    0  0.00000000000E+00  0.00000000000E+00  0.45593999997E+02  0.45594000000E+02  0.51100000000E-03 0.  1.
         11   -1    0    0    0    0 -0.00000000000E+00 -0.00000000000E+00 -0.45593999997E+02  0.45594000000E+02  0.51100000000E-03 0. -1.
    9900012    2    1    2    0    0  0.43274636166E+02 -0.32569186759E+01 -0.56720183342E+00  0.47787269908E+02  0.19999994819E+02 0.  0.
         12    1    1    2    0    0 -0.43274636166E+02  0.32569186759E+01  0.56720183342E+00  0.43400730092E+02  0.00000000000E+00 0. -1.
         11    1    3    3    0    0  0.80778327930E+01 -0.37325528150E+01 -0.15495558082E+01  0.90324114505E+01  0.51100000000E-03 0. -1.
        -11    1    3    3    0    0  0.20858535453E+02  0.10228114347E+01  0.85105972560E+01  0.22551162063E+02  0.51100000000E-03 0.  1.
         12    1    3    3    0    0  0.14338267921E+02 -0.54717729551E+00 -0.75282432813E+01  0.16203696395E+02  0.00000000000E+00 0. -1.
</event>
<event>
 7    1  0.1631716E-009  0.4778728E+02  0.7816164E-02  0.1312668E+00
        -11   -1    0    0    0    0  0.00000000000E+00  0.00000000000E+00  0.45593999997E+02  0.45594000000E+02  0.51100000000E-03 0.  1.
         11   -1    0    0    0    0 -0.00000000000E+00 -0.00000000000E+00 -0.45593999997E+02  0.45594000000E+02  0.51100000000E-03 0. -1.
    9900012    2    1    2    0    0  0.24893307170E+02  0.23315323652E+02  0.26839182747E+02  0.47787276626E+02  0.20000025447E+02 0.  0.
         12    1    1    2    0    0 -0.24893307170E+02 -0.23315323652E+02 -0.26839182747E+02  0.43400723374E+02  0.00000000000E+00 0. -1.
         11    1    3    3    0    0  0.58901007947E+01  0.44453375983E+01  0.12240348628E+02  0.14292671147E+02  0.51100000000E-03 0. -1.
        -11    1    3    3    0    0  0.84576046803E+01  0.34029932110E+01  0.11245548075E+02  0.14476663686E+02  0.51100000000E-03 0.  1.
        -12    1    3    3    0    0  0.10545601695E+02  0.15466992843E+02  0.33532860451E+01  0.19017941792E+02  0.00000000000E+00 0.  1.
</event>
<event>
 7    1  0.1631716E-009  0.4778725E+02  0.7816164E-02  0.1312668E+00
        -11   -1    0    0    0    0  0.00000000000E+00  0.00000000000E+00  0.45593999997E+02  0.45594000000E+02  0.51100000000E-03 0.  1.
         11   -1    0    0    0    0 -0.00000000000E+00 -0.00000000000E+00 -0.45593999997E+02  0.45594000000E+02  0.51100000000E-03 0. -1.
    9900012    2    1    2    0    0  0.36312405071E+02  0.96976735719E+01  0.21702298788E+02  0.47787246464E+02  0.19999887930E+02 0.  0.
         12    1    1    2    0    0 -0.36312405071E+02 -0.96976735719E+01 -0.21702298788E+02  0.43400753536E+02  0.00000000000E+00 0. -1.
         11    1    3    3    0    0  0.13199938070E+02 -0.70035241190E+00  0.36031922779E+01  0.13700797546E+02  0.51100000000E-03 0. -1.
        -11    1    3    3    0    0  0.18560715148E+02  0.45859815814E+01  0.18617463381E+02  0.26685976034E+02  0.51100000000E-03 0.  1.
         12    1    3    3    0    0  0.45517518530E+01  0.58120444024E+01 -0.51835687048E+00  0.74004728843E+01  0.00000000000E+00 0. -1.
</event>
<event>
 7    1  0.1631716E-009  0.4778727E+02  0.7816164E-02  0.1312668E+00
        -11   -1    0    0    0    0  0.00000000000E+00  0.00000000000E+00  0.45593999997E+02  0.45594000000E+02  0.51100000000E-03 0. -1.
         11   -1    0    0    0    0 -0.00000000000E+00 -0.00000000000E+00 -0.45593999997E+02  0.45594000000E+02  0.51100000000E-03 0.  1.
    9900012    2    1    2    0    0 -0.27630975414E+01 -0.37398134960E+02  0.21848746796E+02  0.47787274856E+02  0.20000017377E+02 0.  0.
         12    1    1    2    0    0  0.27630975414E+01  0.37398134960E+02 -0.21848746796E+02  0.43400725144E+02  0.00000000000E+00 0. -1.
         11    1    3    3    0    0 -0.37551422439E+01 -0.12927427580E+01  0.46243580932E+01  0.60956513307E+01  0.51100000000E-03 0. -1.
        -11    1    3    3    0    0  0.22739912720E+01 -0.19878112406E+01  0.41487941207E+01  0.51317563027E+01  0.51100000000E-03 0.  1.
        -12    1    3    3    0    0 -0.12819465694E+01 -0.34117580961E+02  0.13075594582E+02  0.36559867222E+02  0.00000000000E+00 0.  1.
</event>
<event>
 7    1  0.1631716E-009  0.4778727E+02  0.7816164E-02  0.1312668E+00
        -11   -1    0    0    0    0  0.00000000000E+00  0.00000000000E+00  0.45593999997E+02  0.45594000000E+02  0.51100000000E-03 0.  1.
         11   -1    0    0    0    0 -0.00000000000E+00 -0.00000000000E+00 -0.45593999997E+02  0.45594000000E+02  0.51100000000E-03 0. -1.
    9900012    2    1    2    0    0  0.12382991138E+02 -0.24595099795E+02  0.33546473469E+02  0.47787270909E+02  0.19999999382E+02 0.  0.
         12    1    1    2    0    0 -0.12382991138E+02  0.24595099795E+02 -0.33546473469E+02  0.43400729091E+02  0.00000000000E+00 0. -1.
         11    1    3    3    0    0 -0.90357155767E+00 -0.35214207882E+01  0.72514174482E+01  0.81117138261E+01  0.51100000000E-03 0. -1.
        -11    1    3    3    0    0  0.99096340260E+01 -0.35847626694E+01  0.43222533991E+01  0.11390050247E+02  0.51100000000E-03 0.  1.
        -12    1    3    3    0    0  0.33769286695E+01 -0.17488916338E+02  0.21972802621E+02  0.28285506836E+02  0.00000000000E+00 0.  1.
</event>
<event>
 7    1  0.1631716E-009  0.4778727E+02  0.7816164E-02  0.1312668E+00
        -11   -1    0    0    0    0  0.00000000000E+00  0.00000000000E+00  0.45593999997E+02  0.45594000000E+02  0.51100000000E-03 0. -1.
         11   -1    0    0    0    0 -0.00000000000E+00 -0.00000000000E+00 -0.45593999997E+02  0.45594000000E+02  0.51100000000E-03 0.  1.
    9900012    2    1    2    0    0 -0.69554935249E+01  0.11205314540E+02 -0.41348340434E+02  0.47787271656E+02  0.20000002789E+02 0.  0.
         12    1    1    2    0    0  0.69554935249E+01 -0.11205314540E+02  0.41348340434E+02  0.43400728344E+02  0.00000000000E+00 0. -1.
         11    1    3    3    0    0 -0.41816746602E+01 -0.33525776520E+01 -0.79911267368E+01  0.96220728880E+01  0.51100000000E-03 0. -1.
        -11    1    3    3    0    0  0.29084706188E+01  0.40599256189E+01 -0.18194226626E+02  0.18867222375E+02  0.51100000000E-03 0.  1.
        -12    1    3    3    0    0 -0.56822894835E+01  0.10497966573E+02 -0.15162987071E+02  0.19297976393E+02  0.00000000000E+00 0.  1.
</event>
<event>
 7    1  0.1631716E-009  0.4778727E+02  0.7816164E-02  0.1312668E+00
        -11   -1    0    0    0    0  0.00000000000E+00  0.00000000000E+00  0.45593999997E+02  0.45594000000E+02  0.51100000000E-03 0. -1.
         11   -1    0    0    0    0 -0.00000000000E+00 -0.00000000000E+00 -0.45593999997E+02  0.45594000000E+02  0.51100000000E-03 0.  1.
    9900012    2    1    2    0    0 -0.60250210160E+00 -0.26119373763E+02 -0.34656002512E+02  0.47787271842E+02  0.20000003635E+02 0.  0.
         12    1    1    2    0    0  0.60250210160E+00  0.26119373763E+02  0.34656002512E+02  0.43400728158E+02  0.00000000000E+00 0. -1.
         11    1    3    3    0    0 -0.43376107197E+01 -0.17876143403E+02 -0.23674923138E+02  0.29981216712E+02  0.51100000000E-03 0. -1.
        -11    1    3    3    0    0  0.27144349117E+01 -0.25799836035E+01 -0.11436051130E+02  0.12033608686E+02  0.51100000000E-03 0.  1.
         12    1    3    3    0    0  0.10206737064E+01 -0.56632467569E+01  0.45497175633E+00  0.57724464435E+01  0.00000000000E+00 0. -1.
</event>
<event>
 7    1  0.1631716E-009  0.4778723E+02  0.7816164E-02  0.1312668E+00
        -11   -1    0    0    0    0  0.00000000000E+00  0.00000000000E+00  0.45593999997E+02  0.45594000000E+02  0.51100000000E-03 0.  1.
         11   -1    0    0    0    0 -0.00000000000E+00 -0.00000000000E+00 -0.45593999997E+02  0.45594000000E+02  0.51100000000E-03 0. -1.
    9900012    2    1    2    0    0 -0.20871986834E+02  0.15584586037E+02  0.34714656774E+02  0.47787233287E+02  0.19999827849E+02 0.  0.
         12    1    1    2    0    0  0.20871986834E+02 -0.15584586037E+02 -0.34714656774E+02  0.43400766713E+02  0.00000000000E+00 0. -1.
         11    1    3    3    0    0  0.32683265863E+00  0.20482798225E+01  0.70193193607E+01  0.73193657079E+01  0.51100000000E-03 0. -1.
        -11    1    3    3    0    0  0.23621805563E+01  0.22626828787E+01  0.20329863925E+01  0.38513198677E+01  0.51100000000E-03 0.  1.
        -12    1    3    3    0    0 -0.23561000048E+02  0.11273623336E+02  0.25662351021E+02  0.36616547712E+02  0.00000000000E+00 0.  1.
</event>
<event>
 7    1  0.1631716E-009  0.4778727E+02  0.7816164E-02  0.1312668E+00
        -11   -1    0    0    0    0  0.00000000000E+00  0.00000000000E+00  0.45593999997E+02  0.45594000000E+02  0.51100000000E-03 0. -1.
         11   -1    0    0    0    0 -0.00000000000E+00 -0.00000000000E+00 -0.45593999997E+02  0.45594000000E+02  0.51100000000E-03 0.  1.
    9900012    2    1    2    0    0 -0.81911852826E+01  0.22526910038E+02 -0.36181019809E+02  0.47787269745E+02  0.19999994077E+02 0.  0.
         12    1    1    2    0    0  0.81911852826E+01 -0.22526910038E+02  0.36181019809E+02  0.43400730255E+02  0.00000000000E+00 0. -1.
         11    1    3    3    0    0 -0.46620701455E+01  0.50721167143E+01 -0.82107042098E+01  0.10718065585E+02  0.51100000000E-03 0. -1.
        -11    1    3    3    0    0 -0.66707626060E+01  0.64992176343E+01 -0.22652800263E+02  0.24492616513E+02  0.51100000000E-03 0.  1.
         12    1    3    3    0    0  0.31416474689E+01  0.10955575690E+02 -0.53175153359E+01  0.12576587648E+02  0.00000000000E+00 0. -1.
</event>
<event>
 7    1  0.2204588E-009  0.4778727E+02  0.7816164E-02  0.1312668E+00
        -11   -1    0    0    0    0  0.00000000000E+00  0.00000000000E+00  0.45593999997E+02  0.45594000000E+02  0.51100000000E-03 0. -1.
         11   -1    0    0    0    0 -0.00000000000E+00 -0.00000000000E+00 -0.45593999997E+02  0.45594000000E+02  0.51100000000E-03 0.  1.
    9900012    2    1    2    0    0 -0.23478005542E+02 -0.20524591405E+02 -0.30185225651E+02  0.47787269083E+02  0.19999991057E+02 0.  0.
         12    1    1    2    0    0  0.23478005542E+02  0.20524591405E+02  0.30185225651E+02  0.43400730917E+02  0.00000000000E+00 0. -1.
         11    1    3    3    0    0 -0.16302815388E+02 -0.79406399237E+01 -0.18851507867E+02  0.26157501813E+02  0.51100000000E-03 0. -1.
        -11    1    3    3    0    0 -0.67393513138E+01 -0.13826008716E+02 -0.12539393846E+02  0.19844741657E+02  0.51100000000E-03 0.  1.
         12    1    3    3    0    0 -0.43583884009E+00  0.12420572355E+01  0.12056760624E+01  0.17850256127E+01  0.00000000000E+00 0. -1.
</event>
<event>
 7    1  0.1631716E-009  0.4778727E+02  0.7816164E-02  0.1312668E+00
        -11   -1    0    0    0    0  0.00000000000E+00  0.00000000000E+00  0.45593999997E+02  0.45594000000E+02  0.51100000000E-03 0.  1.
         11   -1    0    0    0    0 -0.00000000000E+00 -0.00000000000E+00 -0.45593999997E+02  0.45594000000E+02  0.51100000000E-03 0. -1.
    9900012    2    1    2    0    0  0.25851136093E+02  0.27376333651E+01  0.34754095412E+02  0.47787273951E+02  0.20000013250E+02 0.  0.
         12    1    1    2    0    0 -0.25851136093E+02 -0.27376333651E+01 -0.34754095412E+02  0.43400726049E+02  0.00000000000E+00 0. -1.
         11    1    3    3    0    0  0.13782391227E+02  0.25687138382E+01  0.19738674990E+02  0.24210904348E+02  0.51100000000E-03 0. -1.
        -11    1    3    3    0    0  0.11084669495E+02  0.12681017284E+01  0.31133609156E+01  0.11583220461E+02  0.51100000000E-03 0.  1.
         12    1    3    3    0    0  0.98407537127E+00 -0.10991822014E+01  0.11902059506E+02  0.11993149142E+02  0.00000000000E+00 0. -1.
</event>
<event>
 7    1  0.1631716E-009  0.4778727E+02  0.7816164E-02  0.1312668E+00
        -11   -1    0    0    0    0  0.00000000000E+00  0.00000000000E+00  0.45593999997E+02  0.45594000000E+02  0.51100000000E-03 0.  1.
         11   -1    0    0    0    0 -0.00000000000E+00 -0.00000000000E+00 -0.45593999997E+02  0.45594000000E+02  0.51100000000E-03 0. -1.
    9900012    2    1    2    0    0  0.22013384256E+02  0.25875548201E+02  0.27009075175E+02  0.47787271632E+02  0.20000002679E+02 0.  0.
         12    1    1    2    0    0 -0.22013384256E+02 -0.25875548201E+02 -0.27009075175E+02  0.43400728368E+02  0.00000000000E+00 0. -1.
         11    1    3    3    0    0  0.95923947508E+01  0.27308811328E+01  0.64176992790E+01  0.11859958394E+02  0.51100000000E-03 0. -1.
        -11    1    3    3    0    0  0.10506198044E+02  0.12684875026E+02  0.19049127377E+02  0.25182444397E+02  0.51100000000E-03 0.  1.
         12    1    3    3    0    0  0.19147914615E+01  0.10459792042E+02  0.15422485191E+01  0.10744868841E+02  0.00000000000E+00 0. -1.
</event>
<event>
 7    1  0.1631716E-009  0.4778727E+02  0.7816164E-02  0.1312668E+00
        -11   -1    0    0    0    0  0.00000000000E+00  0.00000000000E+00  0.45593999997E+02  0.45594000000E+02  0.51100000000E-03 0. -1.
         11   -1    0    0    0    0 -0.00000000000E+00 -0.00000000000E+00 -0.45593999997E+02  0.45594000000E+02  0.51100000000E-03 0.  1.
    9900012    2    1    2    0    0 -0.89188211695E+01 -0.39274168613E+02 -0.16174592163E+02  0.47787272784E+02  0.20000007930E+02 0.  0.
         12    1    1    2    0    0  0.89188211695E+01  0.39274168613E+02  0.16174592163E+02  0.43400727216E+02  0.00000000000E+00 0. -1.
         11    1    3    3    0    0 -0.27848404279E+01 -0.31061570621E+02 -0.95673205568E+01  0.32620700920E+02  0.51100000000E-03 0. -1.
        -11    1    3    3    0    0  0.22307550083E+01 -0.16012679532E+01 -0.25844087247E+01  0.37708746575E+01  0.51100000000E-03 0.  1.
        -12    1    3    3    0    0 -0.83647357498E+01 -0.66113300388E+01 -0.40228628815E+01  0.11395697206E+02  0.00000000000E+00 0.  1.
</event>
<event>
 7    1  0.1631716E-009  0.4778727E+02  0.7816164E-02  0.1312668E+00
        -11   -1    0    0    0    0  0.00000000000E+00  0.00000000000E+00  0.45593999997E+02  0.45594000000E+02  0.51100000000E-03 0. -1.
         11   -1    0    0    0    0 -0.00000000000E+00 -0.00000000000E+00 -0.45593999997E+02  0.45594000000E+02  0.51100000000E-03 0.  1.
    9900012    2    1    2    0    0 -0.16913672965E+02 -0.36799287400E+02 -0.15600098982E+02  0.47787274492E+02  0.20000015719E+02 0.  0.
         12    1    1    2    0    0  0.16913672965E+02  0.36799287400E+02  0.15600098982E+02  0.43400725508E+02  0.00000000000E+00 0. -1.
         11    1    3    3    0    0  0.19405126496E+00 -0.12475759491E+01 -0.40325565040E+01  0.42255903565E+01  0.51100000000E-03 0. -1.
        -11    1    3    3    0    0 -0.11347569525E+02 -0.12368259339E+02  0.51191125418E+00  0.16792951694E+02  0.51100000000E-03 0.  1.
         12    1    3    3    0    0 -0.57601547057E+01 -0.23183452112E+02 -0.12079453732E+02  0.26768732442E+02  0.00000000000E+00 0. -1.
</event>
<event>
 7    1  0.1631716E-009  0.4778727E+02  0.7816164E-02  0.1312668E+00
        -11   -1    0    0    0    0  0.00000000000E+00  0.00000000000E+00  0.45593999997E+02  0.45594000000E+02  0.51100000000E-03 0.  1.
         11   -1    0    0    0    0 -0.00000000000E+00 -0.00000000000E+00 -0.45593999997E+02  0.45594000000E+02  0.51100000000E-03 0. -1.
    9900012    2    1    2    0    0 -0.51668423928E+01  0.40305718332E+02  0.15243890501E+02  0.47787269727E+02  0.19999993994E+02 0.  0.
         12    1    1    2    0    0  0.51668423928E+01 -0.40305718332E+02 -0.15243890501E+02  0.43400730273E+02  0.00000000000E+00 0. -1.
         11    1    3    3    0    0 -0.28430196748E+01  0.50488549092E+01 -0.80580263345E+00  0.58500440093E+01  0.51100000000E-03 0.  1.
        -11    1    3    3    0    0 -0.81306343161E+01  0.20770829120E+02  0.51242438564E+01  0.22886512012E+02  0.51100000000E-03 0. -1.
         12    1    3    3    0    0  0.58068115981E+01  0.14486034304E+02  0.10925449278E+02  0.19050713706E+02  0.00000000000E+00 0. -1.
</event>
<event>
 7    1  0.1631716E-009  0.4778727E+02  0.7816164E-02  0.1312668E+00
        -11   -1    0    0    0    0  0.00000000000E+00  0.00000000000E+00  0.45593999997E+02  0.45594000000E+02  0.51100000000E-03 0. -1.
         11   -1    0    0    0    0 -0.00000000000E+00 -0.00000000000E+00 -0.45593999997E+02  0.45594000000E+02  0.51100000000E-03 0.  1.
    9900012    2    1    2    0    0 -0.37964481307E+02  0.79031454895E+01 -0.19490038049E+02  0.47787272671E+02  0.20000007415E+02 0.  0.
         12    1    1    2    0    0  0.37964481307E+02 -0.79031454895E+01  0.19490038049E+02  0.43400727329E+02  0.00000000000E+00 0. -1.
         11    1    3    3    0    0 -0.62721688794E+01 -0.31663758636E+01 -0.28538516726E+01  0.75835683020E+01  0.51100000000E-03 0. -1.
        -11    1    3    3    0    0 -0.25565000604E+02  0.20804950663E+01 -0.12821276160E+02  0.28675474508E+02  0.51100000000E-03 0.  1.
         12    1    3    3    0    0 -0.61273118232E+01  0.89890262869E+01 -0.38149102169E+01  0.11528229861E+02  0.00000000000E+00 0. -1.
</event>
<event>
 7    1  0.1631716E-009  0.4778727E+02  0.7816164E-02  0.1312668E+00
        -11   -1    0    0    0    0  0.00000000000E+00  0.00000000000E+00  0.45593999997E+02  0.45594000000E+02  0.51100000000E-03 0.  1.
         11   -1    0    0    0    0 -0.00000000000E+00 -0.00000000000E+00 -0.45593999997E+02  0.45594000000E+02  0.51100000000E-03 0. -1.
    9900012    2    1    2    0    0  0.44653448074E+01  0.29392614688E+01  0.43070231281E+02  0.47787269766E+02  0.19999994172E+02 0.  0.
         12    1    1    2    0    0 -0.44653448074E+01 -0.29392614688E+01 -0.43070231281E+02  0.43400730234E+02  0.00000000000E+00 0. -1.
         11    1    3    3    0    0 -0.26104175477E+01 -0.31260769032E+01  0.33914634738E+01  0.52998737092E+01  0.51100000000E-03 0. -1.
        -11    1    3    3    0    0  0.88933901629E+01  0.11703435566E+01  0.17068225335E+02  0.19281763638E+02  0.51100000000E-03 0.  1.
        -12    1    3    3    0    0 -0.18176278077E+01  0.48949948154E+01  0.22610542472E+02  0.23205632419E+02  0.00000000000E+00 0.  1.
</event>
<event>
 7    1  0.1631716E-009  0.4778728E+02  0.7816164E-02  0.1312668E+00
        -11   -1    0    0    0    0  0.00000000000E+00  0.00000000000E+00  0.45593999997E+02  0.45594000000E+02  0.51100000000E-03 0.  1.
         11   -1    0    0    0    0 -0.00000000000E+00 -0.00000000000E+00 -0.45593999997E+02  0.45594000000E+02  0.51100000000E-03 0. -1.
    9900012    2    1    2    0    0  0.47468120282E+00 -0.31708161649E+02  0.29630897503E+02  0.47787275072E+02  0.20000018364E+02 0.  0.
         12    1    1    2    0    0 -0.47468120282E+00  0.31708161649E+02 -0.29630897503E+02  0.43400724928E+02  0.00000000000E+00 0. -1.
         11    1    3    3    0    0  0.18814078692E+01  0.33196820040E+00  0.14109591738E+01  0.23750167384E+01  0.51100000000E-03 0. -1.
        -11    1    3    3    0    0 -0.82917986858E+01 -0.18310391583E+02  0.14137975400E+02  0.24574513505E+02  0.51100000000E-03 0.  1.
        -12    1    3    3    0    0  0.68850720194E+01 -0.13729738267E+02  0.14081962930E+02  0.20837744829E+02  0.00000000000E+00 0.  1.
</event>
<event>
 7    1  0.1631716E-009  0.4778727E+02  0.7816164E-02  0.1312668E+00
        -11   -1    0    0    0    0  0.00000000000E+00  0.00000000000E+00  0.45593999997E+02  0.45594000000E+02  0.51100000000E-03 0. -1.
         11   -1    0    0    0    0 -0.00000000000E+00 -0.00000000000E+00 -0.45593999997E+02  0.45594000000E+02  0.51100000000E-03 0.  1.
    9900012    2    1    2    0    0  0.21754489081E+02 -0.36844151356E+02 -0.72714438375E+01  0.47787272128E+02  0.20000004941E+02 0.  0.
         12    1    1    2    0    0 -0.21754489081E+02  0.36844151356E+02  0.72714438375E+01  0.43400727872E+02  0.00000000000E+00 0. -1.
         11    1    3    3    0    0 -0.11588742927E-01 -0.71597473555E+00  0.32825811896E+01  0.33597758331E+01  0.51100000000E-03 0. -1.
        -11    1    3    3    0    0  0.70625214487E+01 -0.14779201991E+02 -0.84198997462E+01  0.18417348688E+02  0.51100000000E-03 0.  1.
        -12    1    3    3    0    0  0.14703556375E+02 -0.21348974629E+02 -0.21341252809E+01  0.26010147607E+02  0.00000000000E+00 0.  1.
</event>
<event>
 7    1  0.1631716E-009  0.4778729E+02  0.7816164E-02  0.1312668E+00
        -11   -1    0    0    0    0  0.00000000000E+00  0.00000000000E+00  0.45593999997E+02  0.45594000000E+02  0.51100000000E-03 0.  1.
         11   -1    0    0    0    0 -0.00000000000E+00 -0.00000000000E+00 -0.45593999997E+02  0.45594000000E+02  0.51100000000E-03 0. -1.
    9900012    2    1    2    0    0  0.27066812208E+02 -0.11616414805E+02  0.31875831244E+02  0.47787285334E+02  0.20000065151E+02 0.  0.
         12    1    1    2    0    0 -0.27066812208E+02  0.11616414805E+02 -0.31875831244E+02  0.43400714666E+02  0.00000000000E+00 0. -1.
         11    1    3    3    0    0  0.10564434728E+02  0.79185891915E-01  0.23441954086E+01  0.10821682120E+02  0.51100000000E-03 0. -1.
        -11    1    3    3    0    0  0.39215922731E+00  0.10424887331E+01  0.15916892036E+00  0.11251251595E+01  0.51100000000E-03 0.  1.
        -12    1    3    3    0    0  0.16110218252E+02 -0.12738089430E+02  0.29372466915E+02  0.35840478054E+02  0.00000000000E+00 0.  1.
</event>
<event>
 7    1  0.1631716E-009  0.4778727E+02  0.7816164E-02  0.1312668E+00
        -11   -1    0    0    0    0  0.00000000000E+00  0.00000000000E+00  0.45593999997E+02  0.45594000000E+02  0.51100000000E-03 0.  1.
         11   -1    0    0    0    0 -0.00000000000E+00 -0.00000000000E+00 -0.45593999997E+02  0.45594000000E+02  0.51100000000E-03 0. -1.
    9900012    2    1    2    0    0  0.31804448497E+02  0.18676700315E+02  0.22875335332E+02  0.47787273677E+02  0.20000012001E+02 0.  0.
         12    1    1    2    0    0 -0.31804448497E+02 -0.18676700315E+02 -0.22875335332E+02  0.43400726323E+02  0.00000000000E+00 0. -1.
         11    1    3    3    0    0  0.19555244270E+01  0.11246784788E+01  0.10305365276E+01  0.24801175902E+01  0.51100000000E-03 0. -1.
        -11    1    3    3    0    0  0.16053159672E+02  0.49364467874E+01  0.20589676251E+02  0.26570796201E+02  0.51100000000E-03 0.  1.
         12    1    3    3    0    0  0.13795764398E+02  0.12615575049E+02  0.12551225527E+01  0.18736359885E+02  0.00000000000E+00 0. -1.
</event>
<event>
 7    1  0.2222661E-009  0.4778727E+02  0.7816164E-02  0.1312668E+00
        -11   -1    0    0    0    0  0.00000000000E+00  0.00000000000E+00  0.45593999997E+02  0.45594000000E+02  0.51100000000E-03 0. -1.
         11   -1    0    0    0    0 -0.00000000000E+00 -0.00000000000E+00 -0.45593999997E+02  0.45594000000E+02  0.51100000000E-03 0.  1.
    9900012    2    1    2    0    0  0.35842369434E+02 -0.10041195270E+02 -0.22318649952E+02  0.47787272071E+02  0.20000004679E+02 0.  0.
         12    1    1    2    0    0 -0.35842369434E+02  0.10041195270E+02  0.22318649952E+02  0.43400727929E+02  0.00000000000E+00 0. -1.
         11    1    3    3    0    0  0.63626383467E+01 -0.80567620130E+01 -0.81155238120E+01  0.13086493337E+02  0.51100000000E-03 0. -1.
        -11    1    3    3    0    0  0.25467718709E+02 -0.57527605072E+01 -0.12436558882E+02  0.28920009454E+02  0.51100000000E-03 0.  1.
         12    1    3    3    0    0  0.40120123784E+01  0.37683272500E+01 -0.17665672579E+01  0.57807692796E+01  0.00000000000E+00 0. -1.
</event>
<event>
 7    1  0.1631716E-009  0.4778727E+02  0.7816164E-02  0.1312668E+00
        -11   -1    0    0    0    0  0.00000000000E+00  0.00000000000E+00  0.45593999997E+02  0.45594000000E+02  0.51100000000E-03 0.  1.
         11   -1    0    0    0    0 -0.00000000000E+00 -0.00000000000E+00 -0.45593999997E+02  0.45594000000E+02  0.51100000000E-03 0. -1.
    9900012    2    1    2    0    0 -0.89661982196E+01 -0.95874257263E+01  0.41368004244E+02  0.47787271692E+02  0.20000002951E+02 0.  0.
         12    1    1    2    0    0  0.89661982196E+01  0.95874257263E+01 -0.41368004244E+02  0.43400728308E+02  0.00000000000E+00 0. -1.
         11    1    3    3    0    0  0.47015019769E+00  0.37380260866E+01  0.83867002862E+01  0.91940536318E+01  0.51100000000E-03 0. -1.
        -11    1    3    3    0    0 -0.19838684067E+01 -0.65730312706E+00 -0.39240158984E+00  0.21264431628E+01  0.51100000000E-03 0.  1.
        -12    1    3    3    0    0 -0.74524800106E+01 -0.12668148686E+02  0.33373705547E+02  0.36466774897E+02  0.00000000000E+00 0.  1.
</event>
<event>
 7    1  0.1631716E-009  0.4778728E+02  0.7816164E-02  0.1312668E+00
        -11   -1    0    0    0    0  0.00000000000E+00  0.00000000000E+00  0.45593999997E+02  0.45594000000E+02  0.51100000000E-03 0.  1.
         11   -1    0    0    0    0 -0.00000000000E+00 -0.00000000000E+00 -0.45593999997E+02  0.45594000000E+02  0.51100000000E-03 0. -1.
    9900012    2    1    2    0    0 -0.30441069148E+01  0.33983191547E+02  0.26823477566E+02  0.47787276004E+02  0.20000022615E+02 0.  0.
         12    1    1    2    0    0  0.30441069148E+01 -0.33983191547E+02 -0.26823477566E+02  0.43400723996E+02  0.00000000000E+00 0. -1.
         11    1    3    3    0    0  0.13817437355E+01  0.13478214592E+02  0.16189151131E+01  0.13645232528E+02  0.51100000000E-03 0. -1.
        -11    1    3    3    0    0  0.18882661753E+01  0.69174854186E+01  0.12879849024E+02  0.14741358988E+02  0.51100000000E-03 0.  1.
        -12    1    3    3    0    0 -0.63141168256E+01  0.13587491536E+02  0.12324713429E+02  0.19400684489E+02  0.00000000000E+00 0.  1.
</event>
<event>
 7    1  0.1631716E-009  0.4778727E+02  0.7816164E-02  0.1312668E+00
        -11   -1    0    0    0    0  0.00000000000E+00  0.00000000000E+00  0.45593999997E+02  0.45594000000E+02  0.51100000000E-03 0.  1.
         11   -1    0    0    0    0 -0.00000000000E+00 -0.00000000000E+00 -0.45593999997E+02  0.45594000000E+02  0.51100000000E-03 0. -1.
    9900012    2    1    2    0    0  0.34795909045E+02  0.25800458402E+02 -0.26840756256E+01  0.47787271873E+02  0.20000003779E+02 0.  0.
         12    1    1    2    0    0 -0.34795909045E+02 -0.25800458402E+02  0.26840756256E+01  0.43400728127E+02  0.00000000000E+00 0. -1.
         11    1    3    3    0    0  0.97816469147E+01  0.12254362161E+01 -0.45310467774E+01  0.10849548168E+02  0.51100000000E-03 0. -1.
        -11    1    3    3    0    0  0.24853347501E+02  0.20070107540E+02  0.35000163868E+01  0.32136400135E+02  0.51100000000E-03 0.  1.
         12    1    3    3    0    0  0.16091462920E+00  0.45049146453E+01 -0.16530452350E+01  0.48013235705E+01  0.00000000000E+00 0. -1.
</event>
<event>
 7    1  0.1631716E-009  0.4778727E+02  0.7816164E-02  0.1312668E+00
        -11   -1    0    0    0    0  0.00000000000E+00  0.00000000000E+00  0.45593999997E+02  0.45594000000E+02  0.51100000000E-03 0.  1.
         11   -1    0    0    0    0 -0.00000000000E+00 -0.00000000000E+00 -0.45593999997E+02  0.45594000000E+02  0.51100000000E-03 0. -1.
    9900012    2    1    2    0    0  0.24973084596E+02  0.34980690372E+02  0.60265557351E+01  0.47787273887E+02  0.20000012960E+02 0.  0.
         12    1    1    2    0    0 -0.24973084596E+02 -0.34980690372E+02 -0.60265557351E+01  0.43400726113E+02  0.00000000000E+00 0. -1.
         11    1    3    3    0    0  0.87513139250E+01  0.67919598937E+01  0.41832738305E+01  0.11841283495E+02  0.51100000000E-03 0. -1.
        -11    1    3    3    0    0  0.65079627491E+01  0.14343220737E+02  0.83467333984E+01  0.17825529976E+02  0.51100000000E-03 0.  1.
         12    1    3    3    0    0  0.97138079219E+01  0.13845509741E+02 -0.65034514938E+01  0.18120460416E+02  0.00000000000E+00 0. -1.
</event>
<event>
 7    1  0.1631716E-009  0.4778727E+02  0.7816164E-02  0.1312668E+00
        -11   -1    0    0    0    0  0.00000000000E+00  0.00000000000E+00  0.45593999997E+02  0.45594000000E+02  0.51100000000E-03 0.  1.
         11   -1    0    0    0    0 -0.00000000000E+00 -0.00000000000E+00 -0.45593999997E+02  0.45594000000E+02  0.51100000000E-03 0. -1.
    9900012    2    1    2    0    0  0.85127048165E+01 -0.28464981896E+01  0.42462387011E+02  0.47787274132E+02  0.20000014077E+02 0.  0.
         12    1    1    2    0    0 -0.85127048165E+01  0.28464981896E+01 -0.42462387011E+02  0.43400725868E+02  0.00000000000E+00 0. -1.
         11    1    3    3    0    0 -0.46664624064E+00  0.40869911931E+01  0.99071258497E+01  0.10727180365E+02  0.51100000000E-03 0. -1.
        -11    1    3    3    0    0 -0.10401721333E+01  0.25404414695E+01  0.16121645004E+01  0.31835319324E+01  0.51100000000E-03 0.  1.
        -12    1    3    3    0    0  0.10019523190E+02 -0.94739308523E+01  0.30943096661E+02  0.33876561834E+02  0.00000000000E+00 0.  1.
</event>
<event>
 7    1  0.1631716E-009  0.4778727E+02  0.7816164E-02  0.1312668E+00
        -11   -1    0    0    0    0  0.00000000000E+00  0.00000000000E+00  0.45593999997E+02  0.45594000000E+02  0.51100000000E-03 0. -1.
         11   -1    0    0    0    0 -0.00000000000E+00 -0.00000000000E+00 -0.45593999997E+02  0.45594000000E+02  0.51100000000E-03 0.  1.
    9900012    2    1    2    0    0  0.35174166763E+02 -0.13694716153E+01 -0.25387518008E+02  0.47787268087E+02  0.19999986515E+02 0.  0.
         12    1    1    2    0    0 -0.35174166763E+02  0.13694716153E+01  0.25387518008E+02  0.43400731913E+02  0.00000000000E+00 0. -1.
         11    1    3    3    0    0  0.13567487218E+02 -0.35489109293E+01 -0.56844166451E+01  0.15132219634E+02  0.51100000000E-03 0. -1.
        -11    1    3    3    0    0  0.17665394702E+02  0.37698274969E+01 -0.21465262986E+02  0.28054149152E+02  0.51100000000E-03 0.  1.
         12    1    3    3    0    0  0.39412848436E+01 -0.15903881829E+01  0.17621616234E+01  0.46008993010E+01  0.00000000000E+00 0. -1.
</event>
<event>
 7    1  0.1912559E-009  0.4778727E+02  0.7816164E-02  0.1312668E+00
        -11   -1    0    0    0    0  0.00000000000E+00  0.00000000000E+00  0.45593999997E+02  0.45594000000E+02  0.51100000000E-03 0.  1.
         11   -1    0    0    0    0 -0.00000000000E+00 -0.00000000000E+00 -0.45593999997E+02  0.45594000000E+02  0.51100000000E-03 0. -1.
    9900012    2    1    2    0    0  0.18694332332E+02 -0.39128702792E+02  0.17577727960E+01  0.47787271795E+02  0.20000003423E+02 0.  0.
         12    1    1    2    0    0 -0.18694332332E+02  0.39128702792E+02 -0.17577727960E+01  0.43400728205E+02  0.00000000000E+00 0. -1.
         11    1    3    3    0    0  0.90382069129E+01 -0.10220175635E+02 -0.37512140273E+01  0.14149656574E+02  0.51100000000E-03 0. -1.
        -11    1    3    3    0    0  0.73094422731E+01 -0.27924199614E+02  0.15186943917E+01  0.28904935622E+02  0.51100000000E-03 0.  1.
         12    1    3    3    0    0  0.23466831458E+01 -0.98432754316E+00  0.39902924316E+01  0.47326795992E+01  0.00000000000E+00 0. -1.
</event>
<event>
 7    1  0.1631716E-009  0.4778727E+02  0.7816164E-02  0.1312668E+00
        -11   -1    0    0    0    0  0.00000000000E+00  0.00000000000E+00  0.45593999997E+02  0.45594000000E+02  0.51100000000E-03 0.  1.
         11   -1    0    0    0    0 -0.00000000000E+00 -0.00000000000E+00 -0.45593999997E+02  0.45594000000E+02  0.51100000000E-03 0. -1.
    9900012    2    1    2    0    0  0.46714459710E+01 -0.32856255570E+02  0.27969038263E+02  0.47787273751E+02  0.20000012342E+02 0.  0.
         12    1    1    2    0    0 -0.46714459710E+01  0.32856255570E+02 -0.27969038263E+02  0.43400726249E+02  0.00000000000E+00 0. -1.
         11    1    3    3    0    0  0.92193268779E+01 -0.54921706270E+01  0.59749337811E+01  0.12282498127E+02  0.51100000000E-03 0. -1.
        -11    1    3    3    0    0 -0.11053678791E+01 -0.14803764954E+02  0.11435368768E+02  0.18738755404E+02  0.51100000000E-03 0.  1.
         12    1    3    3    0    0 -0.34425130278E+01 -0.12560319989E+02  0.10558735714E+02  0.16766020221E+02  0.00000000000E+00 0. -1.
</event>
<event>
 7    1  0.1631716E-009  0.4778727E+02  0.7816164E-02  0.1312668E+00
        -11   -1    0    0    0    0  0.00000000000E+00  0.00000000000E+00  0.45593999997E+02  0.45594000000E+02  0.51100000000E-03 0.  1.
         11   -1    0    0    0    0 -0.00000000000E+00 -0.00000000000E+00 -0.45593999997E+02  0.45594000000E+02  0.51100000000E-03 0. -1.
    9900012    2    1    2    0    0 -0.17169321905E+02  0.37967946183E+02 -0.12135588949E+02  0.47787273380E+02  0.20000010648E+02 0.  0.
         12    1    1    2    0    0  0.17169321905E+02 -0.37967946183E+02  0.12135588949E+02  0.43400726620E+02  0.00000000000E+00 0. -1.
         11    1    3    3    0    0 -0.88392881410E+01  0.81061016016E+01 -0.67036616603E+01  0.13739759020E+02  0.51100000000E-03 0. -1.
        -11    1    3    3    0    0 -0.86258454187E+01  0.21380683366E+02  0.14799498187E+01  0.23102577391E+02  0.51100000000E-03 0.  1.
         12    1    3    3    0    0  0.29581165488E+00  0.84811612152E+01 -0.69118771076E+01  0.10944936969E+02  0.00000000000E+00 0. -1.
</event>
<event>
 7    1  0.1631716E-009  0.4778727E+02  0.7816164E-02  0.1312668E+00
        -11   -1    0    0    0    0  0.00000000000E+00  0.00000000000E+00  0.45593999997E+02  0.45594000000E+02  0.51100000000E-03 0.  1.
         11   -1    0    0    0    0 -0.00000000000E+00 -0.00000000000E+00 -0.45593999997E+02  0.45594000000E+02  0.51100000000E-03 0. -1.
    9900012    2    1    2    0    0 -0.15778980832E+02  0.29933676555E+02  0.27177598175E+02  0.47787273385E+02  0.20000010671E+02 0.  0.
         12    1    1    2    0    0  0.15778980832E+02 -0.29933676555E+02 -0.27177598175E+02  0.43400726615E+02  0.00000000000E+00 0. -1.
         11    1    3    3    0    0 -0.61275446273E+01  0.83409147099E+00  0.50522860411E+01  0.79854934878E+01  0.51100000000E-03 0. -1.
        -11    1    3    3    0    0  0.25430803129E+01  0.92797945903E+01  0.45714003737E+01  0.10652677915E+02  0.51100000000E-03 0.  1.
        -12    1    3    3    0    0 -0.12194516517E+02  0.19819790493E+02  0.17553911760E+02  0.29149101982E+02  0.00000000000E+00 0.  1.
</event>
<event>
 7    1  0.1631716E-009  0.4778727E+02  0.7816164E-02  0.1312668E+00
        -11   -1    0    0    0    0  0.00000000000E+00  0.00000000000E+00  0.45593999997E+02  0.45594000000E+02  0.51100000000E-03 0.  1.
         11   -1    0    0    0    0 -0.00000000000E+00 -0.00000000000E+00 -0.45593999997E+02  0.45594000000E+02  0.51100000000E-03 0. -1.
    9900012    2    1    2    0    0 -0.11546469876E+02  0.15417370726E+02  0.38892249349E+02  0.47787270212E+02  0.19999996206E+02 0.  0.
         12    1    1    2    0    0  0.11546469876E+02 -0.15417370726E+02 -0.38892249349E+02  0.43400729788E+02  0.00000000000E+00 0. -1.
         11    1    3    3    0    0 -0.91258259385E+01  0.12854647397E+02  0.21658596947E+02  0.26788383317E+02  0.51100000000E-03 0. -1.
        -11    1    3    3    0    0  0.39294647403E+01  0.38604300990E+01  0.83065717156E+01  0.99670832053E+01  0.51100000000E-03 0.  1.
         12    1    3    3    0    0 -0.63501086775E+01 -0.12977067700E+01  0.89270806867E+01  0.11031803690E+02  0.00000000000E+00 0. -1.
</event>
<event>
 7    1  0.1631716E-009  0.4778727E+02  0.7816164E-02  0.1312668E+00
        -11   -1    0    0    0    0  0.00000000000E+00  0.00000000000E+00  0.45593999997E+02  0.45594000000E+02  0.51100000000E-03 0.  1.
         11   -1    0    0    0    0 -0.00000000000E+00 -0.00000000000E+00 -0.45593999997E+02  0.45594000000E+02  0.51100000000E-03 0. -1.
    9900012    2    1    2    0    0 -0.38776081516E+02  0.94205222280E+01  0.17067292292E+02  0.47787271862E+02  0.20000003727E+02 0.  0.
         12    1    1    2    0    0  0.38776081516E+02 -0.94205222280E+01 -0.17067292292E+02  0.43400728138E+02  0.00000000000E+00 0. -1.
         11    1    3    3    0    0 -0.19052642322E+02  0.80388973029E+01  0.11918029596E+02  0.23867686922E+02  0.51100000000E-03 0. -1.
        -11    1    3    3    0    0 -0.18307077146E+02 -0.51321093693E+00  0.81940592517E+01  0.20063774978E+02  0.51100000000E-03 0.  1.
         12    1    3    3    0    0 -0.14163620476E+01  0.18948358621E+01 -0.30447965559E+01  0.38558099617E+01  0.00000000000E+00 0. -1.
</event>
<event>
 7    1  0.1631716E-009  0.4778727E+02  0.7816164E-02  0.1312668E+00
        -11   -1    0    0    0    0  0.00000000000E+00  0.00000000000E+00  0.45593999997E+02  0.45594000000E+02  0.51100000000E-03 0.  1.
         11   -1    0    0    0    0 -0.00000000000E+00 -0.00000000000E+00 -0.45593999997E+02  0.45594000000E+02  0.51100000000E-03 0. -1.
    9900012    2    1    2    0    0 -0.28754043745E+02 -0.57996936996E+01  0.31987365283E+02  0.47787274010E+02  0.20000013522E+02 0.  0.
         12    1    1    2    0    0  0.28754043745E+02  0.57996936996E+01 -0.31987365283E+02  0.43400725990E+02  0.00000000000E+00 0. -1.
         11    1    3    3    0    0 -0.23590320309E+01 -0.49342763207E+01  0.18104064386E+01  0.57610490942E+01  0.51100000000E-03 0. -1.
        -11    1    3    3    0    0 -0.24053191123E+02 -0.45726532814E+01  0.22865638019E+02  0.33500784520E+02  0.51100000000E-03 0.  1.
         12    1    3    3    0    0 -0.23418205913E+01  0.37072359024E+01  0.73113208261E+01  0.85254403957E+01  0.00000000000E+00 0. -1.
</event>
<event>
 7    1  0.1631716E-009  0.4778727E+02  0.7816164E-02  0.1312668E+00
        -11   -1    0    0    0    0  0.00000000000E+00  0.00000000000E+00  0.45593999997E+02  0.45594000000E+02  0.51100000000E-03 0.  1.
         11   -1    0    0    0    0 -0.00000000000E+00 -0.00000000000E+00 -0.45593999997E+02  0.45594000000E+02  0.51100000000E-03 0. -1.
    9900012    2    1    2    0    0 -0.28064532069E+02  0.33000547973E+02 -0.26399041528E+01  0.47787271657E+02  0.20000002793E+02 0.  0.
         12    1    1    2    0    0  0.28064532069E+02 -0.33000547973E+02  0.26399041528E+01  0.43400728343E+02  0.00000000000E+00 0. -1.
         11    1    3    3    0    0 -0.22605392136E+02  0.15704111680E+02  0.12975280615E+01  0.27555515902E+02  0.51100000000E-03 0. -1.
        -11    1    3    3    0    0 -0.19231914230E+01  0.83626909069E+01  0.21645798103E+01  0.88497836397E+01  0.51100000000E-03 0.  1.
         12    1    3    3    0    0 -0.35359485102E+01  0.89337453858E+01 -0.61020120246E+01  0.11381972115E+02  0.00000000000E+00 0. -1.
</event>
<event>
 7    1  0.1631716E-009  0.4778727E+02  0.7816164E-02  0.1312668E+00
        -11   -1    0    0    0    0  0.00000000000E+00  0.00000000000E+00  0.45593999997E+02  0.45594000000E+02  0.51100000000E-03 0.  1.
         11   -1    0    0    0    0 -0.00000000000E+00 -0.00000000000E+00 -0.45593999997E+02  0.45594000000E+02  0.51100000000E-03 0. -1.
    9900012    2    1    2    0    0 -0.90521667570E+01  0.16087778775E+02  0.39279322971E+02  0.47787267725E+02  0.19999984866E+02 0.  0.
         12    1    1    2    0    0  0.90521667570E+01 -0.16087778775E+02 -0.39279322971E+02  0.43400732275E+02  0.00000000000E+00 0. -1.
         11    1    3    3    0    0 -0.17106065359E+01  0.26448952781E+01 -0.11796337880E+01  0.33635073789E+01  0.51100000000E-03 0. -1.
        -11    1    3    3    0    0  0.10778391624E+01  0.87573017110E+00  0.12999399663E+02  0.13073371120E+02  0.51100000000E-03 0.  1.
        -12    1    3    3    0    0 -0.84193993835E+01  0.12567153326E+02  0.27459557096E+02  0.31350389226E+02  0.00000000000E+00 0.  1.
</event>
<event>
 7    1  0.1631716E-009  0.4778727E+02  0.7816164E-02  0.1312668E+00
        -11   -1    0    0    0    0  0.00000000000E+00  0.00000000000E+00  0.45593999997E+02  0.45594000000E+02  0.51100000000E-03 0.  1.
         11   -1    0    0    0    0 -0.00000000000E+00 -0.00000000000E+00 -0.45593999997E+02  0.45594000000E+02  0.51100000000E-03 0. -1.
    9900012    2    1    2    0    0 -0.30285229201E+02 -0.25234860087E+02  0.18155716088E+02  0.47787270766E+02  0.19999998731E+02 0.  0.
         12    1    1    2    0    0  0.30285229201E+02  0.25234860087E+02 -0.18155716088E+02  0.43400729234E+02  0.00000000000E+00 0. -1.
         11    1    3    3    0    0 -0.84152630140E+01 -0.11565292526E+02  0.92284924426E+01  0.17021683695E+02  0.51100000000E-03 0.  1.
        -11    1    3    3    0    0 -0.60244755509E+01  0.21000598795E+01 -0.71405888586E+00  0.64198471567E+01  0.51100000000E-03 0. -1.
         12    1    3    3    0    0 -0.15845490636E+02 -0.15769627441E+02  0.96412825308E+01  0.24345739914E+02  0.00000000000E+00 0. -1.
</event>
<event>
 7    1  0.2920479E-009  0.4778727E+02  0.7816164E-02  0.1312668E+00
        -11   -1    0    0    0    0  0.00000000000E+00  0.00000000000E+00  0.45593999997E+02  0.45594000000E+02  0.51100000000E-03 0. -1.
         11   -1    0    0    0    0 -0.00000000000E+00 -0.00000000000E+00 -0.45593999997E+02  0.45594000000E+02  0.51100000000E-03 0.  1.
    9900012    2    1    2    0    0  0.29261716098E+02  0.15209682833E+01 -0.32016586188E+02  0.47787272303E+02  0.20000005739E+02 0.  0.
         12    1    1    2    0    0 -0.29261716098E+02 -0.15209682833E+01  0.32016586188E+02  0.43400727697E+02  0.00000000000E+00 0. -1.
         11    1    3    3    0    0  0.89513639180E+01 -0.80101307076E+00  0.65312740991E+00  0.90108331250E+01  0.51100000000E-03 0. -1.
        -11    1    3    3    0    0  0.10083203408E+02  0.95993290455E+00 -0.12224957546E+02  0.15875832243E+02  0.51100000000E-03 0.  1.
         12    1    3    3    0    0  0.10227148772E+02  0.13620484495E+01 -0.20444756052E+02  0.22900606935E+02  0.00000000000E+00 0. -1.
</event>
<event>
 7    1  0.1631716E-009  0.4778727E+02  0.7816164E-02  0.1312668E+00
        -11   -1    0    0    0    0  0.00000000000E+00  0.00000000000E+00  0.45593999997E+02  0.45594000000E+02  0.51100000000E-03 0. -1.
         11   -1    0    0    0    0 -0.00000000000E+00 -0.00000000000E+00 -0.45593999997E+02  0.45594000000E+02  0.51100000000E-03 0.  1.
    9900012    2    1    2    0    0  0.34296990417E+02 -0.21091254359E+02 -0.16201808319E+02  0.47787272415E+02  0.20000006248E+02 0.  0.
         12    1    1    2    0    0 -0.34296990417E+02  0.21091254359E+02  0.16201808319E+02  0.43400727585E+02  0.00000000000E+00 0. -1.
         11    1    3    3    0    0  0.15466545428E+02 -0.16709290033E+02 -0.41042617264E+00  0.22772414251E+02  0.51100000000E-03 0. -1.
        -11    1    3    3    0    0  0.75502103778E+01 -0.16045677729E+01 -0.53165936631E+01  0.93726454604E+01  0.51100000000E-03 0.  1.
         12    1    3    3    0    0  0.11280234611E+02 -0.27773965523E+01 -0.10474788483E+02  0.15642212704E+02  0.00000000000E+00 0. -1.
</event>
<event>
 7    1  0.1631716E-009  0.4778727E+02  0.7816164E-02  0.1312668E+00
        -11   -1    0    0    0    0  0.00000000000E+00  0.00000000000E+00  0.45593999997E+02  0.45594000000E+02  0.51100000000E-03 0. -1.
         11   -1    0    0    0    0 -0.00000000000E+00 -0.00000000000E+00 -0.45593999997E+02  0.45594000000E+02  0.51100000000E-03 0.  1.
    9900012    2    1    2    0    0  0.11002113202E+02  0.32789240047E+02 -0.26219133485E+02  0.47787265922E+02  0.19999976647E+02 0.  0.
         12    1    1    2    0    0 -0.11002113202E+02 -0.32789240047E+02  0.26219133485E+02  0.43400734078E+02  0.00000000000E+00 0. -1.
         11    1    3    3    0    0  0.11338291207E+02  0.17823134406E+02 -0.21407649991E+02  0.30075046899E+02  0.51100000000E-03 0.  1.
        -11    1    3    3    0    0 -0.11541549162E+00  0.12455315368E+02 -0.70746655539E+01  0.14324772061E+02  0.51100000000E-03 0. -1.
         12    1    3    3    0    0 -0.22076251412E+00  0.25107902731E+01  0.22631820603E+01  0.33874469621E+01  0.00000000000E+00 0. -1.
</event>
<event>
 7    1  0.1631716E-009  0.4778727E+02  0.7816164E-02  0.1312668E+00
        -11   -1    0    0    0    0  0.00000000000E+00  0.00000000000E+00  0.45593999997E+02  0.45594000000E+02  0.51100000000E-03 0.  1.
         11   -1    0    0    0    0 -0.00000000000E+00 -0.00000000000E+00 -0.45593999997E+02  0.45594000000E+02  0.51100000000E-03 0. -1.
    9900012    2    1    2    0    0 -0.84859546708E+01 -0.35574701726E+02  0.23367762871E+02  0.47787272228E+02  0.20000005396E+02 0.  0.
         12    1    1    2    0    0  0.84859546708E+01  0.35574701726E+02 -0.23367762871E+02  0.43400727772E+02  0.00000000000E+00 0. -1.
         11    1    3    3    0    0  0.21196867494E+01 -0.68621204511E+01  0.88293377593E+01  0.11381518990E+02  0.51100000000E-03 0. -1.
        -11    1    3    3    0    0 -0.40799969148E-01 -0.38188775259E+01  0.75711768081E+01  0.84798707959E+01  0.51100000000E-03 0.  1.
        -12    1    3    3    0    0 -0.10564841451E+02 -0.24893703749E+02  0.69672483033E+01  0.27925882442E+02  0.00000000000E+00 0.  1.
</event>
<event>
 7    1  0.1631716E-009  0.4778727E+02  0.7816164E-02  0.1312668E+00
        -11   -1    0    0    0    0  0.00000000000E+00  0.00000000000E+00  0.45593999997E+02  0.45594000000E+02  0.51100000000E-03 0.  1.
         11   -1    0    0    0    0 -0.00000000000E+00 -0.00000000000E+00 -0.45593999997E+02  0.45594000000E+02  0.51100000000E-03 0. -1.
    9900012    2    1    2    0    0 -0.21030955685E+01 -0.12595788345E+02  0.41479474778E+02  0.47787265872E+02  0.19999976415E+02 0.  0.
         12    1    1    2    0    0  0.21030955685E+01  0.12595788345E+02 -0.41479474778E+02  0.43400734128E+02  0.00000000000E+00 0. -1.
         11    1    3    3    0    0 -0.75937796657E+01 -0.13169140167E+02  0.19046975312E+02  0.24369632971E+02  0.51100000000E-03 0. -1.
        -11    1    3    3    0    0  0.28467155132E+01 -0.16288509516E+01  0.10960405418E+02  0.11440604522E+02  0.51100000000E-03 0.  1.
         12    1    3    3    0    0  0.26439685840E+01  0.22022027737E+01  0.11472094048E+02  0.11977028379E+02  0.00000000000E+00 0. -1.
</event>
<event>
 7    1  0.1631716E-009  0.4778727E+02  0.7816164E-02  0.1312668E+00
        -11   -1    0    0    0    0  0.00000000000E+00  0.00000000000E+00  0.45593999997E+02  0.45594000000E+02  0.51100000000E-03 0.  1.
         11   -1    0    0    0    0 -0.00000000000E+00 -0.00000000000E+00 -0.45593999997E+02  0.45594000000E+02  0.51100000000E-03 0. -1.
    9900012    2    1    2    0    0  0.47821538764E+01 -0.20044962106E+02  0.38196254844E+02  0.47787269757E+02  0.19999994131E+02 0.  0.
         12    1    1    2    0    0 -0.47821538764E+01  0.20044962106E+02 -0.38196254844E+02  0.43400730243E+02  0.00000000000E+00 0. -1.
         11    1    3    3    0    0 -0.41822721027E+01 -0.14356328188E+02  0.26144279666E+02  0.30118414940E+02  0.51100000000E-03 0. -1.
        -11    1    3    3    0    0  0.58667518937E+01 -0.52625747517E+01  0.12216043501E+02  0.14537716116E+02  0.51100000000E-03 0.  1.
         12    1    3    3    0    0  0.30976740853E+01 -0.42605916671E+00 -0.16406832305E+00  0.31311387013E+01  0.00000000000E+00 0. -1.
</event>
<event>
 7    1  0.1631716E-009  0.4778727E+02  0.7816164E-02  0.1312668E+00
        -11   -1    0    0    0    0  0.00000000000E+00  0.00000000000E+00  0.45593999997E+02  0.45594000000E+02  0.51100000000E-03 0. -1.
         11   -1    0    0    0    0 -0.00000000000E+00 -0.00000000000E+00 -0.45593999997E+02  0.45594000000E+02  0.51100000000E-03 0.  1.
    9900012    2    1    2    0    0 -0.53170246768E+01 -0.16426420878E+02 -0.39818653524E+02  0.47787271634E+02  0.20000002686E+02 0.  0.
         12    1    1    2    0    0  0.53170246768E+01  0.16426420878E+02  0.39818653524E+02  0.43400728366E+02  0.00000000000E+00 0. -1.
         11    1    3    3    0    0 -0.21649776065E+01  0.17075271640E+00 -0.46493795840E+01  0.51315704520E+01  0.51100000000E-03 0. -1.
        -11    1    3    3    0    0 -0.61825842223E+00 -0.70886769039E+01 -0.31272683923E+02  0.32071986900E+02  0.51100000000E-03 0.  1.
        -12    1    3    3    0    0 -0.25337886480E+01 -0.95084966908E+01 -0.38965900173E+01  0.10583714282E+02  0.00000000000E+00 0.  1.
</event>
<event>
 7    1  0.1631716E-009  0.4778727E+02  0.7816164E-02  0.1312668E+00
        -11   -1    0    0    0    0  0.00000000000E+00  0.00000000000E+00  0.45593999997E+02  0.45594000000E+02  0.51100000000E-03 0.  1.
         11   -1    0    0    0    0 -0.00000000000E+00 -0.00000000000E+00 -0.45593999997E+02  0.45594000000E+02  0.51100000000E-03 0. -1.
    9900012    2    1    2    0    0  0.40735884447E+01 -0.36940074028E+02  0.22415626116E+02  0.47787268599E+02  0.19999988849E+02 0.  0.
         12    1    1    2    0    0 -0.40735884447E+01  0.36940074028E+02 -0.22415626116E+02  0.43400731401E+02  0.00000000000E+00 0. -1.
         11    1    3    3    0    0  0.77390694569E+01 -0.44160115833E+01  0.24311056067E+01  0.92360505139E+01  0.51100000000E-03 0. -1.
        -11    1    3    3    0    0  0.60997060964E+00 -0.11254273040E+02  0.69641713187E+01  0.13248788934E+02  0.51100000000E-03 0.  1.
         12    1    3    3    0    0 -0.42754516219E+01 -0.21269789404E+02  0.13020349191E+02  0.25302429151E+02  0.00000000000E+00 0. -1.
</event>
<event>
 7    1  0.1631716E-009  0.4778726E+02  0.7816164E-02  0.1312668E+00
        -11   -1    0    0    0    0  0.00000000000E+00  0.00000000000E+00  0.45593999997E+02  0.45594000000E+02  0.51100000000E-03 0.  1.
         11   -1    0    0    0    0 -0.00000000000E+00 -0.00000000000E+00 -0.45593999997E+02  0.45594000000E+02  0.51100000000E-03 0. -1.
    9900012    2    1    2    0    0 -0.75960769537E+01 -0.27899751473E+02  0.32365526644E+02  0.47787264611E+02  0.19999970668E+02 0.  0.
         12    1    1    2    0    0  0.75960769537E+01  0.27899751473E+02 -0.32365526644E+02  0.43400735389E+02  0.00000000000E+00 0. -1.
         11    1    3    3    0    0  0.54264968647E+01 -0.16578317043E+02  0.12658420644E+02  0.21552797444E+02  0.51100000000E-03 0. -1.
        -11    1    3    3    0    0 -0.56062990835E+01 -0.56982966455E+01  0.96711142930E+01  0.12547176017E+02  0.51100000000E-03 0.  1.
         12    1    3    3    0    0 -0.74162747348E+01 -0.56231377844E+01  0.10035991707E+02  0.13687291150E+02  0.00000000000E+00 0. -1.
</event>
<event>
 7    1  0.1631716E-009  0.4778727E+02  0.7816164E-02  0.1312668E+00
        -11   -1    0    0    0    0  0.00000000000E+00  0.00000000000E+00  0.45593999997E+02  0.45594000000E+02  0.51100000000E-03 0.  1.
         11   -1    0    0    0    0 -0.00000000000E+00 -0.00000000000E+00 -0.45593999997E+02  0.45594000000E+02  0.51100000000E-03 0. -1.
    9900012    2    1    2    0    0 -0.49496235122E+01  0.31001005633E+02  0.29967686015E+02  0.47787270418E+02  0.19999997142E+02 0.  0.
         12    1    1    2    0    0  0.49496235122E+01 -0.31001005633E+02 -0.29967686015E+02  0.43400729582E+02  0.00000000000E+00 0. -1.
         11    1    3    3    0    0 -0.62451563373E+01  0.73798081727E+01  0.82563273176E+01  0.12713397948E+02  0.51100000000E-03 0. -1.
        -11    1    3    3    0    0  0.15218291417E+01  0.14259384867E+02  0.37573975421E+01  0.14824441213E+02  0.51100000000E-03 0.  1.
         12    1    3    3    0    0 -0.22629631666E+00  0.93618125929E+01  0.17953961156E+02  0.20249431257E+02  0.00000000000E+00 0. -1.
</event>
<event>
 7    1  0.1631716E-009  0.4778727E+02  0.7816164E-02  0.1312668E+00
        -11   -1    0    0    0    0  0.00000000000E+00  0.00000000000E+00  0.45593999997E+02  0.45594000000E+02  0.51100000000E-03 0.  1.
         11   -1    0    0    0    0 -0.00000000000E+00 -0.00000000000E+00 -0.45593999997E+02  0.45594000000E+02  0.51100000000E-03 0. -1.
    9900012    2    1    2    0    0  0.14950058983E+02  0.38992836587E+02  0.11818529993E+02  0.47787271667E+02  0.20000002838E+02 0.  0.
         12    1    1    2    0    0 -0.14950058983E+02 -0.38992836587E+02 -0.11818529993E+02  0.43400728333E+02  0.00000000000E+00 0. -1.
         11    1    3    3    0    0  0.72828660416E+01  0.14669271463E+02  0.74620904078E+01  0.17997512510E+02  0.51100000000E-03 0.  1.
        -11    1    3    3    0    0  0.54542840597E+01  0.11982146110E+02 -0.50654518337E+01  0.14106021500E+02  0.51100000000E-03 0. -1.
         12    1    3    3    0    0  0.22129088816E+01  0.12341419013E+02  0.94218914191E+01  0.15683737657E+02  0.00000000000E+00 0. -1.
</event>
<event>
 7    1  0.1647196E-009  0.4778727E+02  0.7816164E-02  0.1312668E+00
        -11   -1    0    0    0    0  0.00000000000E+00  0.00000000000E+00  0.45593999997E+02  0.45594000000E+02  0.51100000000E-03 0.  1.
         11   -1    0    0    0    0 -0.00000000000E+00 -0.00000000000E+00 -0.45593999997E+02  0.45594000000E+02  0.51100000000E-03 0. -1.
    9900012    2    1    2    0    0 -0.32564509681E+02  0.26601019519E+02  0.10749976809E+02  0.47787268075E+02  0.19999986462E+02 0.  0.
         12    1    1    2    0    0  0.32564509681E+02 -0.26601019519E+02 -0.10749976809E+02  0.43400731925E+02  0.00000000000E+00 0. -1.
         11    1    3    3    0    0  0.22355935977E+01  0.14323048055E+00 -0.36552950358E+00  0.22698030275E+01  0.51100000000E-03 0. -1.
        -11    1    3    3    0    0 -0.12191746778E+02  0.12564198500E+02  0.29540185084E+01  0.17754548686E+02  0.51100000000E-03 0.  1.
         12    1    3    3    0    0 -0.22608356500E+02  0.13893590539E+02  0.81614878045E+01  0.27762916362E+02  0.00000000000E+00 0. -1.
</event>
<event>
 7    1  0.1631716E-009  0.4778727E+02  0.7816164E-02  0.1312668E+00
        -11   -1    0    0    0    0  0.00000000000E+00  0.00000000000E+00  0.45593999997E+02  0.45594000000E+02  0.51100000000E-03 0.  1.
         11   -1    0    0    0    0 -0.00000000000E+00 -0.00000000000E+00 -0.45593999997E+02  0.45594000000E+02  0.51100000000E-03 0. -1.
    9900012    2    1    2    0    0 -0.22224280321E+01 -0.19814898956E+02  0.38549373201E+02  0.47787267504E+02  0.19999983858E+02 0.  0.
         12    1    1    2    0    0  0.22224280321E+01  0.19814898956E+02 -0.38549373201E+02  0.43400732496E+02  0.00000000000E+00 0. -1.
         11    1    3    3    0    0  0.18529090768E+01 -0.20787571213E+01  0.16750766450E+02  0.16980656058E+02  0.51100000000E-03 0.  1.
        -11    1    3    3    0    0 -0.57477456241E+01 -0.13595460445E+02  0.21816741866E+02  0.26340906408E+02  0.51100000000E-03 0. -1.
         12    1    3    3    0    0  0.16724085152E+01 -0.41406813892E+01 -0.18135115120E-01  0.44657050386E+01  0.00000000000E+00 0. -1.
</event>
<event>
 7    1  0.1752069E-009  0.4778730E+02  0.7816164E-02  0.1312668E+00
        -11   -1    0    0    0    0  0.00000000000E+00  0.00000000000E+00  0.45593999997E+02  0.45594000000E+02  0.51100000000E-03 0. -1.
         11   -1    0    0    0    0 -0.00000000000E+00 -0.00000000000E+00 -0.45593999997E+02  0.45594000000E+02  0.51100000000E-03 0.  1.
    9900012    2    1    2    0    0 -0.93554384610E+01  0.38748876820E+02 -0.17164523879E+02  0.47787302268E+02  0.20000142359E+02 0.  0.
         12    1    1    2    0    0  0.93554384610E+01 -0.38748876820E+02  0.17164523879E+02  0.43400697732E+02  0.00000000000E+00 0. -1.
         11    1    3    3    0    0 -0.50169374426E+01  0.21979311469E+02 -0.13942148294E+02  0.26507419589E+02  0.51100000000E-03 0. -1.
        -11    1    3    3    0    0 -0.82892291204E+01  0.13471989428E+02 -0.16758152019E+01  0.15906419314E+02  0.51100000000E-03 0.  1.
         12    1    3    3    0    0  0.39507281020E+01  0.32975759231E+01 -0.15465603839E+01  0.53734633641E+01  0.00000000000E+00 0. -1.
</event>
<event>
 7    1  0.1631716E-009  0.4778727E+02  0.7816164E-02  0.1312668E+00
        -11   -1    0    0    0    0  0.00000000000E+00  0.00000000000E+00  0.45593999997E+02  0.45594000000E+02  0.51100000000E-03 0.  1.
         11   -1    0    0    0    0 -0.00000000000E+00 -0.00000000000E+00 -0.45593999997E+02  0.45594000000E+02  0.51100000000E-03 0. -1.
    9900012    2    1    2    0    0 -0.10270348050E+02  0.38594408747E+02 -0.16988676553E+02  0.47787267671E+02  0.19999984621E+02 0.  0.
         12    1    1    2    0    0  0.10270348050E+02 -0.38594408747E+02  0.16988676553E+02  0.43400732329E+02  0.00000000000E+00 0. -1.
         11    1    3    3    0    0 -0.51392869354E+01  0.24559613420E+02 -0.12106080471E+02  0.27859362271E+02  0.51100000000E-03 0. -1.
        -11    1    3    3    0    0 -0.88179530910E+01  0.11442731965E+02 -0.20148998277E+01  0.14586028696E+02  0.51100000000E-03 0.  1.
         12    1    3    3    0    0  0.36868919759E+01  0.25920633628E+01 -0.28676962545E+01  0.53418767046E+01  0.00000000000E+00 0. -1.
</event>
<event>
 7    1  0.1631716E-009  0.4778726E+02  0.7816164E-02  0.1312668E+00
        -11   -1    0    0    0    0  0.00000000000E+00  0.00000000000E+00  0.45593999997E+02  0.45594000000E+02  0.51100000000E-03 0. -1.
         11   -1    0    0    0    0 -0.00000000000E+00 -0.00000000000E+00 -0.45593999997E+02  0.45594000000E+02  0.51100000000E-03 0.  1.
    9900012    2    1    2    0    0  0.11309344471E+02 -0.29698338589E+02 -0.29558950010E+02  0.47787261378E+02  0.19999955925E+02 0.  0.
         12    1    1    2    0    0 -0.11309344471E+02  0.29698338589E+02  0.29558950010E+02  0.43400738622E+02  0.00000000000E+00 0. -1.
         11    1    3    3    0    0  0.58221984793E+00 -0.10605582425E+02 -0.35676609981E+01  0.11204711678E+02  0.51100000000E-03 0. -1.
        -11    1    3    3    0    0  0.37839796684E+01 -0.12983138410E+02 -0.64914372847E+01  0.15000638099E+02  0.51100000000E-03 0.  1.
         12    1    3    3    0    0  0.69431449547E+01 -0.61096177539E+01 -0.19499851727E+02  0.21581911601E+02  0.00000000000E+00 0. -1.
</event>
<event>
 7    1  0.1631716E-009  0.4778727E+02  0.7816164E-02  0.1312668E+00
        -11   -1    0    0    0    0  0.00000000000E+00  0.00000000000E+00  0.45593999997E+02  0.45594000000E+02  0.51100000000E-03 0.  1.
         11   -1    0    0    0    0 -0.00000000000E+00 -0.00000000000E+00 -0.45593999997E+02  0.45594000000E+02  0.51100000000E-03 0. -1.
    9900012    2    1    2    0    0  0.41993288360E+02  0.72661130463E+01  0.82091858340E+01  0.47787269613E+02  0.19999993473E+02 0.  0.
         12    1    1    2    0    0 -0.41993288360E+02 -0.72661130463E+01 -0.82091858340E+01  0.43400730387E+02  0.00000000000E+00 0. -1.
         11    1    3    3    0    0  0.42118144331E+01  0.48464275305E+01 -0.98323001898E+00  0.64956895060E+01  0.51100000000E-03 0. -1.
        -11    1    3    3    0    0  0.22822467471E+02 -0.88958304265E+00 -0.10476732319E+01  0.22863814182E+02  0.51100000000E-03 0.  1.
        -12    1    3    3    0    0  0.14959006455E+02  0.33092685585E+01  0.10240089085E+02  0.18427765925E+02  0.00000000000E+00 0.  1.
</event>
<event>
 7    1  0.1631716E-009  0.4778729E+02  0.7816164E-02  0.1312668E+00
        -11   -1    0    0    0    0  0.00000000000E+00  0.00000000000E+00  0.45593999997E+02  0.45594000000E+02  0.51100000000E-03 0. -1.
         11   -1    0    0    0    0 -0.00000000000E+00 -0.00000000000E+00 -0.45593999997E+02  0.45594000000E+02  0.51100000000E-03 0.  1.
    9900012    2    1    2    0    0 -0.40821077171E+02  0.11255498711E+02 -0.95170827535E+01  0.47787291979E+02  0.20000095448E+02 0.  0.
         12    1    1    2    0    0  0.40821077171E+02 -0.11255498711E+02  0.95170827535E+01  0.43400708021E+02  0.00000000000E+00 0. -1.
         11    1    3    3    0    0 -0.74534249052E+01  0.70013960528E+01 -0.88520628719E-01  0.10226481588E+02  0.51100000000E-03 0.  1.
        -11    1    3    3    0    0 -0.76759427230E+01  0.54718008892E+01  0.16250637612E+01  0.95656434257E+01  0.51100000000E-03 0. -1.
        -12    1    3    3    0    0 -0.25691709542E+02 -0.12176982310E+01 -0.11053625886E+02  0.27995166965E+02  0.00000000000E+00 0.  1.
</event>
<event>
 7    1  0.1631716E-009  0.4778727E+02  0.7816164E-02  0.1312668E+00
        -11   -1    0    0    0    0  0.00000000000E+00  0.00000000000E+00  0.45593999997E+02  0.45594000000E+02  0.51100000000E-03 0.  1.
         11   -1    0    0    0    0 -0.00000000000E+00 -0.00000000000E+00 -0.45593999997E+02  0.45594000000E+02  0.51100000000E-03 0. -1.
    9900012    2    1    2    0    0 -0.10408538050E+02  0.22637187886E+02  0.35536506142E+02  0.47787271798E+02  0.20000003434E+02 0.  0.
         12    1    1    2    0    0  0.10408538050E+02 -0.22637187886E+02 -0.35536506142E+02  0.43400728202E+02  0.00000000000E+00 0. -1.
         11    1    3    3    0    0 -0.11326463613E+01  0.91011054804E+01  0.28875827083E+01  0.96151517359E+01  0.51100000000E-03 0. -1.
        -11    1    3    3    0    0 -0.10458794867E+02  0.79661713535E+01  0.16809131794E+02  0.21339943487E+02  0.51100000000E-03 0.  1.
        -12    1    3    3    0    0  0.11829031783E+01  0.55699110522E+01  0.15839791639E+02  0.16832176575E+02  0.00000000000E+00 0.  1.
</event>
<event>
 7    1  0.1631716E-009  0.4778727E+02  0.7816164E-02  0.1312668E+00
        -11   -1    0    0    0    0  0.00000000000E+00  0.00000000000E+00  0.45593999997E+02  0.45594000000E+02  0.51100000000E-03 0.  1.
         11   -1    0    0    0    0 -0.00000000000E+00 -0.00000000000E+00 -0.45593999997E+02  0.45594000000E+02  0.51100000000E-03 0. -1.
    9900012    2    1    2    0    0 -0.42229972611E+02  0.99727194182E+01 -0.89289092751E+00  0.47787274505E+02  0.20000015776E+02 0.  0.
         12    1    1    2    0    0  0.42229972611E+02 -0.99727194182E+01  0.89289092751E+00  0.43400725495E+02  0.00000000000E+00 0. -1.
         11    1    3    3    0    0  0.76736286160E+00 -0.13916160919E+01  0.13528268059E+00  0.15949115252E+01  0.51100000000E-03 0. -1.
        -11    1    3    3    0    0 -0.28180970093E+02  0.49741380481E+01  0.48395499419E+01  0.29022928326E+02  0.51100000000E-03 0.  1.
         12    1    3    3    0    0 -0.14816365380E+02  0.63901974620E+01 -0.58677235500E+01  0.17169434654E+02  0.00000000000E+00 0. -1.
</event>
<event>
 7    1  0.1631716E-009  0.4778727E+02  0.7816164E-02  0.1312668E+00
        -11   -1    0    0    0    0  0.00000000000E+00  0.00000000000E+00  0.45593999997E+02  0.45594000000E+02  0.51100000000E-03 0.  1.
         11   -1    0    0    0    0 -0.00000000000E+00 -0.00000000000E+00 -0.45593999997E+02  0.45594000000E+02  0.51100000000E-03 0. -1.
    9900012    2    1    2    0    0  0.26808771822E+02 -0.11606749827E+02  0.32096670350E+02  0.47787272636E+02  0.20000007257E+02 0.  0.
         12    1    1    2    0    0 -0.26808771822E+02  0.11606749827E+02 -0.32096670350E+02  0.43400727364E+02  0.00000000000E+00 0. -1.
         11    1    3    3    0    0 -0.16571826782E+01 -0.14835992655E+01  0.84330964636E+01  0.87214928444E+01  0.51100000000E-03 0. -1.
        -11    1    3    3    0    0  0.96596900926E+01 -0.67366796496E+01  0.69208086090E+01  0.13659797123E+02  0.51100000000E-03 0.  1.
         12    1    3    3    0    0  0.18806264408E+02 -0.33864709116E+01  0.16742765278E+02  0.25405982668E+02  0.00000000000E+00 0. -1.
</event>
<event>
 7    1  0.1631716E-009  0.4778727E+02  0.7816164E-02  0.1312668E+00
        -11   -1    0    0    0    0  0.00000000000E+00  0.00000000000E+00  0.45593999997E+02  0.45594000000E+02  0.51100000000E-03 0.  1.
         11   -1    0    0    0    0 -0.00000000000E+00 -0.00000000000E+00 -0.45593999997E+02  0.45594000000E+02  0.51100000000E-03 0. -1.
    9900012    2    1    2    0    0  0.18603543903E+02 -0.56230516978E+01  0.38806094201E+02  0.47787268401E+02  0.19999987949E+02 0.  0.
         12    1    1    2    0    0 -0.18603543903E+02  0.56230516978E+01 -0.38806094201E+02  0.43400731599E+02  0.00000000000E+00 0. -1.
         11    1    3    3    0    0 -0.10702777540E+01 -0.24960333931E+01  0.11733509813E+02  0.12043709145E+02  0.51100000000E-03 0. -1.
        -11    1    3    3    0    0  0.19350555993E+02 -0.61294467231E+01  0.24051332817E+02  0.31471904056E+02  0.51100000000E-03 0.  1.
         12    1    3    3    0    0  0.32326566394E+00  0.30024284184E+01  0.30212515709E+01  0.42716552005E+01  0.00000000000E+00 0. -1.
</event>
<event>
 7    1  0.1631716E-009  0.4778727E+02  0.7816164E-02  0.1312668E+00
        -11   -1    0    0    0    0  0.00000000000E+00  0.00000000000E+00  0.45593999997E+02  0.45594000000E+02  0.51100000000E-03 0. -1.
         11   -1    0    0    0    0 -0.00000000000E+00 -0.00000000000E+00 -0.45593999997E+02  0.45594000000E+02  0.51100000000E-03 0.  1.
    9900012    2    1    2    0    0 -0.31173415419E+02  0.14045285011E+02 -0.26731474566E+02  0.47787267375E+02  0.19999983269E+02 0.  0.
         12    1    1    2    0    0  0.31173415419E+02 -0.14045285011E+02  0.26731474566E+02  0.43400732625E+02  0.00000000000E+00 0. -1.
         11    1    3    3    0    0 -0.28865926850E+01 -0.28899515062E+01 -0.41292210176E+01  0.58081583579E+01  0.51100000000E-03 0. -1.
        -11    1    3    3    0    0 -0.16930654652E+02  0.90922347191E+01 -0.20359353567E+02  0.27996769046E+02  0.51100000000E-03 0.  1.
        -12    1    3    3    0    0 -0.11356168082E+02  0.78430017982E+01 -0.22428999815E+01  0.13982339970E+02  0.00000000000E+00 0.  1.
</event>
<event>
 7    1  0.1631716E-009  0.4778727E+02  0.7816164E-02  0.1312668E+00
        -11   -1    0    0    0    0  0.00000000000E+00  0.00000000000E+00  0.45593999997E+02  0.45594000000E+02  0.51100000000E-03 0. -1.
         11   -1    0    0    0    0 -0.00000000000E+00 -0.00000000000E+00 -0.45593999997E+02  0.45594000000E+02  0.51100000000E-03 0.  1.
    9900012    2    1    2    0    0  0.17331338330E+02 -0.35467429254E+02  0.18036336312E+02  0.47787271276E+02  0.20000001056E+02 0.  0.
         12    1    1    2    0    0 -0.17331338330E+02  0.35467429254E+02 -0.18036336312E+02  0.43400728724E+02  0.00000000000E+00 0. -1.
         11    1    3    3    0    0  0.14359236933E+02 -0.14347157822E+02  0.12799968182E+02  0.23997245854E+02  0.51100000000E-03 0. -1.
        -11    1    3    3    0    0  0.36424878767E+01 -0.16816480431E+02  0.76273761326E+01  0.18821227350E+02  0.51100000000E-03 0.  1.
         12    1    3    3    0    0 -0.67038647988E+00 -0.43037910009E+01 -0.23910080025E+01  0.49687980720E+01  0.00000000000E+00 0. -1.
</event>
<event>
 7    1  0.1631716E-009  0.4778727E+02  0.7816164E-02  0.1312668E+00
        -11   -1    0    0    0    0  0.00000000000E+00  0.00000000000E+00  0.45593999997E+02  0.45594000000E+02  0.51100000000E-03 0.  1.
         11   -1    0    0    0    0 -0.00000000000E+00 -0.00000000000E+00 -0.45593999997E+02  0.45594000000E+02  0.51100000000E-03 0. -1.
    9900012    2    1    2    0    0  0.27222707041E+02  0.31940526760E+01 -0.33650344343E+02  0.47787269297E+02  0.19999992034E+02 0.  0.
         12    1    1    2    0    0 -0.27222707041E+02 -0.31940526760E+01  0.33650344343E+02  0.43400730703E+02  0.00000000000E+00 0. -1.
         11    1    3    3    0    0  0.11288152890E+02  0.81369188563E+01 -0.15655537272E+02  0.20945827548E+02  0.51100000000E-03 0. -1.
        -11    1    3    3    0    0  0.13992283099E+02  0.25520565287E-01 -0.15711149306E+02  0.21038651345E+02  0.51100000000E-03 0.  1.
         12    1    3    3    0    0  0.19422710526E+01 -0.49683867456E+01 -0.22836577648E+01  0.58027904048E+01  0.00000000000E+00 0. -1.
</event>
<event>
 7    1  0.1631716E-009  0.4778727E+02  0.7816164E-02  0.1312668E+00
        -11   -1    0    0    0    0  0.00000000000E+00  0.00000000000E+00  0.45593999997E+02  0.45594000000E+02  0.51100000000E-03 0. -1.
         11   -1    0    0    0    0 -0.00000000000E+00 -0.00000000000E+00 -0.45593999997E+02  0.45594000000E+02  0.51100000000E-03 0.  1.
    9900012    2    1    2    0    0 -0.39777417076E+02 -0.17360271449E+02 -0.37556027955E-01  0.47787270231E+02  0.19999996293E+02 0.  0.
         12    1    1    2    0    0  0.39777417076E+02  0.17360271449E+02  0.37556027955E-01  0.43400729769E+02  0.00000000000E+00 0. -1.
         11    1    3    3    0    0  0.39411092743E+00 -0.37269442119E+01  0.16286472575E+01  0.40863099163E+01  0.51100000000E-03 0. -1.
        -11    1    3    3    0    0 -0.24098585710E+02 -0.13328060443E+02  0.30959127889E-02  0.27538682580E+02  0.51100000000E-03 0.  1.
        -12    1    3    3    0    0 -0.16072942293E+02 -0.30526679419E+00 -0.16692991982E+01  0.16162277735E+02  0.00000000000E+00 0.  1.
</event>
<event>
 7    1  0.1631716E-009  0.4778726E+02  0.7816164E-02  0.1312668E+00
        -11   -1    0    0    0    0  0.00000000000E+00  0.00000000000E+00  0.45593999997E+02  0.45594000000E+02  0.51100000000E-03 0.  1.
         11   -1    0    0    0    0 -0.00000000000E+00 -0.00000000000E+00 -0.45593999997E+02  0.45594000000E+02  0.51100000000E-03 0. -1.
    9900012    2    1    2    0    0 -0.29796588930E+02 -0.28419000699E+01  0.31427873543E+02  0.47787258724E+02  0.19999943826E+02 0.  0.
         12    1    1    2    0    0  0.29796588930E+02  0.28419000699E+01 -0.31427873543E+02  0.43400741276E+02  0.00000000000E+00 0. -1.
         11    1    3    3    0    0 -0.10441212220E+02  0.40376412031E-01  0.54792512566E+01  0.11791638455E+02  0.51100000000E-03 0. -1.
        -11    1    3    3    0    0 -0.68954669520E+01 -0.67083586593E+01  0.18827762246E+02  0.21143182633E+02  0.51100000000E-03 0.  1.
        -12    1    3    3    0    0 -0.12459909758E+02  0.38260821774E+01  0.71208600411E+01  0.14852437636E+02  0.00000000000E+00 0.  1.
</event>
<event>
 7    1  0.1631716E-009  0.4778724E+02  0.7816164E-02  0.1312668E+00
        -11   -1    0    0    0    0  0.00000000000E+00  0.00000000000E+00  0.45593999997E+02  0.45594000000E+02  0.51100000000E-03 0.  1.
         11   -1    0    0    0    0 -0.00000000000E+00 -0.00000000000E+00 -0.45593999997E+02  0.45594000000E+02  0.51100000000E-03 0. -1.
    9900012    2    1    2    0    0  0.21863636757E+02  0.47835988663E+01  0.37184998782E+02  0.47787244652E+02  0.19999879665E+02 0.  0.
         12    1    1    2    0    0 -0.21863636757E+02 -0.47835988663E+01 -0.37184998782E+02  0.43400755348E+02  0.00000000000E+00 0. -1.
         11    1    3    3    0    0  0.18047865806E+00  0.18154712258E+01  0.84933397071E+01  0.86870782177E+01  0.51100000000E-03 0. -1.
        -11    1    3    3    0    0  0.76575461893E+01  0.69497762770E+01  0.18879328280E+02  0.21525948075E+02  0.51100000000E-03 0.  1.
        -12    1    3    3    0    0  0.14025611910E+02 -0.39816486365E+01  0.98123307948E+01  0.17574218359E+02  0.00000000000E+00 0.  1.
</event>
<event>
 7    1  0.1631716E-009  0.4778727E+02  0.7816164E-02  0.1312668E+00
        -11   -1    0    0    0    0  0.00000000000E+00  0.00000000000E+00  0.45593999997E+02  0.45594000000E+02  0.51100000000E-03 0.  1.
         11   -1    0    0    0    0 -0.00000000000E+00 -0.00000000000E+00 -0.45593999997E+02  0.45594000000E+02  0.51100000000E-03 0. -1.
    9900012    2    1    2    0    0  0.42229139232E+02 -0.43997343304E+01 -0.89980859401E+01  0.47787269441E+02  0.19999992691E+02 0.  0.
         12    1    1    2    0    0 -0.42229139232E+02  0.43997343304E+01  0.89980859401E+01  0.43400730559E+02  0.00000000000E+00 0. -1.
         11    1    3    3    0    0  0.15327846257E+02 -0.37293202695E+01 -0.25927392326E+01  0.15986650604E+02  0.51100000000E-03 0. -1.
        -11    1    3    3    0    0  0.17392010765E+02  0.54214463768E+01 -0.88384251719E+01  0.20248256198E+02  0.51100000000E-03 0.  1.
         12    1    3    3    0    0  0.95092822102E+01 -0.60918604376E+01  0.24330784644E+01  0.11552362640E+02  0.00000000000E+00 0. -1.
</event>
<event>
 7    1  0.1631716E-009  0.4778727E+02  0.7816164E-02  0.1312668E+00
        -11   -1    0    0    0    0  0.00000000000E+00  0.00000000000E+00  0.45593999997E+02  0.45594000000E+02  0.51100000000E-03 0.  1.
         11   -1    0    0    0    0 -0.00000000000E+00 -0.00000000000E+00 -0.45593999997E+02  0.45594000000E+02  0.51100000000E-03 0. -1.
    9900012    2    1    2    0    0 -0.35763321680E+01 -0.37356644565E+02 -0.21801702300E+02  0.47787271111E+02  0.20000000302E+02 0.  0.
         12    1    1    2    0    0  0.35763321680E+01  0.37356644565E+02  0.21801702300E+02  0.43400728889E+02  0.00000000000E+00 0. -1.
         11    1    3    3    0    0  0.27069242697E+01 -0.24185067816E+01 -0.88226775325E+01  0.95402438731E+01  0.51100000000E-03 0. -1.
        -11    1    3    3    0    0 -0.18936631918E+01 -0.20727896354E+02 -0.51605833447E+01  0.21444422778E+02  0.51100000000E-03 0.  1.
        -12    1    3    3    0    0 -0.43895932458E+01 -0.14210241429E+02 -0.78184414232E+01  0.16802604460E+02  0.00000000000E+00 0.  1.
</event>
<event>
 7    1  0.1631716E-009  0.4778727E+02  0.7816164E-02  0.1312668E+00
        -11   -1    0    0    0    0  0.00000000000E+00  0.00000000000E+00  0.45593999997E+02  0.45594000000E+02  0.51100000000E-03 0. -1.
         11   -1    0    0    0    0 -0.00000000000E+00 -0.00000000000E+00 -0.45593999997E+02  0.45594000000E+02  0.51100000000E-03 0.  1.
    9900012    2    1    2    0    0  0.30086790095E+02  0.29700178077E+02 -0.98136382381E+01  0.47787274068E+02  0.20000013784E+02 0.  0.
         12    1    1    2    0    0 -0.30086790095E+02 -0.29700178077E+02  0.98136382381E+01  0.43400725932E+02  0.00000000000E+00 0. -1.
         11    1    3    3    0    0  0.14399198665E+02  0.18571125032E+02 -0.27925633849E+01  0.23664784336E+02  0.51100000000E-03 0.  1.
        -11    1    3    3    0    0  0.20444192742E+01  0.28344868093E+01 -0.73649388679E+01  0.81520727689E+01  0.51100000000E-03 0. -1.
         12    1    3    3    0    0  0.13643172156E+02  0.82945662352E+01  0.34386401478E+00  0.15970416963E+02  0.00000000000E+00 0. -1.
</event>
<event>
 7    1  0.1631716E-009  0.4778728E+02  0.7816164E-02  0.1312668E+00
        -11   -1    0    0    0    0  0.00000000000E+00  0.00000000000E+00  0.45593999997E+02  0.45594000000E+02  0.51100000000E-03 0.  1.
         11   -1    0    0    0    0 -0.00000000000E+00 -0.00000000000E+00 -0.45593999997E+02  0.45594000000E+02  0.51100000000E-03 0. -1.
    9900012    2    1    2    0    0  0.40758278469E+02  0.97731105336E+01  0.11263734097E+02  0.47787278127E+02  0.20000032291E+02 0.  0.
         12    1    1    2    0    0 -0.40758278469E+02 -0.97731105336E+01 -0.11263734097E+02  0.43400721873E+02  0.00000000000E+00 0. -1.
         11    1    3    3    0    0  0.57138459246E+01 -0.41755305254E+01 -0.53687221921E+00  0.70972757069E+01  0.51100000000E-03 0. -1.
        -11    1    3    3    0    0  0.16025295637E+02  0.53753714441E+01  0.10255604920E+02  0.19770739767E+02  0.51100000000E-03 0.  1.
        -12    1    3    3    0    0  0.19019136908E+02  0.85732696150E+01  0.15450013967E+01  0.20919262653E+02  0.00000000000E+00 0.  1.
</event>
<event>
 7    1  0.1631716E-009  0.4778727E+02  0.7816164E-02  0.1312668E+00
        -11   -1    0    0    0    0  0.00000000000E+00  0.00000000000E+00  0.45593999997E+02  0.45594000000E+02  0.51100000000E-03 0.  1.
         11   -1    0    0    0    0 -0.00000000000E+00 -0.00000000000E+00 -0.45593999997E+02  0.45594000000E+02  0.51100000000E-03 0. -1.
    9900012    2    1    2    0    0 -0.10577439538E+02 -0.34881517091E+02  0.23558877963E+02  0.47787271980E+02  0.20000004267E+02 0.  0.
         12    1    1    2    0    0  0.10577439538E+02  0.34881517091E+02 -0.23558877963E+02  0.43400728020E+02  0.00000000000E+00 0. -1.
         11    1    3    3    0    0  0.74933842827E+00 -0.81055361662E+01 -0.18713564274E+01  0.83524367559E+01  0.51100000000E-03 0. -1.
        -11    1    3    3    0    0 -0.28104469493E+01 -0.16745681908E+02  0.14109054664E+02  0.22076727529E+02  0.51100000000E-03 0.  1.
        -12    1    3    3    0    0 -0.85163310175E+01 -0.10030299017E+02  0.11321179727E+02  0.17358107695E+02  0.00000000000E+00 0.  1.
</event>
<event>
 7    1  0.2403524E-009  0.4778727E+02  0.7816164E-02  0.1312668E+00
        -11   -1    0    0    0    0  0.00000000000E+00  0.00000000000E+00  0.45593999997E+02  0.45594000000E+02  0.51100000000E-03 0. -1.
         11   -1    0    0    0    0 -0.00000000000E+00 -0.00000000000E+00 -0.45593999997E+02  0.45594000000E+02  0.51100000000E-03 0.  1.
    9900012    2    1    2    0    0  0.11357436389E+02 -0.27180986450E+02 -0.31872026646E+02  0.47787268805E+02  0.19999989791E+02 0.  0.
         12    1    1    2    0    0 -0.11357436389E+02  0.27180986450E+02  0.31872026646E+02  0.43400731195E+02  0.00000000000E+00 0. -1.
         11    1    3    3    0    0 -0.45293255172E+01 -0.10619879479E+01 -0.35191470790E+01  0.58332670491E+01  0.51100000000E-03 0. -1.
        -11    1    3    3    0    0  0.56617629422E+01 -0.83016213475E+01 -0.65335897488E+01  0.11985836303E+02  0.51100000000E-03 0.  1.
         12    1    3    3    0    0  0.10224998964E+02 -0.17817377154E+02 -0.21819289818E+02  0.29968165453E+02  0.00000000000E+00 0. -1.
</event>
<event>
 7    1  0.1631716E-009  0.4778727E+02  0.7816164E-02  0.1312668E+00
        -11   -1    0    0    0    0  0.00000000000E+00  0.00000000000E+00  0.45593999997E+02  0.45594000000E+02  0.51100000000E-03 0.  1.
         11   -1    0    0    0    0 -0.00000000000E+00 -0.00000000000E+00 -0.45593999997E+02  0.45594000000E+02  0.51100000000E-03 0. -1.
    9900012    2    1    2    0    0  0.42129069925E+02  0.76600353733E+01  0.70773322291E+01  0.47787270672E+02  0.19999998303E+02 0.  0.
         12    1    1    2    0    0 -0.42129069925E+02 -0.76600353733E+01 -0.70773322291E+01  0.43400729328E+02  0.00000000000E+00 0. -1.
         11    1    3    3    0    0  0.91720391178E+01  0.40983441291E+01 -0.33378158282E+01  0.10586016292E+02  0.51100000000E-03 0. -1.
        -11    1    3    3    0    0  0.19042934722E+02  0.86231885503E+01  0.63372549873E+01  0.21843844548E+02  0.51100000000E-03 0.  1.
         12    1    3    3    0    0  0.13914096085E+02 -0.50614973060E+01  0.40778930701E+01  0.15357409832E+02  0.00000000000E+00 0. -1.
</event>
<event>
 7    1  0.1692971E-009  0.4778727E+02  0.7816164E-02  0.1312668E+00
        -11   -1    0    0    0    0  0.00000000000E+00  0.00000000000E+00  0.45593999997E+02  0.45594000000E+02  0.51100000000E-03 0. -1.
         11   -1    0    0    0    0 -0.00000000000E+00 -0.00000000000E+00 -0.45593999997E+02  0.45594000000E+02  0.51100000000E-03 0.  1.
    9900012    2    1    2    0    0 -0.11356044614E+02 -0.42286047762E+00 -0.41886567078E+02  0.47787273487E+02  0.20000011136E+02 0.  0.
         12    1    1    2    0    0  0.11356044614E+02  0.42286047762E+00  0.41886567078E+02  0.43400726513E+02  0.00000000000E+00 0. -1.
         11    1    3    3    0    0  0.42592296115E+01 -0.30557436168E+01 -0.92277996695E+01  0.10612770276E+02  0.51100000000E-03 0. -1.
        -11    1    3    3    0    0 -0.52486499638E+01  0.22443867528E+01 -0.20049322997E+02  0.20846125569E+02  0.51100000000E-03 0.  1.
         12    1    3    3    0    0 -0.10366624262E+02  0.38849638642E+00 -0.12609444412E+02  0.16328377642E+02  0.00000000000E+00 0. -1.
</event>
<event>
 7    1  0.1631716E-009  0.4778727E+02  0.7816164E-02  0.1312668E+00
        -11   -1    0    0    0    0  0.00000000000E+00  0.00000000000E+00  0.45593999997E+02  0.45594000000E+02  0.51100000000E-03 0.  1.
         11   -1    0    0    0    0 -0.00000000000E+00 -0.00000000000E+00 -0.45593999997E+02  0.45594000000E+02  0.51100000000E-03 0. -1.
    9900012    2    1    2    0    0  0.22000711328E+02  0.14034819905E+02  0.34678757451E+02  0.47787266284E+02  0.19999978297E+02 0.  0.
         12    1    1    2    0    0 -0.22000711328E+02 -0.14034819905E+02 -0.34678757451E+02  0.43400733716E+02  0.00000000000E+00 0. -1.
         11    1    3    3    0    0  0.15906450708E+02  0.22959499493E+01  0.26403720539E+02  0.30910241326E+02  0.51100000000E-03 0. -1.
        -11    1    3    3    0    0  0.62510340997E+01  0.52112941527E+01  0.39608561437E+01  0.90510439018E+01  0.51100000000E-03 0.  1.
         12    1    3    3    0    0 -0.15677347980E+00  0.65275758028E+01  0.43141807687E+01  0.78259810562E+01  0.00000000000E+00 0. -1.
</event>
<event>
 7    1  0.1631716E-009  0.4778727E+02  0.7816164E-02  0.1312668E+00
        -11   -1    0    0    0    0  0.00000000000E+00  0.00000000000E+00  0.45593999997E+02  0.45594000000E+02  0.51100000000E-03 0.  1.
         11   -1    0    0    0    0 -0.00000000000E+00 -0.00000000000E+00 -0.45593999997E+02  0.45594000000E+02  0.51100000000E-03 0. -1.
    9900012    2    1    2    0    0 -0.11845884667E+02  0.10516764116E+00  0.41752687225E+02  0.47787274957E+02  0.20000017840E+02 0.  0.
         12    1    1    2    0    0  0.11845884667E+02 -0.10516764116E+00 -0.41752687225E+02  0.43400725043E+02  0.00000000000E+00 0. -1.
         11    1    3    3    0    0 -0.44350347677E+00  0.21209465366E+01  0.15964435872E+00  0.21726932888E+01  0.51100000000E-03 0. -1.
        -11    1    3    3    0    0 -0.12652696796E+02 -0.60182261370E+01  0.35952533339E+02  0.38586194887E+02  0.51100000000E-03 0.  1.
         12    1    3    3    0    0  0.12503156059E+01  0.40024472416E+01  0.56405095265E+01  0.70283867818E+01  0.00000000000E+00 0. -1.
</event>
<event>
 7    1  0.1631716E-009  0.4778727E+02  0.7816164E-02  0.1312668E+00
        -11   -1    0    0    0    0  0.00000000000E+00  0.00000000000E+00  0.45593999997E+02  0.45594000000E+02  0.51100000000E-03 0. -1.
         11   -1    0    0    0    0 -0.00000000000E+00 -0.00000000000E+00 -0.45593999997E+02  0.45594000000E+02  0.51100000000E-03 0.  1.
    9900012    2    1    2    0    0 -0.17085957165E+02 -0.39852406132E+02  0.18653233324E+01  0.47787266851E+02  0.19999980878E+02 0.  0.
         12    1    1    2    0    0  0.17085957165E+02  0.39852406132E+02 -0.18653233324E+01  0.43400733149E+02  0.00000000000E+00 0. -1.
         11    1    3    3    0    0  0.12944946248E+01  0.34338851213E+00 -0.26860021752E+01  0.30013730108E+01  0.51100000000E-03 0. -1.
        -11    1    3    3    0    0 -0.57874574243E+01 -0.19251615234E+02  0.15206465239E+01  0.20160151752E+02  0.51100000000E-03 0.  1.
        -12    1    3    3    0    0 -0.12592994365E+02 -0.20944179410E+02  0.30306789837E+01  0.24625742087E+02  0.00000000000E+00 0.  1.
</event>
<event>
 7    1  0.1631716E-009  0.4778727E+02  0.7816164E-02  0.1312668E+00
        -11   -1    0    0    0    0  0.00000000000E+00  0.00000000000E+00  0.45593999997E+02  0.45594000000E+02  0.51100000000E-03 0.  1.
         11   -1    0    0    0    0 -0.00000000000E+00 -0.00000000000E+00 -0.45593999997E+02  0.45594000000E+02  0.51100000000E-03 0. -1.
    9900012    2    1    2    0    0 -0.38510849003E+02  0.76178783810E+01  0.18506922929E+02  0.47787265464E+02  0.19999974557E+02 0.  0.
         12    1    1    2    0    0  0.38510849003E+02 -0.76178783810E+01 -0.18506922929E+02  0.43400734536E+02  0.00000000000E+00 0. -1.
         11    1    3    3    0    0 -0.26370826848E+01  0.42112654820E+01 -0.79110066563E+00  0.50313817754E+01  0.51100000000E-03 0. -1.
        -11    1    3    3    0    0 -0.23882681530E+02  0.72860448656E+01  0.16243729397E+02  0.29788045787E+02  0.51100000000E-03 0.  1.
         12    1    3    3    0    0 -0.11991084789E+02 -0.38794319666E+01  0.30542941968E+01  0.12967837901E+02  0.00000000000E+00 0. -1.
</event>
<event>
 7    1  0.1631716E-009  0.4778727E+02  0.7816164E-02  0.1312668E+00
        -11   -1    0    0    0    0  0.00000000000E+00  0.00000000000E+00  0.45593999997E+02  0.45594000000E+02  0.51100000000E-03 0.  1.
         11   -1    0    0    0    0 -0.00000000000E+00 -0.00000000000E+00 -0.45593999997E+02  0.45594000000E+02  0.51100000000E-03 0. -1.
    9900012    2    1    2    0    0 -0.40476089943E+02  0.76421382438E+01  0.13671400683E+02  0.47787270390E+02  0.19999997018E+02 0.  0.
         12    1    1    2    0    0  0.40476089943E+02 -0.76421382438E+01 -0.13671400683E+02  0.43400729610E+02  0.00000000000E+00 0. -1.
         11    1    3    3    0    0 -0.11067401284E+02  0.51245090526E+01  0.10405342691E+01  0.12240534141E+02  0.51100000000E-03 0. -1.
        -11    1    3    3    0    0 -0.84662387103E+01  0.17724666267E+01 -0.32637208480E+01  0.92450370403E+01  0.51100000000E-03 0.  1.
        -12    1    3    3    0    0 -0.20942449948E+02  0.74516256450E+00  0.15894587262E+02  0.26301699209E+02  0.00000000000E+00 0.  1.
</event>
<event>
 7    1  0.1631716E-009  0.4778727E+02  0.7816164E-02  0.1312668E+00
        -11   -1    0    0    0    0  0.00000000000E+00  0.00000000000E+00  0.45593999997E+02  0.45594000000E+02  0.51100000000E-03 0.  1.
         11   -1    0    0    0    0 -0.00000000000E+00 -0.00000000000E+00 -0.45593999997E+02  0.45594000000E+02  0.51100000000E-03 0. -1.
    9900012    2    1    2    0    0  0.86663373545E+01  0.17098126386E+02  0.38938049748E+02  0.47787273655E+02  0.20000011903E+02 0.  0.
         12    1    1    2    0    0 -0.86663373545E+01 -0.17098126386E+02 -0.38938049748E+02  0.43400726345E+02  0.00000000000E+00 0. -1.
         11    1    3    3    0    0  0.69347246628E+01  0.10038941681E+02  0.58465175752E+01  0.13529690471E+02  0.51100000000E-03 0. -1.
        -11    1    3    3    0    0  0.28513480056E+01  0.16771729206E+01  0.14356710185E+02  0.14732895916E+02  0.51100000000E-03 0.  1.
        -12    1    3    3    0    0 -0.11197353139E+01  0.53820117850E+01  0.18734821988E+02  0.19524687269E+02  0.00000000000E+00 0.  1.
</event>
<event>
 7    1  0.1631716E-009  0.4778727E+02  0.7816164E-02  0.1312668E+00
        -11   -1    0    0    0    0  0.00000000000E+00  0.00000000000E+00  0.45593999997E+02  0.45594000000E+02  0.51100000000E-03 0.  1.
         11   -1    0    0    0    0 -0.00000000000E+00 -0.00000000000E+00 -0.45593999997E+02  0.45594000000E+02  0.51100000000E-03 0. -1.
    9900012    2    1    2    0    0 -0.10888285858E+02 -0.68989487885E+01  0.41442410657E+02  0.47787266546E+02  0.19999979488E+02 0.  0.
         12    1    1    2    0    0  0.10888285858E+02  0.68989487885E+01 -0.41442410657E+02  0.43400733454E+02  0.00000000000E+00 0. -1.
         11    1    3    3    0    0  0.13773001791E+01 -0.89994233608E+00 -0.17990658976E+01  0.24379274716E+01  0.51100000000E-03 0. -1.
        -11    1    3    3    0    0 -0.53434594805E+01 -0.23793290833E+01  0.17939235129E+02  0.18868755216E+02  0.51100000000E-03 0.  1.
         12    1    3    3    0    0 -0.69221265566E+01 -0.36196773690E+01  0.25302241426E+02  0.26480583858E+02  0.00000000000E+00 0. -1.
</event>
<event>
 7    1  0.1631716E-009  0.4778727E+02  0.7816164E-02  0.1312668E+00
        -11   -1    0    0    0    0  0.00000000000E+00  0.00000000000E+00  0.45593999997E+02  0.45594000000E+02  0.51100000000E-03 0.  1.
         11   -1    0    0    0    0 -0.00000000000E+00 -0.00000000000E+00 -0.45593999997E+02  0.45594000000E+02  0.51100000000E-03 0. -1.
    9900012    2    1    2    0    0 -0.23705684876E+02 -0.36354680472E+02  0.30038230521E-01  0.47787272011E+02  0.20000004409E+02 0.  0.
         12    1    1    2    0    0  0.23705684876E+02  0.36354680472E+02 -0.30038230521E-01  0.43400727989E+02  0.00000000000E+00 0. -1.
         11    1    3    3    0    0  0.16014302062E+01 -0.93576405364E+01  0.34801330048E+01  0.10111446044E+02  0.51100000000E-03 0. -1.
        -11    1    3    3    0    0 -0.95398830729E+01 -0.14569006332E+02 -0.23104109974E+01  0.17567108863E+02  0.51100000000E-03 0.  1.
        -12    1    3    3    0    0 -0.15767232009E+02 -0.12428033603E+02 -0.11396837768E+01  0.20108717104E+02  0.00000000000E+00 0.  1.
</event>
<event>
 7    1  0.1631716E-009  0.4778727E+02  0.7816164E-02  0.1312668E+00
        -11   -1    0    0    0    0  0.00000000000E+00  0.00000000000E+00  0.45593999997E+02  0.45594000000E+02  0.51100000000E-03 0.  1.
         11   -1    0    0    0    0 -0.00000000000E+00 -0.00000000000E+00 -0.45593999997E+02  0.45594000000E+02  0.51100000000E-03 0. -1.
    9900012    2    1    2    0    0  0.25131433893E+02  0.27090514173E+02  0.22762649995E+02  0.47787272328E+02  0.20000005852E+02 0.  0.
         12    1    1    2    0    0 -0.25131433893E+02 -0.27090514173E+02 -0.22762649995E+02  0.43400727672E+02  0.00000000000E+00 0. -1.
         11    1    3    3    0    0  0.99732245259E+01  0.26725819016E+01  0.69701771459E+01  0.12457578865E+02  0.51100000000E-03 0. -1.
        -11    1    3    3    0    0  0.17399419293E+02  0.22466941075E+02  0.15431915727E+02  0.32336469446E+02  0.51100000000E-03 0.  1.
        -12    1    3    3    0    0 -0.22412099253E+01  0.19509911965E+01  0.36055712255E+00  0.29932240171E+01  0.00000000000E+00 0.  1.
</event>
<event>
 7    1  0.1631716E-009  0.4778727E+02  0.7816164E-02  0.1312668E+00
        -11   -1    0    0    0    0  0.00000000000E+00  0.00000000000E+00  0.45593999997E+02  0.45594000000E+02  0.51100000000E-03 0.  1.
         11   -1    0    0    0    0 -0.00000000000E+00 -0.00000000000E+00 -0.45593999997E+02  0.45594000000E+02  0.51100000000E-03 0. -1.
    9900012    2    1    2    0    0  0.22865357798E+02  0.34904899079E+02  0.11935113024E+02  0.47787268556E+02  0.19999988656E+02 0.  0.
         12    1    1    2    0    0 -0.22865357798E+02 -0.34904899079E+02 -0.11935113024E+02  0.43400731444E+02  0.00000000000E+00 0. -1.
         11    1    3    3    0    0 -0.69363713986E+00  0.79002486159E+01  0.40312301142E+01  0.88963968644E+01  0.51100000000E-03 0. -1.
        -11    1    3    3    0    0  0.16786014046E+02  0.21796186077E+02  0.11240272867E+02  0.29718474548E+02  0.51100000000E-03 0.  1.
        -12    1    3    3    0    0  0.67729808914E+01  0.52084643864E+01 -0.33363899574E+01  0.91723971440E+01  0.00000000000E+00 0.  1.
</event>
<event>
 7    1  0.1631716E-009  0.4778727E+02  0.7816164E-02  0.1312668E+00
        -11   -1    0    0    0    0  0.00000000000E+00  0.00000000000E+00  0.45593999997E+02  0.45594000000E+02  0.51100000000E-03 0. -1.
         11   -1    0    0    0    0 -0.00000000000E+00 -0.00000000000E+00 -0.45593999997E+02  0.45594000000E+02  0.51100000000E-03 0.  1.
    9900012    2    1    2    0    0  0.33199389830E+02 -0.27589290701E+02 -0.45005410538E+01  0.47787270556E+02  0.19999997774E+02 0.  0.
         12    1    1    2    0    0 -0.33199389830E+02  0.27589290701E+02  0.45005410538E+01  0.43400729444E+02  0.00000000000E+00 0. -1.
         11    1    3    3    0    0  0.32002375358E+01 -0.31601155552E+01 -0.55651728393E+01  0.71553476226E+01  0.51100000000E-03 0. -1.
        -11    1    3    3    0    0  0.12337311160E+02 -0.38344110673E+01  0.35193619070E+01  0.13390215210E+02  0.51100000000E-03 0.  1.
        -12    1    3    3    0    0  0.17661841135E+02 -0.20594764078E+02 -0.24547301214E+01  0.27241707723E+02  0.00000000000E+00 0.  1.
</event>
<event>
 7    1  0.1631716E-009  0.4778727E+02  0.7816164E-02  0.1312668E+00
        -11   -1    0    0    0    0  0.00000000000E+00  0.00000000000E+00  0.45593999997E+02  0.45594000000E+02  0.51100000000E-03 0.  1.
         11   -1    0    0    0    0 -0.00000000000E+00 -0.00000000000E+00 -0.45593999997E+02  0.45594000000E+02  0.51100000000E-03 0. -1.
    9900012    2    1    2    0    0  0.52655528769E+01 -0.42081223444E+02 -0.92232251244E+01  0.47787270797E+02  0.19999998872E+02 0.  0.
         12    1    1    2    0    0 -0.52655528769E+01  0.42081223444E+02  0.92232251244E+01  0.43400729203E+02  0.00000000000E+00 0. -1.
         11    1    3    3    0    0 -0.21863953178E+01 -0.28769159011E+01 -0.32982073208E+01  0.48923554020E+01  0.51100000000E-03 0. -1.
        -11    1    3    3    0    0 -0.25808972059E+00 -0.27190000001E+02 -0.82856688448E+01  0.28425604987E+02  0.51100000000E-03 0.  1.
        -12    1    3    3    0    0  0.77100379153E+01 -0.12014307542E+02  0.23606510412E+01  0.14469310409E+02  0.00000000000E+00 0.  1.
</event>
<event>
 7    1  0.1631716E-009  0.4778727E+02  0.7816164E-02  0.1312668E+00
        -11   -1    0    0    0    0  0.00000000000E+00  0.00000000000E+00  0.45593999997E+02  0.45594000000E+02  0.51100000000E-03 0.  1.
         11   -1    0    0    0    0 -0.00000000000E+00 -0.00000000000E+00 -0.45593999997E+02  0.45594000000E+02  0.51100000000E-03 0. -1.
    9900012    2    1    2    0    0 -0.16974131452E+01  0.17174588098E+02  0.39821796190E+02  0.47787272593E+02  0.20000007059E+02 0.  0.
         12    1    1    2    0    0  0.16974131452E+01 -0.17174588098E+02 -0.39821796190E+02  0.43400727407E+02  0.00000000000E+00 0. -1.
         11    1    3    3    0    0 -0.48003923179E+01 -0.67515309217E+00  0.77858069161E+01  0.91716076944E+01  0.51100000000E-03 0. -1.
        -11    1    3    3    0    0  0.43434722087E+01  0.35118686787E+01  0.16586240368E+02  0.17501495429E+02  0.51100000000E-03 0.  1.
        -12    1    3    3    0    0 -0.12404930360E+01  0.14337872512E+02  0.15449748906E+02  0.21114169469E+02  0.00000000000E+00 0.  1.
</event>
<event>
 7    1  0.1631716E-009  0.4778726E+02  0.7816164E-02  0.1312668E+00
        -11   -1    0    0    0    0  0.00000000000E+00  0.00000000000E+00  0.45593999997E+02  0.45594000000E+02  0.51100000000E-03 0.  1.
         11   -1    0    0    0    0 -0.00000000000E+00 -0.00000000000E+00 -0.45593999997E+02  0.45594000000E+02  0.51100000000E-03 0. -1.
    9900012    2    1    2    0    0 -0.18519269986E+02 -0.82982532357E+01  0.38364045908E+02  0.47787258232E+02  0.19999941581E+02 0.  0.
         12    1    1    2    0    0  0.18519269986E+02  0.82982532357E+01 -0.38364045908E+02  0.43400741768E+02  0.00000000000E+00 0. -1.
         11    1    3    3    0    0 -0.84622508627E+01  0.50596346720E+01  0.85214849181E+01  0.13031703578E+02  0.51100000000E-03 0. -1.
        -11    1    3    3    0    0 -0.82322155611E+01 -0.59334481807E+01  0.16163401954E+02  0.19084830189E+02  0.51100000000E-03 0.  1.
         12    1    3    3    0    0 -0.18248035623E+01 -0.74244397271E+01  0.13679159037E+02  0.15670724465E+02  0.00000000000E+00 0. -1.
</event>
<event>
 7    1  0.1631716E-009  0.4778728E+02  0.7816164E-02  0.1312668E+00
        -11   -1    0    0    0    0  0.00000000000E+00  0.00000000000E+00  0.45593999997E+02  0.45594000000E+02  0.51100000000E-03 0.  1.
         11   -1    0    0    0    0 -0.00000000000E+00 -0.00000000000E+00 -0.45593999997E+02  0.45594000000E+02  0.51100000000E-03 0. -1.
    9900012    2    1    2    0    0  0.36075488555E+02 -0.14045167341E+01  0.24087524354E+02  0.47787281443E+02  0.20000047413E+02 0.  0.
         12    1    1    2    0    0 -0.36075488555E+02  0.14045167341E+01 -0.24087524354E+02  0.43400718557E+02  0.00000000000E+00 0. -1.
         11    1    3    3    0    0  0.33197671372E+01 -0.51931372342E+01  0.37591111100E+01  0.72194490632E+01  0.51100000000E-03 0. -1.
        -11    1    3    3    0    0  0.26070320246E+02  0.60248526986E-01  0.20083508592E+02  0.32909155949E+02  0.51100000000E-03 0.  1.
        -12    1    3    3    0    0  0.66854011712E+01  0.37283719731E+01  0.24490465208E+00  0.76586764312E+01  0.00000000000E+00 0.  1.
</event>
<event>
 7    1  0.1631716E-009  0.4778727E+02  0.7816164E-02  0.1312668E+00
        -11   -1    0    0    0    0  0.00000000000E+00  0.00000000000E+00  0.45593999997E+02  0.45594000000E+02  0.51100000000E-03 0.  1.
         11   -1    0    0    0    0 -0.00000000000E+00 -0.00000000000E+00 -0.45593999997E+02  0.45594000000E+02  0.51100000000E-03 0. -1.
    9900012    2    1    2    0    0  0.88319801808E+01 -0.32353477021E+02  0.27547635721E+02  0.47787267482E+02  0.19999983758E+02 0.  0.
         12    1    1    2    0    0 -0.88319801808E+01  0.32353477021E+02 -0.27547635721E+02  0.43400732518E+02  0.00000000000E+00 0. -1.
         11    1    3    3    0    0 -0.74809508146E+00 -0.46418960431E+01 -0.10155281248E+01  0.48102123404E+01  0.51100000000E-03 0. -1.
        -11    1    3    3    0    0 -0.26313945403E+01 -0.31050377497E+01  0.12951871952E+01  0.42711833004E+01  0.51100000000E-03 0.  1.
        -12    1    3    3    0    0  0.12211469803E+02 -0.24606543228E+02  0.27267976651E+02  0.38705871841E+02  0.00000000000E+00 0.  1.
</event>
<event>
 7    1  0.1631716E-009  0.4778727E+02  0.7816164E-02  0.1312668E+00
        -11   -1    0    0    0    0  0.00000000000E+00  0.00000000000E+00  0.45593999997E+02  0.45594000000E+02  0.51100000000E-03 0.  1.
         11   -1    0    0    0    0 -0.00000000000E+00 -0.00000000000E+00 -0.45593999997E+02  0.45594000000E+02  0.51100000000E-03 0. -1.
    9900012    2    1    2    0    0  0.21801905380E+02 -0.31522717086E+01  0.37394693086E+02  0.47787274590E+02  0.20000016166E+02 0.  0.
         12    1    1    2    0    0 -0.21801905380E+02  0.31522717086E+01 -0.37394693086E+02  0.43400725410E+02  0.00000000000E+00 0. -1.
         11    1    3    3    0    0 -0.12975805649E+01  0.13021278694E+01  0.16743665355E+01  0.24865148033E+01  0.51100000000E-03 0. -1.
        -11    1    3    3    0    0  0.14065861605E+02 -0.99642448438E+01  0.23324266411E+02  0.29002690252E+02  0.51100000000E-03 0.  1.
        -12    1    3    3    0    0  0.90336243402E+01  0.55098452658E+01  0.12396060140E+02  0.16298069535E+02  0.00000000000E+00 0.  1.
</event>
<event>
 7    1  0.1631716E-009  0.4778727E+02  0.7816164E-02  0.1312668E+00
        -11   -1    0    0    0    0  0.00000000000E+00  0.00000000000E+00  0.45593999997E+02  0.45594000000E+02  0.51100000000E-03 0. -1.
         11   -1    0    0    0    0 -0.00000000000E+00 -0.00000000000E+00 -0.45593999997E+02  0.45594000000E+02  0.51100000000E-03 0.  1.
    9900012    2    1    2    0    0 -0.12945992526E+02 -0.30334306935E+02 -0.28210895106E+02  0.47787268412E+02  0.19999987997E+02 0.  0.
         12    1    1    2    0    0  0.12945992526E+02  0.30334306935E+02  0.28210895106E+02  0.43400731588E+02  0.00000000000E+00 0. -1.
         11    1    3    3    0    0 -0.10219411091E+02 -0.16475134359E+02 -0.12125594452E+02  0.22866929314E+02  0.51100000000E-03 0. -1.
        -11    1    3    3    0    0  0.74084209629E+00  0.23468261260E+01 -0.20611088944E+01  0.32100794403E+01  0.51100000000E-03 0.  1.
        -12    1    3    3    0    0 -0.34674235316E+01 -0.16205998702E+02 -0.14024191760E+02  0.21710259657E+02  0.00000000000E+00 0.  1.
</event>
<event>
 7    1  0.1631716E-009  0.4778727E+02  0.7816164E-02  0.1312668E+00
        -11   -1    0    0    0    0  0.00000000000E+00  0.00000000000E+00  0.45593999997E+02  0.45594000000E+02  0.51100000000E-03 0.  1.
         11   -1    0    0    0    0 -0.00000000000E+00 -0.00000000000E+00 -0.45593999997E+02  0.45594000000E+02  0.51100000000E-03 0. -1.
    9900012    2    1    2    0    0  0.32077440167E+02 -0.28806545996E+02  0.49843764367E+01  0.47787271108E+02  0.20000000288E+02 0.  0.
         12    1    1    2    0    0 -0.32077440167E+02  0.28806545996E+02 -0.49843764367E+01  0.43400728892E+02  0.00000000000E+00 0. -1.
         11    1    3    3    0    0  0.20179985767E+02 -0.22147760680E+02 -0.34563547250E+01  0.30161258544E+02  0.51100000000E-03 0.  1.
        -11    1    3    3    0    0 -0.51981799606E+00  0.64412045812E+00  0.13164314086E+01  0.15550221311E+01  0.51100000000E-03 0. -1.
         12    1    3    3    0    0  0.12417272396E+02 -0.73029057745E+01  0.71242997531E+01  0.16070990433E+02  0.00000000000E+00 0. -1.
</event>
<event>
 7    1  0.1631716E-009  0.4778728E+02  0.7816164E-02  0.1312668E+00
        -11   -1    0    0    0    0  0.00000000000E+00  0.00000000000E+00  0.45593999997E+02  0.45594000000E+02  0.51100000000E-03 0.  1.
         11   -1    0    0    0    0 -0.00000000000E+00 -0.00000000000E+00 -0.45593999997E+02  0.45594000000E+02  0.51100000000E-03 0. -1.
    9900012    2    1    2    0    0  0.67216861038E+01  0.26269290040E+02  0.33887552214E+02  0.47787275832E+02  0.20000021830E+02 0.  0.
         12    1    1    2    0    0 -0.67216861038E+01 -0.26269290040E+02 -0.33887552214E+02  0.43400724168E+02  0.00000000000E+00 0. -1.
         11    1    3    3    0    0  0.28695153468E+00  0.21106181029E+02  0.16458685839E+02  0.26766425959E+02  0.51100000000E-03 0.  1.
        -11    1    3    3    0    0  0.90776652072E+00 -0.97822196785E+00 -0.38100293426E+00  0.13878478921E+01  0.51100000000E-03 0. -1.
        -12    1    3    3    0    0  0.55269680484E+01  0.61413309783E+01  0.17809869309E+02  0.19633001981E+02  0.00000000000E+00 0.  1.
</event>
<event>
 7    1  0.1631716E-009  0.4778727E+02  0.7816164E-02  0.1312668E+00
        -11   -1    0    0    0    0  0.00000000000E+00  0.00000000000E+00  0.45593999997E+02  0.45594000000E+02  0.51100000000E-03 0.  1.
         11   -1    0    0    0    0 -0.00000000000E+00 -0.00000000000E+00 -0.45593999997E+02  0.45594000000E+02  0.51100000000E-03 0. -1.
    9900012    2    1    2    0    0  0.24186469248E+02  0.11452450476E+02  0.34168394393E+02  0.47787273140E+02  0.20000009556E+02 0.  0.
         12    1    1    2    0    0 -0.24186469248E+02 -0.11452450476E+02 -0.34168394393E+02  0.43400726860E+02  0.00000000000E+00 0. -1.
         11    1    3    3    0    0  0.12754447967E+01  0.20032764178E+01  0.74287797754E+01  0.77991438664E+01  0.51100000000E-03 0. -1.
        -11    1    3    3    0    0  0.32816946714E+01  0.27063504056E+01  0.16124178671E+02  0.16675820535E+02  0.51100000000E-03 0.  1.
        -12    1    3    3    0    0  0.19629329779E+02  0.67428236525E+01  0.10615435946E+02  0.23312308739E+02  0.00000000000E+00 0.  1.
</event>
<event>
 7    1  0.1631716E-009  0.4778726E+02  0.7816164E-02  0.1312668E+00
        -11   -1    0    0    0    0  0.00000000000E+00  0.00000000000E+00  0.45593999997E+02  0.45594000000E+02  0.51100000000E-03 0.  1.
         11   -1    0    0    0    0 -0.00000000000E+00 -0.00000000000E+00 -0.45593999997E+02  0.45594000000E+02  0.51100000000E-03 0. -1.
    9900012    2    1    2    0    0  0.26273497545E+02 -0.29252700395E+02  0.18374077357E+02  0.47787264149E+02  0.19999968560E+02 0.  0.
         12    1    1    2    0    0 -0.26273497545E+02  0.29252700395E+02 -0.18374077357E+02  0.43400735851E+02  0.00000000000E+00 0. -1.
         11    1    3    3    0    0  0.40214704563E+01 -0.73248867786E+01  0.12950466903E+02  0.15412358165E+02  0.51100000000E-03 0. -1.
        -11    1    3    3    0    0  0.80510624466E+01 -0.12511572573E+02  0.25636248792E+01  0.15097391415E+02  0.51100000000E-03 0.  1.
         12    1    3    3    0    0  0.14200964642E+02 -0.94162410439E+01  0.28599855755E+01  0.17277514568E+02  0.00000000000E+00 0. -1.
</event>
<event>
 7    1  0.1631716E-009  0.4778727E+02  0.7816164E-02  0.1312668E+00
        -11   -1    0    0    0    0  0.00000000000E+00  0.00000000000E+00  0.45593999997E+02  0.45594000000E+02  0.51100000000E-03 0. -1.
         11   -1    0    0    0    0 -0.00000000000E+00 -0.00000000000E+00 -0.45593999997E+02  0.45594000000E+02  0.51100000000E-03 0.  1.
    9900012    2    1    2    0    0 -0.30440856065E+02 -0.26320413800E+02 -0.16254642888E+02  0.47787270559E+02  0.19999997785E+02 0.  0.
         12    1    1    2    0    0  0.30440856065E+02  0.26320413800E+02  0.16254642888E+02  0.43400729441E+02  0.00000000000E+00 0. -1.
         11    1    3    3    0    0 -0.15171580177E+01 -0.75581317006E+01 -0.47808722064E+01  0.90710452854E+01  0.51100000000E-03 0.  1.
        -11    1    3    3    0    0 -0.21105768748E+02 -0.63132346467E+01 -0.90556036662E+01  0.23818361912E+02  0.51100000000E-03 0. -1.
         12    1    3    3    0    0 -0.78179292999E+01 -0.12449047453E+02 -0.24181670158E+01  0.14897863362E+02  0.00000000000E+00 0. -1.
</event>
<event>
 7    1  0.1631716E-009  0.4778727E+02  0.7816164E-02  0.1312668E+00
        -11   -1    0    0    0    0  0.00000000000E+00  0.00000000000E+00  0.45593999997E+02  0.45594000000E+02  0.51100000000E-03 0. -1.
         11   -1    0    0    0    0 -0.00000000000E+00 -0.00000000000E+00 -0.45593999997E+02  0.45594000000E+02  0.51100000000E-03 0.  1.
    9900012    2    1    2    0    0 -0.23756297615E+01 -0.38404413847E+02 -0.20076870619E+02  0.47787270126E+02  0.19999995814E+02 0.  0.
         12    1    1    2    0    0  0.23756297615E+01  0.38404413847E+02  0.20076870619E+02  0.43400729874E+02  0.00000000000E+00 0. -1.
         11    1    3    3    0    0  0.16799277626E+01 -0.42398087670E+01 -0.10337642190E+02  0.11298892953E+02  0.51100000000E-03 0. -1.
        -11    1    3    3    0    0 -0.34317945136E+00 -0.21607113903E+02 -0.88871869751E+01  0.23365941795E+02  0.51100000000E-03 0.  1.
        -12    1    3    3    0    0 -0.37123780727E+01 -0.12557491177E+02 -0.85204145458E+00  0.13122435378E+02  0.00000000000E+00 0.  1.
</event>
<event>
 7    1  0.1631716E-009  0.4778727E+02  0.7816164E-02  0.1312668E+00
        -11   -1    0    0    0    0  0.00000000000E+00  0.00000000000E+00  0.45593999997E+02  0.45594000000E+02  0.51100000000E-03 0. -1.
         11   -1    0    0    0    0 -0.00000000000E+00 -0.00000000000E+00 -0.45593999997E+02  0.45594000000E+02  0.51100000000E-03 0.  1.
    9900012    2    1    2    0    0 -0.50544287201E+01 -0.36296889708E+02 -0.23251071839E+02  0.47787265055E+02  0.19999972690E+02 0.  0.
         12    1    1    2    0    0  0.50544287201E+01  0.36296889708E+02  0.23251071839E+02  0.43400734945E+02  0.00000000000E+00 0. -1.
         11    1    3    3    0    0  0.50461545837E+01 -0.39132160104E+01 -0.90543797078E+00  0.64495545433E+01  0.51100000000E-03 0. -1.
        -11    1    3    3    0    0  0.19344191333E+00 -0.89305532637E+01 -0.37579464645E+01  0.96909423309E+01  0.51100000000E-03 0.  1.
        -12    1    3    3    0    0 -0.10294025217E+02 -0.23453120434E+02 -0.18587687403E+02  0.31646768180E+02  0.00000000000E+00 0.  1.
</event>
<event>
 7    1  0.1631716E-009  0.4778727E+02  0.7816164E-02  0.1312668E+00
        -11   -1    0    0    0    0  0.00000000000E+00  0.00000000000E+00  0.45593999997E+02  0.45594000000E+02  0.51100000000E-03 0. -1.
         11   -1    0    0    0    0 -0.00000000000E+00 -0.00000000000E+00 -0.45593999997E+02  0.45594000000E+02  0.51100000000E-03 0.  1.
    9900012    2    1    2    0    0  0.43201595685E+02 -0.88833354829E+00 -0.40566799687E+01  0.47787266612E+02  0.19999979791E+02 0.  0.
         12    1    1    2    0    0 -0.43201595685E+02  0.88833354829E+00  0.40566799687E+01  0.43400733388E+02  0.00000000000E+00 0. -1.
         11    1    3    3    0    0  0.21823449379E+02  0.53337481307E+01 -0.21806325307E+00  0.22466850330E+02  0.51100000000E-03 0. -1.
        -11    1    3    3    0    0  0.13542729204E+02 -0.85429449410E+01  0.59520618870E+00  0.16023161149E+02  0.51100000000E-03 0.  1.
         12    1    3    3    0    0  0.78354171029E+01  0.23208632620E+01 -0.44338229043E+01  0.92972551328E+01  0.00000000000E+00 0. -1.
</event>
<event>
 7    1  0.1631716E-009  0.4778728E+02  0.7816164E-02  0.1312668E+00
        -11   -1    0    0    0    0  0.00000000000E+00  0.00000000000E+00  0.45593999997E+02  0.45594000000E+02  0.51100000000E-03 0. -1.
         11   -1    0    0    0    0 -0.00000000000E+00 -0.00000000000E+00 -0.45593999997E+02  0.45594000000E+02  0.51100000000E-03 0.  1.
    9900012    2    1    2    0    0  0.20192603232E+02  0.21675304809E+02 -0.31718489836E+02  0.47787278102E+02  0.20000032177E+02 0.  0.
         12    1    1    2    0    0 -0.20192603232E+02 -0.21675304809E+02  0.31718489836E+02  0.43400721898E+02  0.00000000000E+00 0. -1.
         11    1    3    3    0    0  0.11124382413E+02  0.32442450951E+01 -0.67747901293E+01  0.13422920393E+02  0.51100000000E-03 0. -1.
        -11    1    3    3    0    0  0.11844835977E+02  0.16199626399E+02 -0.20878058297E+02  0.28958959810E+02  0.51100000000E-03 0.  1.
        -12    1    3    3    0    0 -0.27766151581E+01  0.22314333152E+01 -0.40656414091E+01  0.54053978988E+01  0.00000000000E+00 0.  1.
</event>
<event>
 7    1  0.1631716E-009  0.4778727E+02  0.7816164E-02  0.1312668E+00
        -11   -1    0    0    0    0  0.00000000000E+00  0.00000000000E+00  0.45593999997E+02  0.45594000000E+02  0.51100000000E-03 0.  1.
         11   -1    0    0    0    0 -0.00000000000E+00 -0.00000000000E+00 -0.45593999997E+02  0.45594000000E+02  0.51100000000E-03 0. -1.
    9900012    2    1    2    0    0  0.33904715675E+02 -0.15916117331E+02  0.21926479003E+02  0.47787273999E+02  0.20000013472E+02 0.  0.
         12    1    1    2    0    0 -0.33904715675E+02  0.15916117331E+02 -0.21926479003E+02  0.43400726001E+02  0.00000000000E+00 0. -1.
         11    1    3    3    0    0  0.22654357362E+01  0.18690410807E+01 -0.29238218178E+00  0.29514405360E+01  0.51100000000E-03 0. -1.
        -11    1    3    3    0    0  0.21022339576E+02 -0.15402936365E+02  0.86849202095E+01  0.27470293942E+02  0.51100000000E-03 0.  1.
         12    1    3    3    0    0  0.10616940363E+02 -0.23822220459E+01  0.13533940975E+02  0.17365539521E+02  0.00000000000E+00 0. -1.
</event>
<event>
 7    1  0.1631716E-009  0.4778727E+02  0.7816164E-02  0.1312668E+00
        -11   -1    0    0    0    0  0.00000000000E+00  0.00000000000E+00  0.45593999997E+02  0.45594000000E+02  0.51100000000E-03 0.  1.
         11   -1    0    0    0    0 -0.00000000000E+00 -0.00000000000E+00 -0.45593999997E+02  0.45594000000E+02  0.51100000000E-03 0. -1.
    9900012    2    1    2    0    0 -0.24714569245E+02  0.33333178331E+02  0.12716620810E+02  0.47787272409E+02  0.20000006220E+02 0.  0.
         12    1    1    2    0    0  0.24714569245E+02 -0.33333178331E+02 -0.12716620810E+02  0.43400727591E+02  0.00000000000E+00 0. -1.
         11    1    3    3    0    0  0.25655593288E+00  0.39511934777E+01 -0.28982197198E+01  0.49068756506E+01  0.51100000000E-03 0. -1.
        -11    1    3    3    0    0 -0.12507961795E+02  0.21723462828E+02  0.12106086747E+02  0.27837300194E+02  0.51100000000E-03 0.  1.
        -12    1    3    3    0    0 -0.12463163383E+02  0.76585220253E+01  0.35087537827E+01  0.15043096564E+02  0.00000000000E+00 0.  1.
</event>
<event>
 7    1  0.1631716E-009  0.4778727E+02  0.7816164E-02  0.1312668E+00
        -11   -1    0    0    0    0  0.00000000000E+00  0.00000000000E+00  0.45593999997E+02  0.45594000000E+02  0.51100000000E-03 0.  1.
         11   -1    0    0    0    0 -0.00000000000E+00 -0.00000000000E+00 -0.45593999997E+02  0.45594000000E+02  0.51100000000E-03 0. -1.
    9900012    2    1    2    0    0  0.14630699545E+02 -0.39718449331E+02 -0.95922347634E+01  0.47787267815E+02  0.19999985275E+02 0.  0.
         12    1    1    2    0    0 -0.14630699545E+02  0.39718449331E+02  0.95922347634E+01  0.43400732185E+02  0.00000000000E+00 0. -1.
         11    1    3    3    0    0  0.89660635675E+01 -0.25947254055E+02 -0.36018466167E+00  0.27455054583E+02  0.51100000000E-03 0. -1.
        -11    1    3    3    0    0  0.55515518604E+01 -0.18287388250E+01 -0.12784568726E+01  0.59831819281E+01  0.51100000000E-03 0.  1.
         12    1    3    3    0    0  0.11308411736E+00 -0.11942456451E+02 -0.79535932291E+01  0.14349031304E+02  0.00000000000E+00 0. -1.
</event>
<event>
 7    1  0.1631716E-009  0.4778727E+02  0.7816164E-02  0.1312668E+00
        -11   -1    0    0    0    0  0.00000000000E+00  0.00000000000E+00  0.45593999997E+02  0.45594000000E+02  0.51100000000E-03 0. -1.
         11   -1    0    0    0    0 -0.00000000000E+00 -0.00000000000E+00 -0.45593999997E+02  0.45594000000E+02  0.51100000000E-03 0.  1.
    9900012    2    1    2    0    0 -0.42027875529E+02 -0.83418884643E+01 -0.69060614915E+01  0.47787272933E+02  0.20000008609E+02 0.  0.
         12    1    1    2    0    0  0.42027875529E+02  0.83418884643E+01  0.69060614915E+01  0.43400727067E+02  0.00000000000E+00 0. -1.
         11    1    3    3    0    0 -0.14188769624E+02  0.45605748576E+01 -0.27725454107E+01  0.15159387679E+02  0.51100000000E-03 0. -1.
        -11    1    3    3    0    0 -0.55531486427E+01 -0.56429057674E+01 -0.46538328107E+01  0.91835725858E+01  0.51100000000E-03 0.  1.
         12    1    3    3    0    0 -0.22285957262E+02 -0.72595575546E+01  0.52031672993E+00  0.23444312668E+02  0.00000000000E+00 0. -1.
</event>
<event>
 7    1  0.1631716E-009  0.4778727E+02  0.7816164E-02  0.1312668E+00
        -11   -1    0    0    0    0  0.00000000000E+00  0.00000000000E+00  0.45593999997E+02  0.45594000000E+02  0.51100000000E-03 0. -1.
         11   -1    0    0    0    0 -0.00000000000E+00 -0.00000000000E+00 -0.45593999997E+02  0.45594000000E+02  0.51100000000E-03 0.  1.
    9900012    2    1    2    0    0  0.28997385433E+02  0.23319352463E+02 -0.22337924800E+02  0.47787269065E+02  0.19999990977E+02 0.  0.
         12    1    1    2    0    0 -0.28997385433E+02 -0.23319352463E+02  0.22337924800E+02  0.43400730935E+02  0.00000000000E+00 0. -1.
         11    1    3    3    0    0  0.21444077000E+02  0.15298178008E+02 -0.65483538397E+01  0.27143390116E+02  0.51100000000E-03 0. -1.
        -11    1    3    3    0    0  0.65028295446E+01  0.16463073302E+01 -0.94796138918E+01  0.11612932434E+02  0.51100000000E-03 0.  1.
         12    1    3    3    0    0  0.10504788891E+01  0.63748671251E+01 -0.63099570685E+01  0.90309465155E+01  0.00000000000E+00 0. -1.
</event>
<event>
 7    1  0.1631716E-009  0.4778727E+02  0.7816164E-02  0.1312668E+00
        -11   -1    0    0    0    0  0.00000000000E+00  0.00000000000E+00  0.45593999997E+02  0.45594000000E+02  0.51100000000E-03 0. -1.
         11   -1    0    0    0    0 -0.00000000000E+00 -0.00000000000E+00 -0.45593999997E+02  0.45594000000E+02  0.51100000000E-03 0.  1.
    9900012    2    1    2    0    0 -0.17978532561E+02 -0.38161080297E+02 -0.10204296112E+02  0.47787270264E+02  0.19999996442E+02 0.  0.
         12    1    1    2    0    0  0.17978532561E+02  0.38161080297E+02  0.10204296112E+02  0.43400729736E+02  0.00000000000E+00 0. -1.
         11    1    3    3    0    0 -0.43718789417E+01 -0.84671055646E+01  0.14422282943E+01  0.96376981088E+01  0.51100000000E-03 0. -1.
        -11    1    3    3    0    0  0.61028960848E+00 -0.10899592281E+02 -0.95258808124E+01  0.14488477174E+02  0.51100000000E-03 0.  1.
        -12    1    3    3    0    0 -0.14216943228E+02 -0.18794382451E+02 -0.21206435939E+01  0.23661094981E+02  0.00000000000E+00 0.  1.
</event>
<event>
 7    1  0.1631716E-009  0.4778727E+02  0.7816164E-02  0.1312668E+00
        -11   -1    0    0    0    0  0.00000000000E+00  0.00000000000E+00  0.45593999997E+02  0.45594000000E+02  0.51100000000E-03 0. -1.
         11   -1    0    0    0    0 -0.00000000000E+00 -0.00000000000E+00 -0.45593999997E+02  0.45594000000E+02  0.51100000000E-03 0.  1.
    9900012    2    1    2    0    0  0.35005470661E+02 -0.22636082640E+02  0.12076752564E+02  0.47787272287E+02  0.20000005667E+02 0.  0.
         12    1    1    2    0    0 -0.35005470661E+02  0.22636082640E+02 -0.12076752564E+02  0.43400727713E+02  0.00000000000E+00 0. -1.
         11    1    3    3    0    0  0.20706014584E+02 -0.94109152509E+01  0.27435720859E+01  0.22909202384E+02  0.51100000000E-03 0. -1.
        -11    1    3    3    0    0  0.12085619382E+02 -0.68070251375E+01  0.69089255183E+00  0.13887948727E+02  0.51100000000E-03 0.  1.
         12    1    3    3    0    0  0.22138366953E+01 -0.64181422519E+01  0.86422879260E+01  0.10990121177E+02  0.00000000000E+00 0. -1.
</event>
<event>
 7    1  0.1631716E-009  0.4778727E+02  0.7816164E-02  0.1312668E+00
        -11   -1    0    0    0    0  0.00000000000E+00  0.00000000000E+00  0.45593999997E+02  0.45594000000E+02  0.51100000000E-03 0.  1.
         11   -1    0    0    0    0 -0.00000000000E+00 -0.00000000000E+00 -0.45593999997E+02  0.45594000000E+02  0.51100000000E-03 0. -1.
    9900012    2    1    2    0    0 -0.29602143299E+01  0.27883696713E+02  0.33126419279E+02  0.47787273445E+02  0.20000010944E+02 0.  0.
         12    1    1    2    0    0  0.29602143299E+01 -0.27883696713E+02 -0.33126419279E+02  0.43400726555E+02  0.00000000000E+00 0. -1.
         11    1    3    3    0    0  0.23548512361E+01  0.17575539049E+01 -0.26460173303E-01  0.29385405348E+01  0.51100000000E-03 0. -1.
        -11    1    3    3    0    0 -0.69178446442E+01  0.22736669053E+02  0.19656909371E+02  0.30841640365E+02  0.51100000000E-03 0.  1.
        -12    1    3    3    0    0  0.16027790781E+01  0.33894737556E+01  0.13495970082E+02  0.14007092545E+02  0.00000000000E+00 0.  1.
</event>
<event>
 7    1  0.1821413E-009  0.4778727E+02  0.7816164E-02  0.1312668E+00
        -11   -1    0    0    0    0  0.00000000000E+00  0.00000000000E+00  0.45593999997E+02  0.45594000000E+02  0.51100000000E-03 0.  1.
         11   -1    0    0    0    0 -0.00000000000E+00 -0.00000000000E+00 -0.45593999997E+02  0.45594000000E+02  0.51100000000E-03 0. -1.
    9900012    2    1    2    0    0  0.10586085682E+02  0.41183972689E+02  0.86855510004E+01  0.47787267141E+02  0.19999982201E+02 0.  0.
         12    1    1    2    0    0 -0.10586085682E+02 -0.41183972689E+02 -0.86855510004E+01  0.43400732859E+02  0.00000000000E+00 0. -1.
         11    1    3    3    0    0 -0.35074542496E+00  0.26892189904E+00  0.32357381562E+01  0.32657836758E+01  0.51100000000E-03 0. -1.
        -11    1    3    3    0    0  0.76341060138E+01  0.26629188155E+02  0.95407908006E+01  0.29298804170E+02  0.51100000000E-03 0.  1.
        -12    1    3    3    0    0  0.33027250933E+01  0.14285862635E+02 -0.40909779563E+01  0.15222679295E+02  0.00000000000E+00 0.  1.
</event>
<event>
 7    1  0.1631716E-009  0.4778727E+02  0.7816164E-02  0.1312668E+00
        -11   -1    0    0    0    0  0.00000000000E+00  0.00000000000E+00  0.45593999997E+02  0.45594000000E+02  0.51100000000E-03 0. -1.
         11   -1    0    0    0    0 -0.00000000000E+00 -0.00000000000E+00 -0.45593999997E+02  0.45594000000E+02  0.51100000000E-03 0.  1.
    9900012    2    1    2    0    0 -0.38635575249E+02 -0.13825106028E+02 -0.14134422063E+02  0.47787272834E+02  0.20000008159E+02 0.  0.
         12    1    1    2    0    0  0.38635575249E+02  0.13825106028E+02  0.14134422063E+02  0.43400727166E+02  0.00000000000E+00 0. -1.
         11    1    3    3    0    0 -0.53603092214E+01 -0.24818720248E+01  0.14126725779E+01  0.60735696069E+01  0.51100000000E-03 0. -1.
        -11    1    3    3    0    0 -0.27472614876E+02 -0.35900399920E+01 -0.16044943689E+02  0.32016763945E+02  0.51100000000E-03 0.  1.
        -12    1    3    3    0    0 -0.58026511506E+01 -0.77531940117E+01  0.49784904802E+00  0.96969392817E+01  0.00000000000E+00 0.  1.
</event>
<event>
 7    1  0.1631716E-009  0.4778727E+02  0.7816164E-02  0.1312668E+00
        -11   -1    0    0    0    0  0.00000000000E+00  0.00000000000E+00  0.45593999997E+02  0.45594000000E+02  0.51100000000E-03 0.  1.
         11   -1    0    0    0    0 -0.00000000000E+00 -0.00000000000E+00 -0.45593999997E+02  0.45594000000E+02  0.51100000000E-03 0. -1.
    9900012    2    1    2    0    0  0.72539836538E+01 -0.21921567637E+02  0.36748439338E+02  0.47787271892E+02  0.20000003866E+02 0.  0.
         12    1    1    2    0    0 -0.72539836538E+01  0.21921567637E+02 -0.36748439338E+02  0.43400728108E+02  0.00000000000E+00 0. -1.
         11    1    3    3    0    0  0.23195180064E+01 -0.88354049002E+01  0.35680638934E+01  0.98069171375E+01  0.51100000000E-03 0. -1.
        -11    1    3    3    0    0 -0.16455845859E+01  0.13547793770E+01  0.74573599583E+01  0.77560037132E+01  0.51100000000E-03 0.  1.
        -12    1    3    3    0    0  0.65800502333E+01 -0.14440942114E+02  0.25723015486E+02  0.30224351042E+02  0.00000000000E+00 0.  1.
</event>
<event>
 7    1  0.1631716E-009  0.4778727E+02  0.7816164E-02  0.1312668E+00
        -11   -1    0    0    0    0  0.00000000000E+00  0.00000000000E+00  0.45593999997E+02  0.45594000000E+02  0.51100000000E-03 0.  1.
         11   -1    0    0    0    0 -0.00000000000E+00 -0.00000000000E+00 -0.45593999997E+02  0.45594000000E+02  0.51100000000E-03 0. -1.
    9900012    2    1    2    0    0  0.27682983138E+02  0.17191091258E+02  0.28666043626E+02  0.47787271536E+02  0.20000002240E+02 0.  0.
         12    1    1    2    0    0 -0.27682983138E+02 -0.17191091258E+02 -0.28666043626E+02  0.43400728464E+02  0.00000000000E+00 0. -1.
         11    1    3    3    0    0  0.84672680147E+01  0.11533463979E+02  0.26731884967E+01  0.14555457945E+02  0.51100000000E-03 0. -1.
        -11    1    3    3    0    0  0.43974461989E+01 -0.72117973292E+00  0.71626271345E+01  0.84356897174E+01  0.51100000000E-03 0.  1.
        -12    1    3    3    0    0  0.14818268925E+02  0.63788070122E+01  0.18830227994E+02  0.24796123873E+02  0.00000000000E+00 0.  1.
</event>
<event>
 7    1  0.1631716E-009  0.4778726E+02  0.7816164E-02  0.1312668E+00
        -11   -1    0    0    0    0  0.00000000000E+00  0.00000000000E+00  0.45593999997E+02  0.45594000000E+02  0.51100000000E-03 0.  1.
         11   -1    0    0    0    0 -0.00000000000E+00 -0.00000000000E+00 -0.45593999997E+02  0.45594000000E+02  0.51100000000E-03 0. -1.
    9900012    2    1    2    0    0 -0.61479310659E+01  0.50710438397E+01  0.42662769053E+02  0.47787258010E+02  0.19999940572E+02 0.  0.
         12    1    1    2    0    0  0.61479310659E+01 -0.50710438397E+01 -0.42662769053E+02  0.43400741990E+02  0.00000000000E+00 0. -1.
         11    1    3    3    0    0 -0.42441974159E+01  0.52559554498E+00  0.24150759007E+02  0.24526488197E+02  0.51100000000E-03 0. -1.
        -11    1    3    3    0    0 -0.34476665911E+01 -0.14878102998E+01  0.16181255973E+02  0.16611232030E+02  0.51100000000E-03 0.  1.
         12    1    3    3    0    0  0.15439329410E+01  0.60332585945E+01  0.23307540723E+01  0.66495377839E+01  0.00000000000E+00 0. -1.
</event>
<event>
 7    1  0.1631716E-009  0.4778728E+02  0.7816164E-02  0.1312668E+00
        -11   -1    0    0    0    0  0.00000000000E+00  0.00000000000E+00  0.45593999997E+02  0.45594000000E+02  0.51100000000E-03 0. -1.
         11   -1    0    0    0    0 -0.00000000000E+00 -0.00000000000E+00 -0.45593999997E+02  0.45594000000E+02  0.51100000000E-03 0.  1.
    9900012    2    1    2    0    0  0.97661191804E+01  0.42088903475E+02 -0.40950789590E+01  0.47787279369E+02  0.20000037957E+02 0.  0.
         12    1    1    2    0    0 -0.97661191804E+01 -0.42088903475E+02  0.40950789590E+01  0.43400720631E+02  0.00000000000E+00 0. -1.
         11    1    3    3    0    0  0.27852554876E+01  0.12845678600E+02 -0.33638615847E+01  0.13567780653E+02  0.51100000000E-03 0.  1.
        -11    1    3    3    0    0  0.51065801555E+01  0.49425531609E+00  0.14373845850E+01  0.53279943608E+01  0.51100000000E-03 0. -1.
         12    1    3    3    0    0  0.18742835372E+01  0.28748969559E+02 -0.21686019593E+01  0.28891504356E+02  0.00000000000E+00 0. -1.
</event>
<event>
 7    1  0.1631716E-009  0.4778728E+02  0.7816164E-02  0.1312668E+00
        -11   -1    0    0    0    0  0.00000000000E+00  0.00000000000E+00  0.45593999997E+02  0.45594000000E+02  0.51100000000E-03 0.  1.
         11   -1    0    0    0    0 -0.00000000000E+00 -0.00000000000E+00 -0.45593999997E+02  0.45594000000E+02  0.51100000000E-03 0. -1.
    9900012    2    1    2    0    0 -0.40609057327E+01 -0.59501272858E+01  0.42798687701E+02  0.47787278358E+02  0.20000033347E+02 0.  0.
         12    1    1    2    0    0  0.40609057327E+01  0.59501272858E+01 -0.42798687701E+02  0.43400721642E+02  0.00000000000E+00 0. -1.
         11    1    3    3    0    0 -0.85450069519E+01 -0.41982438253E+00  0.95151357072E+01  0.12795749455E+02  0.51100000000E-03 0. -1.
        -11    1    3    3    0    0  0.15300137787E+01 -0.68229871939E+01  0.16826666146E+02  0.18221712056E+02  0.51100000000E-03 0.  1.
        -12    1    3    3    0    0  0.29540874404E+01  0.12926842906E+01  0.16456885848E+02  0.16769816848E+02  0.00000000000E+00 0.  1.
</event>
<event>
 7    1  0.1631716E-009  0.4778727E+02  0.7816164E-02  0.1312668E+00
        -11   -1    0    0    0    0  0.00000000000E+00  0.00000000000E+00  0.45593999997E+02  0.45594000000E+02  0.51100000000E-03 0.  1.
         11   -1    0    0    0    0 -0.00000000000E+00 -0.00000000000E+00 -0.45593999997E+02  0.45594000000E+02  0.51100000000E-03 0. -1.
    9900012    2    1    2    0    0  0.37154503124E+02  0.22429334598E+02 -0.30153619124E+00  0.47787273313E+02  0.20000010342E+02 0.  0.
         12    1    1    2    0    0 -0.37154503124E+02 -0.22429334598E+02  0.30153619124E+00  0.43400726687E+02  0.00000000000E+00 0. -1.
         11    1    3    3    0    0  0.81939524763E+01  0.40576905300E+01  0.80236070095E+01  0.12164866597E+02  0.51100000000E-03 0. -1.
        -11    1    3    3    0    0  0.15387900458E+02  0.96718027126E+01 -0.19240730612E+01  0.18276578061E+02  0.51100000000E-03 0.  1.
         12    1    3    3    0    0  0.13572650189E+02  0.86998413557E+01 -0.64010701396E+01  0.17345828654E+02  0.00000000000E+00 0. -1.
</event>
<event>
 7    1  0.1631716E-009  0.4778727E+02  0.7816164E-02  0.1312668E+00
        -11   -1    0    0    0    0  0.00000000000E+00  0.00000000000E+00  0.45593999997E+02  0.45594000000E+02  0.51100000000E-03 0.  1.
         11   -1    0    0    0    0 -0.00000000000E+00 -0.00000000000E+00 -0.45593999997E+02  0.45594000000E+02  0.51100000000E-03 0. -1.
    9900012    2    1    2    0    0  0.18684343884E+02  0.38633415185E+02  0.64790224721E+01  0.47787271810E+02  0.20000003490E+02 0.  0.
         12    1    1    2    0    0 -0.18684343884E+02 -0.38633415185E+02 -0.64790224721E+01  0.43400728190E+02  0.00000000000E+00 0. -1.
         11    1    3    3    0    0  0.21604093084E+01  0.11995793484E+02 -0.10585962224E+01  0.12234666155E+02  0.51100000000E-03 0. -1.
        -11    1    3    3    0    0  0.10570604506E+01  0.33805988350E+01  0.67361266404E+01  0.76105996909E+01  0.51100000000E-03 0.  1.
        -12    1    3    3    0    0  0.15466874125E+02  0.23257022866E+02  0.80149205410E+00  0.27942005964E+02  0.00000000000E+00 0.  1.
</event>
<event>
 7    1  0.1631716E-009  0.4778727E+02  0.7816164E-02  0.1312668E+00
        -11   -1    0    0    0    0  0.00000000000E+00  0.00000000000E+00  0.45593999997E+02  0.45594000000E+02  0.51100000000E-03 0. -1.
         11   -1    0    0    0    0 -0.00000000000E+00 -0.00000000000E+00 -0.45593999997E+02  0.45594000000E+02  0.51100000000E-03 0.  1.
    9900012    2    1    2    0    0  0.30806281222E+02 -0.24511435743E+02 -0.18269804000E+02  0.47787272090E+02  0.20000004765E+02 0.  0.
         12    1    1    2    0    0 -0.30806281222E+02  0.24511435743E+02  0.18269804000E+02  0.43400727910E+02  0.00000000000E+00 0. -1.
         11    1    3    3    0    0  0.12364372124E+02 -0.19025232466E+01 -0.12534677343E+01  0.12572528559E+02  0.51100000000E-03 0. -1.
        -11    1    3    3    0    0  0.58979546026E+01 -0.11909563749E+02 -0.31173749530E+01  0.13650699764E+02  0.51100000000E-03 0.  1.
        -12    1    3    3    0    0  0.12543954495E+02 -0.10699348748E+02 -0.13898961313E+02  0.21564043767E+02  0.00000000000E+00 0.  1.
</event>
<event>
 7    1  0.1631716E-009  0.4778727E+02  0.7816164E-02  0.1312668E+00
        -11   -1    0    0    0    0  0.00000000000E+00  0.00000000000E+00  0.45593999997E+02  0.45594000000E+02  0.51100000000E-03 0. -1.
         11   -1    0    0    0    0 -0.00000000000E+00 -0.00000000000E+00 -0.45593999997E+02  0.45594000000E+02  0.51100000000E-03 0.  1.
    9900012    2    1    2    0    0  0.10610952112E+02  0.24887455899E+02 -0.33935903222E+02  0.47787270820E+02  0.19999998977E+02 0.  0.
         12    1    1    2    0    0 -0.10610952112E+02 -0.24887455899E+02  0.33935903222E+02  0.43400729180E+02  0.00000000000E+00 0. -1.
         11    1    3    3    0    0  0.92064499005E+01  0.64334020340E+01 -0.21529379379E+02  0.24282947890E+02  0.51100000000E-03 0. -1.
        -11    1    3    3    0    0 -0.25700296976E+01  0.37539422466E+01 -0.42679018969E+01  0.62379581516E+01  0.51100000000E-03 0.  1.
         12    1    3    3    0    0  0.39745319096E+01  0.14700111618E+02 -0.81386219461E+01  0.17266364779E+02  0.00000000000E+00 0. -1.
</event>
<event>
 7    1  0.1631716E-009  0.4778728E+02  0.7816164E-02  0.1312668E+00
        -11   -1    0    0    0    0  0.00000000000E+00  0.00000000000E+00  0.45593999997E+02  0.45594000000E+02  0.51100000000E-03 0.  1.
         11   -1    0    0    0    0 -0.00000000000E+00 -0.00000000000E+00 -0.45593999997E+02  0.45594000000E+02  0.51100000000E-03 0. -1.
    9900012    2    1    2    0    0  0.54763020862E+01 -0.94781945009E+01  0.41997575139E+02  0.47787281422E+02  0.20000047315E+02 0.  0.
         12    1    1    2    0    0 -0.54763020862E+01  0.94781945009E+01 -0.41997575139E+02  0.43400718578E+02  0.00000000000E+00 0. -1.
         11    1    3    3    0    0  0.38246416767E+01  0.28645220074E+01  0.25455076234E+01  0.54141462493E+01  0.51100000000E-03 0. -1.
        -11    1    3    3    0    0 -0.14825819665E+01 -0.77858710536E+01  0.12080536841E+02  0.14448432717E+02  0.51100000000E-03 0.  1.
        -12    1    3    3    0    0  0.31342423761E+01 -0.45568454547E+01  0.27371530674E+02  0.27924702455E+02  0.00000000000E+00 0.  1.
</event>
<event>
 7    1  0.1631716E-009  0.4778727E+02  0.7816164E-02  0.1312668E+00
        -11   -1    0    0    0    0  0.00000000000E+00  0.00000000000E+00  0.45593999997E+02  0.45594000000E+02  0.51100000000E-03 0.  1.
         11   -1    0    0    0    0 -0.00000000000E+00 -0.00000000000E+00 -0.45593999997E+02  0.45594000000E+02  0.51100000000E-03 0. -1.
    9900012    2    1    2    0    0 -0.35757318071E+02  0.88390945468E+01  0.22954474603E+02  0.47787270832E+02  0.19999999030E+02 0.  0.
         12    1    1    2    0    0  0.35757318071E+02 -0.88390945468E+01 -0.22954474603E+02  0.43400729168E+02  0.00000000000E+00 0. -1.
         11    1    3    3    0    0 -0.13631812096E+02  0.36401642711E+01  0.79830804923E+01  0.16211313067E+02  0.51100000000E-03 0.  1.
        -11    1    3    3    0    0 -0.16068829714E+02 -0.22541573531E+01  0.14813257045E+02  0.21970914826E+02  0.51100000000E-03 0. -1.
         12    1    3    3    0    0 -0.60566762603E+01  0.74530876289E+01  0.15813706631E+00  0.96050429389E+01  0.00000000000E+00 0. -1.
</event>
<event>
 7    1  0.1631716E-009  0.4778727E+02  0.7816164E-02  0.1312668E+00
        -11   -1    0    0    0    0  0.00000000000E+00  0.00000000000E+00  0.45593999997E+02  0.45594000000E+02  0.51100000000E-03 0.  1.
         11   -1    0    0    0    0 -0.00000000000E+00 -0.00000000000E+00 -0.45593999997E+02  0.45594000000E+02  0.51100000000E-03 0. -1.
    9900012    2    1    2    0    0 -0.13370205477E+02  0.16162380980E+02  0.37995245956E+02  0.47787266496E+02  0.19999979263E+02 0.  0.
         12    1    1    2    0    0  0.13370205477E+02 -0.16162380980E+02 -0.37995245956E+02  0.43400733504E+02  0.00000000000E+00 0. -1.
         11    1    3    3    0    0 -0.55705930855E+01  0.88430599644E+00  0.99985238593E+01  0.11479720556E+02  0.51100000000E-03 0. -1.
        -11    1    3    3    0    0 -0.10103154087E+02  0.35468376255E+01  0.16835165026E+02  0.19951856088E+02  0.51100000000E-03 0.  1.
         12    1    3    3    0    0  0.23035416960E+01  0.11731237358E+02  0.11161557070E+02  0.16355689852E+02  0.00000000000E+00 0. -1.
</event>
<event>
 7    1  0.1631716E-009  0.4778726E+02  0.7816164E-02  0.1312668E+00
        -11   -1    0    0    0    0  0.00000000000E+00  0.00000000000E+00  0.45593999997E+02  0.45594000000E+02  0.51100000000E-03 0.  1.
         11   -1    0    0    0    0 -0.00000000000E+00 -0.00000000000E+00 -0.45593999997E+02  0.45594000000E+02  0.51100000000E-03 0. -1.
    9900012    2    1    2    0    0  0.24514004585E+02 -0.26664770463E+02  0.23909782762E+02  0.47787261338E+02  0.19999955744E+02 0.  0.
         12    1    1    2    0    0 -0.24514004585E+02  0.26664770463E+02 -0.23909782762E+02  0.43400738662E+02  0.00000000000E+00 0. -1.
         11    1    3    3    0    0  0.23561975279E+02 -0.14704895724E+02  0.20439612991E+02  0.34484466311E+02  0.51100000000E-03 0.  1.
        -11    1    3    3    0    0  0.16747052692E+01 -0.39579516512E+01 -0.52533267866E+00  0.43296643861E+01  0.51100000000E-03 0. -1.
        -12    1    3    3    0    0 -0.72267596320E+00 -0.80019230884E+01  0.39955024505E+01  0.89731306405E+01  0.00000000000E+00 0.  1.
</event>
<event>
 7    1  0.1631716E-009  0.4778727E+02  0.7816164E-02  0.1312668E+00
        -11   -1    0    0    0    0  0.00000000000E+00  0.00000000000E+00  0.45593999997E+02  0.45594000000E+02  0.51100000000E-03 0.  1.
         11   -1    0    0    0    0 -0.00000000000E+00 -0.00000000000E+00 -0.45593999997E+02  0.45594000000E+02  0.51100000000E-03 0. -1.
    9900012    2    1    2    0    0  0.24872650564E+02 -0.20161656315E+02  0.29299871628E+02  0.47787267185E+02  0.19999982403E+02 0.  0.
         12    1    1    2    0    0 -0.24872650564E+02  0.20161656315E+02 -0.29299871628E+02  0.43400732815E+02  0.00000000000E+00 0. -1.
         11    1    3    3    0    0  0.14984498440E+02 -0.11317240452E+02  0.12862519075E+02  0.22760920943E+02  0.51100000000E-03 0. -1.
        -11    1    3    3    0    0  0.87482581657E+01 -0.10758930910E+02  0.73986985212E+01  0.15717103910E+02  0.51100000000E-03 0.  1.
        -12    1    3    3    0    0  0.11398939586E+01  0.19145150460E+01  0.90386540317E+01  0.93092423324E+01  0.00000000000E+00 0.  1.
</event>
<event>
 7    1  0.1631716E-009  0.4778727E+02  0.7816164E-02  0.1312668E+00
        -11   -1    0    0    0    0  0.00000000000E+00  0.00000000000E+00  0.45593999997E+02  0.45594000000E+02  0.51100000000E-03 0.  1.
         11   -1    0    0    0    0 -0.00000000000E+00 -0.00000000000E+00 -0.45593999997E+02  0.45594000000E+02  0.51100000000E-03 0. -1.
    9900012    2    1    2    0    0  0.15221215783E+02  0.16444627966E+01  0.40610757846E+02  0.47787270505E+02  0.19999997542E+02 0.  0.
         12    1    1    2    0    0 -0.15221215783E+02 -0.16444627966E+01 -0.40610757846E+02  0.43400729495E+02  0.00000000000E+00 0. -1.
         11    1    3    3    0    0  0.10181376265E+02 -0.61985360363E+01  0.17966771977E+02  0.21561242246E+02  0.51100000000E-03 0. -1.
        -11    1    3    3    0    0 -0.23929266380E+01  0.80447796561E+00  0.21429583040E+01  0.33114276748E+01  0.51100000000E-03 0.  1.
         12    1    3    3    0    0  0.74327661560E+01  0.70385208673E+01  0.20501027566E+02  0.22914600585E+02  0.00000000000E+00 0. -1.
</event>
<event>
 7    1  0.1631716E-009  0.4778727E+02  0.7816164E-02  0.1312668E+00
        -11   -1    0    0    0    0  0.00000000000E+00  0.00000000000E+00  0.45593999997E+02  0.45594000000E+02  0.51100000000E-03 0.  1.
         11   -1    0    0    0    0 -0.00000000000E+00 -0.00000000000E+00 -0.45593999997E+02  0.45594000000E+02  0.51100000000E-03 0. -1.
    9900012    2    1    2    0    0  0.16392219033E+02 -0.22439069496E+01  0.40123354112E+02  0.47787268342E+02  0.19999987679E+02 0.  0.
         12    1    1    2    0    0 -0.16392219033E+02  0.22439069496E+01 -0.40123354112E+02  0.43400731658E+02  0.00000000000E+00 0. -1.
         11    1    3    3    0    0  0.11552154297E+02  0.42157517532E+01  0.33937080576E+02  0.36096402453E+02  0.51100000000E-03 0.  1.
        -11    1    3    3    0    0  0.31407095060E+01 -0.44553421335E+01  0.70619395486E+01  0.89210492756E+01  0.51100000000E-03 0. -1.
         12    1    3    3    0    0  0.16993552293E+01 -0.20043165693E+01 -0.87566601272E+00  0.27698166133E+01  0.00000000000E+00 0. -1.
</event>
<event>
 7    1  0.1631716E-009  0.4778726E+02  0.7816164E-02  0.1312668E+00
        -11   -1    0    0    0    0  0.00000000000E+00  0.00000000000E+00  0.45593999997E+02  0.45594000000E+02  0.51100000000E-03 0.  1.
         11   -1    0    0    0    0 -0.00000000000E+00 -0.00000000000E+00 -0.45593999997E+02  0.45594000000E+02  0.51100000000E-03 0. -1.
    9900012    2    1    2    0    0  0.17936895770E+02 -0.26199566000E+02  0.29588421987E+02  0.47787260327E+02  0.19999951136E+02 0.  0.
         12    1    1    2    0    0 -0.17936895770E+02  0.26199566000E+02 -0.29588421987E+02  0.43400739673E+02  0.00000000000E+00 0. -1.
         11    1    3    3    0    0  0.54942534127E+01 -0.14503339801E+02  0.15395637683E+02  0.21853131260E+02  0.51100000000E-03 0. -1.
        -11    1    3    3    0    0  0.11209297890E+02 -0.14321460232E+02  0.14133903415E+02  0.23033015616E+02  0.51100000000E-03 0.  1.
         12    1    3    3    0    0  0.12333444676E+01  0.26252340324E+01  0.58880889128E-01  0.29011134517E+01  0.00000000000E+00 0. -1.
</event>
<event>
 7    1  0.1631716E-009  0.4778727E+02  0.7816164E-02  0.1312668E+00
        -11   -1    0    0    0    0  0.00000000000E+00  0.00000000000E+00  0.45593999997E+02  0.45594000000E+02  0.51100000000E-03 0. -1.
         11   -1    0    0    0    0 -0.00000000000E+00 -0.00000000000E+00 -0.45593999997E+02  0.45594000000E+02  0.51100000000E-03 0.  1.
    9900012    2    1    2    0    0  0.26650225801E+02 -0.34250691180E+02 -0.52831578262E+00  0.47787268449E+02  0.19999988168E+02 0.  0.
         12    1    1    2    0    0 -0.26650225801E+02  0.34250691180E+02  0.52831578262E+00  0.43400731551E+02  0.00000000000E+00 0. -1.
         11    1    3    3    0    0  0.17665263698E-01 -0.75552399334E+01 -0.42374013176E+01  0.86624207183E+01  0.51100000000E-03 0. -1.
        -11    1    3    3    0    0  0.13319497347E+02 -0.16867534357E+02 -0.20822388207E+01  0.21593018400E+02  0.51100000000E-03 0.  1.
         12    1    3    3    0    0  0.13313063190E+02 -0.98279168896E+01  0.57913243558E+01  0.17531829331E+02  0.00000000000E+00 0. -1.
</event>
<event>
 7    1  0.1631716E-009  0.4778727E+02  0.7816164E-02  0.1312668E+00
        -11   -1    0    0    0    0  0.00000000000E+00  0.00000000000E+00  0.45593999997E+02  0.45594000000E+02  0.51100000000E-03 0.  1.
         11   -1    0    0    0    0 -0.00000000000E+00 -0.00000000000E+00 -0.45593999997E+02  0.45594000000E+02  0.51100000000E-03 0. -1.
    9900012    2    1    2    0    0 -0.17485130248E+02  0.19859149086E+02  0.34402145293E+02  0.47787272092E+02  0.20000004775E+02 0.  0.
         12    1    1    2    0    0  0.17485130248E+02 -0.19859149086E+02 -0.34402145293E+02  0.43400727908E+02  0.00000000000E+00 0. -1.
         11    1    3    3    0    0 -0.34383732819E+01 -0.21729713871E+01  0.48168741066E+01  0.63044818895E+01  0.51100000000E-03 0. -1.
        -11    1    3    3    0    0 -0.90190892730E+01  0.11937321172E+02  0.25350824375E+02  0.29436506329E+02  0.51100000000E-03 0.  1.
        -12    1    3    3    0    0 -0.50276676932E+01  0.10094799301E+02  0.42344468109E+01  0.12046283873E+02  0.00000000000E+00 0.  1.
</event>
<event>
 7    1  0.1631716E-009  0.4778727E+02  0.7816164E-02  0.1312668E+00
        -11   -1    0    0    0    0  0.00000000000E+00  0.00000000000E+00  0.45593999997E+02  0.45594000000E+02  0.51100000000E-03 0.  1.
         11   -1    0    0    0    0 -0.00000000000E+00 -0.00000000000E+00 -0.45593999997E+02  0.45594000000E+02  0.51100000000E-03 0. -1.
    9900012    2    1    2    0    0  0.37188013607E+02  0.11855084593E+02  0.18977148275E+02  0.47787267939E+02  0.19999985843E+02 0.  0.
         12    1    1    2    0    0 -0.37188013607E+02 -0.11855084593E+02 -0.18977148275E+02  0.43400732061E+02  0.00000000000E+00 0. -1.
         11    1    3    3    0    0  0.44166936839E+01  0.16548135936E+01 -0.38555135569E+01  0.60918450551E+01  0.51100000000E-03 0. -1.
        -11    1    3    3    0    0  0.15093727127E+02  0.75057370095E+01  0.91562550624E+01  0.19183161723E+02  0.51100000000E-03 0.  1.
         12    1    3    3    0    0  0.17677592796E+02  0.26945339898E+01  0.13676406770E+02  0.22512261162E+02  0.00000000000E+00 0. -1.
</event>
<event>
 7    1  0.1631716E-009  0.4778729E+02  0.7816164E-02  0.1312668E+00
        -11   -1    0    0    0    0  0.00000000000E+00  0.00000000000E+00  0.45593999997E+02  0.45594000000E+02  0.51100000000E-03 0.  1.
         11   -1    0    0    0    0 -0.00000000000E+00 -0.00000000000E+00 -0.45593999997E+02  0.45594000000E+02  0.51100000000E-03 0. -1.
    9900012    2    1    2    0    0  0.40089527401E+02 -0.14107625504E+02 -0.87992415810E+01  0.47787286216E+02  0.20000069172E+02 0.  0.
         12    1    1    2    0    0 -0.40089527401E+02  0.14107625504E+02  0.87992415810E+01  0.43400713784E+02  0.00000000000E+00 0. -1.
         11    1    3    3    0    0 -0.11148884612E+01 -0.23382064809E+00 -0.11867923042E+01  0.16450302766E+01  0.51100000000E-03 0. -1.
        -11    1    3    3    0    0  0.19249951631E+02 -0.11961925167E+02  0.47168324569E+00  0.22668718024E+02  0.51100000000E-03 0.  1.
        -12    1    3    3    0    0  0.21954464231E+02 -0.19118796882E+01 -0.80841325225E+01  0.23473537915E+02  0.00000000000E+00 0.  1.
</event>
<event>
 7    1  0.1631716E-009  0.4778727E+02  0.7816164E-02  0.1312668E+00
        -11   -1    0    0    0    0  0.00000000000E+00  0.00000000000E+00  0.45593999997E+02  0.45594000000E+02  0.51100000000E-03 0. -1.
         11   -1    0    0    0    0 -0.00000000000E+00 -0.00000000000E+00 -0.45593999997E+02  0.45594000000E+02  0.51100000000E-03 0.  1.
    9900012    2    1    2    0    0  0.77758448922E+01 -0.24711800661E+02 -0.34820773745E+02  0.47787272588E+02  0.20000007038E+02 0.  0.
         12    1    1    2    0    0 -0.77758448922E+01  0.24711800661E+02  0.34820773745E+02  0.43400727412E+02  0.00000000000E+00 0. -1.
         11    1    3    3    0    0 -0.38101132179E+01 -0.87265799281E+01 -0.13149636662E+02  0.16235242671E+02  0.51100000000E-03 0.  1.
        -11    1    3    3    0    0  0.92603483755E+01 -0.17572669359E+02 -0.17237806937E+02  0.26300090280E+02  0.51100000000E-03 0. -1.
         12    1    3    3    0    0  0.23256097346E+01  0.15874486263E+01 -0.44333301455E+01  0.52519396376E+01  0.00000000000E+00 0. -1.
</event>
<event>
 7    1  0.1631716E-009  0.4778727E+02  0.7816164E-02  0.1312668E+00
        -11   -1    0    0    0    0  0.00000000000E+00  0.00000000000E+00  0.45593999997E+02  0.45594000000E+02  0.51100000000E-03 0. -1.
         11   -1    0    0    0    0 -0.00000000000E+00 -0.00000000000E+00 -0.45593999997E+02  0.45594000000E+02  0.51100000000E-03 0.  1.
    9900012    2    1    2    0    0  0.19537688780E+02 -0.38562833960E+02  0.38483533779E+01  0.47787271093E+02  0.20000000222E+02 0.  0.
         12    1    1    2    0    0 -0.19537688780E+02  0.38562833960E+02 -0.38483533779E+01  0.43400728907E+02  0.00000000000E+00 0. -1.
         11    1    3    3    0    0  0.41895076818E+01 -0.33196694030E+01 -0.39411898049E+01  0.66411713501E+01  0.51100000000E-03 0. -1.
        -11    1    3    3    0    0 -0.56384857173E+00 -0.52475014356E+01  0.46718117684E+01  0.70484056346E+01  0.51100000000E-03 0.  1.
        -12    1    3    3    0    0  0.15912029670E+02 -0.29995663122E+02  0.31177314144E+01  0.34097694108E+02  0.00000000000E+00 0.  1.
</event>
<event>
 7    1  0.1631716E-009  0.4778725E+02  0.7816164E-02  0.1312668E+00
        -11   -1    0    0    0    0  0.00000000000E+00  0.00000000000E+00  0.45593999997E+02  0.45594000000E+02  0.51100000000E-03 0.  1.
         11   -1    0    0    0    0 -0.00000000000E+00 -0.00000000000E+00 -0.45593999997E+02  0.45594000000E+02  0.51100000000E-03 0. -1.
    9900012    2    1    2    0    0  0.81564069412E+01 -0.26565260383E+02  0.33337441209E+02  0.47787250931E+02  0.19999908293E+02 0.  0.
         12    1    1    2    0    0 -0.81564069412E+01  0.26565260383E+02 -0.33337441209E+02  0.43400749069E+02  0.00000000000E+00 0. -1.
         11    1    3    3    0    0 -0.17781050303E+01 -0.18065240223E+01  0.70288038633E+01  0.74718987247E+01  0.51100000000E-03 0. -1.
        -11    1    3    3    0    0  0.37937313738E+01 -0.12811005904E+02  0.34458796107E+01  0.13798128734E+02  0.51100000000E-03 0.  1.
        -12    1    3    3    0    0  0.61407805977E+01 -0.11947730457E+02  0.22862757735E+02  0.26517223472E+02  0.00000000000E+00 0.  1.
</event>
<event>
 7    1  0.1631716E-009  0.4778727E+02  0.7816164E-02  0.1312668E+00
        -11   -1    0    0    0    0  0.00000000000E+00  0.00000000000E+00  0.45593999997E+02  0.45594000000E+02  0.51100000000E-03 0. -1.
         11   -1    0    0    0    0 -0.00000000000E+00 -0.00000000000E+00 -0.45593999997E+02  0.45594000000E+02  0.51100000000E-03 0.  1.
    9900012    2    1    2    0    0 -0.16184803096E+02 -0.40157235773E+02  0.30119290755E+01  0.47787272438E+02  0.20000006352E+02 0.  0.
         12    1    1    2    0    0  0.16184803096E+02  0.40157235773E+02 -0.30119290755E+01  0.43400727562E+02  0.00000000000E+00 0. -1.
         11    1    3    3    0    0 -0.44929841689E+01 -0.31721570125E+02  0.67230515998E+00  0.32045232289E+02  0.51100000000E-03 0. -1.
        -11    1    3    3    0    0 -0.95497037414E+01 -0.91827535838E+01  0.24398163991E+01  0.13471173269E+02  0.51100000000E-03 0.  1.
         12    1    3    3    0    0 -0.21421151856E+01  0.74708793582E+00 -0.10019248363E+00  0.22708668798E+01  0.00000000000E+00 0. -1.
</event>
<event>
 7    1  0.1631716E-009  0.4778727E+02  0.7816164E-02  0.1312668E+00
        -11   -1    0    0    0    0  0.00000000000E+00  0.00000000000E+00  0.45593999997E+02  0.45594000000E+02  0.51100000000E-03 0.  1.
         11   -1    0    0    0    0 -0.00000000000E+00 -0.00000000000E+00 -0.45593999997E+02  0.45594000000E+02  0.51100000000E-03 0. -1.
    9900012    2    1    2    0    0  0.26254676001E+02  0.33087330176E+02 -0.99771665438E+01  0.47787270947E+02  0.19999999557E+02 0.  0.
         12    1    1    2    0    0 -0.26254676001E+02 -0.33087330176E+02  0.99771665438E+01  0.43400729053E+02  0.00000000000E+00 0. -1.
         11    1    3    3    0    0  0.65828533810E+01  0.17284219108E+02 -0.36811866506E+01  0.18858136818E+02  0.51100000000E-03 0.  1.
        -11    1    3    3    0    0  0.16399008293E+02  0.14533742275E+02 -0.97686421210E+01  0.23991321486E+02  0.51100000000E-03 0. -1.
         12    1    3    3    0    0  0.32728143271E+01  0.12693687923E+01  0.34726622279E+01  0.49378126432E+01  0.00000000000E+00 0. -1.
</event>
<event>
 7    1  0.1631716E-009  0.4778727E+02  0.7816164E-02  0.1312668E+00
        -11   -1    0    0    0    0  0.00000000000E+00  0.00000000000E+00  0.45593999997E+02  0.45594000000E+02  0.51100000000E-03 0.  1.
         11   -1    0    0    0    0 -0.00000000000E+00 -0.00000000000E+00 -0.45593999997E+02  0.45594000000E+02  0.51100000000E-03 0. -1.
    9900012    2    1    2    0    0  0.28721047896E+02  0.25101737531E+02 -0.20703329584E+02  0.47787266421E+02  0.19999978922E+02 0.  0.
         12    1    1    2    0    0 -0.28721047896E+02 -0.25101737531E+02  0.20703329584E+02  0.43400733579E+02  0.00000000000E+00 0. -1.
         11    1    3    3    0    0  0.47521499059E+01  0.56933863457E+01 -0.59259117155E+00  0.74396734718E+01  0.51100000000E-03 0.  1.
        -11    1    3    3    0    0  0.19026369441E+02  0.75601449724E+01 -0.18151432886E+02  0.27361159372E+02  0.51100000000E-03 0. -1.
         12    1    3    3    0    0  0.49425285486E+01  0.11848206213E+02 -0.19593055261E+01  0.12986433577E+02  0.00000000000E+00 0. -1.
</event>
<event>
 7    1  0.1631716E-009  0.4778727E+02  0.7816164E-02  0.1312668E+00
        -11   -1    0    0    0    0  0.00000000000E+00  0.00000000000E+00  0.45593999997E+02  0.45594000000E+02  0.51100000000E-03 0.  1.
         11   -1    0    0    0    0 -0.00000000000E+00 -0.00000000000E+00 -0.45593999997E+02  0.45594000000E+02  0.51100000000E-03 0. -1.
    9900012    2    1    2    0    0  0.23614141023E+02  0.31557627585E+02  0.18168975505E+02  0.47787272057E+02  0.20000004619E+02 0.  0.
         12    1    1    2    0    0 -0.23614141023E+02 -0.31557627585E+02 -0.18168975505E+02  0.43400727943E+02  0.00000000000E+00 0. -1.
         11    1    3    3    0    0 -0.13556570415E+01  0.73717585887E+00 -0.31329570887E+00  0.15746074823E+01  0.51100000000E-03 0. -1.
        -11    1    3    3    0    0  0.15472938349E+02  0.28355836986E+02  0.16208776437E+02  0.36141247158E+02  0.51100000000E-03 0.  1.
        -12    1    3    3    0    0  0.94968597161E+01  0.24646147400E+01  0.22734947766E+01  0.10071417417E+02  0.00000000000E+00 0.  1.
</event>
<event>
 7    1  0.1631716E-009  0.4778728E+02  0.7816164E-02  0.1312668E+00
        -11   -1    0    0    0    0  0.00000000000E+00  0.00000000000E+00  0.45593999997E+02  0.45594000000E+02  0.51100000000E-03 0.  1.
         11   -1    0    0    0    0 -0.00000000000E+00 -0.00000000000E+00 -0.45593999997E+02  0.45594000000E+02  0.51100000000E-03 0. -1.
    9900012    2    1    2    0    0  0.48364855016E+01 -0.59983109881E+01  0.42711254091E+02  0.47787279352E+02  0.20000037879E+02 0.  0.
         12    1    1    2    0    0 -0.48364855016E+01  0.59983109881E+01 -0.42711254091E+02  0.43400720648E+02  0.00000000000E+00 0. -1.
         11    1    3    3    0    0  0.48278474558E+01 -0.49833453954E+01  0.56951545917E+01  0.89764485444E+01  0.51100000000E-03 0. -1.
        -11    1    3    3    0    0  0.55504166039E+01  0.47910260412E+00  0.22999115909E+02  0.23664234546E+02  0.51100000000E-03 0.  1.
        -12    1    3    3    0    0 -0.55417785581E+01 -0.14940681968E+01  0.14016983590E+02  0.15146596262E+02  0.00000000000E+00 0.  1.
</event>
<event>
 7    1  0.1631716E-009  0.4778727E+02  0.7816164E-02  0.1312668E+00
        -11   -1    0    0    0    0  0.00000000000E+00  0.00000000000E+00  0.45593999997E+02  0.45594000000E+02  0.51100000000E-03 0.  1.
         11   -1    0    0    0    0 -0.00000000000E+00 -0.00000000000E+00 -0.45593999997E+02  0.45594000000E+02  0.51100000000E-03 0. -1.
    9900012    2    1    2    0    0 -0.11488391484E+02 -0.39221660585E+02  0.14604842843E+02  0.47787271522E+02  0.20000002179E+02 0.  0.
         12    1    1    2    0    0  0.11488391484E+02  0.39221660585E+02 -0.14604842843E+02  0.43400728478E+02  0.00000000000E+00 0. -1.
         11    1    3    3    0    0  0.43981938994E+00 -0.35851665163E+00 -0.14539970330E+01  0.15607956043E+01  0.51100000000E-03 0. -1.
        -11    1    3    3    0    0 -0.62297335562E+01 -0.36661983989E+02  0.12997259408E+02  0.39393392880E+02  0.51100000000E-03 0.  1.
         12    1    3    3    0    0 -0.56984773178E+01 -0.22011599437E+01  0.30615804682E+01  0.68330830378E+01  0.00000000000E+00 0. -1.
</event>
<event>
 7    1  0.1631716E-009  0.4778727E+02  0.7816164E-02  0.1312668E+00
        -11   -1    0    0    0    0  0.00000000000E+00  0.00000000000E+00  0.45593999997E+02  0.45594000000E+02  0.51100000000E-03 0. -1.
         11   -1    0    0    0    0 -0.00000000000E+00 -0.00000000000E+00 -0.45593999997E+02  0.45594000000E+02  0.51100000000E-03 0.  1.
    9900012    2    1    2    0    0 -0.27820798534E+02 -0.32807633421E+02 -0.57693716162E+01  0.47787270852E+02  0.19999999122E+02 0.  0.
         12    1    1    2    0    0  0.27820798534E+02  0.32807633421E+02  0.57693716162E+01  0.43400729148E+02  0.00000000000E+00 0. -1.
         11    1    3    3    0    0 -0.20405561018E+02 -0.28792314675E+02  0.26285232080E+01  0.35387758325E+02  0.51100000000E-03 0. -1.
        -11    1    3    3    0    0 -0.43287766940E+00  0.24597184446E+00  0.19592219828E+00  0.53504298316E+00  0.51100000000E-03 0.  1.
        -12    1    3    3    0    0 -0.69823598471E+01 -0.42612905904E+01 -0.85938170225E+01  0.11864469543E+02  0.00000000000E+00 0.  1.
</event>
<event>
 7    1  0.1631716E-009  0.4778727E+02  0.7816164E-02  0.1312668E+00
        -11   -1    0    0    0    0  0.00000000000E+00  0.00000000000E+00  0.45593999997E+02  0.45594000000E+02  0.51100000000E-03 0.  1.
         11   -1    0    0    0    0 -0.00000000000E+00 -0.00000000000E+00 -0.45593999997E+02  0.45594000000E+02  0.51100000000E-03 0. -1.
    9900012    2    1    2    0    0 -0.11135224343E+02  0.41154477909E+02 -0.81202646189E+01  0.47787274539E+02  0.20000015931E+02 0.  0.
         12    1    1    2    0    0  0.11135224343E+02 -0.41154477909E+02  0.81202646189E+01  0.43400725461E+02  0.00000000000E+00 0. -1.
         11    1    3    3    0    0 -0.27638942721E+01  0.77746095496E+01 -0.53765299564E+01  0.98483876766E+01  0.51100000000E-03 0. -1.
        -11    1    3    3    0    0 -0.61719758493E+00  0.26617843032E+02  0.18127528593E+01  0.26686636613E+02  0.51100000000E-03 0.  1.
        -12    1    3    3    0    0 -0.77541324855E+01  0.67620253276E+01 -0.45564875218E+01  0.11252250249E+02  0.00000000000E+00 0.  1.
</event>
<event>
 7    1  0.1631716E-009  0.4778727E+02  0.7816164E-02  0.1312668E+00
        -11   -1    0    0    0    0  0.00000000000E+00  0.00000000000E+00  0.45593999997E+02  0.45594000000E+02  0.51100000000E-03 0.  1.
         11   -1    0    0    0    0 -0.00000000000E+00 -0.00000000000E+00 -0.45593999997E+02  0.45594000000E+02  0.51100000000E-03 0. -1.
    9900012    2    1    2    0    0 -0.67870215154E+01  0.14818719505E+02  0.40223939467E+02  0.47787269418E+02  0.19999992583E+02 0.  0.
         12    1    1    2    0    0  0.67870215154E+01 -0.14818719505E+02 -0.40223939467E+02  0.43400730582E+02  0.00000000000E+00 0. -1.
         11    1    3    3    0    0 -0.31923966049E+01  0.10093826659E+02  0.47705256427E+01  0.11611832236E+02  0.51100000000E-03 0. -1.
        -11    1    3    3    0    0 -0.59979178355E+00 -0.50857920219E+00  0.94235305496E+01  0.94562852785E+01  0.51100000000E-03 0.  1.
         12    1    3    3    0    0 -0.29948331269E+01  0.52334720484E+01  0.26029883275E+02  0.26719151903E+02  0.00000000000E+00 0. -1.
</event>
<event>
 7    1  0.1631716E-009  0.4778728E+02  0.7816164E-02  0.1312668E+00
        -11   -1    0    0    0    0  0.00000000000E+00  0.00000000000E+00  0.45593999997E+02  0.45594000000E+02  0.51100000000E-03 0.  1.
         11   -1    0    0    0    0 -0.00000000000E+00 -0.00000000000E+00 -0.45593999997E+02  0.45594000000E+02  0.51100000000E-03 0. -1.
    9900012    2    1    2    0    0  0.30911770785E+02 -0.12667621406E+02  0.27705892330E+02  0.47787277944E+02  0.20000031457E+02 0.  0.
         12    1    1    2    0    0 -0.30911770785E+02  0.12667621406E+02 -0.27705892330E+02  0.43400722056E+02  0.00000000000E+00 0. -1.
         11    1    3    3    0    0  0.10686273853E+01 -0.40247374775E+01  0.77767937185E+01  0.88215076406E+01  0.51100000000E-03 0. -1.
        -11    1    3    3    0    0  0.12984274565E+02 -0.91801246977E+01  0.13685184435E+02  0.20979760454E+02  0.51100000000E-03 0.  1.
         12    1    3    3    0    0  0.16858868835E+02  0.53724076879E+00  0.62439141767E+01  0.17986009849E+02  0.00000000000E+00 0. -1.
</event>
<event>
 7    1  0.1631716E-009  0.4778727E+02  0.7816164E-02  0.1312668E+00
        -11   -1    0    0    0    0  0.00000000000E+00  0.00000000000E+00  0.45593999997E+02  0.45594000000E+02  0.51100000000E-03 0.  1.
         11   -1    0    0    0    0 -0.00000000000E+00 -0.00000000000E+00 -0.45593999997E+02  0.45594000000E+02  0.51100000000E-03 0. -1.
    9900012    2    1    2    0    0 -0.66825211450E+01  0.38180194640E+02  0.19525366221E+02  0.47787271000E+02  0.19999999798E+02 0.  0.
         12    1    1    2    0    0  0.66825211450E+01 -0.38180194640E+02 -0.19525366221E+02  0.43400729000E+02  0.00000000000E+00 0. -1.
         11    1    3    3    0    0  0.91430108653E+00  0.20099799084E+01 -0.23970710668E+01  0.32591280535E+01  0.51100000000E-03 0. -1.
        -11    1    3    3    0    0 -0.10145165747E+02  0.23746799616E+02  0.12266493943E+02  0.28588489886E+02  0.51100000000E-03 0.  1.
         12    1    3    3    0    0  0.25483435155E+01  0.12423415116E+02  0.96559433447E+01  0.15939653061E+02  0.00000000000E+00 0. -1.
</event>
<event>
 7    1  0.1631716E-009  0.4778727E+02  0.7816164E-02  0.1312668E+00
        -11   -1    0    0    0    0  0.00000000000E+00  0.00000000000E+00  0.45593999997E+02  0.45594000000E+02  0.51100000000E-03 0.  1.
         11   -1    0    0    0    0 -0.00000000000E+00 -0.00000000000E+00 -0.45593999997E+02  0.45594000000E+02  0.51100000000E-03 0. -1.
    9900012    2    1    2    0    0 -0.27521943827E+02  0.33544801864E+02 -0.95488944993E+00  0.47787274914E+02  0.20000017643E+02 0.  0.
         12    1    1    2    0    0  0.27521943827E+02 -0.33544801864E+02  0.95488944993E+00  0.43400725086E+02  0.00000000000E+00 0. -1.
         11    1    3    3    0    0 -0.13711097374E+02  0.42866838363E+01  0.21959546237E+01  0.14532448743E+02  0.51100000000E-03 0. -1.
        -11    1    3    3    0    0 -0.56228853293E+01  0.11672642211E+02  0.21775520507E+01  0.13138080103E+02  0.51100000000E-03 0.  1.
        -12    1    3    3    0    0 -0.81879611242E+01  0.17585475817E+02 -0.53283961243E+01  0.20116746067E+02  0.00000000000E+00 0.  1.
</event>
<event>
 7    1  0.1631716E-009  0.4778724E+02  0.7816164E-02  0.1312668E+00
        -11   -1    0    0    0    0  0.00000000000E+00  0.00000000000E+00  0.45593999997E+02  0.45594000000E+02  0.51100000000E-03 0.  1.
         11   -1    0    0    0    0 -0.00000000000E+00 -0.00000000000E+00 -0.45593999997E+02  0.45594000000E+02  0.51100000000E-03 0. -1.
    9900012    2    1    2    0    0 -0.15570899046E+02  0.38738576932E+02  0.11853093029E+02  0.47787239014E+02  0.19999853960E+02 0.  0.
         12    1    1    2    0    0  0.15570899046E+02 -0.38738576932E+02 -0.11853093029E+02  0.43400760986E+02  0.00000000000E+00 0. -1.
         11    1    3    3    0    0 -0.39004894671E+01  0.77601699845E+01 -0.11098805890E+01  0.87559060898E+01  0.51100000000E-03 0. -1.
        -11    1    3    3    0    0 -0.13439772488E+02  0.21438821050E+02  0.36180147717E+01  0.25560527453E+02  0.51100000000E-03 0.  1.
         12    1    3    3    0    0  0.17693629090E+01  0.95395858976E+01  0.93449588460E+01  0.13470805471E+02  0.00000000000E+00 0. -1.
</event>
<event>
 7    1  0.1631716E-009  0.4778727E+02  0.7816164E-02  0.1312668E+00
        -11   -1    0    0    0    0  0.00000000000E+00  0.00000000000E+00  0.45593999997E+02  0.45594000000E+02  0.51100000000E-03 0. -1.
         11   -1    0    0    0    0 -0.00000000000E+00 -0.00000000000E+00 -0.45593999997E+02  0.45594000000E+02  0.51100000000E-03 0.  1.
    9900012    2    1    2    0    0 -0.36868967407E+02  0.75823031946E+01 -0.21605808997E+02  0.47787273487E+02  0.20000011139E+02 0.  0.
         12    1    1    2    0    0  0.36868967407E+02 -0.75823031946E+01  0.21605808997E+02  0.43400726513E+02  0.00000000000E+00 0. -1.
         11    1    3    3    0    0 -0.43978745749E+01  0.10013613206E+01 -0.97274552960E+01  0.10722285767E+02  0.51100000000E-03 0. -1.
        -11    1    3    3    0    0 -0.20725427368E+01  0.18262945013E+01 -0.47297015239E+01  0.54773042428E+01  0.51100000000E-03 0.  1.
        -12    1    3    3    0    0 -0.30398550095E+02  0.47546473726E+01 -0.71486521774E+01  0.31587683478E+02  0.00000000000E+00 0.  1.
</event>
<event>
 7    1  0.1631716E-009  0.4778728E+02  0.7816164E-02  0.1312668E+00
        -11   -1    0    0    0    0  0.00000000000E+00  0.00000000000E+00  0.45593999997E+02  0.45594000000E+02  0.51100000000E-03 0.  1.
         11   -1    0    0    0    0 -0.00000000000E+00 -0.00000000000E+00 -0.45593999997E+02  0.45594000000E+02  0.51100000000E-03 0. -1.
    9900012    2    1    2    0    0  0.32062016529E+02  0.28097655486E+02  0.81345735821E+01  0.47787280708E+02  0.20000044059E+02 0.  0.
         12    1    1    2    0    0 -0.32062016529E+02 -0.28097655486E+02 -0.81345735821E+01  0.43400719292E+02  0.00000000000E+00 0. -1.
         11    1    3    3    0    0  0.82625524895E+01  0.85237843935E+01 -0.26480881477E+01  0.12162937356E+02  0.51100000000E-03 0. -1.
        -11    1    3    3    0    0  0.24403917212E+02  0.18531346596E+02  0.12852916222E+02  0.33228894620E+02  0.51100000000E-03 0.  1.
        -12    1    3    3    0    0 -0.60445317267E+00  0.10425244962E+01 -0.20702544926E+01  0.23954487319E+01  0.00000000000E+00 0.  1.
</event>
<event>
 7    1  0.1631716E-009  0.4778727E+02  0.7816164E-02  0.1312668E+00
        -11   -1    0    0    0    0  0.00000000000E+00  0.00000000000E+00  0.45593999997E+02  0.45594000000E+02  0.51100000000E-03 0.  1.
         11   -1    0    0    0    0 -0.00000000000E+00 -0.00000000000E+00 -0.45593999997E+02  0.45594000000E+02  0.51100000000E-03 0. -1.
    9900012    2    1    2    0    0  0.67109284704E+01 -0.16622746327E+01  0.42846513028E+02  0.47787269631E+02  0.19999993557E+02 0.  0.
         12    1    1    2    0    0 -0.67109284704E+01  0.16622746327E+01 -0.42846513028E+02  0.43400730369E+02  0.00000000000E+00 0. -1.
         11    1    3    3    0    0  0.70595542423E+01 -0.67228006719E+01  0.12247690172E+02  0.15653730219E+02  0.51100000000E-03 0. -1.
        -11    1    3    3    0    0  0.18766427637E+01  0.12566415430E+00  0.11790117809E+01  0.22198307554E+01  0.51100000000E-03 0.  1.
        -12    1    3    3    0    0 -0.22252685357E+01  0.49348618849E+01  0.29419811075E+02  0.29913708657E+02  0.00000000000E+00 0.  1.
</event>
<event>
 7    1  0.1631716E-009  0.4778727E+02  0.7816164E-02  0.1312668E+00
        -11   -1    0    0    0    0  0.00000000000E+00  0.00000000000E+00  0.45593999997E+02  0.45594000000E+02  0.51100000000E-03 0.  1.
         11   -1    0    0    0    0 -0.00000000000E+00 -0.00000000000E+00 -0.45593999997E+02  0.45594000000E+02  0.51100000000E-03 0. -1.
    9900012    2    1    2    0    0 -0.55674527364E+01  0.20138036901E+02  0.38040588304E+02  0.47787269376E+02  0.19999992391E+02 0.  0.
         12    1    1    2    0    0  0.55674527364E+01 -0.20138036901E+02 -0.38040588304E+02  0.43400730624E+02  0.00000000000E+00 0. -1.
         11    1    3    3    0    0 -0.18472013878E+01  0.11657479772E+02  0.92007067343E+01  0.14965359744E+02  0.51100000000E-03 0. -1.
        -11    1    3    3    0    0 -0.33377134984E+01  0.10561541582E+02  0.28627282075E+02  0.30695403096E+02  0.51100000000E-03 0.  1.
        -12    1    3    3    0    0 -0.38253785029E+00 -0.20809844527E+01  0.21259949487E+00  0.21265065352E+01  0.00000000000E+00 0.  1.
</event>
<event>
 7    1  0.1631716E-009  0.4778727E+02  0.7816164E-02  0.1312668E+00
        -11   -1    0    0    0    0  0.00000000000E+00  0.00000000000E+00  0.45593999997E+02  0.45594000000E+02  0.51100000000E-03 0.  1.
         11   -1    0    0    0    0 -0.00000000000E+00 -0.00000000000E+00 -0.45593999997E+02  0.45594000000E+02  0.51100000000E-03 0. -1.
    9900012    2    1    2    0    0 -0.36119855069E+02 -0.22399621063E+02  0.87884057589E+01  0.47787273856E+02  0.20000012820E+02 0.  0.
         12    1    1    2    0    0  0.36119855069E+02  0.22399621064E+02 -0.87884057589E+01  0.43400726144E+02  0.00000000000E+00 0. -1.
         11    1    3    3    0    0 -0.26861847407E+01 -0.87660013721E+01  0.20057894481E+00  0.91705289210E+01  0.51100000000E-03 0. -1.
        -11    1    3    3    0    0 -0.10673375732E+02 -0.36501410025E+00 -0.64794328692E+00  0.10699253038E+02  0.51100000000E-03 0.  1.
         12    1    3    3    0    0 -0.22760294597E+02 -0.13268605591E+02  0.92357701010E+01  0.27917491897E+02  0.00000000000E+00 0. -1.
</event>
<event>
 7    1  0.1631716E-009  0.4778727E+02  0.7816164E-02  0.1312668E+00
        -11   -1    0    0    0    0  0.00000000000E+00  0.00000000000E+00  0.45593999997E+02  0.45594000000E+02  0.51100000000E-03 0. -1.
         11   -1    0    0    0    0 -0.00000000000E+00 -0.00000000000E+00 -0.45593999997E+02  0.45594000000E+02  0.51100000000E-03 0.  1.
    9900012    2    1    2    0    0  0.25404648329E+02  0.30600990125E+02 -0.17372577919E+02  0.47787271701E+02  0.20000002994E+02 0.  0.
         12    1    1    2    0    0 -0.25404648329E+02 -0.30600990125E+02  0.17372577919E+02  0.43400728299E+02  0.00000000000E+00 0. -1.
         11    1    3    3    0    0  0.19018743054E+02  0.15145809667E+02 -0.61266176503E+01  0.25072765742E+02  0.51100000000E-03 0. -1.
        -11    1    3    3    0    0  0.70976711318E+01  0.89438043535E+01 -0.23334971287E+01  0.11653916978E+02  0.51100000000E-03 0.  1.
        -12    1    3    3    0    0 -0.71176585744E+00  0.65113761041E+01 -0.89124631399E+01  0.11060588982E+02  0.00000000000E+00 0.  1.
</event>
<event>
 7    1  0.1631716E-009  0.4778727E+02  0.7816164E-02  0.1312668E+00
        -11   -1    0    0    0    0  0.00000000000E+00  0.00000000000E+00  0.45593999997E+02  0.45594000000E+02  0.51100000000E-03 0.  1.
         11   -1    0    0    0    0 -0.00000000000E+00 -0.00000000000E+00 -0.45593999997E+02  0.45594000000E+02  0.51100000000E-03 0. -1.
    9900012    2    1    2    0    0  0.30923188449E+02 -0.12972540765E+02  0.27551637688E+02  0.47787272621E+02  0.20000007189E+02 0.  0.
         12    1    1    2    0    0 -0.30923188449E+02  0.12972540765E+02 -0.27551637688E+02  0.43400727379E+02  0.00000000000E+00 0. -1.
         11    1    3    3    0    0  0.40795344740E+01  0.18314142354E+01  0.38449628794E+01  0.58974926394E+01  0.51100000000E-03 0. -1.
        -11    1    3    3    0    0  0.11591593945E+02  0.18933276559E+01  0.10147864431E+02  0.15521884311E+02  0.51100000000E-03 0.  1.
        -12    1    3    3    0    0  0.15252060030E+02 -0.16697282656E+02  0.13558810377E+02  0.26367895671E+02  0.00000000000E+00 0.  1.
</event>
<event>
 7    1  0.1631716E-009  0.4778727E+02  0.7816164E-02  0.1312668E+00
        -11   -1    0    0    0    0  0.00000000000E+00  0.00000000000E+00  0.45593999997E+02  0.45594000000E+02  0.51100000000E-03 0. -1.
         11   -1    0    0    0    0 -0.00000000000E+00 -0.00000000000E+00 -0.45593999997E+02  0.45594000000E+02  0.51100000000E-03 0.  1.
    9900012    2    1    2    0    0  0.42343976329E+02 -0.28716580601E+01  0.90754776146E+01  0.47787273678E+02  0.20000012007E+02 0.  0.
         12    1    1    2    0    0 -0.42343976329E+02  0.28716580601E+01 -0.90754776146E+01  0.43400726322E+02  0.00000000000E+00 0. -1.
         11    1    3    3    0    0  0.15334743966E+02  0.39197499024E+01  0.58238513799E+01  0.16865232194E+02  0.51100000000E-03 0. -1.
        -11    1    3    3    0    0  0.96890411109E+01  0.37662655645E+01  0.11001890280E+00  0.10395882761E+02  0.51100000000E-03 0.  1.
         12    1    3    3    0    0  0.17320191252E+02 -0.10557673527E+02  0.31416073319E+01  0.20526158724E+02  0.00000000000E+00 0. -1.
</event>
<event>
 7    1  0.1631716E-009  0.4778727E+02  0.7816164E-02  0.1312668E+00
        -11   -1    0    0    0    0  0.00000000000E+00  0.00000000000E+00  0.45593999997E+02  0.45594000000E+02  0.51100000000E-03 0.  1.
         11   -1    0    0    0    0 -0.00000000000E+00 -0.00000000000E+00 -0.45593999997E+02  0.45594000000E+02  0.51100000000E-03 0. -1.
    9900012    2    1    2    0    0  0.16519506674E+02 -0.11846062903E+02  0.38345795385E+02  0.47787270389E+02  0.19999997010E+02 0.  0.
         12    1    1    2    0    0 -0.16519506674E+02  0.11846062903E+02 -0.38345795385E+02  0.43400729611E+02  0.00000000000E+00 0. -1.
         11    1    3    3    0    0  0.84324069274E+01 -0.37116749403E+00  0.25971628775E+02  0.27308766969E+02  0.51100000000E-03 0.  1.
        -11    1    3    3    0    0  0.85320248958E-02 -0.59208487335E+00 -0.11738819592E+01  0.13147761817E+01  0.51100000000E-03 0. -1.
        -12    1    3    3    0    0  0.80785677217E+01 -0.10882810536E+02  0.13548048569E+02  0.19163727238E+02  0.00000000000E+00 0.  1.
</event>
<event>
 7    1  0.1631716E-009  0.4778727E+02  0.7816164E-02  0.1312668E+00
        -11   -1    0    0    0    0  0.00000000000E+00  0.00000000000E+00  0.45593999997E+02  0.45594000000E+02  0.51100000000E-03 0.  1.
         11   -1    0    0    0    0 -0.00000000000E+00 -0.00000000000E+00 -0.45593999997E+02  0.45594000000E+02  0.51100000000E-03 0. -1.
    9900012    2    1    2    0    0  0.29730779096E+02  0.20688395096E+02  0.23910132652E+02  0.47787270043E+02  0.19999995436E+02 0.  0.
         12    1    1    2    0    0 -0.29730779096E+02 -0.20688395096E+02 -0.23910132652E+02  0.43400729957E+02  0.00000000000E+00 0. -1.
         11    1    3    3    0    0  0.10880173204E+01  0.44345261751E+00 -0.24170721916E+01  0.26875025868E+01  0.51100000000E-03 0. -1.
        -11    1    3    3    0    0  0.33981085539E+01  0.74026073598E+01  0.42429362868E+01  0.91841301201E+01  0.51100000000E-03 0.  1.
         12    1    3    3    0    0  0.25244653222E+02  0.12842335119E+02  0.22084268557E+02  0.35915637337E+02  0.00000000000E+00 0. -1.
</event>
<event>
 7    1  0.1631716E-009  0.4778727E+02  0.7816164E-02  0.1312668E+00
        -11   -1    0    0    0    0  0.00000000000E+00  0.00000000000E+00  0.45593999997E+02  0.45594000000E+02  0.51100000000E-03 0.  1.
         11   -1    0    0    0    0 -0.00000000000E+00 -0.00000000000E+00 -0.45593999997E+02  0.45594000000E+02  0.51100000000E-03 0. -1.
    9900012    2    1    2    0    0  0.30490418616E+02 -0.30347742932E+02  0.57421393573E+01  0.47787270826E+02  0.19999999003E+02 0.  0.
         12    1    1    2    0    0 -0.30490418616E+02  0.30347742932E+02 -0.57421393573E+01  0.43400729174E+02  0.00000000000E+00 0. -1.
         11    1    3    3    0    0 -0.17540895087E-01  0.10254924836E+01  0.19215911852E+01  0.21781770959E+01  0.51100000000E-03 0. -1.
        -11    1    3    3    0    0  0.92429538559E+01 -0.18203878438E+02  0.23925022912E+01  0.20555715838E+02  0.51100000000E-03 0.  1.
        -12    1    3    3    0    0  0.21265005655E+02 -0.13169356978E+02  0.14280458808E+01  0.25053377892E+02  0.00000000000E+00 0.  1.
</event>
<event>
 7    1  0.1631716E-009  0.4778727E+02  0.7816164E-02  0.1312668E+00
        -11   -1    0    0    0    0  0.00000000000E+00  0.00000000000E+00  0.45593999997E+02  0.45594000000E+02  0.51100000000E-03 0.  1.
         11   -1    0    0    0    0 -0.00000000000E+00 -0.00000000000E+00 -0.45593999997E+02  0.45594000000E+02  0.51100000000E-03 0. -1.
    9900012    2    1    2    0    0  0.15687073172E+01  0.21539536368E+01  0.43318852979E+02  0.47787269795E+02  0.19999994303E+02 0.  0.
         12    1    1    2    0    0 -0.15687073172E+01 -0.21539536368E+01 -0.43318852979E+02  0.43400730205E+02  0.00000000000E+00 0. -1.
         11    1    3    3    0    0  0.57583108456E+01  0.68086260853E+01  0.34826288055E+02  0.35949768746E+02  0.51100000000E-03 0.  1.
        -11    1    3    3    0    0 -0.11600170928E+01  0.26128073950E+00 -0.38261484746E+00  0.12491203557E+01  0.51100000000E-03 0. -1.
        -12    1    3    3    0    0 -0.30295864355E+01 -0.49159531880E+01  0.88751797714E+01  0.10588380693E+02  0.00000000000E+00 0.  1.
</event>
<event>
 7    1  0.1631716E-009  0.4778727E+02  0.7816164E-02  0.1312668E+00
        -11   -1    0    0    0    0  0.00000000000E+00  0.00000000000E+00  0.45593999997E+02  0.45594000000E+02  0.51100000000E-03 0.  1.
         11   -1    0    0    0    0 -0.00000000000E+00 -0.00000000000E+00 -0.45593999997E+02  0.45594000000E+02  0.51100000000E-03 0. -1.
    9900012    2    1    2    0    0  0.25568701214E+01 -0.27854364553E+02  0.33184636875E+02  0.47787270352E+02  0.19999996844E+02 0.  0.
         12    1    1    2    0    0 -0.25568701214E+01  0.27854364553E+02 -0.33184636875E+02  0.43400729648E+02  0.00000000000E+00 0. -1.
         11    1    3    3    0    0  0.45268381463E+01 -0.12660249976E+02  0.11799690236E+02  0.17888736204E+02  0.51100000000E-03 0. -1.
        -11    1    3    3    0    0 -0.63132195496E+01 -0.31936382140E+01  0.12448520168E+02  0.14318579565E+02  0.51100000000E-03 0.  1.
         12    1    3    3    0    0  0.43432515248E+01 -0.12000476363E+02  0.89364264711E+01  0.15579954583E+02  0.00000000000E+00 0. -1.
</event>
<event>
 7    1  0.1631716E-009  0.4778727E+02  0.7816164E-02  0.1312668E+00
        -11   -1    0    0    0    0  0.00000000000E+00  0.00000000000E+00  0.45593999997E+02  0.45594000000E+02  0.51100000000E-03 0.  1.
         11   -1    0    0    0    0 -0.00000000000E+00 -0.00000000000E+00 -0.45593999997E+02  0.45594000000E+02  0.51100000000E-03 0. -1.
    9900012    2    1    2    0    0  0.26593286324E+02  0.16985272841E+02  0.29797998004E+02  0.47787273554E+02  0.20000011440E+02 0.  0.
         12    1    1    2    0    0 -0.26593286324E+02 -0.16985272841E+02 -0.29797998004E+02  0.43400726446E+02  0.00000000000E+00 0. -1.
         11    1    3    3    0    0  0.15412892933E+02  0.80482594587E+01  0.40877559518E+01  0.17861732779E+02  0.51100000000E-03 0. -1.
        -11    1    3    3    0    0  0.40186959568E+01  0.46826392429E+01  0.63752516958E+01  0.88724777779E+01  0.51100000000E-03 0.  1.
        -12    1    3    3    0    0  0.71616974346E+01  0.42543741389E+01  0.19334990357E+02  0.21053062997E+02  0.00000000000E+00 0.  1.
</event>
<event>
 7    1  0.1631716E-009  0.4778727E+02  0.7816164E-02  0.1312668E+00
        -11   -1    0    0    0    0  0.00000000000E+00  0.00000000000E+00  0.45593999997E+02  0.45594000000E+02  0.51100000000E-03 0.  1.
         11   -1    0    0    0    0 -0.00000000000E+00 -0.00000000000E+00 -0.45593999997E+02  0.45594000000E+02  0.51100000000E-03 0. -1.
    9900012    2    1    2    0    0  0.35059348419E+02 -0.11091949801E+02  0.23052855532E+02  0.47787269475E+02  0.19999992843E+02 0.  0.
         12    1    1    2    0    0 -0.35059348419E+02  0.11091949801E+02 -0.23052855532E+02  0.43400730525E+02  0.00000000000E+00 0. -1.
         11    1    3    3    0    0  0.10141459204E+01 -0.57780199648E+00 -0.16835292373E+00  0.11792752278E+01  0.51100000000E-03 0. -1.
        -11    1    3    3    0    0  0.26460655668E+02 -0.14437875736E+02  0.11853472225E+02  0.32390173791E+02  0.51100000000E-03 0.  1.
        -12    1    3    3    0    0  0.75845468307E+01  0.39237279315E+01  0.11367736231E+02  0.14217820456E+02  0.00000000000E+00 0.  1.
</event>
<event>
 7    1  0.1631716E-009  0.4778728E+02  0.7816164E-02  0.1312668E+00
        -11   -1    0    0    0    0  0.00000000000E+00  0.00000000000E+00  0.45593999997E+02  0.45594000000E+02  0.51100000000E-03 0.  1.
         11   -1    0    0    0    0 -0.00000000000E+00 -0.00000000000E+00 -0.45593999997E+02  0.45594000000E+02  0.51100000000E-03 0. -1.
    9900012    2    1    2    0    0  0.41722328353E+02  0.77103863290E+01 -0.91334258154E+01  0.47787283327E+02  0.20000056003E+02 0.  0.
         12    1    1    2    0    0 -0.41722328353E+02 -0.77103863290E+01  0.91334258154E+01  0.43400716673E+02  0.00000000000E+00 0. -1.
         11    1    3    3    0    0  0.58959115720E+01 -0.25472205368E+01 -0.14035398455E+00  0.64241579394E+01  0.51100000000E-03 0. -1.
        -11    1    3    3    0    0  0.35884768345E+02  0.12126262493E+02 -0.10085275215E+02  0.39197903230E+02  0.51100000000E-03 0.  1.
        -12    1    3    3    0    0 -0.58351563551E-01 -0.18686556276E+01  0.10922033843E+01  0.21652221577E+01  0.00000000000E+00 0.  1.
</event>
<event>
 7    1  0.1631716E-009  0.4778727E+02  0.7816164E-02  0.1312668E+00
        -11   -1    0    0    0    0  0.00000000000E+00  0.00000000000E+00  0.45593999997E+02  0.45594000000E+02  0.51100000000E-03 0. -1.
         11   -1    0    0    0    0 -0.00000000000E+00 -0.00000000000E+00 -0.45593999997E+02  0.45594000000E+02  0.51100000000E-03 0.  1.
    9900012    2    1    2    0    0  0.25680635538E+02 -0.34986589077E+02  0.25857738454E+00  0.47787270523E+02  0.19999997623E+02 0.  0.
         12    1    1    2    0    0 -0.25680635538E+02  0.34986589077E+02 -0.25857738454E+00  0.43400729477E+02  0.00000000000E+00 0. -1.
         11    1    3    3    0    0  0.18397006710E+01 -0.41917843084E+01  0.37323325854E+01  0.59064254025E+01  0.51100000000E-03 0. -1.
        -11    1    3    3    0    0  0.18554061360E+02 -0.31176887978E+02 -0.18103793288E+01  0.36325321892E+02  0.51100000000E-03 0.  1.
        -12    1    3    3    0    0  0.52868735064E+01  0.38208320993E+00 -0.16633758720E+01  0.55555232286E+01  0.00000000000E+00 0.  1.
</event>
<event>
 7    1  0.1631716E-009  0.4778727E+02  0.7816164E-02  0.1312668E+00
        -11   -1    0    0    0    0  0.00000000000E+00  0.00000000000E+00  0.45593999997E+02  0.45594000000E+02  0.51100000000E-03 0.  1.
         11   -1    0    0    0    0 -0.00000000000E+00 -0.00000000000E+00 -0.45593999997E+02  0.45594000000E+02  0.51100000000E-03 0. -1.
    9900012    2    1    2    0    0 -0.24967880620E+02 -0.32778234350E+02  0.13631434277E+02  0.47787266018E+02  0.19999977081E+02 0.  0.
         12    1    1    2    0    0  0.24967880620E+02  0.32778234350E+02 -0.13631434277E+02  0.43400733982E+02  0.00000000000E+00 0. -1.
         11    1    3    3    0    0 -0.15132062394E+02 -0.19898274672E+02  0.60487020774E+01  0.25719787019E+02  0.51100000000E-03 0. -1.
        -11    1    3    3    0    0 -0.11591101411E+02 -0.11659308278E+02  0.96749413761E+01  0.19076100029E+02  0.51100000000E-03 0.  1.
         12    1    3    3    0    0  0.17552831855E+01 -0.12206514007E+01 -0.20922091763E+01  0.29913789697E+01  0.00000000000E+00 0. -1.
</event>
<event>
 7    1  0.1631716E-009  0.4778727E+02  0.7816164E-02  0.1312668E+00
        -11   -1    0    0    0    0  0.00000000000E+00  0.00000000000E+00  0.45593999997E+02  0.45594000000E+02  0.51100000000E-03 0.  1.
         11   -1    0    0    0    0 -0.00000000000E+00 -0.00000000000E+00 -0.45593999997E+02  0.45594000000E+02  0.51100000000E-03 0. -1.
    9900012    2    1    2    0    0 -0.42337440007E+02  0.23705637977E+01  0.92490447773E+01  0.47787271569E+02  0.20000002391E+02 0.  0.
         12    1    1    2    0    0  0.42337440007E+02 -0.23705637977E+01 -0.92490447773E+01  0.43400728431E+02  0.00000000000E+00 0. -1.
         11    1    3    3    0    0 -0.23978264922E+01 -0.20096087177E+01 -0.13587731714E+01  0.34109183334E+01  0.51100000000E-03 0. -1.
        -11    1    3    3    0    0 -0.18570613600E+02  0.82750229133E+01  0.99750500444E+01  0.22646088346E+02  0.51100000000E-03 0.  1.
        -12    1    3    3    0    0 -0.21368999914E+02 -0.38948503979E+01  0.63276790430E+00  0.21730264890E+02  0.00000000000E+00 0.  1.
</event>
<event>
 7    1  0.1631716E-009  0.4778727E+02  0.7816164E-02  0.1312668E+00
        -11   -1    0    0    0    0  0.00000000000E+00  0.00000000000E+00  0.45593999997E+02  0.45594000000E+02  0.51100000000E-03 0.  1.
         11   -1    0    0    0    0 -0.00000000000E+00 -0.00000000000E+00 -0.45593999997E+02  0.45594000000E+02  0.51100000000E-03 0. -1.
    9900012    2    1    2    0    0  0.50881698857E+01  0.41591406684E+02  0.11308784389E+02  0.47787272044E+02  0.20000004558E+02 0.  0.
         12    1    1    2    0    0 -0.50881698857E+01 -0.41591406684E+02 -0.11308784389E+02  0.43400727956E+02  0.00000000000E+00 0. -1.
         11    1    3    3    0    0  0.27838587162E+01  0.13298658416E+02  0.22189634363E+01  0.13766916286E+02  0.51100000000E-03 0. -1.
        -11    1    3    3    0    0 -0.53046640105E+01  0.18872424018E+02  0.13531449495E+01  0.19650416029E+02  0.51100000000E-03 0.  1.
         12    1    3    3    0    0  0.76089751800E+01  0.94203242497E+01  0.77366760030E+01  0.14369939730E+02  0.00000000000E+00 0. -1.
</event>
<event>
 7    1  0.1631716E-009  0.4778727E+02  0.7816164E-02  0.1312668E+00
        -11   -1    0    0    0    0  0.00000000000E+00  0.00000000000E+00  0.45593999997E+02  0.45594000000E+02  0.51100000000E-03 0.  1.
         11   -1    0    0    0    0 -0.00000000000E+00 -0.00000000000E+00 -0.45593999997E+02  0.45594000000E+02  0.51100000000E-03 0. -1.
    9900012    2    1    2    0    0  0.38422071789E+02  0.19557467309E+02 -0.49872930582E+01  0.47787271663E+02  0.20000002820E+02 0.  0.
         12    1    1    2    0    0 -0.38422071789E+02 -0.19557467309E+02  0.49872930582E+01  0.43400728337E+02  0.00000000000E+00 0. -1.
         11    1    3    3    0    0  0.71627178033E+01  0.17419602644E+00  0.37569053312E+01  0.80900685111E+01  0.51100000000E-03 0. -1.
        -11    1    3    3    0    0  0.35735313231E+00  0.37007837810E+01  0.69190324266E+00  0.37818292152E+01  0.51100000000E-03 0.  1.
        -12    1    3    3    0    0  0.30902000854E+02  0.15682487501E+02 -0.94361016321E+01  0.35915373937E+02  0.00000000000E+00 0.  1.
</event>
<event>
 7    1  0.1631716E-009  0.4778727E+02  0.7816164E-02  0.1312668E+00
        -11   -1    0    0    0    0  0.00000000000E+00  0.00000000000E+00  0.45593999997E+02  0.45594000000E+02  0.51100000000E-03 0.  1.
         11   -1    0    0    0    0 -0.00000000000E+00 -0.00000000000E+00 -0.45593999997E+02  0.45594000000E+02  0.51100000000E-03 0. -1.
    9900012    2    1    2    0    0  0.19477629651E+02 -0.84242033544E+01  0.37858657103E+02  0.47787272165E+02  0.20000005108E+02 0.  0.
         12    1    1    2    0    0 -0.19477629651E+02  0.84242033544E+01 -0.37858657103E+02  0.43400727835E+02  0.00000000000E+00 0. -1.
         11    1    3    3    0    0 -0.46094520938E+00  0.45699254983E+00 -0.59848702227E+00  0.88289277582E+00  0.51100000000E-03 0. -1.
        -11    1    3    3    0    0  0.22246067683E+02 -0.58864659586E+01  0.31870980334E+02  0.39310270878E+02  0.51100000000E-03 0.  1.
        -12    1    3    3    0    0 -0.23074928229E+01 -0.29947299457E+01  0.65861637918E+01  0.75941085104E+01  0.00000000000E+00 0.  1.
</event>
<event>
 7    1  0.1631716E-009  0.4778727E+02  0.7816164E-02  0.1312668E+00
        -11   -1    0    0    0    0  0.00000000000E+00  0.00000000000E+00  0.45593999997E+02  0.45594000000E+02  0.51100000000E-03 0. -1.
         11   -1    0    0    0    0 -0.00000000000E+00 -0.00000000000E+00 -0.45593999997E+02  0.45594000000E+02  0.51100000000E-03 0.  1.
    9900012    2    1    2    0    0 -0.10886403178E+02 -0.31872603626E+02 -0.27372378463E+02  0.47787265689E+02  0.19999975583E+02 0.  0.
         12    1    1    2    0    0  0.10886403178E+02  0.31872603626E+02  0.27372378463E+02  0.43400734311E+02  0.00000000000E+00 0. -1.
         11    1    3    3    0    0  0.34696228548E+01 -0.16902844644E+01 -0.40041766258E+01  0.55613644942E+01  0.51100000000E-03 0.  1.
        -11    1    3    3    0    0 -0.31138964422E+01 -0.19162734599E+02 -0.13497414865E+02  0.23645019701E+02  0.51100000000E-03 0. -1.
        -12    1    3    3    0    0 -0.11242129590E+02 -0.11019584562E+02 -0.98707869718E+01  0.18580881494E+02  0.00000000000E+00 0.  1.
</event>
<event>
 7    1  0.1631716E-009  0.4778727E+02  0.7816164E-02  0.1312668E+00
        -11   -1    0    0    0    0  0.00000000000E+00  0.00000000000E+00  0.45593999997E+02  0.45594000000E+02  0.51100000000E-03 0. -1.
         11   -1    0    0    0    0 -0.00000000000E+00 -0.00000000000E+00 -0.45593999997E+02  0.45594000000E+02  0.51100000000E-03 0.  1.
    9900012    2    1    2    0    0 -0.40631730853E+02 -0.11450480568E+02 -0.10078309141E+02  0.47787269908E+02  0.19999994819E+02 0.  0.
         12    1    1    2    0    0  0.40631730853E+02  0.11450480568E+02  0.10078309141E+02  0.43400730092E+02  0.00000000000E+00 0. -1.
         11    1    3    3    0    0 -0.29225150924E+02 -0.14104846307E+02 -0.14742297141E+01  0.32484296043E+02  0.51100000000E-03 0. -1.
        -11    1    3    3    0    0 -0.82065488131E+01 -0.38697659527E+00 -0.60470193740E+01  0.10201158654E+02  0.51100000000E-03 0.  1.
         12    1    3    3    0    0 -0.32000311158E+01  0.30413423346E+01 -0.25570600528E+01  0.51018152115E+01  0.00000000000E+00 0. -1.
</event>
<event>
 7    1  0.1631716E-009  0.4778727E+02  0.7816164E-02  0.1312668E+00
        -11   -1    0    0    0    0  0.00000000000E+00  0.00000000000E+00  0.45593999997E+02  0.45594000000E+02  0.51100000000E-03 0.  1.
         11   -1    0    0    0    0 -0.00000000000E+00 -0.00000000000E+00 -0.45593999997E+02  0.45594000000E+02  0.51100000000E-03 0. -1.
    9900012    2    1    2    0    0 -0.13387532202E+02  0.28791439405E+02  0.29588004989E+02  0.47787273731E+02  0.20000012248E+02 0.  0.
         12    1    1    2    0    0  0.13387532202E+02 -0.28791439405E+02 -0.29588004989E+02  0.43400726269E+02  0.00000000000E+00 0. -1.
         11    1    3    3    0    0 -0.61091385012E+00  0.13697424397E+02  0.10556321168E+02  0.17304004383E+02  0.51100000000E-03 0. -1.
        -11    1    3    3    0    0 -0.93046721353E+01  0.10939854642E+02  0.20353457118E+02  0.24910250101E+02  0.51100000000E-03 0.  1.
         12    1    3    3    0    0 -0.34719462162E+01  0.41541603665E+01 -0.13217732976E+01  0.55730192471E+01  0.00000000000E+00 0. -1.
</event>
<event>
 7    1  0.1631716E-009  0.4778727E+02  0.7816164E-02  0.1312668E+00
        -11   -1    0    0    0    0  0.00000000000E+00  0.00000000000E+00  0.45593999997E+02  0.45594000000E+02  0.51100000000E-03 0. -1.
         11   -1    0    0    0    0 -0.00000000000E+00 -0.00000000000E+00 -0.45593999997E+02  0.45594000000E+02  0.51100000000E-03 0.  1.
    9900012    2    1    2    0    0  0.11116842643E+02  0.40123168667E+02  0.12254414700E+02  0.47787268049E+02  0.19999986343E+02 0.  0.
         12    1    1    2    0    0 -0.11116842643E+02 -0.40123168667E+02 -0.12254414700E+02  0.43400731951E+02  0.00000000000E+00 0. -1.
         11    1    3    3    0    0  0.64601161185E+01  0.19527529078E+02  0.12377455464E+02  0.24005393064E+02  0.51100000000E-03 0.  1.
        -11    1    3    3    0    0  0.32582347998E+01  0.21512314589E+02  0.97826211984E+00  0.21779641182E+02  0.51100000000E-03 0. -1.
         12    1    3    3    0    0  0.13984917244E+01 -0.91667499961E+00 -0.11013028840E+01  0.20022338027E+01  0.00000000000E+00 0. -1.
</event>
<event>
 7    1  0.1631716E-009  0.4778727E+02  0.7816164E-02  0.1312668E+00
        -11   -1    0    0    0    0  0.00000000000E+00  0.00000000000E+00  0.45593999997E+02  0.45594000000E+02  0.51100000000E-03 0.  1.
         11   -1    0    0    0    0 -0.00000000000E+00 -0.00000000000E+00 -0.45593999997E+02  0.45594000000E+02  0.51100000000E-03 0. -1.
    9900012    2    1    2    0    0 -0.33543170780E+02  0.19387387461E+02  0.19560367307E+02  0.47787273419E+02  0.20000010826E+02 0.  0.
         12    1    1    2    0    0  0.33543170780E+02 -0.19387387461E+02 -0.19560367307E+02  0.43400726581E+02  0.00000000000E+00 0. -1.
         11    1    3    3    0    0 -0.77235087664E+01  0.12555518009E+02  0.66059545366E+01  0.16153397653E+02  0.51100000000E-03 0. -1.
        -11    1    3    3    0    0 -0.16101978440E+02  0.59983435426E+01  0.25472437533E+01  0.17370730726E+02  0.51100000000E-03 0.  1.
        -12    1    3    3    0    0 -0.97176835740E+01  0.83352590944E+00  0.10407169018E+02  0.14263145040E+02  0.00000000000E+00 0.  1.
</event>
<event>
 7    1  0.1631716E-009  0.4778726E+02  0.7816164E-02  0.1312668E+00
        -11   -1    0    0    0    0  0.00000000000E+00  0.00000000000E+00  0.45593999997E+02  0.45594000000E+02  0.51100000000E-03 0.  1.
         11   -1    0    0    0    0 -0.00000000000E+00 -0.00000000000E+00 -0.45593999997E+02  0.45594000000E+02  0.51100000000E-03 0. -1.
    9900012    2    1    2    0    0 -0.94513307982E+01  0.24418118458E+02  0.34612893243E+02  0.47787256440E+02  0.19999933414E+02 0.  0.
         12    1    1    2    0    0  0.94513307982E+01 -0.24418118458E+02 -0.34612893243E+02  0.43400743560E+02  0.00000000000E+00 0. -1.
         11    1    3    3    0    0  0.44519931119E+01  0.46032826234E+01  0.12615824767E+02  0.14148126674E+02  0.51100000000E-03 0. -1.
        -11    1    3    3    0    0 -0.66372792805E+01  0.93301907346E+01  0.15648819482E+02  0.19390499912E+02  0.51100000000E-03 0.  1.
         12    1    3    3    0    0 -0.72660446296E+01  0.10484645100E+02  0.63482489943E+01  0.14248629854E+02  0.00000000000E+00 0. -1.
</event>
<event>
 7    1  0.1631716E-009  0.4778727E+02  0.7816164E-02  0.1312668E+00
        -11   -1    0    0    0    0  0.00000000000E+00  0.00000000000E+00  0.45593999997E+02  0.45594000000E+02  0.51100000000E-03 0. -1.
         11   -1    0    0    0    0 -0.00000000000E+00 -0.00000000000E+00 -0.45593999997E+02  0.45594000000E+02  0.51100000000E-03 0.  1.
    9900012    2    1    2    0    0 -0.37184014113E+02 -0.22322406492E+02 -0.16378786567E+01  0.47787269780E+02  0.19999994236E+02 0.  0.
         12    1    1    2    0    0  0.37184014113E+02  0.22322406492E+02  0.16378786567E+01  0.43400730220E+02  0.00000000000E+00 0. -1.
         11    1    3    3    0    0 -0.48674911233E+01 -0.44255786662E+01  0.43462801951E+01  0.78846920144E+01  0.51100000000E-03 0. -1.
        -11    1    3    3    0    0 -0.27934775380E+01 -0.68426222911E+01 -0.37787629234E+01  0.83008461055E+01  0.51100000000E-03 0.  1.
         12    1    3    3    0    0 -0.29523045452E+02 -0.11054205534E+02 -0.22053959284E+01  0.31601731660E+02  0.00000000000E+00 0. -1.
</event>
<event>
 7    1  0.1631716E-009  0.4778727E+02  0.7816164E-02  0.1312668E+00
        -11   -1    0    0    0    0  0.00000000000E+00  0.00000000000E+00  0.45593999997E+02  0.45594000000E+02  0.51100000000E-03 0. -1.
         11   -1    0    0    0    0 -0.00000000000E+00 -0.00000000000E+00 -0.45593999997E+02  0.45594000000E+02  0.51100000000E-03 0.  1.
    9900012    2    1    2    0    0 -0.43118286868E+02 -0.41458428229E+01 -0.26923302873E+01  0.47787270541E+02  0.19999997706E+02 0.  0.
         12    1    1    2    0    0  0.43118286868E+02  0.41458428229E+01  0.26923302873E+01  0.43400729459E+02  0.00000000000E+00 0. -1.
         11    1    3    3    0    0 -0.99067588460E+01  0.10785071363E+01  0.33914432542E+01  0.10526582355E+02  0.51100000000E-03 0. -1.
        -11    1    3    3    0    0 -0.28567097681E+02 -0.96456029639E+01 -0.35259859211E+01  0.30357030544E+02  0.51100000000E-03 0.  1.
         12    1    3    3    0    0 -0.46444303409E+01  0.44212530047E+01 -0.25577876204E+01  0.69036576418E+01  0.00000000000E+00 0. -1.
</event>
<event>
 7    1  0.1631716E-009  0.4778727E+02  0.7816164E-02  0.1312668E+00
        -11   -1    0    0    0    0  0.00000000000E+00  0.00000000000E+00  0.45593999997E+02  0.45594000000E+02  0.51100000000E-03 0.  1.
         11   -1    0    0    0    0 -0.00000000000E+00 -0.00000000000E+00 -0.45593999997E+02  0.45594000000E+02  0.51100000000E-03 0. -1.
    9900012    2    1    2    0    0  0.35785004481E+02 -0.20342865296E+02  0.13755880317E+02  0.47787274690E+02  0.20000016620E+02 0.  0.
         12    1    1    2    0    0 -0.35785004481E+02  0.20342865296E+02 -0.13755880317E+02  0.43400725310E+02  0.00000000000E+00 0. -1.
         11    1    3    3    0    0  0.21904997096E+01 -0.57657177795E+00  0.46636136592E+01  0.51845941613E+01  0.51100000000E-03 0. -1.
        -11    1    3    3    0    0  0.27819040801E+02 -0.20248901447E+02  0.11567743918E+02  0.36300547386E+02  0.51100000000E-03 0.  1.
        -12    1    3    3    0    0  0.57754639698E+01  0.48260792822E+00 -0.24754772602E+01  0.63021331424E+01  0.00000000000E+00 0.  1.
</event>
<event>
 7    1  0.1631716E-009  0.4778727E+02  0.7816164E-02  0.1312668E+00
        -11   -1    0    0    0    0  0.00000000000E+00  0.00000000000E+00  0.45593999997E+02  0.45594000000E+02  0.51100000000E-03 0.  1.
         11   -1    0    0    0    0 -0.00000000000E+00 -0.00000000000E+00 -0.45593999997E+02  0.45594000000E+02  0.51100000000E-03 0. -1.
    9900012    2    1    2    0    0 -0.11614497251E+02 -0.36672129109E+02  0.20096809607E+02  0.47787270097E+02  0.19999995679E+02 0.  0.
         12    1    1    2    0    0  0.11614497251E+02  0.36672129109E+02 -0.20096809607E+02  0.43400729903E+02  0.00000000000E+00 0. -1.
         11    1    3    3    0    0 -0.47905095529E+01 -0.14925394807E+01  0.18844765488E+01  0.53598421621E+01  0.51100000000E-03 0. -1.
        -11    1    3    3    0    0  0.34774654696E+01 -0.96772741735E+01  0.82181404020E+01  0.13163595005E+02  0.51100000000E-03 0.  1.
        -12    1    3    3    0    0 -0.10301453167E+02 -0.25502315454E+02  0.99941926566E+01  0.29263832930E+02  0.00000000000E+00 0.  1.
</event>
<event>
 7    1  0.1631716E-009  0.4778727E+02  0.7816164E-02  0.1312668E+00
        -11   -1    0    0    0    0  0.00000000000E+00  0.00000000000E+00  0.45593999997E+02  0.45594000000E+02  0.51100000000E-03 0.  1.
         11   -1    0    0    0    0 -0.00000000000E+00 -0.00000000000E+00 -0.45593999997E+02  0.45594000000E+02  0.51100000000E-03 0. -1.
    9900012    2    1    2    0    0  0.37132063441E+01  0.19346229941E+01  0.43198293270E+02  0.47787271793E+02  0.20000003414E+02 0.  0.
         12    1    1    2    0    0 -0.37132063441E+01 -0.19346229941E+01 -0.43198293270E+02  0.43400728207E+02  0.00000000000E+00 0. -1.
         11    1    3    3    0    0  0.11604141713E+01 -0.61966373067E+01  0.15884498598E+02  0.17089826533E+02  0.51100000000E-03 0. -1.
        -11    1    3    3    0    0  0.65956541240E+01  0.34229620771E+01  0.11312296305E+02  0.13534672905E+02  0.51100000000E-03 0.  1.
        -12    1    3    3    0    0 -0.40428619512E+01  0.47082982237E+01  0.16001498367E+02  0.17162772355E+02  0.00000000000E+00 0.  1.
</event>
<event>
 7    1  0.1631716E-009  0.4778727E+02  0.7816164E-02  0.1312668E+00
        -11   -1    0    0    0    0  0.00000000000E+00  0.00000000000E+00  0.45593999997E+02  0.45594000000E+02  0.51100000000E-03 0.  1.
         11   -1    0    0    0    0 -0.00000000000E+00 -0.00000000000E+00 -0.45593999997E+02  0.45594000000E+02  0.51100000000E-03 0. -1.
    9900012    2    1    2    0    0 -0.22646229420E+02 -0.48521931626E+01  0.36704604460E+02  0.47787268739E+02  0.19999989489E+02 0.  0.
         12    1    1    2    0    0  0.22646229420E+02  0.48521931626E+01 -0.36704604460E+02  0.43400731261E+02  0.00000000000E+00 0. -1.
         11    1    3    3    0    0  0.82530137187E+00 -0.19955309899E+01 -0.10816963286E+01  0.24152294910E+01  0.51100000000E-03 0. -1.
        -11    1    3    3    0    0 -0.89471043126E+01  0.24237179338E+01  0.18182801067E+02  0.20409295409E+02  0.51100000000E-03 0.  1.
        -12    1    3    3    0    0 -0.14524426479E+02 -0.52803801066E+01  0.19603499722E+02  0.24962743839E+02  0.00000000000E+00 0.  1.
</event>
<event>
 7    1  0.1631716E-009  0.4778727E+02  0.7816164E-02  0.1312668E+00
        -11   -1    0    0    0    0  0.00000000000E+00  0.00000000000E+00  0.45593999997E+02  0.45594000000E+02  0.51100000000E-03 0.  1.
         11   -1    0    0    0    0 -0.00000000000E+00 -0.00000000000E+00 -0.45593999997E+02  0.45594000000E+02  0.51100000000E-03 0. -1.
    9900012    2    1    2    0    0  0.18317562216E+02  0.39322340265E+02  0.13577791002E+01  0.47787273122E+02  0.20000009473E+02 0.  0.
         12    1    1    2    0    0 -0.18317562216E+02 -0.39322340265E+02 -0.13577791002E+01  0.43400726878E+02  0.00000000000E+00 0. -1.
         11    1    3    3    0    0 -0.20410364470E+01  0.54117358340E+01 -0.43226553506E+01  0.72206692249E+01  0.51100000000E-03 0. -1.
        -11    1    3    3    0    0  0.87040923729E+01  0.83436508399E+01  0.21546294351E+01  0.12248271782E+02  0.51100000000E-03 0.  1.
        -12    1    3    3    0    0  0.11654506291E+02  0.25566953591E+02  0.35258050157E+01  0.28318332115E+02  0.00000000000E+00 0.  1.
</event>
<event>
 7    1  0.1631716E-009  0.4778727E+02  0.7816164E-02  0.1312668E+00
        -11   -1    0    0    0    0  0.00000000000E+00  0.00000000000E+00  0.45593999997E+02  0.45594000000E+02  0.51100000000E-03 0.  1.
         11   -1    0    0    0    0 -0.00000000000E+00 -0.00000000000E+00 -0.45593999997E+02  0.45594000000E+02  0.51100000000E-03 0. -1.
    9900012    2    1    2    0    0 -0.85028489589E+01  0.42469919732E+02  0.27624014925E+01  0.47787269770E+02  0.19999994191E+02 0.  0.
         12    1    1    2    0    0  0.85028489589E+01 -0.42469919732E+02 -0.27624014925E+01  0.43400730230E+02  0.00000000000E+00 0. -1.
         11    1    3    3    0    0  0.11894227515E+01  0.22898537564E+01 -0.32199952746E+01  0.41263211869E+01  0.51100000000E-03 0. -1.
        -11    1    3    3    0    0 -0.82764956929E+01  0.40317198763E+02  0.41869827146E+01  0.41370372509E+02  0.51100000000E-03 0.  1.
        -12    1    3    3    0    0 -0.14157760176E+01 -0.13713278698E+00  0.17954140525E+01  0.22905760745E+01  0.00000000000E+00 0.  1.
</event>
<event>
 7    1  0.1631716E-009  0.4778726E+02  0.7816164E-02  0.1312668E+00
        -11   -1    0    0    0    0  0.00000000000E+00  0.00000000000E+00  0.45593999997E+02  0.45594000000E+02  0.51100000000E-03 0. -1.
         11   -1    0    0    0    0 -0.00000000000E+00 -0.00000000000E+00 -0.45593999997E+02  0.45594000000E+02  0.51100000000E-03 0.  1.
    9900012    2    1    2    0    0  0.35538909472E+02  0.16401663643E+02 -0.18750875556E+02  0.47787262785E+02  0.19999962341E+02 0.  0.
         12    1    1    2    0    0 -0.35538909472E+02 -0.16401663643E+02  0.18750875556E+02  0.43400737215E+02  0.00000000000E+00 0. -1.
         11    1    3    3    0    0  0.40971315319E+00 -0.19693026434E+01  0.11410250336E-01  0.20115039707E+01  0.51100000000E-03 0. -1.
        -11    1    3    3    0    0  0.61949190314E+01  0.89880561249E+01 -0.21796054410E+01  0.11131615105E+02  0.51100000000E-03 0.  1.
         12    1    3    3    0    0  0.28934277287E+02  0.93829101617E+01 -0.16582680365E+02  0.34644143709E+02  0.00000000000E+00 0. -1.
</event>
<event>
 7    1  0.1631716E-009  0.4778727E+02  0.7816164E-02  0.1312668E+00
        -11   -1    0    0    0    0  0.00000000000E+00  0.00000000000E+00  0.45593999997E+02  0.45594000000E+02  0.51100000000E-03 0. -1.
         11   -1    0    0    0    0 -0.00000000000E+00 -0.00000000000E+00 -0.45593999997E+02  0.45594000000E+02  0.51100000000E-03 0.  1.
    9900012    2    1    2    0    0  0.15366254202E+02  0.39336085951E+02 -0.10008687788E+02  0.47787271234E+02  0.20000000866E+02 0.  0.
         12    1    1    2    0    0 -0.15366254202E+02 -0.39336085951E+02  0.10008687788E+02  0.43400728766E+02  0.00000000000E+00 0. -1.
         11    1    3    3    0    0  0.12015206117E+01  0.26296650240E+01 -0.59206843474E+01  0.65888764840E+01  0.51100000000E-03 0. -1.
        -11    1    3    3    0    0  0.59780354895E+01  0.28779338130E+02 -0.10848328829E+01  0.29413671552E+02  0.51100000000E-03 0.  1.
         12    1    3    3    0    0  0.81866981007E+01  0.79270827965E+01 -0.30031705582E+01  0.11784723198E+02  0.00000000000E+00 0. -1.
</event>
<event>
 7    1  0.1631716E-009  0.4778727E+02  0.7816164E-02  0.1312668E+00
        -11   -1    0    0    0    0  0.00000000000E+00  0.00000000000E+00  0.45593999997E+02  0.45594000000E+02  0.51100000000E-03 0.  1.
         11   -1    0    0    0    0 -0.00000000000E+00 -0.00000000000E+00 -0.45593999997E+02  0.45594000000E+02  0.51100000000E-03 0. -1.
    9900012    2    1    2    0    0 -0.11180478584E+02  0.30652206498E+02  0.28619265990E+02  0.47787271315E+02  0.20000001235E+02 0.  0.
         12    1    1    2    0    0  0.11180478584E+02 -0.30652206498E+02 -0.28619265990E+02  0.43400728685E+02  0.00000000000E+00 0. -1.
         11    1    3    3    0    0 -0.72384960669E+01  0.75781374724E+01  0.17609222248E+02  0.20491673951E+02  0.51100000000E-03 0. -1.
        -11    1    3    3    0    0  0.16871820540E+01  0.99312870861E+01  0.75402710035E+01  0.12583033559E+02  0.51100000000E-03 0.  1.
        -12    1    3    3    0    0 -0.56291645709E+01  0.13142781940E+02  0.34697727380E+01  0.14712563806E+02  0.00000000000E+00 0.  1.
</event>
<event>
 7    1  0.1631716E-009  0.4778726E+02  0.7816164E-02  0.1312668E+00
        -11   -1    0    0    0    0  0.00000000000E+00  0.00000000000E+00  0.45593999997E+02  0.45594000000E+02  0.51100000000E-03 0.  1.
         11   -1    0    0    0    0 -0.00000000000E+00 -0.00000000000E+00 -0.45593999997E+02  0.45594000000E+02  0.51100000000E-03 0. -1.
    9900012    2    1    2    0    0  0.15407625437E+02 -0.34952115704E+02  0.20605314296E+02  0.47787259326E+02  0.19999946572E+02 0.  0.
         12    1    1    2    0    0 -0.15407625437E+02  0.34952115704E+02 -0.20605314296E+02  0.43400740674E+02  0.00000000000E+00 0. -1.
         11    1    3    3    0    0  0.76865419485E+01 -0.18478114933E+02  0.12279865167E+02  0.23480177755E+02  0.51100000000E-03 0. -1.
        -11    1    3    3    0    0  0.96781003946E+01 -0.82681243383E+01  0.93711331695E+01  0.15806506397E+02  0.51100000000E-03 0.  1.
         12    1    3    3    0    0 -0.19570169056E+01 -0.82058764323E+01 -0.10456840408E+01  0.85005751750E+01  0.00000000000E+00 0. -1.
</event>
<event>
 7    1  0.1631716E-009  0.4778725E+02  0.7816164E-02  0.1312668E+00
        -11   -1    0    0    0    0  0.00000000000E+00  0.00000000000E+00  0.45593999997E+02  0.45594000000E+02  0.51100000000E-03 0. -1.
         11   -1    0    0    0    0 -0.00000000000E+00 -0.00000000000E+00 -0.45593999997E+02  0.45594000000E+02  0.51100000000E-03 0.  1.
    9900012    2    1    2    0    0  0.16056201384E+02  0.33338443224E+02 -0.22679757418E+02  0.47787253508E+02  0.19999920046E+02 0.  0.
         12    1    1    2    0    0 -0.16056201384E+02 -0.33338443224E+02  0.22679757418E+02  0.43400746492E+02  0.00000000000E+00 0. -1.
         11    1    3    3    0    0  0.93535011867E+01  0.17908638586E+02 -0.15976638296E+02  0.25757722958E+02  0.51100000000E-03 0. -1.
        -11    1    3    3    0    0 -0.34198880531E+01  0.33111979763E+01 -0.35236980486E+01  0.59225091417E+01  0.51100000000E-03 0.  1.
         12    1    3    3    0    0  0.10122588250E+02  0.12118606662E+02 -0.31794210729E+01  0.16107021409E+02  0.00000000000E+00 0. -1.
</event>
<event>
 7    1  0.1631716E-009  0.4778727E+02  0.7816164E-02  0.1312668E+00
        -11   -1    0    0    0    0  0.00000000000E+00  0.00000000000E+00  0.45593999997E+02  0.45594000000E+02  0.51100000000E-03 0.  1.
         11   -1    0    0    0    0 -0.00000000000E+00 -0.00000000000E+00 -0.45593999997E+02  0.45594000000E+02  0.51100000000E-03 0. -1.
    9900012    2    1    2    0    0 -0.17522023931E+02 -0.90516157405E+01  0.38660965461E+02  0.47787270507E+02  0.19999997548E+02 0.  0.
         12    1    1    2    0    0  0.17522023931E+02  0.90516157405E+01 -0.38660965461E+02  0.43400729493E+02  0.00000000000E+00 0. -1.
         11    1    3    3    0    0 -0.10354908145E+02 -0.11755851232E+02  0.17926679389E+02  0.23807351702E+02  0.51100000000E-03 0.  1.
        -11    1    3    3    0    0 -0.42289687635E+01  0.32173654265E+00  0.16931301700E+01  0.45666597464E+01  0.51100000000E-03 0. -1.
        -12    1    3    3    0    0 -0.29381470227E+01  0.23824989487E+01  0.19041155903E+02  0.19413259059E+02  0.00000000000E+00 0.  1.
</event>
<event>
 7    1  0.1631716E-009  0.4778727E+02  0.7816164E-02  0.1312668E+00
        -11   -1    0    0    0    0  0.00000000000E+00  0.00000000000E+00  0.45593999997E+02  0.45594000000E+02  0.51100000000E-03 0. -1.
         11   -1    0    0    0    0 -0.00000000000E+00 -0.00000000000E+00 -0.45593999997E+02  0.45594000000E+02  0.51100000000E-03 0.  1.
    9900012    2    1    2    0    0  0.40866374876E+02  0.14607894611E+02 -0.41477173140E+00  0.47787271711E+02  0.20000003038E+02 0.  0.
         12    1    1    2    0    0 -0.40866374876E+02 -0.14607894611E+02  0.41477173140E+00  0.43400728289E+02  0.00000000000E+00 0. -1.
         11    1    3    3    0    0  0.32210075551E+01  0.26031234833E+01  0.24672520881E+01  0.48206301110E+01  0.51100000000E-03 0. -1.
        -11    1    3    3    0    0  0.25165772875E+02  0.37460343976E+01 -0.87309006285E+01  0.26899396353E+02  0.51100000000E-03 0.  1.
        -12    1    3    3    0    0  0.12479594446E+02  0.82587367298E+01  0.58488768090E+01  0.16067245247E+02  0.00000000000E+00 0.  1.
</event>
<event>
 7    1  0.1631716E-009  0.4778728E+02  0.7816164E-02  0.1312668E+00
        -11   -1    0    0    0    0  0.00000000000E+00  0.00000000000E+00  0.45593999997E+02  0.45594000000E+02  0.51100000000E-03 0.  1.
         11   -1    0    0    0    0 -0.00000000000E+00 -0.00000000000E+00 -0.45593999997E+02  0.45594000000E+02  0.51100000000E-03 0. -1.
    9900012    2    1    2    0    0 -0.63609081730E+01  0.17640296000E+01  0.42895801699E+02  0.47787277004E+02  0.20000027172E+02 0.  0.
         12    1    1    2    0    0  0.63609081730E+01 -0.17640296000E+01 -0.42895801699E+02  0.43400722996E+02  0.00000000000E+00 0. -1.
         11    1    3    3    0    0 -0.14910881367E+01  0.78774795829E+01  0.22232376286E+02  0.23633801725E+02  0.51100000000E-03 0. -1.
        -11    1    3    3    0    0 -0.73107395566E+01 -0.29923942889E+01  0.17049842657E+02  0.18790914595E+02  0.51100000000E-03 0.  1.
        -12    1    3    3    0    0  0.24409195203E+01 -0.31210556940E+01  0.36135827555E+01  0.53625606832E+01  0.00000000000E+00 0.  1.
</event>
<event>
 7    1  0.1631716E-009  0.4778727E+02  0.7816164E-02  0.1312668E+00
        -11   -1    0    0    0    0  0.00000000000E+00  0.00000000000E+00  0.45593999997E+02  0.45594000000E+02  0.51100000000E-03 0.  1.
         11   -1    0    0    0    0 -0.00000000000E+00 -0.00000000000E+00 -0.45593999997E+02  0.45594000000E+02  0.51100000000E-03 0. -1.
    9900012    2    1    2    0    0 -0.42203678230E+01 -0.12576079995E+02  0.41323770119E+02  0.47787271095E+02  0.20000000230E+02 0.  0.
         12    1    1    2    0    0  0.42203678230E+01  0.12576079995E+02 -0.41323770119E+02  0.43400728905E+02  0.00000000000E+00 0. -1.
         11    1    3    3    0    0 -0.59148529789E+01 -0.26854188451E+00  0.27948489400E+02  0.28568788223E+02  0.51100000000E-03 0. -1.
        -11    1    3    3    0    0 -0.13972111293E+01 -0.74779903279E+01  0.99991503999E+01  0.12564057755E+02  0.51100000000E-03 0.  1.
        -12    1    3    3    0    0  0.30916962853E+01 -0.48295477830E+01  0.33761303196E+01  0.66544251174E+01  0.00000000000E+00 0.  1.
</event>
<event>
 7    1  0.1631716E-009  0.4778727E+02  0.7816164E-02  0.1312668E+00
        -11   -1    0    0    0    0  0.00000000000E+00  0.00000000000E+00  0.45593999997E+02  0.45594000000E+02  0.51100000000E-03 0.  1.
         11   -1    0    0    0    0 -0.00000000000E+00 -0.00000000000E+00 -0.45593999997E+02  0.45594000000E+02  0.51100000000E-03 0. -1.
    9900012    2    1    2    0    0  0.13643103958E+02 -0.28982666121E+02  0.29282997952E+02  0.47787272009E+02  0.20000004398E+02 0.  0.
         12    1    1    2    0    0 -0.13643103958E+02  0.28982666121E+02 -0.29282997952E+02  0.43400727991E+02  0.00000000000E+00 0. -1.
         11    1    3    3    0    0  0.10765610096E+02 -0.75703583759E+01  0.17597081636E+02  0.21974211455E+02  0.51100000000E-03 0. -1.
        -11    1    3    3    0    0 -0.11722988274E+01 -0.12861365464E+02  0.96839333780E+01  0.16142105565E+02  0.51100000000E-03 0.  1.
        -12    1    3    3    0    0  0.40497926892E+01 -0.85509422809E+01  0.20019829378E+01  0.96709549890E+01  0.00000000000E+00 0.  1.
</event>
<event>
 7    1  0.1631716E-009  0.4778727E+02  0.7816164E-02  0.1312668E+00
        -11   -1    0    0    0    0  0.00000000000E+00  0.00000000000E+00  0.45593999997E+02  0.45594000000E+02  0.51100000000E-03 0. -1.
         11   -1    0    0    0    0 -0.00000000000E+00 -0.00000000000E+00 -0.45593999997E+02  0.45594000000E+02  0.51100000000E-03 0.  1.
    9900012    2    1    2    0    0  0.39820000608E+02  0.17162918527E+02 -0.18507254820E+01  0.47787269527E+02  0.19999993082E+02 0.  0.
         12    1    1    2    0    0 -0.39820000608E+02 -0.17162918527E+02  0.18507254820E+01  0.43400730473E+02  0.00000000000E+00 0. -1.
         11    1    3    3    0    0  0.28005547613E+01  0.12255766612E+01 -0.36535277081E+01  0.47637600799E+01  0.51100000000E-03 0. -1.
        -11    1    3    3    0    0  0.38213263913E+02  0.16545500165E+02  0.18548480444E+01  0.41682701161E+02  0.51100000000E-03 0.  1.
        -12    1    3    3    0    0 -0.11938180660E+01 -0.60815829973E+00 -0.52045818307E-01  0.13408082859E+01  0.00000000000E+00 0.  1.
</event>
<event>
 7    1  0.1631716E-009  0.4778727E+02  0.7816164E-02  0.1312668E+00
        -11   -1    0    0    0    0  0.00000000000E+00  0.00000000000E+00  0.45593999997E+02  0.45594000000E+02  0.51100000000E-03 0. -1.
         11   -1    0    0    0    0 -0.00000000000E+00 -0.00000000000E+00 -0.45593999997E+02  0.45594000000E+02  0.51100000000E-03 0.  1.
    9900012    2    1    2    0    0  0.44591829065E+00  0.37505893082E+02 -0.21834200448E+02  0.47787272262E+02  0.20000005552E+02 0.  0.
         12    1    1    2    0    0 -0.44591829065E+00 -0.37505893082E+02  0.21834200448E+02  0.43400727738E+02  0.00000000000E+00 0. -1.
         11    1    3    3    0    0  0.44247958048E+01  0.25809071016E+01  0.16488199518E+00  0.51251425068E+01  0.51100000000E-03 0. -1.
        -11    1    3    3    0    0 -0.59585302761E+01  0.15082465117E+02 -0.67804230095E+01  0.17577228834E+02  0.51100000000E-03 0.  1.
        -12    1    3    3    0    0  0.19796527619E+01  0.19842520864E+02 -0.15218659433E+02  0.25084900921E+02  0.00000000000E+00 0.  1.
</event>
<event>
 7    1  0.1631716E-009  0.4778727E+02  0.7816164E-02  0.1312668E+00
        -11   -1    0    0    0    0  0.00000000000E+00  0.00000000000E+00  0.45593999997E+02  0.45594000000E+02  0.51100000000E-03 0. -1.
         11   -1    0    0    0    0 -0.00000000000E+00 -0.00000000000E+00 -0.45593999997E+02  0.45594000000E+02  0.51100000000E-03 0.  1.
    9900012    2    1    2    0    0 -0.24409409138E+02  0.29241936919E+02 -0.20801758521E+02  0.47787270895E+02  0.19999999319E+02 0.  0.
         12    1    1    2    0    0  0.24409409138E+02 -0.29241936919E+02  0.20801758521E+02  0.43400729105E+02  0.00000000000E+00 0. -1.
         11    1    3    3    0    0 -0.23141746366E+01  0.58023577134E+01 -0.12361858425E+02  0.13850570503E+02  0.51100000000E-03 0. -1.
        -11    1    3    3    0    0 -0.69145557583E+01  0.11447887906E+02 -0.18604348100E+01  0.13502830695E+02  0.51100000000E-03 0.  1.
        -12    1    3    3    0    0 -0.15180678743E+02  0.11991691300E+02 -0.65794652864E+01  0.20433869697E+02  0.00000000000E+00 0.  1.
</event>
<event>
 7    1  0.1631716E-009  0.4778728E+02  0.7816164E-02  0.1312668E+00
        -11   -1    0    0    0    0  0.00000000000E+00  0.00000000000E+00  0.45593999997E+02  0.45594000000E+02  0.51100000000E-03 0.  1.
         11   -1    0    0    0    0 -0.00000000000E+00 -0.00000000000E+00 -0.45593999997E+02  0.45594000000E+02  0.51100000000E-03 0. -1.
    9900012    2    1    2    0    0 -0.47369786010E+01  0.31129152528E+01  0.43028986013E+02  0.47787275986E+02  0.20000022528E+02 0.  0.
         12    1    1    2    0    0  0.47369786010E+01 -0.31129152528E+01 -0.43028986013E+02  0.43400724014E+02  0.00000000000E+00 0. -1.
         11    1    3    3    0    0 -0.25966221395E+01  0.21080753727E+01  0.25814873153E+02  0.26030637804E+02  0.51100000000E-03 0.  1.
        -11    1    3    3    0    0  0.51539468612E+01 -0.17972577249E+01  0.63359278212E+01  0.83628514990E+01  0.51100000000E-03 0. -1.
         12    1    3    3    0    0 -0.72943033228E+01  0.28020976050E+01  0.10878185039E+02  0.13393786683E+02  0.00000000000E+00 0. -1.
</event>
<event>
 7    1  0.1631716E-009  0.4778727E+02  0.7816164E-02  0.1312668E+00
        -11   -1    0    0    0    0  0.00000000000E+00  0.00000000000E+00  0.45593999997E+02  0.45594000000E+02  0.51100000000E-03 0. -1.
         11   -1    0    0    0    0 -0.00000000000E+00 -0.00000000000E+00 -0.45593999997E+02  0.45594000000E+02  0.51100000000E-03 0.  1.
    9900012    2    1    2    0    0  0.16293135673E+02 -0.39200325753E+02  0.90272901426E+01  0.47787265254E+02  0.19999973598E+02 0.  0.
         12    1    1    2    0    0 -0.16293135673E+02  0.39200325753E+02 -0.90272901426E+01  0.43400734746E+02  0.00000000000E+00 0. -1.
         11    1    3    3    0    0  0.45724582780E+01 -0.12678287340E+02 -0.43116624055E+01  0.14150504498E+02  0.51100000000E-03 0. -1.
        -11    1    3    3    0    0  0.30308041677E+01 -0.96613233254E-01  0.88690516863E+00  0.31593842848E+01  0.51100000000E-03 0.  1.
        -12    1    3    3    0    0  0.86898732273E+01 -0.26425425180E+02  0.12452047379E+02  0.30477376471E+02  0.00000000000E+00 0.  1.
</event>
<event>
 7    1  0.1631716E-009  0.4778727E+02  0.7816164E-02  0.1312668E+00
        -11   -1    0    0    0    0  0.00000000000E+00  0.00000000000E+00  0.45593999997E+02  0.45594000000E+02  0.51100000000E-03 0.  1.
         11   -1    0    0    0    0 -0.00000000000E+00 -0.00000000000E+00 -0.45593999997E+02  0.45594000000E+02  0.51100000000E-03 0. -1.
    9900012    2    1    2    0    0  0.39306967241E+02 -0.23863359436E+01  0.18245300871E+02  0.47787271011E+02  0.19999999847E+02 0.  0.
         12    1    1    2    0    0 -0.39306967241E+02  0.23863359436E+01 -0.18245300871E+02  0.43400728989E+02  0.00000000000E+00 0. -1.
         11    1    3    3    0    0  0.22889028195E+02  0.49820531322E+01  0.65840372402E+01  0.24332653201E+02  0.51100000000E-03 0.  1.
        -11    1    3    3    0    0  0.57748642360E+01 -0.55547566186E+01  0.65889879372E+00  0.80398088234E+01  0.51100000000E-03 0. -1.
        -12    1    3    3    0    0  0.10643074810E+02 -0.18136324573E+01  0.11002364837E+02  0.15414808987E+02  0.00000000000E+00 0.  1.
</event>
<event>
 7    1  0.1631716E-009  0.4778727E+02  0.7816164E-02  0.1312668E+00
        -11   -1    0    0    0    0  0.00000000000E+00  0.00000000000E+00  0.45593999997E+02  0.45594000000E+02  0.51100000000E-03 0.  1.
         11   -1    0    0    0    0 -0.00000000000E+00 -0.00000000000E+00 -0.45593999997E+02  0.45594000000E+02  0.51100000000E-03 0. -1.
    9900012    2    1    2    0    0 -0.91458475674E+01 -0.36390869827E+02  0.21810125600E+02  0.47787268288E+02  0.19999987431E+02 0.  0.
         12    1    1    2    0    0  0.91458475674E+01  0.36390869827E+02 -0.21810125600E+02  0.43400731712E+02  0.00000000000E+00 0. -1.
         11    1    3    3    0    0  0.34611331230E+01 -0.43726258804E+01  0.31596740008E+01  0.64095896622E+01  0.51100000000E-03 0. -1.
        -11    1    3    3    0    0 -0.10466249253E+02 -0.29913529081E+02  0.20599705007E+02  0.37798273004E+02  0.51100000000E-03 0.  1.
         12    1    3    3    0    0 -0.21407314373E+01 -0.21047148657E+01 -0.19492534078E+01  0.35794056211E+01  0.00000000000E+00 0. -1.
</event>
<event>
 7    1  0.1631716E-009  0.4778727E+02  0.7816164E-02  0.1312668E+00
        -11   -1    0    0    0    0  0.00000000000E+00  0.00000000000E+00  0.45593999997E+02  0.45594000000E+02  0.51100000000E-03 0. -1.
         11   -1    0    0    0    0 -0.00000000000E+00 -0.00000000000E+00 -0.45593999997E+02  0.45594000000E+02  0.51100000000E-03 0.  1.
    9900012    2    1    2    0    0 -0.73418129858E+01 -0.34213946809E+02 -0.25673467771E+02  0.47787270495E+02  0.19999997497E+02 0.  0.
         12    1    1    2    0    0  0.73418129858E+01  0.34213946809E+02  0.25673467771E+02  0.43400729505E+02  0.00000000000E+00 0. -1.
         11    1    3    3    0    0 -0.85612373980E+01 -0.55406172749E+01 -0.89285841498E+01  0.13554071003E+02  0.51100000000E-03 0. -1.
        -11    1    3    3    0    0  0.31351902637E+00 -0.72312957518E+01 -0.86916136129E+01  0.11310794839E+02  0.51100000000E-03 0.  1.
         12    1    3    3    0    0  0.90590538585E+00 -0.21442033782E+02 -0.80532700084E+01  0.22922404654E+02  0.00000000000E+00 0. -1.
</event>
<event>
 7    1  0.1631716E-009  0.4778727E+02  0.7816164E-02  0.1312668E+00
        -11   -1    0    0    0    0  0.00000000000E+00  0.00000000000E+00  0.45593999997E+02  0.45594000000E+02  0.51100000000E-03 0. -1.
         11   -1    0    0    0    0 -0.00000000000E+00 -0.00000000000E+00 -0.45593999997E+02  0.45594000000E+02  0.51100000000E-03 0.  1.
    9900012    2    1    2    0    0  0.23227742753E+02  0.51479475178E+01 -0.36298680952E+02  0.47787266874E+02  0.19999980985E+02 0.  0.
         12    1    1    2    0    0 -0.23227742753E+02 -0.51479475178E+01  0.36298680952E+02  0.43400733126E+02  0.00000000000E+00 0. -1.
         11    1    3    3    0    0  0.80938490681E+00  0.36516825037E+01 -0.58532594095E+01  0.69462605056E+01  0.51100000000E-03 0. -1.
        -11    1    3    3    0    0  0.96892802621E+01 -0.91507744190E+00 -0.25148954713E+01  0.10052075319E+02  0.51100000000E-03 0.  1.
        -12    1    3    3    0    0  0.12729077584E+02  0.24113424559E+01 -0.27930526071E+02  0.30788931050E+02  0.00000000000E+00 0.  1.
</event>
<event>
 7    1  0.1631716E-009  0.4778727E+02  0.7816164E-02  0.1312668E+00
        -11   -1    0    0    0    0  0.00000000000E+00  0.00000000000E+00  0.45593999997E+02  0.45594000000E+02  0.51100000000E-03 0. -1.
         11   -1    0    0    0    0 -0.00000000000E+00 -0.00000000000E+00 -0.45593999997E+02  0.45594000000E+02  0.51100000000E-03 0.  1.
    9900012    2    1    2    0    0  0.19039224736E+02  0.51288130707E+00 -0.38998311794E+02  0.47787269032E+02  0.19999990826E+02 0.  0.
         12    1    1    2    0    0 -0.19039224736E+02 -0.51288130707E+00  0.38998311794E+02  0.43400730968E+02  0.00000000000E+00 0. -1.
         11    1    3    3    0    0 -0.13246642308E+01  0.10804759673E+01 -0.13109543170E+01  0.21542435152E+01  0.51100000000E-03 0. -1.
        -11    1    3    3    0    0  0.18692329423E+02  0.31251933938E+01 -0.20267693789E+02  0.27747962534E+02  0.51100000000E-03 0.  1.
        -12    1    3    3    0    0  0.16715595436E+01 -0.36927880540E+01 -0.17419663687E+02  0.17885062983E+02  0.00000000000E+00 0.  1.
</event>
<event>
 7    1  0.1631716E-009  0.4778727E+02  0.7816164E-02  0.1312668E+00
        -11   -1    0    0    0    0  0.00000000000E+00  0.00000000000E+00  0.45593999997E+02  0.45594000000E+02  0.51100000000E-03 0.  1.
         11   -1    0    0    0    0 -0.00000000000E+00 -0.00000000000E+00 -0.45593999997E+02  0.45594000000E+02  0.51100000000E-03 0. -1.
    9900012    2    1    2    0    0 -0.29443885718E+01  0.39091582107E+02  0.18622629783E+02  0.47787267797E+02  0.19999985194E+02 0.  0.
         12    1    1    2    0    0  0.29443885718E+01 -0.39091582107E+02 -0.18622629783E+02  0.43400732203E+02  0.00000000000E+00 0. -1.
         11    1    3    3    0    0 -0.42948967669E+00  0.40019582942E+01  0.27935463713E+01  0.48993911010E+01  0.51100000000E-03 0.  1.
        -11    1    3    3    0    0  0.50428180007E+01  0.14412591134E+02 -0.81221443780E+00  0.15290928329E+02  0.51100000000E-03 0. -1.
         12    1    3    3    0    0 -0.75577168957E+01  0.20677032679E+02  0.16641297850E+02  0.27596948367E+02  0.00000000000E+00 0. -1.
</event>
<event>
 7    1  0.1631716E-009  0.4778728E+02  0.7816164E-02  0.1312668E+00
        -11   -1    0    0    0    0  0.00000000000E+00  0.00000000000E+00  0.45593999997E+02  0.45594000000E+02  0.51100000000E-03 0.  1.
         11   -1    0    0    0    0 -0.00000000000E+00 -0.00000000000E+00 -0.45593999997E+02  0.45594000000E+02  0.51100000000E-03 0. -1.
    9900012    2    1    2    0    0  0.88039586599E+01 -0.40412994353E+01  0.42305804996E+02  0.47787275057E+02  0.20000018295E+02 0.  0.
         12    1    1    2    0    0 -0.88039586599E+01  0.40412994353E+01 -0.42305804996E+02  0.43400724943E+02  0.00000000000E+00 0. -1.
         11    1    3    3    0    0 -0.15904400008E+01  0.24743997925E+00  0.13903248204E+02  0.13996107917E+02  0.51100000000E-03 0. -1.
        -11    1    3    3    0    0  0.24396395474E+01 -0.31238831071E+01  0.24564850800E+02  0.24882571850E+02  0.51100000000E-03 0.  1.
         12    1    3    3    0    0  0.79547591133E+01 -0.11648563075E+01  0.38377059927E+01  0.89085952907E+01  0.00000000000E+00 0. -1.
</event>
<event>
 7    1  0.1631716E-009  0.4778727E+02  0.7816164E-02  0.1312668E+00
        -11   -1    0    0    0    0  0.00000000000E+00  0.00000000000E+00  0.45593999997E+02  0.45594000000E+02  0.51100000000E-03 0.  1.
         11   -1    0    0    0    0 -0.00000000000E+00 -0.00000000000E+00 -0.45593999997E+02  0.45594000000E+02  0.51100000000E-03 0. -1.
    9900012    2    1    2    0    0  0.27857723348E+02 -0.20435071133E+02  0.26267443035E+02  0.47787269062E+02  0.19999990961E+02 0.  0.
         12    1    1    2    0    0 -0.27857723348E+02  0.20435071133E+02 -0.26267443035E+02  0.43400730938E+02  0.00000000000E+00 0. -1.
         11    1    3    3    0    0  0.89149519740E+00 -0.23269654795E+01 -0.30863580983E+01  0.39667541646E+01  0.51100000000E-03 0. -1.
        -11    1    3    3    0    0  0.10322389999E+02 -0.79018968872E+01  0.11142556047E+02  0.17121573094E+02  0.51100000000E-03 0.  1.
         12    1    3    3    0    0  0.16643838151E+02 -0.10206208767E+02  0.18211245086E+02  0.26698941803E+02  0.00000000000E+00 0. -1.
</event>
<event>
 7    1  0.1631716E-009  0.4778727E+02  0.7816164E-02  0.1312668E+00
        -11   -1    0    0    0    0  0.00000000000E+00  0.00000000000E+00  0.45593999997E+02  0.45594000000E+02  0.51100000000E-03 0.  1.
         11   -1    0    0    0    0 -0.00000000000E+00 -0.00000000000E+00 -0.45593999997E+02  0.45594000000E+02  0.51100000000E-03 0. -1.
    9900012    2    1    2    0    0  0.28990408033E+02 -0.16488035072E+01  0.32256176314E+02  0.47787271650E+02  0.20000002760E+02 0.  0.
         12    1    1    2    0    0 -0.28990408033E+02  0.16488035072E+01 -0.32256176314E+02  0.43400728350E+02  0.00000000000E+00 0. -1.
         11    1    3    3    0    0  0.31421505129E+01  0.25421086820E+01  0.15291297254E+02  0.15816421794E+02  0.51100000000E-03 0. -1.
        -11    1    3    3    0    0  0.52910567121E+01 -0.22767791981E+01  0.94192162685E+00  0.58366275588E+01  0.51100000000E-03 0.  1.
         12    1    3    3    0    0  0.20557200808E+02 -0.19141329910E+01  0.16022957433E+02  0.26134222297E+02  0.00000000000E+00 0. -1.
</event>
<event>
 7    1  0.1631716E-009  0.4778727E+02  0.7816164E-02  0.1312668E+00
        -11   -1    0    0    0    0  0.00000000000E+00  0.00000000000E+00  0.45593999997E+02  0.45594000000E+02  0.51100000000E-03 0.  1.
         11   -1    0    0    0    0 -0.00000000000E+00 -0.00000000000E+00 -0.45593999997E+02  0.45594000000E+02  0.51100000000E-03 0. -1.
    9900012    2    1    2    0    0 -0.16786721714E+02  0.38245951646E+02 -0.11793077097E+02  0.47787268317E+02  0.19999987563E+02 0.  0.
         12    1    1    2    0    0  0.16786721714E+02 -0.38245951646E+02  0.11793077097E+02  0.43400731683E+02  0.00000000000E+00 0. -1.
         11    1    3    3    0    0 -0.96028407718E+01  0.13583144066E+02 -0.42442643775E+01  0.17167706136E+02  0.51100000000E-03 0. -1.
        -11    1    3    3    0    0  0.10633487852E+00  0.20146313203E+01  0.37669340929E+01  0.42731533069E+01  0.51100000000E-03 0.  1.
         12    1    3    3    0    0 -0.72902158209E+01  0.22648176260E+02 -0.11315746812E+02  0.26346408873E+02  0.00000000000E+00 0. -1.
</event>
<event>
 7    1  0.1631716E-009  0.4778727E+02  0.7816164E-02  0.1312668E+00
        -11   -1    0    0    0    0  0.00000000000E+00  0.00000000000E+00  0.45593999997E+02  0.45594000000E+02  0.51100000000E-03 0.  1.
         11   -1    0    0    0    0 -0.00000000000E+00 -0.00000000000E+00 -0.45593999997E+02  0.45594000000E+02  0.51100000000E-03 0. -1.
    9900012    2    1    2    0    0  0.75495700009E+01 -0.19427279418E+01  0.42694888637E+02  0.47787265965E+02  0.19999976840E+02 0.  0.
         12    1    1    2    0    0 -0.75495700009E+01  0.19427279418E+01 -0.42694888637E+02  0.43400734035E+02  0.00000000000E+00 0. -1.
         11    1    3    3    0    0  0.77745574139E+00  0.24597814618E+01 -0.52983990045E+00  0.26335703618E+01  0.51100000000E-03 0. -1.
        -11    1    3    3    0    0  0.28459142057E+01  0.18025130781E+01  0.39185048567E+01  0.51674908452E+01  0.51100000000E-03 0.  1.
        -12    1    3    3    0    0  0.39262000538E+01 -0.62050224817E+01  0.39306223681E+02  0.39986204758E+02  0.00000000000E+00 0.  1.
</event>
<event>
 7    1  0.1631716E-009  0.4778728E+02  0.7816164E-02  0.1312668E+00
        -11   -1    0    0    0    0  0.00000000000E+00  0.00000000000E+00  0.45593999997E+02  0.45594000000E+02  0.51100000000E-03 0.  1.
         11   -1    0    0    0    0 -0.00000000000E+00 -0.00000000000E+00 -0.45593999997E+02  0.45594000000E+02  0.51100000000E-03 0. -1.
    9900012    2    1    2    0    0 -0.34629053661E+02  0.22620957037E+02  0.13143177652E+02  0.47787283722E+02  0.20000057800E+02 0.  0.
         12    1    1    2    0    0  0.34629053661E+02 -0.22620957037E+02 -0.13143177652E+02  0.43400716278E+02  0.00000000000E+00 0. -1.
         11    1    3    3    0    0 -0.38064681763E+01  0.65078120299E+01 -0.32471546548E-01  0.75393548833E+01  0.51100000000E-03 0. -1.
        -11    1    3    3    0    0 -0.15814052662E+02  0.37426684092E+00  0.24778954568E+01  0.16011380435E+02  0.51100000000E-03 0.  1.
        -12    1    3    3    0    0 -0.15008532822E+02  0.15738878166E+02  0.10697753742E+02  0.24236548403E+02  0.00000000000E+00 0.  1.
</event>
<event>
 7    1  0.1631716E-009  0.4778727E+02  0.7816164E-02  0.1312668E+00
        -11   -1    0    0    0    0  0.00000000000E+00  0.00000000000E+00  0.45593999997E+02  0.45594000000E+02  0.51100000000E-03 0.  1.
         11   -1    0    0    0    0 -0.00000000000E+00 -0.00000000000E+00 -0.45593999997E+02  0.45594000000E+02  0.51100000000E-03 0. -1.
    9900012    2    1    2    0    0  0.27875120958E+02  0.26476680122E+02  0.20139179436E+02  0.47787268358E+02  0.19999987751E+02 0.  0.
         12    1    1    2    0    0 -0.27875120958E+02 -0.26476680122E+02 -0.20139179436E+02  0.43400731642E+02  0.00000000000E+00 0. -1.
         11    1    3    3    0    0  0.38437136376E+01  0.88567927738E+01  0.20262300895E+01  0.98652177575E+01  0.51100000000E-03 0. -1.
        -11    1    3    3    0    0  0.84729885953E+01  0.14621292113E+02  0.12837904891E+02  0.21222288308E+02  0.51100000000E-03 0.  1.
        -12    1    3    3    0    0  0.15558418725E+02  0.29985952358E+01  0.52750444556E+01  0.16699762292E+02  0.00000000000E+00 0.  1.
</event>
<event>
 7    1  0.1631716E-009  0.4778727E+02  0.7816164E-02  0.1312668E+00
        -11   -1    0    0    0    0  0.00000000000E+00  0.00000000000E+00  0.45593999997E+02  0.45594000000E+02  0.51100000000E-03 0. -1.
         11   -1    0    0    0    0 -0.00000000000E+00 -0.00000000000E+00 -0.45593999997E+02  0.45594000000E+02  0.51100000000E-03 0.  1.
    9900012    2    1    2    0    0 -0.39113838656E+02  0.62154779302E+01 -0.17751022343E+02  0.47787270345E+02  0.19999996813E+02 0.  0.
         12    1    1    2    0    0  0.39113838656E+02 -0.62154779302E+01  0.17751022343E+02  0.43400729655E+02  0.00000000000E+00 0. -1.
         11    1    3    3    0    0 -0.18864163194E+02  0.93491041021E+00 -0.39895177217E+00  0.18891529141E+02  0.51100000000E-03 0. -1.
        -11    1    3    3    0    0 -0.20479055699E+02  0.42861790833E+01 -0.13474769431E+02  0.24886391159E+02  0.51100000000E-03 0.  1.
         12    1    3    3    0    0  0.22938023726E+00  0.99438843668E+00 -0.38773011400E+01  0.40093500454E+01  0.00000000000E+00 0. -1.
</event>
<event>
 7    1  0.1631716E-009  0.4778725E+02  0.7816164E-02  0.1312668E+00
        -11   -1    0    0    0    0  0.00000000000E+00  0.00000000000E+00  0.45593999997E+02  0.45594000000E+02  0.51100000000E-03 0.  1.
         11   -1    0    0    0    0 -0.00000000000E+00 -0.00000000000E+00 -0.45593999997E+02  0.45594000000E+02  0.51100000000E-03 0. -1.
    9900012    2    1    2    0    0  0.54693766650E+01 -0.22732806071E+01  0.42994684948E+02  0.47787253237E+02  0.19999918809E+02 0.  0.
         12    1    1    2    0    0 -0.54693766650E+01  0.22732806071E+01 -0.42994684948E+02  0.43400746763E+02  0.00000000000E+00 0. -1.
         11    1    3    3    0    0  0.22010907507E+01 -0.25148550210E+01 -0.28271008058E+00  0.33539859154E+01  0.51100000000E-03 0. -1.
        -11    1    3    3    0    0 -0.43435329284E+00  0.17798007807E+01  0.12564886893E+01  0.22215124779E+01  0.51100000000E-03 0.  1.
        -12    1    3    3    0    0  0.37026392071E+01 -0.15382263668E+01  0.42020906339E+02  0.42211754844E+02  0.00000000000E+00 0.  1.
</event>
<event>
 7    1  0.1631716E-009  0.4778727E+02  0.7816164E-02  0.1312668E+00
        -11   -1    0    0    0    0  0.00000000000E+00  0.00000000000E+00  0.45593999997E+02  0.45594000000E+02  0.51100000000E-03 0.  1.
         11   -1    0    0    0    0 -0.00000000000E+00 -0.00000000000E+00 -0.45593999997E+02  0.45594000000E+02  0.51100000000E-03 0. -1.
    9900012    2    1    2    0    0 -0.40654705488E+01 -0.37972182952E+02  0.20620583878E+02  0.47787271799E+02  0.20000003438E+02 0.  0.
         12    1    1    2    0    0  0.40654705488E+01  0.37972182952E+02 -0.20620583878E+02  0.43400728201E+02  0.00000000000E+00 0. -1.
         11    1    3    3    0    0 -0.82468604925E+01 -0.16393753353E+02  0.98972338448E+01  0.20849966308E+02  0.51100000000E-03 0. -1.
        -11    1    3    3    0    0  0.18524537668E+01 -0.14917946358E+02  0.12623722148E+02  0.19629953378E+02  0.51100000000E-03 0.  1.
         12    1    3    3    0    0  0.23289361769E+01 -0.66604832415E+01 -0.19003721151E+01  0.73073521129E+01  0.00000000000E+00 0. -1.
</event>
<event>
 7    1  0.1631716E-009  0.4778727E+02  0.7816164E-02  0.1312668E+00
        -11   -1    0    0    0    0  0.00000000000E+00  0.00000000000E+00  0.45593999997E+02  0.45594000000E+02  0.51100000000E-03 0.  1.
         11   -1    0    0    0    0 -0.00000000000E+00 -0.00000000000E+00 -0.45593999997E+02  0.45594000000E+02  0.51100000000E-03 0. -1.
    9900012    2    1    2    0    0 -0.41371148526E+02 -0.11792431272E+02  0.57436627380E+01  0.47787273885E+02  0.20000012950E+02 0.  0.
         12    1    1    2    0    0  0.41371148526E+02  0.11792431272E+02 -0.57436627380E+01  0.43400726115E+02  0.00000000000E+00 0. -1.
         11    1    3    3    0    0 -0.94018431231E+01 -0.38971010861E+01  0.20261141169E-01  0.10177546942E+02  0.51100000000E-03 0. -1.
        -11    1    3    3    0    0 -0.20756942375E+02 -0.14266939662E+01 -0.42908188690E+01  0.21243757654E+02  0.51100000000E-03 0.  1.
         12    1    3    3    0    0 -0.11212363029E+02 -0.64686362192E+01  0.10014220466E+02  0.16365969289E+02  0.00000000000E+00 0. -1.
</event>
<event>
 7    1  0.1631716E-009  0.4778727E+02  0.7816164E-02  0.1312668E+00
        -11   -1    0    0    0    0  0.00000000000E+00  0.00000000000E+00  0.45593999997E+02  0.45594000000E+02  0.51100000000E-03 0. -1.
         11   -1    0    0    0    0 -0.00000000000E+00 -0.00000000000E+00 -0.45593999997E+02  0.45594000000E+02  0.51100000000E-03 0.  1.
    9900012    2    1    2    0    0 -0.18594312318E+02 -0.39109842115E+02  0.28801306219E+01  0.47787270130E+02  0.19999995832E+02 0.  0.
         12    1    1    2    0    0  0.18594312318E+02  0.39109842115E+02 -0.28801306219E+01  0.43400729870E+02  0.00000000000E+00 0. -1.
         11    1    3    3    0    0  0.27641213053E+00 -0.17477711341E+02  0.38291994286E+01  0.17894400407E+02  0.51100000000E-03 0. -1.
        -11    1    3    3    0    0 -0.13366447086E+02 -0.19756167166E+02 -0.21677951210E+01  0.23951354549E+02  0.51100000000E-03 0.  1.
         12    1    3    3    0    0 -0.55042773618E+01 -0.18759636078E+01  0.12187263142E+01  0.59415151740E+01  0.00000000000E+00 0. -1.
</event>
<event>
 7    1  0.1631716E-009  0.4778727E+02  0.7816164E-02  0.1312668E+00
        -11   -1    0    0    0    0  0.00000000000E+00  0.00000000000E+00  0.45593999997E+02  0.45594000000E+02  0.51100000000E-03 0.  1.
         11   -1    0    0    0    0 -0.00000000000E+00 -0.00000000000E+00 -0.45593999997E+02  0.45594000000E+02  0.51100000000E-03 0. -1.
    9900012    2    1    2    0    0  0.96714933919E+01  0.38430997710E+02  0.17695875584E+02  0.47787269798E+02  0.19999994315E+02 0.  0.
         12    1    1    2    0    0 -0.96714933919E+01 -0.38430997710E+02 -0.17695875584E+02  0.43400730202E+02  0.00000000000E+00 0. -1.
         11    1    3    3    0    0  0.44874799774E+01  0.13511197428E+02  0.15003899880E+02  0.20683494491E+02  0.51100000000E-03 0. -1.
        -11    1    3    3    0    0 -0.53136268086E+00  0.40930082864E+01 -0.25870994817E+01  0.48711545983E+01  0.51100000000E-03 0.  1.
        -12    1    3    3    0    0  0.57153760953E+01  0.20826791995E+02  0.52790751856E+01  0.22232620708E+02  0.00000000000E+00 0.  1.
</event>
<event>
 7    1  0.1631716E-009  0.4778727E+02  0.7816164E-02  0.1312668E+00
        -11   -1    0    0    0    0  0.00000000000E+00  0.00000000000E+00  0.45593999997E+02  0.45594000000E+02  0.51100000000E-03 0.  1.
         11   -1    0    0    0    0 -0.00000000000E+00 -0.00000000000E+00 -0.45593999997E+02  0.45594000000E+02  0.51100000000E-03 0. -1.
    9900012    2    1    2    0    0 -0.14597601752E+02  0.61257406375E+00  0.40867568601E+02  0.47787269738E+02  0.19999994044E+02 0.  0.
         12    1    1    2    0    0  0.14597601752E+02 -0.61257406375E+00 -0.40867568601E+02  0.43400730262E+02  0.00000000000E+00 0. -1.
         11    1    3    3    0    0 -0.70957796810E+01 -0.31647304095E+01  0.93779256621E+01  0.12178304391E+02  0.51100000000E-03 0. -1.
        -11    1    3    3    0    0  0.17222978288E+01  0.41821892320E+01  0.24647636970E+01  0.51509297148E+01  0.51100000000E-03 0.  1.
         12    1    3    3    0    0 -0.92241198999E+01 -0.40488475869E+00  0.29024879242E+02  0.30458035633E+02  0.00000000000E+00 0. -1.
</event>
<event>
 7    1  0.1882688E-009  0.4778728E+02  0.7816164E-02  0.1312668E+00
        -11   -1    0    0    0    0  0.00000000000E+00  0.00000000000E+00  0.45593999997E+02  0.45594000000E+02  0.51100000000E-03 0. -1.
         11   -1    0    0    0    0 -0.00000000000E+00 -0.00000000000E+00 -0.45593999997E+02  0.45594000000E+02  0.51100000000E-03 0.  1.
    9900012    2    1    2    0    0  0.17534889693E+02  0.36945311493E+02 -0.14532519909E+02  0.47787279582E+02  0.20000038928E+02 0.  0.
         12    1    1    2    0    0 -0.17534889693E+02 -0.36945311493E+02  0.14532519909E+02  0.43400720418E+02  0.00000000000E+00 0. -1.
         11    1    3    3    0    0  0.57447006712E+01  0.13508263956E+02  0.24836275526E+01  0.14887685750E+02  0.51100000000E-03 0. -1.
        -11    1    3    3    0    0  0.12060618922E+02  0.22010704038E+02 -0.12271428360E+02  0.27937744635E+02  0.51100000000E-03 0.  1.
         12    1    3    3    0    0 -0.27042989993E+00  0.14263434989E+01 -0.47447191016E+01  0.49618491977E+01  0.00000000000E+00 0. -1.
</event>
<event>
 7    1  0.1631716E-009  0.4778726E+02  0.7816164E-02  0.1312668E+00
        -11   -1    0    0    0    0  0.00000000000E+00  0.00000000000E+00  0.45593999997E+02  0.45594000000E+02  0.51100000000E-03 0.  1.
         11   -1    0    0    0    0 -0.00000000000E+00 -0.00000000000E+00 -0.45593999997E+02  0.45594000000E+02  0.51100000000E-03 0. -1.
    9900012    2    1    2    0    0 -0.25785227409E+02  0.86947631147E+01  0.33810456936E+02  0.47787264334E+02  0.19999969403E+02 0.  0.
         12    1    1    2    0    0  0.25785227409E+02 -0.86947631147E+01 -0.33810456936E+02  0.43400735666E+02  0.00000000000E+00 0. -1.
         11    1    3    3    0    0 -0.68641343131E+01  0.97355278990E+00  0.20118089840E+01  0.72188309685E+01  0.51100000000E-03 0. -1.
        -11    1    3    3    0    0 -0.11779550571E+02 -0.10984094256E+01  0.24123219443E+02  0.26868085743E+02  0.51100000000E-03 0.  1.
        -12    1    3    3    0    0 -0.71415425247E+01  0.88196197504E+01  0.76754285094E+01  0.13700347622E+02  0.00000000000E+00 0.  1.
</event>
<event>
 7    1  0.1631716E-009  0.4778727E+02  0.7816164E-02  0.1312668E+00
        -11   -1    0    0    0    0  0.00000000000E+00  0.00000000000E+00  0.45593999997E+02  0.45594000000E+02  0.51100000000E-03 0.  1.
         11   -1    0    0    0    0 -0.00000000000E+00 -0.00000000000E+00 -0.45593999997E+02  0.45594000000E+02  0.51100000000E-03 0. -1.
    9900012    2    1    2    0    0 -0.37325083285E+01  0.42711679332E+02  0.67382491049E+01  0.47787272232E+02  0.20000005417E+02 0.  0.
         12    1    1    2    0    0  0.37325083285E+01 -0.42711679332E+02 -0.67382491049E+01  0.43400727768E+02  0.00000000000E+00 0. -1.
         11    1    3    3    0    0 -0.57835357285E+00  0.56133301404E+01 -0.22192757611E+01  0.60637573570E+01  0.51100000000E-03 0. -1.
        -11    1    3    3    0    0  0.25141747181E+01  0.14618387770E+02  0.10975751439E+02  0.18452247978E+02  0.51100000000E-03 0.  1.
        -12    1    3    3    0    0 -0.56683294738E+01  0.22479961421E+02 -0.20182265734E+01  0.23271266898E+02  0.00000000000E+00 0.  1.
</event>
<event>
 7    1  0.1631716E-009  0.4778727E+02  0.7816164E-02  0.1312668E+00
        -11   -1    0    0    0    0  0.00000000000E+00  0.00000000000E+00  0.45593999997E+02  0.45594000000E+02  0.51100000000E-03 0. -1.
         11   -1    0    0    0    0 -0.00000000000E+00 -0.00000000000E+00 -0.45593999997E+02  0.45594000000E+02  0.51100000000E-03 0.  1.
    9900012    2    1    2    0    0 -0.13589967169E+02 -0.34002480903E+02 -0.23297362048E+02  0.47787274274E+02  0.20000014723E+02 0.  0.
         12    1    1    2    0    0  0.13589967169E+02  0.34002480903E+02  0.23297362048E+02  0.43400725726E+02  0.00000000000E+00 0. -1.
         11    1    3    3    0    0 -0.39236353621E+01 -0.19599636197E+02 -0.19539625838E+01  0.20083790069E+02  0.51100000000E-03 0. -1.
        -11    1    3    3    0    0 -0.38636512269E+01 -0.87257199840E+01 -0.11378138181E+02  0.14850185816E+02  0.51100000000E-03 0.  1.
         12    1    3    3    0    0 -0.58026805800E+01 -0.56771247220E+01 -0.99652612829E+01  0.12853298388E+02  0.00000000000E+00 0. -1.
</event>
<event>
 7    1  0.1631716E-009  0.4778727E+02  0.7816164E-02  0.1312668E+00
        -11   -1    0    0    0    0  0.00000000000E+00  0.00000000000E+00  0.45593999997E+02  0.45594000000E+02  0.51100000000E-03 0.  1.
         11   -1    0    0    0    0 -0.00000000000E+00 -0.00000000000E+00 -0.45593999997E+02  0.45594000000E+02  0.51100000000E-03 0. -1.
    9900012    2    1    2    0    0  0.21288631073E+02 -0.61482436434E+01  0.37317774799E+02  0.47787273868E+02  0.20000012874E+02 0.  0.
         12    1    1    2    0    0 -0.21288631073E+02  0.61482436434E+01 -0.37317774799E+02  0.43400726132E+02  0.00000000000E+00 0. -1.
         11    1    3    3    0    0  0.53990379279E+01  0.25117160312E+01  0.17938853111E+02  0.18901343317E+02  0.51100000000E-03 0. -1.
        -11    1    3    3    0    0  0.61269125775E+00 -0.16667147021E+01 -0.13299640359E+01  0.22185880810E+01  0.51100000000E-03 0.  1.
        -12    1    3    3    0    0  0.15276901888E+02 -0.69932449726E+01  0.20708885723E+02  0.26667342470E+02  0.00000000000E+00 0.  1.
</event>
<event>
 7    1  0.1631716E-009  0.4778727E+02  0.7816164E-02  0.1312668E+00
        -11   -1    0    0    0    0  0.00000000000E+00  0.00000000000E+00  0.45593999997E+02  0.45594000000E+02  0.51100000000E-03 0.  1.
         11   -1    0    0    0    0 -0.00000000000E+00 -0.00000000000E+00 -0.45593999997E+02  0.45594000000E+02  0.51100000000E-03 0. -1.
    9900012    2    1    2    0    0 -0.37749790533E+02  0.14762518161E+02  0.15512735591E+02  0.47787267365E+02  0.19999983225E+02 0.  0.
         12    1    1    2    0    0  0.37749790533E+02 -0.14762518161E+02 -0.15512735591E+02  0.43400732635E+02  0.00000000000E+00 0. -1.
         11    1    3    3    0    0 -0.54708386289E+01 -0.14662097190E+01 -0.21717358992E+01  0.60659940093E+01  0.51100000000E-03 0. -1.
        -11    1    3    3    0    0 -0.26178449038E+02  0.10604666113E+02  0.88443644366E+01  0.29597177567E+02  0.51100000000E-03 0.  1.
        -12    1    3    3    0    0 -0.61005028658E+01  0.56240617664E+01  0.88401070538E+01  0.12124095789E+02  0.00000000000E+00 0.  1.
</event>
<event>
 7    1  0.1631716E-009  0.4778727E+02  0.7816164E-02  0.1312668E+00
        -11   -1    0    0    0    0  0.00000000000E+00  0.00000000000E+00  0.45593999997E+02  0.45594000000E+02  0.51100000000E-03 0. -1.
         11   -1    0    0    0    0 -0.00000000000E+00 -0.00000000000E+00 -0.45593999997E+02  0.45594000000E+02  0.51100000000E-03 0.  1.
    9900012    2    1    2    0    0 -0.10864021450E+02 -0.17839785873E+01 -0.41981113948E+02  0.47787268785E+02  0.19999989701E+02 0.  0.
         12    1    1    2    0    0  0.10864021450E+02  0.17839785873E+01  0.41981113948E+02  0.43400731215E+02  0.00000000000E+00 0. -1.
         11    1    3    3    0    0 -0.20820654842E+01  0.15847637857E+01  0.54696510936E+00  0.26731337469E+01  0.51100000000E-03 0. -1.
        -11    1    3    3    0    0 -0.25038677589E+01  0.42056551182E+01 -0.10046390971E+02  0.11175278991E+02  0.51100000000E-03 0.  1.
        -12    1    3    3    0    0 -0.62780882074E+01 -0.75743974912E+01 -0.32481688086E+02  0.33938856048E+02  0.00000000000E+00 0.  1.
</event>
<event>
 7    1  0.1631716E-009  0.4778727E+02  0.7816164E-02  0.1312668E+00
        -11   -1    0    0    0    0  0.00000000000E+00  0.00000000000E+00  0.45593999997E+02  0.45594000000E+02  0.51100000000E-03 0.  1.
         11   -1    0    0    0    0 -0.00000000000E+00 -0.00000000000E+00 -0.45593999997E+02  0.45594000000E+02  0.51100000000E-03 0. -1.
    9900012    2    1    2    0    0  0.26005801157E+02  0.13550298277E+02  0.31995481686E+02  0.47787272753E+02  0.20000007791E+02 0.  0.
         12    1    1    2    0    0 -0.26005801157E+02 -0.13550298277E+02 -0.31995481686E+02  0.43400727247E+02  0.00000000000E+00 0. -1.
         11    1    3    3    0    0  0.49169966497E+01  0.71968697417E+01  0.10716962658E+02  0.13813945092E+02  0.51100000000E-03 0.  1.
        -11    1    3    3    0    0  0.15339240464E+02  0.48356752391E+01  0.53160461375E+01  0.16939197142E+02  0.51100000000E-03 0. -1.
         12    1    3    3    0    0  0.57495640439E+01  0.15177532964E+01  0.15962472890E+02  0.17034130519E+02  0.00000000000E+00 0. -1.
</event>
<event>
 7    1  0.1631716E-009  0.4778727E+02  0.7816164E-02  0.1312668E+00
        -11   -1    0    0    0    0  0.00000000000E+00  0.00000000000E+00  0.45593999997E+02  0.45594000000E+02  0.51100000000E-03 0.  1.
         11   -1    0    0    0    0 -0.00000000000E+00 -0.00000000000E+00 -0.45593999997E+02  0.45594000000E+02  0.51100000000E-03 0. -1.
    9900012    2    1    2    0    0 -0.30960804138E+02 -0.29718060778E+02  0.64721501999E+01  0.47787271233E+02  0.20000000861E+02 0.  0.
         12    1    1    2    0    0  0.30960804138E+02  0.29718060778E+02 -0.64721501999E+01  0.43400728767E+02  0.00000000000E+00 0. -1.
         11    1    3    3    0    0 -0.35445455191E+01 -0.57161561649E+01  0.73416012307E+01  0.99567742332E+01  0.51100000000E-03 0. -1.
        -11    1    3    3    0    0 -0.67593461043E+01 -0.52654335827E+01 -0.45482068729E+01  0.97005018732E+01  0.51100000000E-03 0.  1.
        -12    1    3    3    0    0 -0.20656912514E+02 -0.18736471031E+02  0.36787558420E+01  0.28129995127E+02  0.00000000000E+00 0.  1.
</event>
<event>
 7    1  0.1631716E-009  0.4778729E+02  0.7816164E-02  0.1312668E+00
        -11   -1    0    0    0    0  0.00000000000E+00  0.00000000000E+00  0.45593999997E+02  0.45594000000E+02  0.51100000000E-03 0.  1.
         11   -1    0    0    0    0 -0.00000000000E+00 -0.00000000000E+00 -0.45593999997E+02  0.45594000000E+02  0.51100000000E-03 0. -1.
    9900012    2    1    2    0    0  0.17816688495E+02  0.31115215174E+01  0.39452578696E+02  0.47787286632E+02  0.20000071071E+02 0.  0.
         12    1    1    2    0    0 -0.17816688495E+02 -0.31115215174E+01 -0.39452578696E+02  0.43400713368E+02  0.00000000000E+00 0. -1.
         11    1    3    3    0    0  0.14050692593E+02 -0.29236947547E+01  0.13160540968E+02  0.19472282666E+02  0.51100000000E-03 0. -1.
        -11    1    3    3    0    0  0.93043700460E+00 -0.18373074188E+01  0.67414126752E+01  0.70489755773E+01  0.51100000000E-03 0.  1.
        -12    1    3    3    0    0  0.28355588970E+01  0.78725236910E+01  0.19550625052E+02  0.21266028389E+02  0.00000000000E+00 0.  1.
</event>
<event>
 7    1  0.1631716E-009  0.4778726E+02  0.7816164E-02  0.1312668E+00
        -11   -1    0    0    0    0  0.00000000000E+00  0.00000000000E+00  0.45593999997E+02  0.45594000000E+02  0.51100000000E-03 0. -1.
         11   -1    0    0    0    0 -0.00000000000E+00 -0.00000000000E+00 -0.45593999997E+02  0.45594000000E+02  0.51100000000E-03 0.  1.
    9900012    2    1    2    0    0 -0.24882092515E+02  0.27516493730E+02 -0.22524385540E+02  0.47787263842E+02  0.19999967161E+02 0.  0.
         12    1    1    2    0    0  0.24882092515E+02 -0.27516493730E+02  0.22524385540E+02  0.43400736158E+02  0.00000000000E+00 0. -1.
         11    1    3    3    0    0 -0.80181832016E+01  0.12119778135E+02 -0.13116641914E+02  0.19576173764E+02  0.51100000000E-03 0. -1.
        -11    1    3    3    0    0 -0.66323011554E+01  0.13651191525E+02 -0.16777834895E+01  0.15269492669E+02  0.51100000000E-03 0.  1.
        -12    1    3    3    0    0 -0.10231608158E+02  0.17455240698E+01 -0.77299601372E+01  0.12941597409E+02  0.00000000000E+00 0.  1.
</event>
<event>
 7    1  0.1631716E-009  0.4778726E+02  0.7816164E-02  0.1312668E+00
        -11   -1    0    0    0    0  0.00000000000E+00  0.00000000000E+00  0.45593999997E+02  0.45594000000E+02  0.51100000000E-03 0. -1.
         11   -1    0    0    0    0 -0.00000000000E+00 -0.00000000000E+00 -0.45593999997E+02  0.45594000000E+02  0.51100000000E-03 0.  1.
    9900012    2    1    2    0    0 -0.16688749459E+02  0.19609910782E+02 -0.34936530227E+02  0.47787261485E+02  0.19999956413E+02 0.  0.
         12    1    1    2    0    0  0.16688749459E+02 -0.19609910782E+02  0.34936530227E+02  0.43400738515E+02  0.00000000000E+00 0. -1.
         11    1    3    3    0    0 -0.82552632289E+01  0.10941574979E+02 -0.47305993463E+01  0.14499862221E+02  0.51100000000E-03 0. -1.
        -11    1    3    3    0    0  0.19854396256E-01  0.64904115984E+00 -0.95470441561E+01  0.95691013687E+01  0.51100000000E-03 0.  1.
        -12    1    3    3    0    0 -0.84533406269E+01  0.80192946430E+01 -0.20658886724E+02  0.23718297895E+02  0.00000000000E+00 0.  1.
</event>
<event>
 7    1  0.1631716E-009  0.4778727E+02  0.7816164E-02  0.1312668E+00
        -11   -1    0    0    0    0  0.00000000000E+00  0.00000000000E+00  0.45593999997E+02  0.45594000000E+02  0.51100000000E-03 0.  1.
         11   -1    0    0    0    0 -0.00000000000E+00 -0.00000000000E+00 -0.45593999997E+02  0.45594000000E+02  0.51100000000E-03 0. -1.
    9900012    2    1    2    0    0  0.13186999204E+01  0.43245641239E+02  0.34204073682E+01  0.47787266801E+02  0.19999980654E+02 0.  0.
         12    1    1    2    0    0 -0.13186999204E+01 -0.43245641239E+02 -0.34204073682E+01  0.43400733199E+02  0.00000000000E+00 0. -1.
         11    1    3    3    0    0  0.27210720130E+01  0.14114309426E+01  0.22458697315E+01  0.38000396468E+01  0.51100000000E-03 0. -1.
        -11    1    3    3    0    0  0.43796386492E+01  0.69743583834E+01 -0.21021217319E+01  0.84995191390E+01  0.51100000000E-03 0.  1.
        -12    1    3    3    0    0 -0.57820107417E+01  0.34859851913E+02  0.32766593686E+01  0.35487708016E+02  0.00000000000E+00 0.  1.
</event>
<event>
 7    1  0.1631716E-009  0.4778727E+02  0.7816164E-02  0.1312668E+00
        -11   -1    0    0    0    0  0.00000000000E+00  0.00000000000E+00  0.45593999997E+02  0.45594000000E+02  0.51100000000E-03 0.  1.
         11   -1    0    0    0    0 -0.00000000000E+00 -0.00000000000E+00 -0.45593999997E+02  0.45594000000E+02  0.51100000000E-03 0. -1.
    9900012    2    1    2    0    0  0.33415184301E+02 -0.91188824816E+01  0.26151381210E+02  0.47787270758E+02  0.19999998695E+02 0.  0.
         12    1    1    2    0    0 -0.33415184301E+02  0.91188824816E+01 -0.26151381210E+02  0.43400729242E+02  0.00000000000E+00 0. -1.
         11    1    3    3    0    0  0.28250734590E+01  0.20594506710E+01 -0.21422695265E+01  0.41002068363E+01  0.51100000000E-03 0. -1.
        -11    1    3    3    0    0  0.11193375441E+02 -0.67454841823E+01  0.83089785984E+01  0.15486521115E+02  0.51100000000E-03 0.  1.
         12    1    3    3    0    0  0.19396735400E+02 -0.44328489702E+01  0.19984672138E+02  0.28200542807E+02  0.00000000000E+00 0. -1.
</event>
<event>
 7    1  0.1631716E-009  0.4778727E+02  0.7816164E-02  0.1312668E+00
        -11   -1    0    0    0    0  0.00000000000E+00  0.00000000000E+00  0.45593999997E+02  0.45594000000E+02  0.51100000000E-03 0.  1.
         11   -1    0    0    0    0 -0.00000000000E+00 -0.00000000000E+00 -0.45593999997E+02  0.45594000000E+02  0.51100000000E-03 0. -1.
    9900012    2    1    2    0    0  0.19441732435E+02 -0.76472767863E+01  0.38041577447E+02  0.47787269396E+02  0.19999992482E+02 0.  0.
         12    1    1    2    0    0 -0.19441732435E+02  0.76472767863E+01 -0.38041577447E+02  0.43400730604E+02  0.00000000000E+00 0. -1.
         11    1    3    3    0    0  0.60189653190E+01 -0.37730669291E+01  0.13015853627E+01  0.72220566517E+01  0.51100000000E-03 0. -1.
        -11    1    3    3    0    0 -0.72464756834E+00  0.99724238591E+00  0.86619603404E+01  0.87492378911E+01  0.51100000000E-03 0.  1.
        -12    1    3    3    0    0  0.14147414685E+02 -0.48714522431E+01  0.28078031744E+02  0.31815974853E+02  0.00000000000E+00 0.  1.
</event>
<event>
 7    1  0.1631716E-009  0.4778727E+02  0.7816164E-02  0.1312668E+00
        -11   -1    0    0    0    0  0.00000000000E+00  0.00000000000E+00  0.45593999997E+02  0.45594000000E+02  0.51100000000E-03 0.  1.
         11   -1    0    0    0    0 -0.00000000000E+00 -0.00000000000E+00 -0.45593999997E+02  0.45594000000E+02  0.51100000000E-03 0. -1.
    9900012    2    1    2    0    0  0.22665041356E+02  0.32788949153E+02  0.17169862595E+02  0.47787268811E+02  0.19999989816E+02 0.  0.
         12    1    1    2    0    0 -0.22665041356E+02 -0.32788949153E+02 -0.17169862595E+02  0.43400731189E+02  0.00000000000E+00 0. -1.
         11    1    3    3    0    0  0.23500586114E+02  0.29058060270E+02  0.19421467258E+02  0.42117001378E+02  0.51100000000E-03 0. -1.
        -11    1    3    3    0    0  0.84259339748E+00  0.29002824280E+01 -0.41700126532E+00  0.30488509494E+01  0.51100000000E-03 0.  1.
         12    1    3    3    0    0 -0.16781381552E+01  0.83060645469E+00 -0.18346033979E+01  0.26214164832E+01  0.00000000000E+00 0. -1.
</event>
<event>
 7    1  0.2035218E-009  0.4778727E+02  0.7816164E-02  0.1312668E+00
        -11   -1    0    0    0    0  0.00000000000E+00  0.00000000000E+00  0.45593999997E+02  0.45594000000E+02  0.51100000000E-03 0. -1.
         11   -1    0    0    0    0 -0.00000000000E+00 -0.00000000000E+00 -0.45593999997E+02  0.45594000000E+02  0.51100000000E-03 0.  1.
    9900012    2    1    2    0    0 -0.43026241093E+02 -0.37282186988E+01 -0.42972565957E+01  0.47787268998E+02  0.19999990669E+02 0.  0.
         12    1    1    2    0    0  0.43026241093E+02  0.37282186988E+01  0.42972565957E+01  0.43400731002E+02  0.00000000000E+00 0. -1.
         11    1    3    3    0    0 -0.12170501107E+02 -0.62605516334E+01  0.21072736177E+01  0.13847606519E+02  0.51100000000E-03 0. -1.
        -11    1    3    3    0    0 -0.27724763338E+02  0.31933184625E+01 -0.13291252507E+01  0.27939691464E+02  0.51100000000E-03 0.  1.
         12    1    3    3    0    0 -0.31309766490E+01 -0.66098552792E+00 -0.50754049627E+01  0.59999710149E+01  0.00000000000E+00 0. -1.
</event>
<event>
 7    1  0.1631716E-009  0.4778727E+02  0.7816164E-02  0.1312668E+00
        -11   -1    0    0    0    0  0.00000000000E+00  0.00000000000E+00  0.45593999997E+02  0.45594000000E+02  0.51100000000E-03 0.  1.
         11   -1    0    0    0    0 -0.00000000000E+00 -0.00000000000E+00 -0.45593999997E+02  0.45594000000E+02  0.51100000000E-03 0. -1.
    9900012    2    1    2    0    0 -0.30497705494E+02 -0.20880873064E+02  0.22748680591E+02  0.47787269949E+02  0.19999995005E+02 0.  0.
         12    1    1    2    0    0  0.30497705494E+02  0.20880873064E+02 -0.22748680591E+02  0.43400730051E+02  0.00000000000E+00 0. -1.
         11    1    3    3    0    0 -0.16211644500E+01 -0.68887761422E+00 -0.15725497773E+01  0.23612792305E+01  0.51100000000E-03 0. -1.
        -11    1    3    3    0    0 -0.18154222899E+02 -0.12028184098E+02  0.23327699632E+02  0.31912922024E+02  0.51100000000E-03 0.  1.
        -12    1    3    3    0    0 -0.10722318146E+02 -0.81638113517E+01  0.99353073671E+00  0.13513068694E+02  0.00000000000E+00 0.  1.
</event>
<event>
 7    1  0.1631716E-009  0.4778727E+02  0.7816164E-02  0.1312668E+00
        -11   -1    0    0    0    0  0.00000000000E+00  0.00000000000E+00  0.45593999997E+02  0.45594000000E+02  0.51100000000E-03 0. -1.
         11   -1    0    0    0    0 -0.00000000000E+00 -0.00000000000E+00 -0.45593999997E+02  0.45594000000E+02  0.51100000000E-03 0.  1.
    9900012    2    1    2    0    0  0.28203397205E+02 -0.27564892706E+02 -0.18120945375E+02  0.47787267460E+02  0.19999983655E+02 0.  0.
         12    1    1    2    0    0 -0.28203397205E+02  0.27564892706E+02  0.18120945375E+02  0.43400732540E+02  0.00000000000E+00 0. -1.
         11    1    3    3    0    0  0.21716166933E+01 -0.18553968859E+01  0.23440260183E+01  0.36949796890E+01  0.51100000000E-03 0. -1.
        -11    1    3    3    0    0  0.21918381390E+02 -0.21722243327E+02 -0.10496970257E+02  0.32595362903E+02  0.51100000000E-03 0.  1.
        -12    1    3    3    0    0  0.41133991217E+01 -0.39872524925E+01 -0.99680011355E+01  0.11496924868E+02  0.00000000000E+00 0.  1.
</event>
<event>
 7    1  0.1631716E-009  0.4778727E+02  0.7816164E-02  0.1312668E+00
        -11   -1    0    0    0    0  0.00000000000E+00  0.00000000000E+00  0.45593999997E+02  0.45594000000E+02  0.51100000000E-03 0. -1.
         11   -1    0    0    0    0 -0.00000000000E+00 -0.00000000000E+00 -0.45593999997E+02  0.45594000000E+02  0.51100000000E-03 0.  1.
    9900012    2    1    2    0    0 -0.25427335044E+02  0.30584222337E+02 -0.17368912419E+02  0.47787272564E+02  0.20000006929E+02 0.  0.
         12    1    1    2    0    0  0.25427335044E+02 -0.30584222337E+02  0.17368912419E+02  0.43400727436E+02  0.00000000000E+00 0. -1.
         11    1    3    3    0    0 -0.10467150051E+02  0.14214338324E+01 -0.62187133204E+01  0.12257817911E+02  0.51100000000E-03 0. -1.
        -11    1    3    3    0    0 -0.29906956983E+01  0.12087305222E+02 -0.69422125057E+01  0.14256280126E+02  0.51100000000E-03 0.  1.
        -12    1    3    3    0    0 -0.11969489295E+02  0.17075483282E+02 -0.42079865923E+01  0.21273174527E+02  0.00000000000E+00 0.  1.
</event>
<event>
 7    1  0.1631716E-009  0.4778727E+02  0.7816164E-02  0.1312668E+00
        -11   -1    0    0    0    0  0.00000000000E+00  0.00000000000E+00  0.45593999997E+02  0.45594000000E+02  0.51100000000E-03 0. -1.
         11   -1    0    0    0    0 -0.00000000000E+00 -0.00000000000E+00 -0.45593999997E+02  0.45594000000E+02  0.51100000000E-03 0.  1.
    9900012    2    1    2    0    0  0.36800608804E+02  0.16175828412E+02 -0.16360959291E+02  0.47787271641E+02  0.20000002720E+02 0.  0.
         12    1    1    2    0    0 -0.36800608804E+02 -0.16175828412E+02  0.16360959291E+02  0.43400728359E+02  0.00000000000E+00 0. -1.
         11    1    3    3    0    0  0.20331409563E+02  0.16520468192E+01 -0.13005937145E+02  0.24191938219E+02  0.51100000000E-03 0. -1.
        -11    1    3    3    0    0  0.79433028298E+01  0.28825175588E+01  0.10338467714E+01  0.85131549223E+01  0.51100000000E-03 0.  1.
        -12    1    3    3    0    0  0.85258964110E+01  0.11641264034E+02 -0.43888689179E+01  0.15082178500E+02  0.00000000000E+00 0.  1.
</event>
<event>
 7    1  0.1631716E-009  0.4778727E+02  0.7816164E-02  0.1312668E+00
        -11   -1    0    0    0    0  0.00000000000E+00  0.00000000000E+00  0.45593999997E+02  0.45594000000E+02  0.51100000000E-03 0.  1.
         11   -1    0    0    0    0 -0.00000000000E+00 -0.00000000000E+00 -0.45593999997E+02  0.45594000000E+02  0.51100000000E-03 0. -1.
    9900012    2    1    2    0    0  0.22756504279E+02  0.19198948006E+02  0.31577920493E+02  0.47787272423E+02  0.20000006287E+02 0.  0.
         12    1    1    2    0    0 -0.22756504279E+02 -0.19198948006E+02 -0.31577920493E+02  0.43400727577E+02  0.00000000000E+00 0. -1.
         11    1    3    3    0    0  0.10629961577E+02  0.13757409368E+02  0.22423741201E+02  0.28374047391E+02  0.51100000000E-03 0. -1.
        -11    1    3    3    0    0  0.10973459452E+02  0.71981175123E+01  0.10594002059E+02  0.16866018734E+02  0.51100000000E-03 0.  1.
         12    1    3    3    0    0  0.11530832502E+01 -0.17565788750E+01 -0.14398227666E+01  0.25472062981E+01  0.00000000000E+00 0. -1.
</event>
<event>
 7    1  0.2059434E-009  0.4778727E+02  0.7816164E-02  0.1312668E+00
        -11   -1    0    0    0    0  0.00000000000E+00  0.00000000000E+00  0.45593999997E+02  0.45594000000E+02  0.51100000000E-03 0. -1.
         11   -1    0    0    0    0 -0.00000000000E+00 -0.00000000000E+00 -0.45593999997E+02  0.45594000000E+02  0.51100000000E-03 0.  1.
    9900012    2    1    2    0    0  0.14267687348E+02  0.27602343031E+02 -0.30301266924E+02  0.47787273966E+02  0.20000013320E+02 0.  0.
         12    1    1    2    0    0 -0.14267687348E+02 -0.27602343031E+02  0.30301266924E+02  0.43400726034E+02  0.00000000000E+00 0. -1.
         11    1    3    3    0    0 -0.78462183758E+00  0.40768871126E+00  0.10563442082E+01  0.13775720891E+01  0.51100000000E-03 0. -1.
        -11    1    3    3    0    0  0.10120430052E+02  0.25575566560E+02 -0.20270527013E+02  0.34167630514E+02  0.51100000000E-03 0.  1.
         12    1    3    3    0    0  0.49318791336E+01  0.16190877594E+01 -0.11087084120E+02  0.12242071363E+02  0.00000000000E+00 0. -1.
</event>
<event>
 7    1  0.1631716E-009  0.4778727E+02  0.7816164E-02  0.1312668E+00
        -11   -1    0    0    0    0  0.00000000000E+00  0.00000000000E+00  0.45593999997E+02  0.45594000000E+02  0.51100000000E-03 0.  1.
         11   -1    0    0    0    0 -0.00000000000E+00 -0.00000000000E+00 -0.45593999997E+02  0.45594000000E+02  0.51100000000E-03 0. -1.
    9900012    2    1    2    0    0 -0.21198735904E+02  0.32607703659E+02  0.19260699442E+02  0.47787270918E+02  0.19999999425E+02 0.  0.
         12    1    1    2    0    0  0.21198735904E+02 -0.32607703659E+02 -0.19260699442E+02  0.43400729082E+02  0.00000000000E+00 0. -1.
         11    1    3    3    0    0 -0.83223897438E+01  0.25585086821E+01  0.26625320000E+01  0.91047907519E+01  0.51100000000E-03 0.  1.
        -11    1    3    3    0    0 -0.14145663549E+02  0.21611290768E+02  0.92941872643E+01  0.27450493677E+02  0.51100000000E-03 0. -1.
         12    1    3    3    0    0  0.12693173895E+01  0.84379042089E+01  0.73039801773E+01  0.11231986490E+02  0.00000000000E+00 0. -1.
</event>
<event>
 7    1  0.1631716E-009  0.4778727E+02  0.7816164E-02  0.1312668E+00
        -11   -1    0    0    0    0  0.00000000000E+00  0.00000000000E+00  0.45593999997E+02  0.45594000000E+02  0.51100000000E-03 0.  1.
         11   -1    0    0    0    0 -0.00000000000E+00 -0.00000000000E+00 -0.45593999997E+02  0.45594000000E+02  0.51100000000E-03 0. -1.
    9900012    2    1    2    0    0  0.10219927005E+02  0.40264369692E+02  0.12568091640E+02  0.47787270719E+02  0.19999998517E+02 0.  0.
         12    1    1    2    0    0 -0.10219927005E+02 -0.40264369692E+02 -0.12568091640E+02  0.43400729281E+02  0.00000000000E+00 0. -1.
         11    1    3    3    0    0  0.42891509690E+01  0.63925714554E+01  0.93296079174E+01  0.12095592999E+02  0.51100000000E-03 0. -1.
        -11    1    3    3    0    0 -0.16489396702E+01  0.65547726835E+01 -0.15667358900E+01  0.69382064382E+01  0.51100000000E-03 0.  1.
         12    1    3    3    0    0  0.75797157063E+01  0.27317025553E+02  0.48052196123E+01  0.28753471282E+02  0.00000000000E+00 0. -1.
</event>
<event>
 7    1  0.1631716E-009  0.4778727E+02  0.7816164E-02  0.1312668E+00
        -11   -1    0    0    0    0  0.00000000000E+00  0.00000000000E+00  0.45593999997E+02  0.45594000000E+02  0.51100000000E-03 0.  1.
         11   -1    0    0    0    0 -0.00000000000E+00 -0.00000000000E+00 -0.45593999997E+02  0.45594000000E+02  0.51100000000E-03 0. -1.
    9900012    2    1    2    0    0  0.42949204987E+01 -0.41350999282E+02  0.12460812966E+02  0.47787270243E+02  0.19999996344E+02 0.  0.
         12    1    1    2    0    0 -0.42949204987E+01  0.41350999282E+02 -0.12460812966E+02  0.43400729757E+02  0.00000000000E+00 0. -1.
         11    1    3    3    0    0  0.87209031469E+01 -0.19260466383E+02  0.33746017423E+01  0.21410456655E+02  0.51100000000E-03 0.  1.
        -11    1    3    3    0    0  0.27370773935E+00 -0.14059070971E+01  0.44356729089E+01  0.46611892375E+01  0.51100000000E-03 0. -1.
         12    1    3    3    0    0 -0.46996903876E+01 -0.20684625802E+02  0.46505383145E+01  0.21715624350E+02  0.00000000000E+00 0. -1.
</event>
<event>
 7    1  0.1631716E-009  0.4778727E+02  0.7816164E-02  0.1312668E+00
        -11   -1    0    0    0    0  0.00000000000E+00  0.00000000000E+00  0.45593999997E+02  0.45594000000E+02  0.51100000000E-03 0.  1.
         11   -1    0    0    0    0 -0.00000000000E+00 -0.00000000000E+00 -0.45593999997E+02  0.45594000000E+02  0.51100000000E-03 0. -1.
    9900012    2    1    2    0    0  0.84186782759E+01  0.31766496363E+02 -0.28348524796E+02  0.47787270822E+02  0.19999998986E+02 0.  0.
         12    1    1    2    0    0 -0.84186782759E+01 -0.31766496363E+02  0.28348524796E+02  0.43400729178E+02  0.00000000000E+00 0. -1.
         11    1    3    3    0    0 -0.27229617014E+01  0.17329646325E+01 -0.53859701991E+01  0.62790414946E+01  0.51100000000E-03 0. -1.
        -11    1    3    3    0    0  0.11706882602E+02  0.28832554892E+02 -0.24405682785E+02  0.39547498964E+02  0.51100000000E-03 0.  1.
         12    1    3    3    0    0 -0.56524262479E+00  0.12009768381E+01  0.14431281880E+01  0.19607303633E+01  0.00000000000E+00 0. -1.
</event>
<event>
 7    1  0.1631716E-009  0.4778728E+02  0.7816164E-02  0.1312668E+00
        -11   -1    0    0    0    0  0.00000000000E+00  0.00000000000E+00  0.45593999997E+02  0.45594000000E+02  0.51100000000E-03 0. -1.
         11   -1    0    0    0    0 -0.00000000000E+00 -0.00000000000E+00 -0.45593999997E+02  0.45594000000E+02  0.51100000000E-03 0.  1.
    9900012    2    1    2    0    0  0.34072764850E+02 -0.20701088510E+02 -0.17150348708E+02  0.47787276149E+02  0.20000023272E+02 0.  0.
         12    1    1    2    0    0 -0.34072764850E+02  0.20701088510E+02  0.17150348708E+02  0.43400723851E+02  0.00000000000E+00 0. -1.
         11    1    3    3    0    0  0.27722349952E+01 -0.16883335069E+01 -0.78894087542E+01  0.85310332112E+01  0.51100000000E-03 0. -1.
        -11    1    3    3    0    0  0.23871796278E+02 -0.17370238988E+02 -0.10905298476E+02  0.31472422772E+02  0.51100000000E-03 0.  1.
         12    1    3    3    0    0  0.74287335768E+01 -0.16425160151E+01  0.16443585219E+01  0.77838201651E+01  0.00000000000E+00 0. -1.
</event>
<event>
 7    1  0.1631716E-009  0.4778728E+02  0.7816164E-02  0.1312668E+00
        -11   -1    0    0    0    0  0.00000000000E+00  0.00000000000E+00  0.45593999997E+02  0.45594000000E+02  0.51100000000E-03 0. -1.
         11   -1    0    0    0    0 -0.00000000000E+00 -0.00000000000E+00 -0.45593999997E+02  0.45594000000E+02  0.51100000000E-03 0.  1.
    9900012    2    1    2    0    0 -0.22291138424E+02 -0.34901140108E+02 -0.12986081473E+02  0.47787277137E+02  0.20000027777E+02 0.  0.
         12    1    1    2    0    0  0.22291138424E+02  0.34901140108E+02  0.12986081473E+02  0.43400722863E+02  0.00000000000E+00 0. -1.
         11    1    3    3    0    0  0.15031219728E+01  0.51784222397E-02 -0.88281152052E+00  0.17432036378E+01  0.51100000000E-03 0. -1.
        -11    1    3    3    0    0 -0.21764705203E+02 -0.22212165639E+02 -0.54599996087E+01  0.31573632844E+02  0.51100000000E-03 0.  1.
         12    1    3    3    0    0 -0.20295551934E+01 -0.12694152890E+02 -0.66432703440E+01  0.14470440655E+02  0.00000000000E+00 0. -1.
</event>
<event>
 7    1  0.1631716E-009  0.4778727E+02  0.7816164E-02  0.1312668E+00
        -11   -1    0    0    0    0  0.00000000000E+00  0.00000000000E+00  0.45593999997E+02  0.45594000000E+02  0.51100000000E-03 0.  1.
         11   -1    0    0    0    0 -0.00000000000E+00 -0.00000000000E+00 -0.45593999997E+02  0.45594000000E+02  0.51100000000E-03 0. -1.
    9900012    2    1    2    0    0 -0.10931333654E+02 -0.35914189383E+02  0.21778438208E+02  0.47787269301E+02  0.19999992049E+02 0.  0.
         12    1    1    2    0    0  0.10931333654E+02  0.35914189383E+02 -0.21778438208E+02  0.43400730699E+02  0.00000000000E+00 0. -1.
         11    1    3    3    0    0 -0.56408419133E+01 -0.69053129601E+01  0.74775640435E+00  0.89477139242E+01  0.51100000000E-03 0. -1.
        -11    1    3    3    0    0 -0.19620108364E+01 -0.14298549601E+02  0.20207329188E+01  0.14573310160E+02  0.51100000000E-03 0.  1.
        -12    1    3    3    0    0 -0.33284809043E+01 -0.14710326821E+02  0.19009948885E+02  0.24266245217E+02  0.00000000000E+00 0.  1.
</event>
<event>
 7    1  0.1631716E-009  0.4778726E+02  0.7816164E-02  0.1312668E+00
        -11   -1    0    0    0    0  0.00000000000E+00  0.00000000000E+00  0.45593999997E+02  0.45594000000E+02  0.51100000000E-03 0.  1.
         11   -1    0    0    0    0 -0.00000000000E+00 -0.00000000000E+00 -0.45593999997E+02  0.45594000000E+02  0.51100000000E-03 0. -1.
    9900012    2    1    2    0    0 -0.35451878147E+01 -0.11640123681E+02  0.41660092269E+02  0.47787261253E+02  0.19999955357E+02 0.  0.
         12    1    1    2    0    0  0.35451878147E+01  0.11640123681E+02 -0.41660092269E+02  0.43400738747E+02  0.00000000000E+00 0. -1.
         11    1    3    3    0    0 -0.14302219069E+01  0.18994409553E+01 -0.89420735555E+00  0.25402790598E+01  0.51100000000E-03 0. -1.
        -11    1    3    3    0    0  0.12358011357E+01 -0.17316088154E+01  0.14080864643E+02  0.14240660901E+02  0.51100000000E-03 0.  1.
         12    1    3    3    0    0 -0.33507670435E+01 -0.11807955821E+02  0.28473434981E+02  0.31006321292E+02  0.00000000000E+00 0. -1.
</event>
<event>
 7    1  0.1631716E-009  0.4778727E+02  0.7816164E-02  0.1312668E+00
        -11   -1    0    0    0    0  0.00000000000E+00  0.00000000000E+00  0.45593999997E+02  0.45594000000E+02  0.51100000000E-03 0.  1.
         11   -1    0    0    0    0 -0.00000000000E+00 -0.00000000000E+00 -0.45593999997E+02  0.45594000000E+02  0.51100000000E-03 0. -1.
    9900012    2    1    2    0    0 -0.30512708302E+02  0.13717856848E+02  0.27648115591E+02  0.47787271202E+02  0.20000000719E+02 0.  0.
         12    1    1    2    0    0  0.30512708302E+02 -0.13717856848E+02 -0.27648115591E+02  0.43400728798E+02  0.00000000000E+00 0. -1.
         11    1    3    3    0    0 -0.53688679955E+01  0.49126785198E+01  0.33411778176E+01  0.80076602863E+01  0.51100000000E-03 0. -1.
        -11    1    3    3    0    0 -0.26363327611E+02  0.45206686839E+01  0.18787995524E+02  0.32687157481E+02  0.51100000000E-03 0.  1.
         12    1    3    3    0    0  0.12194873043E+01  0.42845096446E+01  0.55189422489E+01  0.70924534349E+01  0.00000000000E+00 0. -1.
</event>
<event>
 7    1  0.1631716E-009  0.4778727E+02  0.7816164E-02  0.1312668E+00
        -11   -1    0    0    0    0  0.00000000000E+00  0.00000000000E+00  0.45593999997E+02  0.45594000000E+02  0.51100000000E-03 0. -1.
         11   -1    0    0    0    0 -0.00000000000E+00 -0.00000000000E+00 -0.45593999997E+02  0.45594000000E+02  0.51100000000E-03 0.  1.
    9900012    2    1    2    0    0  0.11812672756E+02 -0.29552647569E+02 -0.29508048875E+02  0.47787272306E+02  0.20000005751E+02 0.  0.
         12    1    1    2    0    0 -0.11812672756E+02  0.29552647569E+02  0.29508048875E+02  0.43400727694E+02  0.00000000000E+00 0. -1.
         11    1    3    3    0    0 -0.34962561988E+01 -0.11116026025E+01 -0.17947037175E+01  0.40841681465E+01  0.51100000000E-03 0. -1.
        -11    1    3    3    0    0  0.68211728775E+01 -0.13711885434E+02 -0.68122912926E+01  0.16761608350E+02  0.51100000000E-03 0.  1.
        -12    1    3    3    0    0  0.84877560774E+01 -0.14729159533E+02 -0.20901053865E+02  0.26941495809E+02  0.00000000000E+00 0.  1.
</event>
<event>
 7    1  0.1631716E-009  0.4778727E+02  0.7816164E-02  0.1312668E+00
        -11   -1    0    0    0    0  0.00000000000E+00  0.00000000000E+00  0.45593999997E+02  0.45594000000E+02  0.51100000000E-03 0.  1.
         11   -1    0    0    0    0 -0.00000000000E+00 -0.00000000000E+00 -0.45593999997E+02  0.45594000000E+02  0.51100000000E-03 0. -1.
    9900012    2    1    2    0    0  0.28411547493E+02  0.24995504083E+02  0.21251632318E+02  0.47787272685E+02  0.20000007479E+02 0.  0.
         12    1    1    2    0    0 -0.28411547493E+02 -0.24995504083E+02 -0.21251632318E+02  0.43400727315E+02  0.00000000000E+00 0. -1.
         11    1    3    3    0    0 -0.12606378303E+01  0.11366531675E+01  0.22857806821E+01  0.28471005866E+01  0.51100000000E-03 0. -1.
        -11    1    3    3    0    0  0.43201785364E+01  0.63908675656E+01 -0.16491669785E+01  0.78884017907E+01  0.51100000000E-03 0.  1.
        -12    1    3    3    0    0  0.25352006787E+02  0.17467983350E+02  0.20615018615E+02  0.37051770307E+02  0.00000000000E+00 0.  1.
</event>
<event>
 7    1  0.1631716E-009  0.4778726E+02  0.7816164E-02  0.1312668E+00
        -11   -1    0    0    0    0  0.00000000000E+00  0.00000000000E+00  0.45593999997E+02  0.45594000000E+02  0.51100000000E-03 0. -1.
         11   -1    0    0    0    0 -0.00000000000E+00 -0.00000000000E+00 -0.45593999997E+02  0.45594000000E+02  0.51100000000E-03 0.  1.
    9900012    2    1    2    0    0  0.15339743574E+02 -0.27842654354E+02 -0.29548317607E+02  0.47787260285E+02  0.19999950943E+02 0.  0.
         12    1    1    2    0    0 -0.15339743574E+02  0.27842654354E+02  0.29548317607E+02  0.43400739715E+02  0.00000000000E+00 0. -1.
         11    1    3    3    0    0  0.13024686358E+02 -0.74974230745E+01 -0.73735195414E+01  0.16739850602E+02  0.51100000000E-03 0. -1.
        -11    1    3    3    0    0  0.41179198716E-01 -0.79347477160E+01 -0.39032995840E+01  0.88429443596E+01  0.51100000000E-03 0.  1.
        -12    1    3    3    0    0  0.22738780171E+01 -0.12410483564E+02 -0.18271498482E+02  0.22204465323E+02  0.00000000000E+00 0.  1.
</event>
<event>
 7    1  0.1631716E-009  0.4778727E+02  0.7816164E-02  0.1312668E+00
        -11   -1    0    0    0    0  0.00000000000E+00  0.00000000000E+00  0.45593999997E+02  0.45594000000E+02  0.51100000000E-03 0. -1.
         11   -1    0    0    0    0 -0.00000000000E+00 -0.00000000000E+00 -0.45593999997E+02  0.45594000000E+02  0.51100000000E-03 0.  1.
    9900012    2    1    2    0    0  0.79167772999E+01 -0.40532284507E+02 -0.13344726262E+02  0.47787272250E+02  0.20000005498E+02 0.  0.
         12    1    1    2    0    0 -0.79167772999E+01  0.40532284507E+02  0.13344726262E+02  0.43400727750E+02  0.00000000000E+00 0. -1.
         11    1    3    3    0    0 -0.12493393740E+01  0.10429068443E+01  0.12505524878E+01  0.20524096431E+01  0.51100000000E-03 0. -1.
        -11    1    3    3    0    0  0.59281757129E+01 -0.19469425705E+02 -0.30268084945E+01  0.20575795841E+02  0.51100000000E-03 0.  1.
        -12    1    3    3    0    0  0.32379409610E+01 -0.22105765647E+02 -0.11568470255E+02  0.25159066766E+02  0.00000000000E+00 0.  1.
</event>
<event>
 7    1  0.1631716E-009  0.4778726E+02  0.7816164E-02  0.1312668E+00
        -11   -1    0    0    0    0  0.00000000000E+00  0.00000000000E+00  0.45593999997E+02  0.45594000000E+02  0.51100000000E-03 0.  1.
         11   -1    0    0    0    0 -0.00000000000E+00 -0.00000000000E+00 -0.45593999997E+02  0.45594000000E+02  0.51100000000E-03 0. -1.
    9900012    2    1    2    0    0  0.31325476481E+02 -0.52600158225E+01  0.29574837593E+02  0.47787259662E+02  0.19999948104E+02 0.  0.
         12    1    1    2    0    0 -0.31325476481E+02  0.52600158225E+01 -0.29574837593E+02  0.43400740338E+02  0.00000000000E+00 0. -1.
         11    1    3    3    0    0  0.90367754336E+01 -0.77119596878E+01  0.13240930263E+02  0.17789318901E+02  0.51100000000E-03 0.  1.
        -11    1    3    3    0    0  0.60704362216E+01  0.37012937289E+01  0.10573827363E+02  0.12741883556E+02  0.51100000000E-03 0. -1.
        -12    1    3    3    0    0  0.16218264826E+02 -0.12493498637E+01  0.57600799660E+01  0.17256057205E+02  0.00000000000E+00 0.  1.
</event>
<event>
 7    1  0.1631716E-009  0.4778727E+02  0.7816164E-02  0.1312668E+00
        -11   -1    0    0    0    0  0.00000000000E+00  0.00000000000E+00  0.45593999997E+02  0.45594000000E+02  0.51100000000E-03 0.  1.
         11   -1    0    0    0    0 -0.00000000000E+00 -0.00000000000E+00 -0.45593999997E+02  0.45594000000E+02  0.51100000000E-03 0. -1.
    9900012    2    1    2    0    0  0.23057535124E+00  0.91791505508E+01  0.42418313845E+02  0.47787270521E+02  0.19999997613E+02 0.  0.
         12    1    1    2    0    0 -0.23057535124E+00 -0.91791505508E+01 -0.42418313845E+02  0.43400729479E+02  0.00000000000E+00 0. -1.
         11    1    3    3    0    0  0.35457606476E+01  0.22435878167E+01  0.48408209635E+01  0.64062198466E+01  0.51100000000E-03 0. -1.
        -11    1    3    3    0    0 -0.62423760985E+01  0.10791849969E+02  0.26127491405E+02  0.28949561180E+02  0.51100000000E-03 0.  1.
         12    1    3    3    0    0  0.29271908022E+01 -0.38562872354E+01  0.11450001477E+02  0.12431489495E+02  0.00000000000E+00 0. -1.
</event>
<event>
 7    1  0.1631716E-009  0.4778728E+02  0.7816164E-02  0.1312668E+00
        -11   -1    0    0    0    0  0.00000000000E+00  0.00000000000E+00  0.45593999997E+02  0.45594000000E+02  0.51100000000E-03 0.  1.
         11   -1    0    0    0    0 -0.00000000000E+00 -0.00000000000E+00 -0.45593999997E+02  0.45594000000E+02  0.51100000000E-03 0. -1.
    9900012    2    1    2    0    0  0.32286113387E+02 -0.15579555929E+02  0.24464392771E+02  0.47787283483E+02  0.20000056712E+02 0.  0.
         12    1    1    2    0    0 -0.32286113387E+02  0.15579555929E+02 -0.24464392771E+02  0.43400716517E+02  0.00000000000E+00 0. -1.
         11    1    3    3    0    0  0.30581195174E+01  0.16154153253E+01  0.47885735244E+01  0.59069533870E+01  0.51100000000E-03 0. -1.
        -11    1    3    3    0    0  0.20409515375E+02 -0.17496966898E+02  0.19216170774E+02  0.33044718004E+02  0.51100000000E-03 0.  1.
        -12    1    3    3    0    0  0.88184784944E+01  0.30199564375E+00  0.45964847221E+00  0.88356120922E+01  0.00000000000E+00 0.  1.
</event>
<event>
 7    1  0.1631716E-009  0.4778731E+02  0.7816164E-02  0.1312668E+00
        -11   -1    0    0    0    0  0.00000000000E+00  0.00000000000E+00  0.45593999997E+02  0.45594000000E+02  0.51100000000E-03 0. -1.
         11   -1    0    0    0    0 -0.00000000000E+00 -0.00000000000E+00 -0.45593999997E+02  0.45594000000E+02  0.51100000000E-03 0.  1.
    9900012    2    1    2    0    0 -0.39790275475E+02 -0.88888059453E+01 -0.14877607783E+02  0.47787307530E+02  0.20000166352E+02 0.  0.
         12    1    1    2    0    0  0.39790275475E+02  0.88888059453E+01  0.14877607783E+02  0.43400692470E+02  0.00000000000E+00 0. -1.
         11    1    3    3    0    0  0.49604284287E+00  0.40768937652E+00  0.15275598310E+01  0.16570179323E+01  0.51100000000E-03 0. -1.
        -11    1    3    3    0    0 -0.20297583436E+02 -0.80436551197E+01 -0.14052342358E+02  0.25964602963E+02  0.51100000000E-03 0.  1.
         12    1    3    3    0    0 -0.19988734882E+02 -0.12528402021E+01 -0.23528252560E+01  0.20165686635E+02  0.00000000000E+00 0. -1.
</event>
<event>
 7    1  0.1631716E-009  0.4778727E+02  0.7816164E-02  0.1312668E+00
        -11   -1    0    0    0    0  0.00000000000E+00  0.00000000000E+00  0.45593999997E+02  0.45594000000E+02  0.51100000000E-03 0. -1.
         11   -1    0    0    0    0 -0.00000000000E+00 -0.00000000000E+00 -0.45593999997E+02  0.45594000000E+02  0.51100000000E-03 0.  1.
    9900012    2    1    2    0    0  0.19696258832E+02 -0.29371822223E+02 -0.25159031353E+02  0.47787269461E+02  0.19999992783E+02 0.  0.
         12    1    1    2    0    0 -0.19696258832E+02  0.29371822223E+02  0.25159031353E+02  0.43400730539E+02  0.00000000000E+00 0. -1.
         11    1    3    3    0    0  0.96210018807E+01 -0.12444226028E+02 -0.22789220501E+01  0.15893895828E+02  0.51100000000E-03 0.  1.
        -11    1    3    3    0    0  0.11811418759E+02 -0.11987471238E+02 -0.15768719145E+02  0.23062124436E+02  0.51100000000E-03 0. -1.
        -12    1    3    3    0    0 -0.17361618072E+01 -0.49401249576E+01 -0.71113901576E+01  0.88312491977E+01  0.00000000000E+00 0.  1.
</event>
<event>
 7    1  0.1631716E-009  0.4778727E+02  0.7816164E-02  0.1312668E+00
        -11   -1    0    0    0    0  0.00000000000E+00  0.00000000000E+00  0.45593999997E+02  0.45594000000E+02  0.51100000000E-03 0.  1.
         11   -1    0    0    0    0 -0.00000000000E+00 -0.00000000000E+00 -0.45593999997E+02  0.45594000000E+02  0.51100000000E-03 0. -1.
    9900012    2    1    2    0    0 -0.18139014732E+02  0.18615183862E+02  0.34757362367E+02  0.47787272306E+02  0.20000005754E+02 0.  0.
         12    1    1    2    0    0  0.18139014732E+02 -0.18615183862E+02 -0.34757362367E+02  0.43400727694E+02  0.00000000000E+00 0. -1.
         11    1    3    3    0    0 -0.58725259973E+01  0.70348397837E+01  0.55046365553E+01  0.10690021339E+02  0.51100000000E-03 0. -1.
        -11    1    3    3    0    0 -0.13089807119E+02  0.51129663816E+01  0.26549779017E+02  0.30039577922E+02  0.51100000000E-03 0.  1.
         12    1    3    3    0    0  0.82331838456E+00  0.64673776964E+01  0.27029467942E+01  0.70576730445E+01  0.00000000000E+00 0. -1.
</event>
<event>
 7    1  0.1631716E-009  0.4778727E+02  0.7816164E-02  0.1312668E+00
        -11   -1    0    0    0    0  0.00000000000E+00  0.00000000000E+00  0.45593999997E+02  0.45594000000E+02  0.51100000000E-03 0.  1.
         11   -1    0    0    0    0 -0.00000000000E+00 -0.00000000000E+00 -0.45593999997E+02  0.45594000000E+02  0.51100000000E-03 0. -1.
    9900012    2    1    2    0    0 -0.18927682591E+02  0.38756333537E+02 -0.48283152481E+01  0.47787272061E+02  0.20000004635E+02 0.  0.
         12    1    1    2    0    0  0.18927682591E+02 -0.38756333537E+02  0.48283152481E+01  0.43400727939E+02  0.00000000000E+00 0. -1.
         11    1    3    3    0    0 -0.96347259234E+01  0.15523050890E+02  0.87743525610E-02  0.18270006289E+02  0.51100000000E-03 0. -1.
        -11    1    3    3    0    0  0.24781591633E+01  0.39715608593E+01  0.30706693649E+01  0.55985336569E+01  0.51100000000E-03 0.  1.
        -12    1    3    3    0    0 -0.11771115831E+02  0.19261721788E+02 -0.79077589656E+01  0.23918732115E+02  0.00000000000E+00 0.  1.
</event>
<event>
 7    1  0.1631716E-009  0.4778727E+02  0.7816164E-02  0.1312668E+00
        -11   -1    0    0    0    0  0.00000000000E+00  0.00000000000E+00  0.45593999997E+02  0.45594000000E+02  0.51100000000E-03 0.  1.
         11   -1    0    0    0    0 -0.00000000000E+00 -0.00000000000E+00 -0.45593999997E+02  0.45594000000E+02  0.51100000000E-03 0. -1.
    9900012    2    1    2    0    0  0.19599690406E+02 -0.38360494736E+02 -0.52865763340E+01  0.47787270631E+02  0.19999998117E+02 0.  0.
         12    1    1    2    0    0 -0.19599690406E+02  0.38360494736E+02  0.52865763340E+01  0.43400729369E+02  0.00000000000E+00 0. -1.
         11    1    3    3    0    0 -0.28958029654E+01 -0.88568868212E+01  0.17613455683E+01  0.94832725075E+01  0.51100000000E-03 0. -1.
        -11    1    3    3    0    0  0.69276030634E+01 -0.59044857985E+01  0.24953000443E+00  0.91058718546E+01  0.51100000000E-03 0.  1.
         12    1    3    3    0    0  0.15567890308E+02 -0.23599122116E+02 -0.72974519068E+01  0.29198126269E+02  0.00000000000E+00 0. -1.
</event>
<event>
 7    1  0.1631716E-009  0.4778727E+02  0.7816164E-02  0.1312668E+00
        -11   -1    0    0    0    0  0.00000000000E+00  0.00000000000E+00  0.45593999997E+02  0.45594000000E+02  0.51100000000E-03 0. -1.
         11   -1    0    0    0    0 -0.00000000000E+00 -0.00000000000E+00 -0.45593999997E+02  0.45594000000E+02  0.51100000000E-03 0.  1.
    9900012    2    1    2    0    0 -0.34344583526E+02  0.58702619678E+01 -0.25876879232E+02  0.47787271067E+02  0.20000000101E+02 0.  0.
         12    1    1    2    0    0  0.34344583526E+02 -0.58702619678E+01  0.25876879232E+02  0.43400728933E+02  0.00000000000E+00 0. -1.
         11    1    3    3    0    0 -0.12763839062E+02 -0.41161928534E+01 -0.17060225967E+02  0.21700459477E+02  0.51100000000E-03 0.  1.
        -11    1    3    3    0    0 -0.11670604817E+02  0.44315502240E+01 -0.77091078083E+01  0.14672150410E+02  0.51100000000E-03 0. -1.
         12    1    3    3    0    0 -0.99101396471E+01  0.55549045971E+01 -0.11075454563E+01  0.11414661180E+02  0.00000000000E+00 0. -1.
</event>
<event>
 7    1  0.1631716E-009  0.4778727E+02  0.7816164E-02  0.1312668E+00
        -11   -1    0    0    0    0  0.00000000000E+00  0.00000000000E+00  0.45593999997E+02  0.45594000000E+02  0.51100000000E-03 0.  1.
         11   -1    0    0    0    0 -0.00000000000E+00 -0.00000000000E+00 -0.45593999997E+02  0.45594000000E+02  0.51100000000E-03 0. -1.
    9900012    2    1    2    0    0  0.36450827117E+02 -0.14549866612E+02  0.18527326436E+02  0.47787271425E+02  0.20000001736E+02 0.  0.
         12    1    1    2    0    0 -0.36450827117E+02  0.14549866612E+02 -0.18527326436E+02  0.43400728575E+02  0.00000000000E+00 0. -1.
         11    1    3    3    0    0  0.62275246027E+01 -0.54619319247E+01  0.86299364612E+01  0.11962046924E+02  0.51100000000E-03 0.  1.
        -11    1    3    3    0    0  0.15027004350E+02 -0.36865535166E+01 -0.22489942712E+01  0.15635201056E+02  0.51100000000E-03 0. -1.
         12    1    3    3    0    0  0.15196298164E+02 -0.54013811708E+01  0.12146384246E+02  0.20190023445E+02  0.00000000000E+00 0. -1.
</event>
<event>
 7    1  0.1631716E-009  0.4778727E+02  0.7816164E-02  0.1312668E+00
        -11   -1    0    0    0    0  0.00000000000E+00  0.00000000000E+00  0.45593999997E+02  0.45594000000E+02  0.51100000000E-03 0.  1.
         11   -1    0    0    0    0 -0.00000000000E+00 -0.00000000000E+00 -0.45593999997E+02  0.45594000000E+02  0.51100000000E-03 0. -1.
    9900012    2    1    2    0    0  0.37906881103E+02 -0.15608651150E+02 -0.14249968355E+02  0.47787271621E+02  0.20000002630E+02 0.  0.
         12    1    1    2    0    0 -0.37906881103E+02  0.15608651150E+02  0.14249968355E+02  0.43400728379E+02  0.00000000000E+00 0. -1.
         11    1    3    3    0    0  0.16240876476E+02 -0.19685488245E+01 -0.43547882236E+00  0.16365539871E+02  0.51100000000E-03 0. -1.
        -11    1    3    3    0    0  0.13954278630E+02 -0.12505532013E+02 -0.44900017513E+01  0.19268376657E+02  0.51100000000E-03 0.  1.
        -12    1    3    3    0    0  0.77117259969E+01 -0.11345703123E+01 -0.93244877813E+01  0.12153355093E+02  0.00000000000E+00 0.  1.
</event>
<event>
 7    1  0.1631716E-009  0.4778726E+02  0.7816164E-02  0.1312668E+00
        -11   -1    0    0    0    0  0.00000000000E+00  0.00000000000E+00  0.45593999997E+02  0.45594000000E+02  0.51100000000E-03 0.  1.
         11   -1    0    0    0    0 -0.00000000000E+00 -0.00000000000E+00 -0.45593999997E+02  0.45594000000E+02  0.51100000000E-03 0. -1.
    9900012    2    1    2    0    0  0.12944979598E+02 -0.32083459237E+02  0.26205018831E+02  0.47787264231E+02  0.19999968934E+02 0.  0.
         12    1    1    2    0    0 -0.12944979598E+02  0.32083459237E+02 -0.26205018831E+02  0.43400735769E+02  0.00000000000E+00 0. -1.
         11    1    3    3    0    0  0.12032914389E+02 -0.26180926781E+02  0.27960402144E+02  0.40149919603E+02  0.51100000000E-03 0. -1.
        -11    1    3    3    0    0  0.40211410865E+00 -0.53998107929E+01  0.33757456695E+00  0.54252750350E+01  0.51100000000E-03 0.  1.
         12    1    3    3    0    0  0.50995110003E+00 -0.50272166315E+00 -0.20929578804E+01  0.22120695930E+01  0.00000000000E+00 0. -1.
</event>
<event>
 7    1  0.1631716E-009  0.4778727E+02  0.7816164E-02  0.1312668E+00
        -11   -1    0    0    0    0  0.00000000000E+00  0.00000000000E+00  0.45593999997E+02  0.45594000000E+02  0.51100000000E-03 0. -1.
         11   -1    0    0    0    0 -0.00000000000E+00 -0.00000000000E+00 -0.45593999997E+02  0.45594000000E+02  0.51100000000E-03 0.  1.
    9900012    2    1    2    0    0  0.12270836111E+02  0.22976095824E+02 -0.34715260241E+02  0.47787266229E+02  0.19999978046E+02 0.  0.
         12    1    1    2    0    0 -0.12270836111E+02 -0.22976095824E+02  0.34715260241E+02  0.43400733771E+02  0.00000000000E+00 0. -1.
         11    1    3    3    0    0 -0.11523507956E+01  0.24981796843E+01  0.95432604045E+00  0.29119671261E+01  0.51100000000E-03 0. -1.
        -11    1    3    3    0    0  0.28170101037E+01  0.14677465805E+02 -0.22364610178E+02  0.26898686530E+02  0.51100000000E-03 0.  1.
        -12    1    3    3    0    0  0.10606176803E+02  0.58004503355E+01 -0.13304976104E+02  0.17976612573E+02  0.00000000000E+00 0.  1.
</event>
<event>
 7    1  0.1631716E-009  0.4778727E+02  0.7816164E-02  0.1312668E+00
        -11   -1    0    0    0    0  0.00000000000E+00  0.00000000000E+00  0.45593999997E+02  0.45594000000E+02  0.51100000000E-03 0.  1.
         11   -1    0    0    0    0 -0.00000000000E+00 -0.00000000000E+00 -0.45593999997E+02  0.45594000000E+02  0.51100000000E-03 0. -1.
    9900012    2    1    2    0    0 -0.43352631162E+02  0.29702695692E+00 -0.20210470358E+01  0.47787268614E+02  0.19999988919E+02 0.  0.
         12    1    1    2    0    0  0.43352631162E+02 -0.29702695692E+00  0.20210470358E+01  0.43400731386E+02  0.00000000000E+00 0. -1.
         11    1    3    3    0    0 -0.95731200208E+01  0.30586390074E+00  0.38638532363E+01  0.10327997955E+02  0.51100000000E-03 0.  1.
        -11    1    3    3    0    0 -0.16746361197E+02 -0.67424335567E+01  0.50784539833E+00  0.18059870731E+02  0.51100000000E-03 0. -1.
         12    1    3    3    0    0 -0.17033149944E+02  0.67335966129E+01 -0.63927456704E+01  0.19399399928E+02  0.00000000000E+00 0. -1.
</event>
<event>
 7    1  0.1631716E-009  0.4778727E+02  0.7816164E-02  0.1312668E+00
        -11   -1    0    0    0    0  0.00000000000E+00  0.00000000000E+00  0.45593999997E+02  0.45594000000E+02  0.51100000000E-03 0. -1.
         11   -1    0    0    0    0 -0.00000000000E+00 -0.00000000000E+00 -0.45593999997E+02  0.45594000000E+02  0.51100000000E-03 0.  1.
    9900012    2    1    2    0    0  0.24335493455E+02 -0.28969576702E+02 -0.21264300614E+02  0.47787273087E+02  0.20000009314E+02 0.  0.
         12    1    1    2    0    0 -0.24335493455E+02  0.28969576702E+02  0.21264300614E+02  0.43400726913E+02  0.00000000000E+00 0. -1.
         11    1    3    3    0    0  0.10395010297E+02 -0.11829021725E+02 -0.29968202159E+01  0.16030063185E+02  0.51100000000E-03 0. -1.
        -11    1    3    3    0    0  0.16462404052E+02 -0.12857131888E+02 -0.15901629777E+02  0.26252207857E+02  0.51100000000E-03 0.  1.
         12    1    3    3    0    0 -0.25219208943E+01 -0.42834230894E+01 -0.23658506207E+01  0.55050020454E+01  0.00000000000E+00 0. -1.
</event>
<event>
 7    1  0.1631716E-009  0.4778727E+02  0.7816164E-02  0.1312668E+00
        -11   -1    0    0    0    0  0.00000000000E+00  0.00000000000E+00  0.45593999997E+02  0.45594000000E+02  0.51100000000E-03 0. -1.
         11   -1    0    0    0    0 -0.00000000000E+00 -0.00000000000E+00 -0.45593999997E+02  0.45594000000E+02  0.51100000000E-03 0.  1.
    9900012    2    1    2    0    0 -0.21049477712E+02 -0.14697987044E+01 -0.37926009848E+02  0.47787273703E+02  0.20000012120E+02 0.  0.
         12    1    1    2    0    0  0.21049477712E+02  0.14697987044E+01  0.37926009848E+02  0.43400726297E+02  0.00000000000E+00 0. -1.
         11    1    3    3    0    0  0.72258473277E+00 -0.26251544732E+01 -0.34120712167E+00  0.27440822264E+01  0.51100000000E-03 0. -1.
        -11    1    3    3    0    0 -0.15812818793E+02 -0.27492926247E+01 -0.17565478761E+02  0.23793904524E+02  0.51100000000E-03 0.  1.
        -12    1    3    3    0    0 -0.59592436514E+01  0.39046483935E+01 -0.20019323965E+02  0.21249286952E+02  0.00000000000E+00 0.  1.
</event>
<event>
 7    1  0.1631716E-009  0.4778727E+02  0.7816164E-02  0.1312668E+00
        -11   -1    0    0    0    0  0.00000000000E+00  0.00000000000E+00  0.45593999997E+02  0.45594000000E+02  0.51100000000E-03 0.  1.
         11   -1    0    0    0    0 -0.00000000000E+00 -0.00000000000E+00 -0.45593999997E+02  0.45594000000E+02  0.51100000000E-03 0. -1.
    9900012    2    1    2    0    0  0.19455506403E+02  0.35236224800E+02  0.16233155635E+02  0.47787267178E+02  0.19999982373E+02 0.  0.
         12    1    1    2    0    0 -0.19455506403E+02 -0.35236224800E+02 -0.16233155635E+02  0.43400732822E+02  0.00000000000E+00 0. -1.
         11    1    3    3    0    0  0.31419197901E+01 -0.74838938434E+00  0.20062226875E+01  0.38021936262E+01  0.51100000000E-03 0.  1.
        -11    1    3    3    0    0  0.64384020155E+01  0.36990633756E+01  0.51098597723E+01  0.90136983266E+01  0.51100000000E-03 0. -1.
        -12    1    3    3    0    0  0.98751845978E+01  0.32285550809E+02  0.91170731753E+01  0.34971375225E+02  0.00000000000E+00 0.  1.
</event>
<event>
 7    1  0.1631716E-009  0.4778727E+02  0.7816164E-02  0.1312668E+00
        -11   -1    0    0    0    0  0.00000000000E+00  0.00000000000E+00  0.45593999997E+02  0.45594000000E+02  0.51100000000E-03 0.  1.
         11   -1    0    0    0    0 -0.00000000000E+00 -0.00000000000E+00 -0.45593999997E+02  0.45594000000E+02  0.51100000000E-03 0. -1.
    9900012    2    1    2    0    0 -0.13795449834E+02  0.38452096587E+02 -0.14654183697E+02  0.47787271113E+02  0.20000000313E+02 0.  0.
         12    1    1    2    0    0  0.13795449834E+02 -0.38452096587E+02  0.14654183697E+02  0.43400728887E+02  0.00000000000E+00 0. -1.
         11    1    3    3    0    0 -0.45465312625E+01  0.10973228226E+02 -0.31923683661E+01  0.12299345522E+02  0.51100000000E-03 0. -1.
        -11    1    3    3    0    0 -0.67565400185E+00  0.20574280519E+02 -0.14971625779E+01  0.20639743779E+02  0.51100000000E-03 0.  1.
         12    1    3    3    0    0 -0.85732645699E+01  0.69045878427E+01 -0.99646527531E+01  0.14848181813E+02  0.00000000000E+00 0. -1.
</event>
<event>
 7    1  0.1631716E-009  0.4778727E+02  0.7816164E-02  0.1312668E+00
        -11   -1    0    0    0    0  0.00000000000E+00  0.00000000000E+00  0.45593999997E+02  0.45594000000E+02  0.51100000000E-03 0. -1.
         11   -1    0    0    0    0 -0.00000000000E+00 -0.00000000000E+00 -0.45593999997E+02  0.45594000000E+02  0.51100000000E-03 0.  1.
    9900012    2    1    2    0    0  0.42243487050E+02  0.43148023280E+01 -0.89718296774E+01  0.47787269073E+02  0.19999991010E+02 0.  0.
         12    1    1    2    0    0 -0.42243487050E+02 -0.43148023280E+01  0.89718296774E+01  0.43400730927E+02  0.00000000000E+00 0. -1.
         11    1    3    3    0    0  0.30999839296E+01 -0.30040613168E+01 -0.38920476886E+01  0.58122560362E+01  0.51100000000E-03 0. -1.
        -11    1    3    3    0    0  0.14418275027E+02  0.33747560806E+00 -0.73422897457E+01  0.16183626402E+02  0.51100000000E-03 0.  1.
         12    1    3    3    0    0  0.24725228093E+02  0.69813880368E+01  0.22625077569E+01  0.25791386634E+02  0.00000000000E+00 0. -1.
</event>
<event>
 7    1  0.1631716E-009  0.4778727E+02  0.7816164E-02  0.1312668E+00
        -11   -1    0    0    0    0  0.00000000000E+00  0.00000000000E+00  0.45593999997E+02  0.45594000000E+02  0.51100000000E-03 0.  1.
         11   -1    0    0    0    0 -0.00000000000E+00 -0.00000000000E+00 -0.45593999997E+02  0.45594000000E+02  0.51100000000E-03 0. -1.
    9900012    2    1    2    0    0  0.76360114448E+01 -0.22482784827E+02  0.36329588762E+02  0.47787270698E+02  0.19999998421E+02 0.  0.
         12    1    1    2    0    0 -0.76360114448E+01  0.22482784827E+02 -0.36329588762E+02  0.43400729302E+02  0.00000000000E+00 0. -1.
         11    1    3    3    0    0  0.61515307656E+01 -0.18627745399E+01  0.28757563882E+01  0.70413943798E+01  0.51100000000E-03 0. -1.
        -11    1    3    3    0    0  0.49016547702E+01 -0.14904433985E+02  0.17760777753E+02  0.23698388100E+02  0.51100000000E-03 0.  1.
         12    1    3    3    0    0 -0.34171740909E+01 -0.57155763019E+01  0.15693054621E+02  0.17047488218E+02  0.00000000000E+00 0. -1.
</event>
<event>
 7    1  0.1631716E-009  0.4778725E+02  0.7816164E-02  0.1312668E+00
        -11   -1    0    0    0    0  0.00000000000E+00  0.00000000000E+00  0.45593999997E+02  0.45594000000E+02  0.51100000000E-03 0. -1.
         11   -1    0    0    0    0 -0.00000000000E+00 -0.00000000000E+00 -0.45593999997E+02  0.45594000000E+02  0.51100000000E-03 0.  1.
    9900012    2    1    2    0    0 -0.14884408205E+02  0.40747996542E+02 -0.12960860384E+01  0.47787254974E+02  0.19999926730E+02 0.  0.
         12    1    1    2    0    0  0.14884408205E+02 -0.40747996542E+02  0.12960860384E+01  0.43400745026E+02  0.00000000000E+00 0. -1.
         11    1    3    3    0    0  0.26945351554E+01  0.40025525556E+00 -0.14428357808E+01  0.30826124188E+01  0.51100000000E-03 0. -1.
        -11    1    3    3    0    0 -0.90152464050E+01  0.21610336489E+02 -0.38189614705E+01  0.23724792472E+02  0.51100000000E-03 0.  1.
        -12    1    3    3    0    0 -0.85636969553E+01  0.18737404797E+02  0.39657112129E+01  0.20979850083E+02  0.00000000000E+00 0.  1.
</event>
<event>
 7    1  0.1631716E-009  0.4778727E+02  0.7816164E-02  0.1312668E+00
        -11   -1    0    0    0    0  0.00000000000E+00  0.00000000000E+00  0.45593999997E+02  0.45594000000E+02  0.51100000000E-03 0. -1.
         11   -1    0    0    0    0 -0.00000000000E+00 -0.00000000000E+00 -0.45593999997E+02  0.45594000000E+02  0.51100000000E-03 0.  1.
    9900012    2    1    2    0    0  0.42861739070E+02 -0.53025887938E+01  0.42868300221E+01  0.47787273789E+02  0.20000012515E+02 0.  0.
         12    1    1    2    0    0 -0.42861739070E+02  0.53025887938E+01 -0.42868300221E+01  0.43400726211E+02  0.00000000000E+00 0. -1.
         11    1    3    3    0    0  0.19209451938E+01 -0.18686153786E+01  0.44740676864E+01  0.52152694843E+01  0.51100000000E-03 0. -1.
        -11    1    3    3    0    0  0.27107143894E+02  0.18255277788E+00  0.45959456596E+01  0.27494604787E+02  0.51100000000E-03 0.  1.
         12    1    3    3    0    0  0.13833649982E+02 -0.36165261931E+01 -0.47831833238E+01  0.15077399518E+02  0.00000000000E+00 0. -1.
</event>
<event>
 7    1  0.1631716E-009  0.4778728E+02  0.7816164E-02  0.1312668E+00
        -11   -1    0    0    0    0  0.00000000000E+00  0.00000000000E+00  0.45593999997E+02  0.45594000000E+02  0.51100000000E-03 0.  1.
         11   -1    0    0    0    0 -0.00000000000E+00 -0.00000000000E+00 -0.45593999997E+02  0.45594000000E+02  0.51100000000E-03 0. -1.
    9900012    2    1    2    0    0  0.89874748806E+00  0.30811365457E+02  0.30552814070E+02  0.47787280697E+02  0.20000044012E+02 0.  0.
         12    1    1    2    0    0 -0.89874748806E+00 -0.30811365457E+02 -0.30552814070E+02  0.43400719303E+02  0.00000000000E+00 0. -1.
         11    1    3    3    0    0 -0.50805908723E-01  0.21307316689E+02  0.11863734169E+02  0.24387548348E+02  0.51100000000E-03 0. -1.
        -11    1    3    3    0    0 -0.42904682885E+01  0.29135417780E+01  0.43391500522E+01  0.67620312972E+01  0.51100000000E-03 0.  1.
        -12    1    3    3    0    0  0.52400216853E+01  0.65905069908E+01  0.14349929849E+02  0.16637701053E+02  0.00000000000E+00 0.  1.
</event>
<event>
 7    1  0.1631716E-009  0.4778730E+02  0.7816164E-02  0.1312668E+00
        -11   -1    0    0    0    0  0.00000000000E+00  0.00000000000E+00  0.45593999997E+02  0.45594000000E+02  0.51100000000E-03 0.  1.
         11   -1    0    0    0    0 -0.00000000000E+00 -0.00000000000E+00 -0.45593999997E+02  0.45594000000E+02  0.51100000000E-03 0. -1.
    9900012    2    1    2    0    0  0.21410234046E+02 -0.36450297227E+00  0.37750365989E+02  0.47787295897E+02  0.20000113314E+02 0.  0.
         12    1    1    2    0    0 -0.21410234046E+02  0.36450297227E+00 -0.37750365989E+02  0.43400704103E+02  0.00000000000E+00 0. -1.
         11    1    3    3    0    0 -0.17145400730E+01 -0.72797268040E+00  0.40421521254E+01  0.44506837622E+01  0.51100000000E-03 0. -1.
        -11    1    3    3    0    0  0.16658649412E+00 -0.30682783929E+01  0.86453613586E+01  0.91752033568E+01  0.51100000000E-03 0.  1.
         12    1    3    3    0    0  0.22958187625E+02  0.34317481010E+01  0.25062852505E+02  0.34161408778E+02  0.00000000000E+00 0. -1.
</event>
<event>
 7    1  0.1631716E-009  0.4778727E+02  0.7816164E-02  0.1312668E+00
        -11   -1    0    0    0    0  0.00000000000E+00  0.00000000000E+00  0.45593999997E+02  0.45594000000E+02  0.51100000000E-03 0. -1.
         11   -1    0    0    0    0 -0.00000000000E+00 -0.00000000000E+00 -0.45593999997E+02  0.45594000000E+02  0.51100000000E-03 0.  1.
    9900012    2    1    2    0    0  0.21019512488E+02 -0.18281907536E+01  0.37927046898E+02  0.47787273358E+02  0.20000010549E+02 0.  0.
         12    1    1    2    0    0 -0.21019512488E+02  0.18281907536E+01 -0.37927046898E+02  0.43400726642E+02  0.00000000000E+00 0. -1.
         11    1    3    3    0    0  0.52141822887E+01 -0.48080349075E+01  0.12418574323E+02  0.14301254668E+02  0.51100000000E-03 0. -1.
        -11    1    3    3    0    0  0.51363338295E+01  0.75116711386E+01  0.16354853869E+02  0.18715992462E+02  0.51100000000E-03 0.  1.
         12    1    3    3    0    0  0.10668996370E+02 -0.45318269847E+01  0.91536187060E+01  0.14770026228E+02  0.00000000000E+00 0. -1.
</event>
<event>
 7    1  0.1631716E-009  0.4778727E+02  0.7816164E-02  0.1312668E+00
        -11   -1    0    0    0    0  0.00000000000E+00  0.00000000000E+00  0.45593999997E+02  0.45594000000E+02  0.51100000000E-03 0.  1.
         11   -1    0    0    0    0 -0.00000000000E+00 -0.00000000000E+00 -0.45593999997E+02  0.45594000000E+02  0.51100000000E-03 0. -1.
    9900012    2    1    2    0    0 -0.14518048345E+02  0.28294920625E+02  0.29533828758E+02  0.47787270720E+02  0.19999998520E+02 0.  0.
         12    1    1    2    0    0  0.14518048345E+02 -0.28294920625E+02 -0.29533828758E+02  0.43400729280E+02  0.00000000000E+00 0. -1.
         11    1    3    3    0    0  0.23920625395E+01  0.80808618356E+00  0.25422306935E+00  0.25376359280E+01  0.51100000000E-03 0. -1.
        -11    1    3    3    0    0 -0.11305389422E+02  0.73412912430E+01  0.97396246843E+01  0.16630293934E+02  0.51100000000E-03 0.  1.
         12    1    3    3    0    0 -0.56047214628E+01  0.20145543199E+02  0.19539981005E+02  0.28619340857E+02  0.00000000000E+00 0. -1.
</event>
<event>
 7    1  0.1631716E-009  0.4778727E+02  0.7816164E-02  0.1312668E+00
        -11   -1    0    0    0    0  0.00000000000E+00  0.00000000000E+00  0.45593999997E+02  0.45594000000E+02  0.51100000000E-03 0.  1.
         11   -1    0    0    0    0 -0.00000000000E+00 -0.00000000000E+00 -0.45593999997E+02  0.45594000000E+02  0.51100000000E-03 0. -1.
    9900012    2    1    2    0    0 -0.19096895701E+02  0.34262122889E+02  0.18575222830E+02  0.47787269667E+02  0.19999993718E+02 0.  0.
         12    1    1    2    0    0  0.19096895701E+02 -0.34262122889E+02 -0.18575222830E+02  0.43400730333E+02  0.00000000000E+00 0. -1.
         11    1    3    3    0    0 -0.44026968535E+01  0.12893749331E+02  0.11425328431E+02  0.17781187852E+02  0.51100000000E-03 0. -1.
        -11    1    3    3    0    0 -0.45274790355E+00 -0.15493522691E+01 -0.90069053800E+00  0.18484363187E+01  0.51100000000E-03 0.  1.
        -12    1    3    3    0    0 -0.14241450944E+02  0.22917725827E+02  0.80505849374E+01  0.28157645496E+02  0.00000000000E+00 0.  1.
</event>
<event>
 7    1  0.1631716E-009  0.4778727E+02  0.7816164E-02  0.1312668E+00
        -11   -1    0    0    0    0  0.00000000000E+00  0.00000000000E+00  0.45593999997E+02  0.45594000000E+02  0.51100000000E-03 0. -1.
         11   -1    0    0    0    0 -0.00000000000E+00 -0.00000000000E+00 -0.45593999997E+02  0.45594000000E+02  0.51100000000E-03 0.  1.
    9900012    2    1    2    0    0  0.24343976975E+02  0.23140788806E+02 -0.27486320725E+02  0.47787272488E+02  0.20000006584E+02 0.  0.
         12    1    1    2    0    0 -0.24343976975E+02 -0.23140788806E+02  0.27486320725E+02  0.43400727512E+02  0.00000000000E+00 0. -1.
         11    1    3    3    0    0  0.11587658537E+02  0.17050827188E+02 -0.13025120778E+02  0.24385616862E+02  0.51100000000E-03 0.  1.
        -11    1    3    3    0    0  0.58206647660E+01  0.22150130617E+00  0.55464206149E+00  0.58512245919E+01  0.51100000000E-03 0. -1.
         12    1    3    3    0    0  0.69356536713E+01  0.58684603120E+01 -0.15015842008E+02  0.17550431035E+02  0.00000000000E+00 0. -1.
</event>
<event>
 7    1  0.1631716E-009  0.4778727E+02  0.7816164E-02  0.1312668E+00
        -11   -1    0    0    0    0  0.00000000000E+00  0.00000000000E+00  0.45593999997E+02  0.45594000000E+02  0.51100000000E-03 0.  1.
         11   -1    0    0    0    0 -0.00000000000E+00 -0.00000000000E+00 -0.45593999997E+02  0.45594000000E+02  0.51100000000E-03 0. -1.
    9900012    2    1    2    0    0 -0.14401558419E+02  0.26641631577E+02  0.31087647494E+02  0.47787271380E+02  0.20000001532E+02 0.  0.
         12    1    1    2    0    0  0.14401558419E+02 -0.26641631577E+02 -0.31087647494E+02  0.43400728620E+02  0.00000000000E+00 0. -1.
         11    1    3    3    0    0  0.22274533897E+01  0.12254355818E+01 -0.51014329882E-01  0.25428023304E+01  0.51100000000E-03 0. -1.
        -11    1    3    3    0    0 -0.10404454878E+02  0.23092275155E+02  0.19990357556E+02  0.32266395036E+02  0.51100000000E-03 0.  1.
         12    1    3    3    0    0 -0.62245569309E+01  0.23239208402E+01  0.11148304268E+02  0.12978074014E+02  0.00000000000E+00 0. -1.
</event>
<event>
 7    1  0.1631716E-009  0.4778724E+02  0.7816164E-02  0.1312668E+00
        -11   -1    0    0    0    0  0.00000000000E+00  0.00000000000E+00  0.45593999997E+02  0.45594000000E+02  0.51100000000E-03 0. -1.
         11   -1    0    0    0    0 -0.00000000000E+00 -0.00000000000E+00 -0.45593999997E+02  0.45594000000E+02  0.51100000000E-03 0.  1.
    9900012    2    1    2    0    0  0.25609329148E+02  0.34727833347E+02  0.46653440798E+01  0.47787244433E+02  0.19999878668E+02 0.  0.
         12    1    1    2    0    0 -0.25609329148E+02 -0.34727833347E+02 -0.46653440798E+01  0.43400755567E+02  0.00000000000E+00 0. -1.
         11    1    3    3    0    0  0.26631581176E+02  0.22762412384E+02  0.59101769289E+01  0.35528843566E+02  0.51100000000E-03 0. -1.
        -11    1    3    3    0    0 -0.35806703175E+00  0.51958169690E+01  0.51151925989E+00  0.52331996130E+01  0.51100000000E-03 0.  1.
         12    1    3    3    0    0 -0.66418499624E+00  0.67696039934E+01 -0.17563521090E+01  0.70252012546E+01  0.00000000000E+00 0. -1.
</event>
<event>
 7    1  0.1631716E-009  0.4778727E+02  0.7816164E-02  0.1312668E+00
        -11   -1    0    0    0    0  0.00000000000E+00  0.00000000000E+00  0.45593999997E+02  0.45594000000E+02  0.51100000000E-03 0. -1.
         11   -1    0    0    0    0 -0.00000000000E+00 -0.00000000000E+00 -0.45593999997E+02  0.45594000000E+02  0.51100000000E-03 0.  1.
    9900012    2    1    2    0    0  0.31270964936E+02 -0.29570280354E+02  0.55989634616E+01  0.47787272816E+02  0.20000008075E+02 0.  0.
         12    1    1    2    0    0 -0.31270964936E+02  0.29570280354E+02 -0.55989634616E+01  0.43400727184E+02  0.00000000000E+00 0. -1.
         11    1    3    3    0    0  0.11124299281E+01  0.74765453889E+00 -0.21026650863E+01  0.24935293022E+01  0.51100000000E-03 0. -1.
        -11    1    3    3    0    0 -0.31122309892E+00 -0.49097583983E+01  0.24543319770E+00  0.49257309166E+01  0.51100000000E-03 0.  1.
        -12    1    3    3    0    0  0.30469758107E+02 -0.25408176495E+02  0.74561953502E+01  0.40368012597E+02  0.00000000000E+00 0.  1.
</event>
<event>
 7    1  0.1631716E-009  0.4778727E+02  0.7816164E-02  0.1312668E+00
        -11   -1    0    0    0    0  0.00000000000E+00  0.00000000000E+00  0.45593999997E+02  0.45594000000E+02  0.51100000000E-03 0. -1.
         11   -1    0    0    0    0 -0.00000000000E+00 -0.00000000000E+00 -0.45593999997E+02  0.45594000000E+02  0.51100000000E-03 0.  1.
    9900012    2    1    2    0    0  0.40201217010E+02  0.15967477963E+02 -0.35390670867E+01  0.47787271925E+02  0.20000004016E+02 0.  0.
         12    1    1    2    0    0 -0.40201217010E+02 -0.15967477963E+02  0.35390670867E+01  0.43400728075E+02  0.00000000000E+00 0. -1.
         11    1    3    3    0    0  0.26869286525E+02  0.49150883301E+01  0.42404493537E+00  0.27318427224E+02  0.51100000000E-03 0. -1.
        -11    1    3    3    0    0  0.14926154862E+02  0.10736678068E+02 -0.31603571036E+01  0.18656211089E+02  0.51100000000E-03 0.  1.
         12    1    3    3    0    0 -0.15942243763E+01  0.31571156474E+00 -0.80275491849E+00  0.18126336126E+01  0.00000000000E+00 0. -1.
</event>
<event>
 7    1  0.1631716E-009  0.4778727E+02  0.7816164E-02  0.1312668E+00
        -11   -1    0    0    0    0  0.00000000000E+00  0.00000000000E+00  0.45593999997E+02  0.45594000000E+02  0.51100000000E-03 0. -1.
         11   -1    0    0    0    0 -0.00000000000E+00 -0.00000000000E+00 -0.45593999997E+02  0.45594000000E+02  0.51100000000E-03 0.  1.
    9900012    2    1    2    0    0  0.10430083918E+02 -0.21468343370E+02  0.36248404067E+02  0.47787271723E+02  0.20000003093E+02 0.  0.
         12    1    1    2    0    0 -0.10430083918E+02  0.21468343370E+02 -0.36248404067E+02  0.43400728277E+02  0.00000000000E+00 0. -1.
         11    1    3    3    0    0  0.21569950899E+01  0.21079723273E+01  0.70850388681E+01  0.77002565655E+01  0.51100000000E-03 0. -1.
        -11    1    3    3    0    0 -0.19458688324E+01 -0.84677747858E+01  0.57987346936E+01  0.10445809669E+02  0.51100000000E-03 0.  1.
        -12    1    3    3    0    0  0.10218957661E+02 -0.15108540911E+02  0.23364630506E+02  0.29641205488E+02  0.00000000000E+00 0.  1.
</event>
<event>
 7    1  0.1631716E-009  0.4778726E+02  0.7816164E-02  0.1312668E+00
        -11   -1    0    0    0    0  0.00000000000E+00  0.00000000000E+00  0.45593999997E+02  0.45594000000E+02  0.51100000000E-03 0.  1.
         11   -1    0    0    0    0 -0.00000000000E+00 -0.00000000000E+00 -0.45593999997E+02  0.45594000000E+02  0.51100000000E-03 0. -1.
    9900012    2    1    2    0    0 -0.30594849204E+02  0.10949821125E+02  0.28769442879E+02  0.47787260098E+02  0.19999950093E+02 0.  0.
         12    1    1    2    0    0  0.30594849204E+02 -0.10949821125E+02 -0.28769442879E+02  0.43400739902E+02  0.00000000000E+00 0. -1.
         11    1    3    3    0    0 -0.18774771136E+02  0.36570029053E+01  0.10806454151E+02  0.21969186445E+02  0.51100000000E-03 0. -1.
        -11    1    3    3    0    0 -0.10411373280E+02  0.45774989072E+01  0.19361313108E+02  0.22454635053E+02  0.51100000000E-03 0.  1.
        -12    1    3    3    0    0 -0.14087047869E+01  0.27153193124E+01 -0.13983243809E+01  0.33634386005E+01  0.00000000000E+00 0.  1.
</event>
<event>
 7    1  0.1631716E-009  0.4778727E+02  0.7816164E-02  0.1312668E+00
        -11   -1    0    0    0    0  0.00000000000E+00  0.00000000000E+00  0.45593999997E+02  0.45594000000E+02  0.51100000000E-03 0. -1.
         11   -1    0    0    0    0 -0.00000000000E+00 -0.00000000000E+00 -0.45593999997E+02  0.45594000000E+02  0.51100000000E-03 0.  1.
    9900012    2    1    2    0    0 -0.42620026855E+02  0.32562484128E+01 -0.75202232569E+01  0.47787267279E+02  0.19999982832E+02 0.  0.
         12    1    1    2    0    0  0.42620026855E+02 -0.32562484128E+01  0.75202232569E+01  0.43400732721E+02  0.00000000000E+00 0. -1.
         11    1    3    3    0    0 -0.25264930297E+01  0.26506196230E+01  0.36549859515E+01  0.51737678709E+01  0.51100000000E-03 0. -1.
        -11    1    3    3    0    0 -0.13763451871E+02 -0.14156544829E+01 -0.80866780757E+01  0.16025949194E+02  0.51100000000E-03 0.  1.
        -12    1    3    3    0    0 -0.26330081955E+02  0.20212832727E+01 -0.30885311327E+01  0.26587550214E+02  0.00000000000E+00 0.  1.
</event>
<event>
 7    1  0.1631716E-009  0.4778727E+02  0.7816164E-02  0.1312668E+00
        -11   -1    0    0    0    0  0.00000000000E+00  0.00000000000E+00  0.45593999997E+02  0.45594000000E+02  0.51100000000E-03 0. -1.
         11   -1    0    0    0    0 -0.00000000000E+00 -0.00000000000E+00 -0.45593999997E+02  0.45594000000E+02  0.51100000000E-03 0.  1.
    9900012    2    1    2    0    0  0.65214030545E+01 -0.39534030920E+02 -0.16677970794E+02  0.47787274103E+02  0.20000013944E+02 0.  0.
         12    1    1    2    0    0 -0.65214030545E+01  0.39534030920E+02  0.16677970794E+02  0.43400725897E+02  0.00000000000E+00 0. -1.
         11    1    3    3    0    0  0.11472622948E+02 -0.30175571095E+02 -0.16042473711E+02  0.36049232048E+02  0.51100000000E-03 0.  1.
        -11    1    3    3    0    0 -0.21551149028E+01 -0.84622491159E+01 -0.95527070122E+00  0.87844591591E+01  0.51100000000E-03 0. -1.
        -12    1    3    3    0    0 -0.27961049909E+01 -0.89621070986E+00  0.31977361813E+00  0.29535828960E+01  0.00000000000E+00 0.  1.
</event>
<event>
 7    1  0.1631716E-009  0.4778726E+02  0.7816164E-02  0.1312668E+00
        -11   -1    0    0    0    0  0.00000000000E+00  0.00000000000E+00  0.45593999997E+02  0.45594000000E+02  0.51100000000E-03 0.  1.
         11   -1    0    0    0    0 -0.00000000000E+00 -0.00000000000E+00 -0.45593999997E+02  0.45594000000E+02  0.51100000000E-03 0. -1.
    9900012    2    1    2    0    0 -0.33662139987E+02  0.13178761790E+02  0.24016768724E+02  0.47787255642E+02  0.19999929776E+02 0.  0.
         12    1    1    2    0    0  0.33662139987E+02 -0.13178761790E+02 -0.24016768724E+02  0.43400744358E+02  0.00000000000E+00 0. -1.
         11    1    3    3    0    0 -0.79204931584E+01  0.33862551867E+01  0.12475679810E+01  0.87038705292E+01  0.51100000000E-03 0.  1.
        -11    1    3    3    0    0 -0.96404140143E+01  0.11833448918E+02  0.84877917471E+01  0.17464555668E+02  0.51100000000E-03 0. -1.
         12    1    3    3    0    0 -0.16101232814E+02 -0.20409423145E+01  0.14281408996E+02  0.21618829445E+02  0.00000000000E+00 0. -1.
</event>
<event>
 7    1  0.1631716E-009  0.4778725E+02  0.7816164E-02  0.1312668E+00
        -11   -1    0    0    0    0  0.00000000000E+00  0.00000000000E+00  0.45593999997E+02  0.45594000000E+02  0.51100000000E-03 0. -1.
         11   -1    0    0    0    0 -0.00000000000E+00 -0.00000000000E+00 -0.45593999997E+02  0.45594000000E+02  0.51100000000E-03 0.  1.
    9900012    2    1    2    0    0 -0.22853169485E+02 -0.99096591279E+01 -0.35540907883E+02  0.47787253086E+02  0.19999918119E+02 0.  0.
         12    1    1    2    0    0  0.22853169485E+02  0.99096591279E+01  0.35540907883E+02  0.43400746914E+02  0.00000000000E+00 0. -1.
         11    1    3    3    0    0 -0.29062439118E+01 -0.84172671676E+01 -0.12475879252E+02  0.15327889731E+02  0.51100000000E-03 0. -1.
        -11    1    3    3    0    0 -0.16060507972E+01 -0.35905927492E+01 -0.67999796815E+01  0.78556654322E+01  0.51100000000E-03 0.  1.
        -12    1    3    3    0    0 -0.18340874776E+02  0.20982007889E+01 -0.16265048950E+02  0.24603697922E+02  0.00000000000E+00 0.  1.
</event>
<event>
 7    1  0.1631716E-009  0.4778727E+02  0.7816164E-02  0.1312668E+00
        -11   -1    0    0    0    0  0.00000000000E+00  0.00000000000E+00  0.45593999997E+02  0.45594000000E+02  0.51100000000E-03 0. -1.
         11   -1    0    0    0    0 -0.00000000000E+00 -0.00000000000E+00 -0.45593999997E+02  0.45594000000E+02  0.51100000000E-03 0.  1.
    9900012    2    1    2    0    0 -0.24647316342E+02  0.10851652945E+02 -0.34034909676E+02  0.47787266698E+02  0.19999980183E+02 0.  0.
         12    1    1    2    0    0  0.24647316342E+02 -0.10851652945E+02  0.34034909676E+02  0.43400733302E+02  0.00000000000E+00 0. -1.
         11    1    3    3    0    0 -0.15296535999E+02  0.13128361547E+01 -0.14704876835E+02  0.21258902967E+02  0.51100000000E-03 0.  1.
        -11    1    3    3    0    0 -0.56983646075E+01  0.97126249199E+01 -0.19863189293E+02  0.22833149831E+02  0.51100000000E-03 0. -1.
         12    1    3    3    0    0 -0.36524157353E+01 -0.17380812970E+00  0.53315645228E+00  0.36952139007E+01  0.00000000000E+00 0. -1.
</event>
<event>
 7    1  0.1631716E-009  0.4778726E+02  0.7816164E-02  0.1312668E+00
        -11   -1    0    0    0    0  0.00000000000E+00  0.00000000000E+00  0.45593999997E+02  0.45594000000E+02  0.51100000000E-03 0.  1.
         11   -1    0    0    0    0 -0.00000000000E+00 -0.00000000000E+00 -0.45593999997E+02  0.45594000000E+02  0.51100000000E-03 0. -1.
    9900012    2    1    2    0    0  0.30464305804E+02 -0.58561503235E+01  0.30352196167E+02  0.47787259951E+02  0.19999949419E+02 0.  0.
         12    1    1    2    0    0 -0.30464305804E+02  0.58561503235E+01 -0.30352196167E+02  0.43400740049E+02  0.00000000000E+00 0. -1.
         11    1    3    3    0    0  0.26740216092E+01 -0.40278883222E+01  0.12010587793E+02  0.12947142360E+02  0.51100000000E-03 0. -1.
        -11    1    3    3    0    0  0.97048636483E+01 -0.53516524758E+01  0.83801591478E+01  0.13894302079E+02  0.51100000000E-03 0.  1.
         12    1    3    3    0    0  0.18085420546E+02  0.35233904744E+01  0.99614492256E+01  0.20945815511E+02  0.00000000000E+00 0. -1.
</event>
<event>
 7    1  0.1631716E-009  0.4778727E+02  0.7816164E-02  0.1312668E+00
        -11   -1    0    0    0    0  0.00000000000E+00  0.00000000000E+00  0.45593999997E+02  0.45594000000E+02  0.51100000000E-03 0.  1.
         11   -1    0    0    0    0 -0.00000000000E+00 -0.00000000000E+00 -0.45593999997E+02  0.45594000000E+02  0.51100000000E-03 0. -1.
    9900012    2    1    2    0    0  0.18837374634E+02 -0.16353194523E+02  0.35515484280E+02  0.47787270999E+02  0.19999999792E+02 0.  0.
         12    1    1    2    0    0 -0.18837374634E+02  0.16353194523E+02 -0.35515484280E+02  0.43400729001E+02  0.00000000000E+00 0. -1.
         11    1    3    3    0    0 -0.17338363977E+01 -0.42147133512E+00 -0.12095527028E+01  0.21556541333E+01  0.51100000000E-03 0. -1.
        -11    1    3    3    0    0  0.67631900814E+01 -0.99600570113E+01  0.16421816308E+02  0.20362208300E+02  0.51100000000E-03 0.  1.
         12    1    3    3    0    0  0.13808020950E+02 -0.59716661766E+01  0.20303220675E+02  0.25269408566E+02  0.00000000000E+00 0. -1.
</event>
<event>
 7    1  0.1631716E-009  0.4778727E+02  0.7816164E-02  0.1312668E+00
        -11   -1    0    0    0    0  0.00000000000E+00  0.00000000000E+00  0.45593999997E+02  0.45594000000E+02  0.51100000000E-03 0.  1.
         11   -1    0    0    0    0 -0.00000000000E+00 -0.00000000000E+00 -0.45593999997E+02  0.45594000000E+02  0.51100000000E-03 0. -1.
    9900012    2    1    2    0    0  0.42876730099E+02  0.66559675125E+01  0.95239481263E+00  0.47787274852E+02  0.20000017360E+02 0.  0.
         12    1    1    2    0    0 -0.42876730099E+02 -0.66559675125E+01 -0.95239481263E+00  0.43400725148E+02  0.00000000000E+00 0. -1.
         11    1    3    3    0    0  0.24121991602E+02  0.32700130545E+01 -0.74216299918E+01  0.25448851766E+02  0.51100000000E-03 0. -1.
        -11    1    3    3    0    0  0.89793700873E+01  0.55489711564E+01  0.29907042099E+01  0.10971074696E+02  0.51100000000E-03 0.  1.
         12    1    3    3    0    0  0.97753684100E+01 -0.21630166984E+01  0.53833205946E+01  0.11367348390E+02  0.00000000000E+00 0. -1.
</event>
<event>
 7    1  0.1631716E-009  0.4778726E+02  0.7816164E-02  0.1312668E+00
        -11   -1    0    0    0    0  0.00000000000E+00  0.00000000000E+00  0.45593999997E+02  0.45594000000E+02  0.51100000000E-03 0.  1.
         11   -1    0    0    0    0 -0.00000000000E+00 -0.00000000000E+00 -0.45593999997E+02  0.45594000000E+02  0.51100000000E-03 0. -1.
    9900012    2    1    2    0    0  0.20145429995E+02 -0.38021791715E+02 -0.56682279373E+01  0.47787264950E+02  0.19999972214E+02 0.  0.
         12    1    1    2    0    0 -0.20145429995E+02  0.38021791715E+02  0.56682279373E+01  0.43400735050E+02  0.00000000000E+00 0. -1.
         11    1    3    3    0    0  0.50228245373E+01 -0.10784152886E+01  0.43225148230E+00  0.51554425098E+01  0.51100000000E-03 0. -1.
        -11    1    3    3    0    0  0.17367218922E+02 -0.33369186782E+02 -0.71291897868E+01  0.38287703860E+02  0.51100000000E-03 0.  1.
         12    1    3    3    0    0 -0.22446134649E+01 -0.35741896448E+01  0.10287103673E+01  0.43441185808E+01  0.00000000000E+00 0. -1.
</event>
<event>
 7    1  0.1631716E-009  0.4778727E+02  0.7816164E-02  0.1312668E+00
        -11   -1    0    0    0    0  0.00000000000E+00  0.00000000000E+00  0.45593999997E+02  0.45594000000E+02  0.51100000000E-03 0.  1.
         11   -1    0    0    0    0 -0.00000000000E+00 -0.00000000000E+00 -0.45593999997E+02  0.45594000000E+02  0.51100000000E-03 0. -1.
    9900012    2    1    2    0    0 -0.11805094166E+02  0.21572868852E+02  0.35761348604E+02  0.47787274514E+02  0.20000015820E+02 0.  0.
         12    1    1    2    0    0  0.11805094166E+02 -0.21572868852E+02 -0.35761348604E+02  0.43400725486E+02  0.00000000000E+00 0. -1.
         11    1    3    3    0    0 -0.79290685378E+01  0.12732728229E+01  0.28855719717E+01  0.85333391720E+01  0.51100000000E-03 0. -1.
        -11    1    3    3    0    0 -0.22878647972E+01  0.58102733560E+01  0.14585173100E+02  0.15865713864E+02  0.51100000000E-03 0.  1.
         12    1    3    3    0    0 -0.15881608306E+01  0.14489322673E+02  0.18290603532E+02  0.23388221478E+02  0.00000000000E+00 0. -1.
</event>
<event>
 7    1  0.1631716E-009  0.4778727E+02  0.7816164E-02  0.1312668E+00
        -11   -1    0    0    0    0  0.00000000000E+00  0.00000000000E+00  0.45593999997E+02  0.45594000000E+02  0.51100000000E-03 0. -1.
         11   -1    0    0    0    0 -0.00000000000E+00 -0.00000000000E+00 -0.45593999997E+02  0.45594000000E+02  0.51100000000E-03 0.  1.
    9900012    2    1    2    0    0 -0.19282259448E+02  0.30249289327E+02  0.24429450743E+02  0.47787273073E+02  0.20000009249E+02 0.  0.
         12    1    1    2    0    0  0.19282259448E+02 -0.30249289327E+02 -0.24429450743E+02  0.43400726927E+02  0.00000000000E+00 0. -1.
         11    1    3    3    0    0 -0.63542891697E+01  0.23344066820E+02  0.18476131618E+02  0.30441581536E+02  0.51100000000E-03 0. -1.
        -11    1    3    3    0    0 -0.88192888194E+01  0.64539417055E+01  0.71291673451E+01  0.13048304339E+02  0.51100000000E-03 0.  1.
         12    1    3    3    0    0 -0.41086814592E+01  0.45128080072E+00 -0.11758482207E+01  0.42973871984E+01  0.00000000000E+00 0. -1.
</event>
<event>
 7    1  0.1631716E-009  0.4778727E+02  0.7816164E-02  0.1312668E+00
        -11   -1    0    0    0    0  0.00000000000E+00  0.00000000000E+00  0.45593999997E+02  0.45594000000E+02  0.51100000000E-03 0.  1.
         11   -1    0    0    0    0 -0.00000000000E+00 -0.00000000000E+00 -0.45593999997E+02  0.45594000000E+02  0.51100000000E-03 0. -1.
    9900012    2    1    2    0    0  0.10356255971E+02 -0.16308332312E+02  0.38863987235E+02  0.47787271385E+02  0.20000001554E+02 0.  0.
         12    1    1    2    0    0 -0.10356255971E+02  0.16308332312E+02 -0.38863987235E+02  0.43400728615E+02  0.00000000000E+00 0. -1.
         11    1    3    3    0    0 -0.37074611190E+01 -0.30452605019E+01  0.31180163302E+01  0.57219669319E+01  0.51100000000E-03 0. -1.
        -11    1    3    3    0    0  0.57148924081E+01  0.43374043268E+00  0.13246546736E+02  0.14433264589E+02  0.51100000000E-03 0.  1.
        -12    1    3    3    0    0  0.83488246816E+01 -0.13696812242E+02  0.22499424168E+02  0.27632039864E+02  0.00000000000E+00 0.  1.
</event>
<event>
 7    1  0.1631716E-009  0.4778721E+02  0.7816164E-02  0.1312668E+00
        -11   -1    0    0    0    0  0.00000000000E+00  0.00000000000E+00  0.45593999997E+02  0.45594000000E+02  0.51100000000E-03 0.  1.
         11   -1    0    0    0    0 -0.00000000000E+00 -0.00000000000E+00 -0.45593999997E+02  0.45594000000E+02  0.51100000000E-03 0. -1.
    9900012    2    1    2    0    0  0.16313635593E+02  0.20771354460E+02  0.34438994146E+02  0.47787214406E+02  0.19999741762E+02 0.  0.
         12    1    1    2    0    0 -0.16313635593E+02 -0.20771354460E+02 -0.34438994146E+02  0.43400785594E+02  0.00000000000E+00 0. -1.
         11    1    3    3    0    0 -0.24516171957E+01  0.46090579412E+01  0.26717995839E+01  0.58644995744E+01  0.51100000000E-03 0. -1.
        -11    1    3    3    0    0  0.92258699385E+01  0.48345081204E+01  0.21536832406E+02  0.23923300258E+02  0.51100000000E-03 0.  1.
         12    1    3    3    0    0  0.95393828497E+01  0.11327788398E+02  0.10230362157E+02  0.17999414574E+02  0.00000000000E+00 0. -1.
</event>
<event>
 7    1  0.1631716E-009  0.4778727E+02  0.7816164E-02  0.1312668E+00
        -11   -1    0    0    0    0  0.00000000000E+00  0.00000000000E+00  0.45593999997E+02  0.45594000000E+02  0.51100000000E-03 0. -1.
         11   -1    0    0    0    0 -0.00000000000E+00 -0.00000000000E+00 -0.45593999997E+02  0.45594000000E+02  0.51100000000E-03 0.  1.
    9900012    2    1    2    0    0 -0.10629485238E+02 -0.41695813496E+02 -0.56653722206E+01  0.47787271182E+02  0.20000000626E+02 0.  0.
         12    1    1    2    0    0  0.10629485238E+02  0.41695813496E+02  0.56653722206E+01  0.43400728818E+02  0.00000000000E+00 0. -1.
         11    1    3    3    0    0 -0.23519137935E+01 -0.50739282319E+01  0.41087039673E+01  0.69395745364E+01  0.51100000000E-03 0. -1.
        -11    1    3    3    0    0 -0.65545695312E+01 -0.10432820797E+02 -0.76801074779E+01  0.14518615039E+02  0.51100000000E-03 0.  1.
        -12    1    3    3    0    0 -0.17230019132E+01 -0.26189064467E+02 -0.20939687099E+01  0.26329081606E+02  0.00000000000E+00 0.  1.
</event>
<event>
 7    1  0.1631716E-009  0.4778727E+02  0.7816164E-02  0.1312668E+00
        -11   -1    0    0    0    0  0.00000000000E+00  0.00000000000E+00  0.45593999997E+02  0.45594000000E+02  0.51100000000E-03 0.  1.
         11   -1    0    0    0    0 -0.00000000000E+00 -0.00000000000E+00 -0.45593999997E+02  0.45594000000E+02  0.51100000000E-03 0. -1.
    9900012    2    1    2    0    0  0.74946165983E+01 -0.21113788771E+02  0.37170712694E+02  0.47787271476E+02  0.20000001967E+02 0.  0.
         12    1    1    2    0    0 -0.74946165983E+01  0.21113788771E+02 -0.37170712694E+02  0.43400728524E+02  0.00000000000E+00 0. -1.
         11    1    3    3    0    0 -0.18548788878E+01  0.58907788503E+00  0.68134969838E+01  0.70859953325E+01  0.51100000000E-03 0. -1.
        -11    1    3    3    0    0  0.54869103934E+01 -0.61073862928E+01  0.19910786304E+02  0.21537078829E+02  0.51100000000E-03 0.  1.
         12    1    3    3    0    0  0.38625850928E+01 -0.15595480363E+02  0.10446429407E+02  0.19164197314E+02  0.00000000000E+00 0. -1.
</event>
<event>
 7    1  0.1631716E-009  0.4778730E+02  0.7816164E-02  0.1312668E+00
        -11   -1    0    0    0    0  0.00000000000E+00  0.00000000000E+00  0.45593999997E+02  0.45594000000E+02  0.51100000000E-03 0.  1.
         11   -1    0    0    0    0 -0.00000000000E+00 -0.00000000000E+00 -0.45593999997E+02  0.45594000000E+02  0.51100000000E-03 0. -1.
    9900012    2    1    2    0    0 -0.85995507096E+01  0.13993196933E+02  0.40172864656E+02  0.47787298537E+02  0.20000125348E+02 0.  0.
         12    1    1    2    0    0  0.85995507096E+01 -0.13993196933E+02 -0.40172864656E+02  0.43400701463E+02  0.00000000000E+00 0. -1.
         11    1    3    3    0    0 -0.25026566232E+01  0.59819229432E+01  0.49757684186E+01  0.81734303624E+01  0.51100000000E-03 0. -1.
        -11    1    3    3    0    0  0.45118875116E+01  0.39477441657E+01  0.70125507176E+01  0.92259243842E+01  0.51100000000E-03 0.  1.
         12    1    3    3    0    0 -0.10608781598E+02  0.40635298244E+01  0.28184545520E+02  0.30387943790E+02  0.00000000000E+00 0. -1.
</event>
<event>
 7    1  0.1631716E-009  0.4778727E+02  0.7816164E-02  0.1312668E+00
        -11   -1    0    0    0    0  0.00000000000E+00  0.00000000000E+00  0.45593999997E+02  0.45594000000E+02  0.51100000000E-03 0. -1.
         11   -1    0    0    0    0 -0.00000000000E+00 -0.00000000000E+00 -0.45593999997E+02  0.45594000000E+02  0.51100000000E-03 0.  1.
    9900012    2    1    2    0    0  0.21161871881E+02 -0.18706966700E+02 -0.32952202788E+02  0.47787273126E+02  0.20000009489E+02 0.  0.
         12    1    1    2    0    0 -0.21161871881E+02  0.18706966700E+02  0.32952202788E+02  0.43400726874E+02  0.00000000000E+00 0. -1.
         11    1    3    3    0    0  0.81938906304E+01 -0.22848023888E+01 -0.11490877908E+02  0.14296868223E+02  0.51100000000E-03 0.  1.
        -11    1    3    3    0    0  0.12498200894E+01 -0.12411520455E+02 -0.15037836327E+02  0.19538280680E+02  0.51100000000E-03 0. -1.
         12    1    3    3    0    0  0.11718161161E+02 -0.40106438560E+01 -0.64234885536E+01  0.13952124223E+02  0.00000000000E+00 0. -1.
</event>
<event>
 7    1  0.1631716E-009  0.4778727E+02  0.7816164E-02  0.1312668E+00
        -11   -1    0    0    0    0  0.00000000000E+00  0.00000000000E+00  0.45593999997E+02  0.45594000000E+02  0.51100000000E-03 0.  1.
         11   -1    0    0    0    0 -0.00000000000E+00 -0.00000000000E+00 -0.45593999997E+02  0.45594000000E+02  0.51100000000E-03 0. -1.
    9900012    2    1    2    0    0 -0.43648544268E+01  0.42381396617E+02  0.82697452943E+01  0.47787269354E+02  0.19999992294E+02 0.  0.
         12    1    1    2    0    0  0.43648544268E+01 -0.42381396617E+02 -0.82697452943E+01  0.43400730646E+02  0.00000000000E+00 0. -1.
         11    1    3    3    0    0 -0.23955404727E+01  0.58202999997E+01 -0.45709908331E+01  0.77787186413E+01  0.51100000000E-03 0. -1.
        -11    1    3    3    0    0 -0.17371852736E+01  0.10238494708E+02  0.83044201451E+01  0.13296916213E+02  0.51100000000E-03 0.  1.
        -12    1    3    3    0    0 -0.23212868050E+00  0.26322601909E+02  0.45363159824E+01  0.26711634500E+02  0.00000000000E+00 0.  1.
</event>
<event>
 7    1  0.1631716E-009  0.4778727E+02  0.7816164E-02  0.1312668E+00
        -11   -1    0    0    0    0  0.00000000000E+00  0.00000000000E+00  0.45593999997E+02  0.45594000000E+02  0.51100000000E-03 0.  1.
         11   -1    0    0    0    0 -0.00000000000E+00 -0.00000000000E+00 -0.45593999997E+02  0.45594000000E+02  0.51100000000E-03 0. -1.
    9900012    2    1    2    0    0  0.17285064786E+02  0.12670129614E+02  0.37740133821E+02  0.47787270168E+02  0.19999996005E+02 0.  0.
         12    1    1    2    0    0 -0.17285064786E+02 -0.12670129614E+02 -0.37740133821E+02  0.43400729832E+02  0.00000000000E+00 0. -1.
         11    1    3    3    0    0  0.61347836667E+01 -0.18311120452E+01  0.39407619452E+01  0.75178552081E+01  0.51100000000E-03 0. -1.
        -11    1    3    3    0    0  0.10593717622E+02  0.73790761172E+01  0.28766363812E+02  0.31530640726E+02  0.51100000000E-03 0.  1.
         12    1    3    3    0    0  0.55656349757E+00  0.71221655424E+01  0.50330080640E+01  0.87387742340E+01  0.00000000000E+00 0. -1.
</event>
<event>
 7    1  0.1631716E-009  0.4778726E+02  0.7816164E-02  0.1312668E+00
        -11   -1    0    0    0    0  0.00000000000E+00  0.00000000000E+00  0.45593999997E+02  0.45594000000E+02  0.51100000000E-03 0.  1.
         11   -1    0    0    0    0 -0.00000000000E+00 -0.00000000000E+00 -0.45593999997E+02  0.45594000000E+02  0.51100000000E-03 0. -1.
    9900012    2    1    2    0    0 -0.29051451289E+02  0.30792161310E+02  0.95645327660E+01  0.47787259140E+02  0.19999945725E+02 0.  0.
         12    1    1    2    0    0  0.29051451289E+02 -0.30792161310E+02 -0.95645327660E+01  0.43400740860E+02  0.00000000000E+00 0. -1.
         11    1    3    3    0    0 -0.89228184126E+01  0.55715082595E+01  0.10708681514E+02  0.15011137623E+02  0.51100000000E-03 0. -1.
        -11    1    3    3    0    0 -0.38993755294E+00  0.30125092014E+00  0.78608181717E+00  0.92775443760E+00  0.51100000000E-03 0.  1.
        -12    1    3    3    0    0 -0.19738695323E+02  0.24919402130E+02 -0.19302305655E+01  0.31848367080E+02  0.00000000000E+00 0.  1.
</event>
<event>
 7    1  0.1631716E-009  0.4778727E+02  0.7816164E-02  0.1312668E+00
        -11   -1    0    0    0    0  0.00000000000E+00  0.00000000000E+00  0.45593999997E+02  0.45594000000E+02  0.51100000000E-03 0.  1.
         11   -1    0    0    0    0 -0.00000000000E+00 -0.00000000000E+00 -0.45593999997E+02  0.45594000000E+02  0.51100000000E-03 0. -1.
    9900012    2    1    2    0    0 -0.22921969272E+02  0.90590144559E+01  0.35723111034E+02  0.47787273276E+02  0.20000010176E+02 0.  0.
         12    1    1    2    0    0  0.22921969272E+02 -0.90590144559E+01 -0.35723111034E+02  0.43400726724E+02  0.00000000000E+00 0. -1.
         11    1    3    3    0    0 -0.41586530407E+01  0.34647855115E+01  0.13790022759E+02  0.14814312731E+02  0.51100000000E-03 0. -1.
        -11    1    3    3    0    0 -0.17527450525E+02 -0.12825203905E+01  0.14641335555E+02  0.22874113918E+02  0.51100000000E-03 0.  1.
        -12    1    3    3    0    0 -0.12358657068E+01  0.68767493350E+01  0.72917527200E+01  0.10098846627E+02  0.00000000000E+00 0.  1.
</event>
<event>
 7    1  0.1631716E-009  0.4778727E+02  0.7816164E-02  0.1312668E+00
        -11   -1    0    0    0    0  0.00000000000E+00  0.00000000000E+00  0.45593999997E+02  0.45594000000E+02  0.51100000000E-03 0.  1.
         11   -1    0    0    0    0 -0.00000000000E+00 -0.00000000000E+00 -0.45593999997E+02  0.45594000000E+02  0.51100000000E-03 0. -1.
    9900012    2    1    2    0    0  0.43780703436E+01  0.13933805010E+02  0.40869366473E+02  0.47787268002E+02  0.19999986130E+02 0.  0.
         12    1    1    2    0    0 -0.43780703436E+01 -0.13933805010E+02 -0.40869366473E+02  0.43400731998E+02  0.00000000000E+00 0. -1.
         11    1    3    3    0    0 -0.11578897107E+01  0.20326857295E+00  0.37203886964E+00  0.12330611812E+01  0.51100000000E-03 0. -1.
        -11    1    3    3    0    0  0.10894420420E+02  0.35673293925E+01  0.20886934467E+02  0.23825999810E+02  0.51100000000E-03 0.  1.
         12    1    3    3    0    0 -0.53584603660E+01  0.10163207045E+02  0.19610393137E+02  0.22728207011E+02  0.00000000000E+00 0. -1.
</event>
<event>
 7    1  0.1631716E-009  0.4778727E+02  0.7816164E-02  0.1312668E+00
        -11   -1    0    0    0    0  0.00000000000E+00  0.00000000000E+00  0.45593999997E+02  0.45594000000E+02  0.51100000000E-03 0.  1.
         11   -1    0    0    0    0 -0.00000000000E+00 -0.00000000000E+00 -0.45593999997E+02  0.45594000000E+02  0.51100000000E-03 0. -1.
    9900012    2    1    2    0    0 -0.75767295584E+01 -0.12227560119E+02  0.40947567197E+02  0.47787270552E+02  0.19999997755E+02 0.  0.
         12    1    1    2    0    0  0.75767295584E+01  0.12227560119E+02 -0.40947567197E+02  0.43400729448E+02  0.00000000000E+00 0. -1.
         11    1    3    3    0    0 -0.50170790277E+01 -0.68617127398E+01  0.19783382961E+02  0.21532218309E+02  0.51100000000E-03 0. -1.
        -11    1    3    3    0    0 -0.12944636286E+01 -0.10170071275E+02  0.16588795834E+02  0.19501131591E+02  0.51100000000E-03 0.  1.
         12    1    3    3    0    0 -0.12651869021E+01  0.48042238961E+01  0.45753884022E+01  0.67539206519E+01  0.00000000000E+00 0. -1.
</event>
<event>
 7    1  0.1631716E-009  0.4778729E+02  0.7816164E-02  0.1312668E+00
        -11   -1    0    0    0    0  0.00000000000E+00  0.00000000000E+00  0.45593999997E+02  0.45594000000E+02  0.51100000000E-03 0.  1.
         11   -1    0    0    0    0 -0.00000000000E+00 -0.00000000000E+00 -0.45593999997E+02  0.45594000000E+02  0.51100000000E-03 0. -1.
    9900012    2    1    2    0    0  0.13905452936E+02  0.30973327083E+02  0.27035399625E+02  0.47787292116E+02  0.20000096074E+02 0.  0.
         12    1    1    2    0    0 -0.13905452936E+02 -0.30973327083E+02 -0.27035399625E+02  0.43400707884E+02  0.00000000000E+00 0. -1.
         11    1    3    3    0    0 -0.22547194154E+01  0.22483632229E+01 -0.11239150892E+01  0.33766969383E+01  0.51100000000E-03 0. -1.
        -11    1    3    3    0    0  0.71045856805E+00 -0.76720655705E+00  0.94588489806E+00  0.14099843189E+01  0.51100000000E-03 0.  1.
        -12    1    3    3    0    0  0.15449713784E+02  0.29492170417E+02  0.27213429816E+02  0.43000610859E+02  0.00000000000E+00 0.  1.
</event>
<event>
 7    1  0.1631716E-009  0.4778728E+02  0.7816164E-02  0.1312668E+00
        -11   -1    0    0    0    0  0.00000000000E+00  0.00000000000E+00  0.45593999997E+02  0.45594000000E+02  0.51100000000E-03 0.  1.
         11   -1    0    0    0    0 -0.00000000000E+00 -0.00000000000E+00 -0.45593999997E+02  0.45594000000E+02  0.51100000000E-03 0. -1.
    9900012    2    1    2    0    0  0.18960550578E+02 -0.22890742699E+02  0.31624891658E+02  0.47787281666E+02  0.20000048428E+02 0.  0.
         12    1    1    2    0    0 -0.18960550578E+02  0.22890742699E+02 -0.31624891658E+02  0.43400718334E+02  0.00000000000E+00 0. -1.
         11    1    3    3    0    0 -0.71522025439E+00  0.68077001302E+00  0.14218429144E+00  0.99759934682E+00  0.51100000000E-03 0. -1.
        -11    1    3    3    0    0  0.13024502951E+02 -0.24381204283E+02  0.27518380118E+02  0.39004384933E+02  0.51100000000E-03 0.  1.
         12    1    3    3    0    0  0.66512678806E+01  0.80969157088E+00  0.39643272480E+01  0.77852973860E+01  0.00000000000E+00 0. -1.
</event>
<event>
 7    1  0.1631716E-009  0.4778727E+02  0.7816164E-02  0.1312668E+00
        -11   -1    0    0    0    0  0.00000000000E+00  0.00000000000E+00  0.45593999997E+02  0.45594000000E+02  0.51100000000E-03 0.  1.
         11   -1    0    0    0    0 -0.00000000000E+00 -0.00000000000E+00 -0.45593999997E+02  0.45594000000E+02  0.51100000000E-03 0. -1.
    9900012    2    1    2    0    0  0.15426041287E+02  0.18636117683E+02  0.36032702577E+02  0.47787270892E+02  0.19999999304E+02 0.  0.
         12    1    1    2    0    0 -0.15426041287E+02 -0.18636117683E+02 -0.36032702577E+02  0.43400729108E+02  0.00000000000E+00 0. -1.
         11    1    3    3    0    0  0.94764707395E-01  0.27983160412E+01 -0.79625404393E-01  0.28010522098E+01  0.51100000000E-03 0. -1.
        -11    1    3    3    0    0  0.77358468507E+01  0.16361045250E+02  0.30727336748E+02  0.35660851813E+02  0.51100000000E-03 0.  1.
         12    1    3    3    0    0  0.75954297294E+01 -0.52324360773E+00  0.53849912339E+01  0.93253668687E+01  0.00000000000E+00 0. -1.
</event>
<event>
 7    1  0.1631716E-009  0.4778727E+02  0.7816164E-02  0.1312668E+00
        -11   -1    0    0    0    0  0.00000000000E+00  0.00000000000E+00  0.45593999997E+02  0.45594000000E+02  0.51100000000E-03 0. -1.
         11   -1    0    0    0    0 -0.00000000000E+00 -0.00000000000E+00 -0.45593999997E+02  0.45594000000E+02  0.51100000000E-03 0.  1.
    9900012    2    1    2    0    0  0.38962853582E+02  0.16330845748E+01 -0.19048683571E+02  0.47787271086E+02  0.20000000188E+02 0.  0.
         12    1    1    2    0    0 -0.38962853582E+02 -0.16330845748E+01  0.19048683571E+02  0.43400728914E+02  0.00000000000E+00 0. -1.
         11    1    3    3    0    0  0.77743763876E+01 -0.31631147414E+01 -0.17416425201E+01  0.85720208826E+01  0.51100000000E-03 0. -1.
        -11    1    3    3    0    0  0.15562141339E+01  0.53212402922E+01 -0.24166716571E+01  0.60479503005E+01  0.51100000000E-03 0.  1.
        -12    1    3    3    0    0  0.29632263061E+02 -0.52504097601E+00 -0.14890369394E+02  0.33167299903E+02  0.00000000000E+00 0.  1.
</event>
<event>
 7    1  0.1631716E-009  0.4778728E+02  0.7816164E-02  0.1312668E+00
        -11   -1    0    0    0    0  0.00000000000E+00  0.00000000000E+00  0.45593999997E+02  0.45594000000E+02  0.51100000000E-03 0. -1.
         11   -1    0    0    0    0 -0.00000000000E+00 -0.00000000000E+00 -0.45593999997E+02  0.45594000000E+02  0.51100000000E-03 0.  1.
    9900012    2    1    2    0    0  0.83202557726E+01 -0.13684578162E+02 -0.40337676285E+02  0.47787280379E+02  0.20000042558E+02 0.  0.
         12    1    1    2    0    0 -0.83202557726E+01  0.13684578162E+02  0.40337676285E+02  0.43400719621E+02  0.00000000000E+00 0. -1.
         11    1    3    3    0    0  0.47359935952E+01 -0.89732357830E+01 -0.59388298497E+01  0.11756627748E+02  0.51100000000E-03 0. -1.
        -11    1    3    3    0    0  0.23737013761E+01 -0.72826666395E+01 -0.21537449498E+02  0.22858989977E+02  0.51100000000E-03 0.  1.
        -12    1    3    3    0    0  0.12105608014E+01  0.25713242607E+01 -0.12861396937E+02  0.13171662654E+02  0.00000000000E+00 0.  1.
</event>
<event>
 7    1  0.1631716E-009  0.4778726E+02  0.7816164E-02  0.1312668E+00
        -11   -1    0    0    0    0  0.00000000000E+00  0.00000000000E+00  0.45593999997E+02  0.45594000000E+02  0.51100000000E-03 0.  1.
         11   -1    0    0    0    0 -0.00000000000E+00 -0.00000000000E+00 -0.45593999997E+02  0.45594000000E+02  0.51100000000E-03 0. -1.
    9900012    2    1    2    0    0 -0.11999521259E+02 -0.35015500899E+02  0.22661651436E+02  0.47787259690E+02  0.19999948231E+02 0.  0.
         12    1    1    2    0    0  0.11999521259E+02  0.35015500899E+02 -0.22661651436E+02  0.43400740310E+02  0.00000000000E+00 0. -1.
         11    1    3    3    0    0 -0.14759270681E+02 -0.22242092435E+02  0.17927958355E+02  0.32155224116E+02  0.51100000000E-03 0. -1.
        -11    1    3    3    0    0  0.14846855612E+01 -0.17816217951E+01  0.38971029431E+01  0.45349618572E+01  0.51100000000E-03 0.  1.
        -12    1    3    3    0    0  0.12750638602E+01 -0.10991786669E+02  0.83659013819E+00  0.11097073717E+02  0.00000000000E+00 0.  1.
</event>
<event>
 7    1  0.1631716E-009  0.4778727E+02  0.7816164E-02  0.1312668E+00
        -11   -1    0    0    0    0  0.00000000000E+00  0.00000000000E+00  0.45593999997E+02  0.45594000000E+02  0.51100000000E-03 0.  1.
         11   -1    0    0    0    0 -0.00000000000E+00 -0.00000000000E+00 -0.45593999997E+02  0.45594000000E+02  0.51100000000E-03 0. -1.
    9900012    2    1    2    0    0  0.13821814781E+02  0.20447099862E+02  0.35700096653E+02  0.47787270080E+02  0.19999995601E+02 0.  0.
         12    1    1    2    0    0 -0.13821814781E+02 -0.20447099862E+02 -0.35700096653E+02  0.43400729920E+02  0.00000000000E+00 0. -1.
         11    1    3    3    0    0  0.86911291472E+01  0.15541897850E+02  0.13910741504E+02  0.22596350238E+02  0.51100000000E-03 0. -1.
        -11    1    3    3    0    0 -0.30290282523E+01  0.26209091335E+01  0.52104208021E+01  0.65721124485E+01  0.51100000000E-03 0.  1.
         12    1    3    3    0    0  0.81597138861E+01  0.22842928781E+01  0.16578934347E+02  0.18618807393E+02  0.00000000000E+00 0. -1.
</event>
<event>
 7    1  0.1936747E-009  0.4778727E+02  0.7816164E-02  0.1312668E+00
        -11   -1    0    0    0    0  0.00000000000E+00  0.00000000000E+00  0.45593999997E+02  0.45594000000E+02  0.51100000000E-03 0.  1.
         11   -1    0    0    0    0 -0.00000000000E+00 -0.00000000000E+00 -0.45593999997E+02  0.45594000000E+02  0.51100000000E-03 0. -1.
    9900012    2    1    2    0    0 -0.24422036531E+02  0.14650671844E+02  0.32749731131E+02  0.47787274856E+02  0.20000017380E+02 0.  0.
         12    1    1    2    0    0  0.24422036531E+02 -0.14650671844E+02 -0.32749731131E+02  0.43400725144E+02  0.00000000000E+00 0. -1.
         11    1    3    3    0    0  0.18012799504E+01  0.54424067073E+01  0.21884276021E+01  0.61362542205E+01  0.51100000000E-03 0. -1.
        -11    1    3    3    0    0 -0.98002626071E+01  0.59857943939E+01  0.10926566252E+02  0.15851332184E+02  0.51100000000E-03 0.  1.
         12    1    3    3    0    0 -0.16423053874E+02  0.32224707430E+01  0.19634737278E+02  0.25799688452E+02  0.00000000000E+00 0. -1.
</event>
<event>
 7    1  0.1631716E-009  0.4778727E+02  0.7816164E-02  0.1312668E+00
        -11   -1    0    0    0    0  0.00000000000E+00  0.00000000000E+00  0.45593999997E+02  0.45594000000E+02  0.51100000000E-03 0.  1.
         11   -1    0    0    0    0 -0.00000000000E+00 -0.00000000000E+00 -0.45593999997E+02  0.45594000000E+02  0.51100000000E-03 0. -1.
    9900012    2    1    2    0    0  0.26216724425E+02  0.18924532998E+02  0.28951143485E+02  0.47787270768E+02  0.19999998740E+02 0.  0.
         12    1    1    2    0    0 -0.26216724425E+02 -0.18924532998E+02 -0.28951143485E+02  0.43400729232E+02  0.00000000000E+00 0. -1.
         11    1    3    3    0    0  0.49267107712E+01  0.73734260460E+01  0.78868432570E+00  0.89029160339E+01  0.51100000000E-03 0. -1.
        -11    1    3    3    0    0  0.88326367400E+01  0.66678564111E+01  0.50199243988E+01  0.12152177670E+02  0.51100000000E-03 0.  1.
         12    1    3    3    0    0  0.12457376914E+02  0.48832505404E+01  0.23142534761E+02  0.26732177064E+02  0.00000000000E+00 0. -1.
</event>
<event>
 7    1  0.1631716E-009  0.4778727E+02  0.7816164E-02  0.1312668E+00
        -11   -1    0    0    0    0  0.00000000000E+00  0.00000000000E+00  0.45593999997E+02  0.45594000000E+02  0.51100000000E-03 0. -1.
         11   -1    0    0    0    0 -0.00000000000E+00 -0.00000000000E+00 -0.45593999997E+02  0.45594000000E+02  0.51100000000E-03 0.  1.
    9900012    2    1    2    0    0 -0.14741850757E+02  0.40806097990E+02 -0.10784932580E+01  0.47787274838E+02  0.20000017296E+02 0.  0.
         12    1    1    2    0    0  0.14741850757E+02 -0.40806097990E+02  0.10784932580E+01  0.43400725162E+02  0.00000000000E+00 0. -1.
         11    1    3    3    0    0 -0.24257558191E+01  0.90318666047E+01 -0.32063336547E+01  0.98863280051E+01  0.51100000000E-03 0. -1.
        -11    1    3    3    0    0 -0.13196472326E+02  0.25079769946E+02 -0.41974445724E+01  0.28648914178E+02  0.51100000000E-03 0.  1.
         12    1    3    3    0    0  0.88037738734E+00  0.66944614392E+01  0.63252849691E+01  0.92520326548E+01  0.00000000000E+00 0. -1.
</event>
<event>
 7    1  0.1631716E-009  0.4778726E+02  0.7816164E-02  0.1312668E+00
        -11   -1    0    0    0    0  0.00000000000E+00  0.00000000000E+00  0.45593999997E+02  0.45594000000E+02  0.51100000000E-03 0. -1.
         11   -1    0    0    0    0 -0.00000000000E+00 -0.00000000000E+00 -0.45593999997E+02  0.45594000000E+02  0.51100000000E-03 0.  1.
    9900012    2    1    2    0    0 -0.26801827418E+02 -0.34135023913E+02  0.29329868057E+00  0.47787264585E+02  0.19999970547E+02 0.  0.
         12    1    1    2    0    0  0.26801827418E+02  0.34135023913E+02 -0.29329868057E+00  0.43400735415E+02  0.00000000000E+00 0. -1.
         11    1    3    3    0    0 -0.12675009268E+02 -0.60211308543E+01  0.25376754299E+01  0.14260072705E+02  0.51100000000E-03 0. -1.
        -11    1    3    3    0    0 -0.10831197347E+02 -0.12252404901E+02  0.27314397945E+01  0.16580018861E+02  0.51100000000E-03 0.  1.
        -12    1    3    3    0    0 -0.32956208042E+01 -0.15861488157E+02 -0.49758165438E+01  0.16947173019E+02  0.00000000000E+00 0.  1.
</event>
<event>
 7    1  0.1631716E-009  0.4778727E+02  0.7816164E-02  0.1312668E+00
        -11   -1    0    0    0    0  0.00000000000E+00  0.00000000000E+00  0.45593999997E+02  0.45594000000E+02  0.51100000000E-03 0.  1.
         11   -1    0    0    0    0 -0.00000000000E+00 -0.00000000000E+00 -0.45593999997E+02  0.45594000000E+02  0.51100000000E-03 0. -1.
    9900012    2    1    2    0    0 -0.10672530198E+02 -0.23849053643E+02 -0.34654621315E+02  0.47787273750E+02  0.20000012336E+02 0.  0.
         12    1    1    2    0    0  0.10672530198E+02  0.23849053643E+02  0.34654621315E+02  0.43400726250E+02  0.00000000000E+00 0. -1.
         11    1    3    3    0    0  0.24402802277E+01 -0.29836045034E-01 -0.57442212326E+01  0.62411485809E+01  0.51100000000E-03 0. -1.
        -11    1    3    3    0    0 -0.33441275706E+01 -0.15447539316E+02 -0.21548428028E+02  0.26723480516E+02  0.51100000000E-03 0.  1.
        -12    1    3    3    0    0 -0.97686828550E+01 -0.83716782825E+01 -0.73619720548E+01  0.14822644653E+02  0.00000000000E+00 0.  1.
</event>
<event>
 7    1  0.1631716E-009  0.4778728E+02  0.7816164E-02  0.1312668E+00
        -11   -1    0    0    0    0  0.00000000000E+00  0.00000000000E+00  0.45593999997E+02  0.45594000000E+02  0.51100000000E-03 0.  1.
         11   -1    0    0    0    0 -0.00000000000E+00 -0.00000000000E+00 -0.45593999997E+02  0.45594000000E+02  0.51100000000E-03 0. -1.
    9900012    2    1    2    0    0  0.35874870300E+02  0.42710713805E+01  0.24049410619E+02  0.47787279719E+02  0.20000039550E+02 0.  0.
         12    1    1    2    0    0 -0.35874870300E+02 -0.42710713805E+01 -0.24049410619E+02  0.43400720281E+02  0.00000000000E+00 0. -1.
         11    1    3    3    0    0  0.19703110741E+02  0.96958558811E+01  0.67171434621E+01  0.22963932823E+02  0.51100000000E-03 0.  1.
        -11    1    3    3    0    0  0.12757361570E+02 -0.20495823737E+01  0.11800004310E+02  0.17498318894E+02  0.51100000000E-03 0. -1.
        -12    1    3    3    0    0  0.34143979891E+01 -0.33752021269E+01  0.55322628471E+01  0.73250280023E+01  0.00000000000E+00 0.  1.
</event>
<event>
 7    1  0.1631716E-009  0.4778727E+02  0.7816164E-02  0.1312668E+00
        -11   -1    0    0    0    0  0.00000000000E+00  0.00000000000E+00  0.45593999997E+02  0.45594000000E+02  0.51100000000E-03 0. -1.
         11   -1    0    0    0    0 -0.00000000000E+00 -0.00000000000E+00 -0.45593999997E+02  0.45594000000E+02  0.51100000000E-03 0.  1.
    9900012    2    1    2    0    0  0.30791979865E+01 -0.42818498736E+02  0.63810602087E+01  0.47787271623E+02  0.20000002639E+02 0.  0.
         12    1    1    2    0    0 -0.30791979865E+01  0.42818498736E+02 -0.63810602087E+01  0.43400728377E+02  0.00000000000E+00 0. -1.
         11    1    3    3    0    0 -0.43670862557E+01 -0.41661919830E+01  0.14359737842E+01  0.62040808323E+01  0.51100000000E-03 0. -1.
        -11    1    3    3    0    0 -0.11467248043E+01 -0.24697444452E+00 -0.12831161361E+01  0.17384940129E+01  0.51100000000E-03 0.  1.
        -12    1    3    3    0    0  0.85930090466E+01 -0.38405332308E+02  0.62282025606E+01  0.39844696778E+02  0.00000000000E+00 0.  1.
</event>
<event>
 7    1  0.1631716E-009  0.4778727E+02  0.7816164E-02  0.1312668E+00
        -11   -1    0    0    0    0  0.00000000000E+00  0.00000000000E+00  0.45593999997E+02  0.45594000000E+02  0.51100000000E-03 0. -1.
         11   -1    0    0    0    0 -0.00000000000E+00 -0.00000000000E+00 -0.45593999997E+02  0.45594000000E+02  0.51100000000E-03 0.  1.
    9900012    2    1    2    0    0 -0.12098251385E+02  0.41273187828E+02  0.58120233384E+01  0.47787270336E+02  0.19999996771E+02 0.  0.
         12    1    1    2    0    0  0.12098251385E+02 -0.41273187828E+02 -0.58120233384E+01  0.43400729664E+02  0.00000000000E+00 0. -1.
         11    1    3    3    0    0 -0.14133210410E+01  0.14236162642E+02  0.61502327986E+01  0.15572127885E+02  0.51100000000E-03 0.  1.
        -11    1    3    3    0    0 -0.13391590878E+02  0.16815667730E+02  0.12008853266E+01  0.21530060690E+02  0.51100000000E-03 0. -1.
         12    1    3    3    0    0  0.27066605343E+01  0.10221357455E+02 -0.15390947868E+01  0.10685081761E+02  0.00000000000E+00 0. -1.
</event>
<event>
 7    1  0.1631716E-009  0.4778727E+02  0.7816164E-02  0.1312668E+00
        -11   -1    0    0    0    0  0.00000000000E+00  0.00000000000E+00  0.45593999997E+02  0.45594000000E+02  0.51100000000E-03 0.  1.
         11   -1    0    0    0    0 -0.00000000000E+00 -0.00000000000E+00 -0.45593999997E+02  0.45594000000E+02  0.51100000000E-03 0. -1.
    9900012    2    1    2    0    0  0.22316777755E+02  0.29554153889E+02 -0.22630437200E+02  0.47787271097E+02  0.20000000241E+02 0.  0.
         12    1    1    2    0    0 -0.22316777755E+02 -0.29554153889E+02  0.22630437200E+02  0.43400728903E+02  0.00000000000E+00 0. -1.
         11    1    3    3    0    0  0.71088718442E+01  0.64654544659E+01 -0.75768608437E+01  0.12237114891E+02  0.51100000000E-03 0. -1.
        -11    1    3    3    0    0  0.28508101494E+01  0.96688550709E+01  0.23357061095E+01  0.10347434473E+02  0.51100000000E-03 0.  1.
        -12    1    3    3    0    0  0.12357095761E+02  0.13419844352E+02 -0.17389282466E+02  0.25202721733E+02  0.00000000000E+00 0.  1.
</event>
<event>
 7    1  0.1631716E-009  0.4778727E+02  0.7816164E-02  0.1312668E+00
        -11   -1    0    0    0    0  0.00000000000E+00  0.00000000000E+00  0.45593999997E+02  0.45594000000E+02  0.51100000000E-03 0.  1.
         11   -1    0    0    0    0 -0.00000000000E+00 -0.00000000000E+00 -0.45593999997E+02  0.45594000000E+02  0.51100000000E-03 0. -1.
    9900012    2    1    2    0    0 -0.81768070114E+01  0.22651999014E+02  0.36106091817E+02  0.47787273065E+02  0.20000009211E+02 0.  0.
         12    1    1    2    0    0  0.81768070114E+01 -0.22651999014E+02 -0.36106091817E+02  0.43400726935E+02  0.00000000000E+00 0. -1.
         11    1    3    3    0    0 -0.16298948694E+01  0.48059567276E+00 -0.44907951640E+00  0.17576126306E+01  0.51100000000E-03 0. -1.
        -11    1    3    3    0    0 -0.45066191173E+01  0.22399683938E+02  0.37385782710E+02  0.43814976954E+02  0.51100000000E-03 0.  1.
        -12    1    3    3    0    0 -0.20402930246E+01 -0.22828059689E+00 -0.83061137677E+00  0.22146834800E+01  0.00000000000E+00 0.  1.
</event>
<event>
 7    1  0.1631716E-009  0.4778727E+02  0.7816164E-02  0.1312668E+00
        -11   -1    0    0    0    0  0.00000000000E+00  0.00000000000E+00  0.45593999997E+02  0.45594000000E+02  0.51100000000E-03 0. -1.
         11   -1    0    0    0    0 -0.00000000000E+00 -0.00000000000E+00 -0.45593999997E+02  0.45594000000E+02  0.51100000000E-03 0.  1.
    9900012    2    1    2    0    0 -0.66326866229E+01  0.22528456303E+02 -0.36497933901E+02  0.47787273575E+02  0.20000011536E+02 0.  0.
         12    1    1    2    0    0  0.66326866229E+01 -0.22528456303E+02  0.36497933901E+02  0.43400726425E+02  0.00000000000E+00 0. -1.
         11    1    3    3    0    0  0.30499638867E+01 -0.19172359584E+01 -0.73012450471E+01  0.81416369933E+01  0.51100000000E-03 0. -1.
        -11    1    3    3    0    0 -0.54261559327E+01  0.77725580343E+01 -0.12302073103E+02  0.15530512854E+02  0.51100000000E-03 0.  1.
        -12    1    3    3    0    0 -0.42564945769E+01  0.16673134227E+02 -0.16894615751E+02  0.24115123728E+02  0.00000000000E+00 0.  1.
</event>
<event>
 7    1  0.1631716E-009  0.4778727E+02  0.7816164E-02  0.1312668E+00
        -11   -1    0    0    0    0  0.00000000000E+00  0.00000000000E+00  0.45593999997E+02  0.45594000000E+02  0.51100000000E-03 0. -1.
         11   -1    0    0    0    0 -0.00000000000E+00 -0.00000000000E+00 -0.45593999997E+02  0.45594000000E+02  0.51100000000E-03 0.  1.
    9900012    2    1    2    0    0  0.41353590439E+02 -0.80219198309E+00  0.13147651002E+02  0.47787266354E+02  0.19999978612E+02 0.  0.
         12    1    1    2    0    0 -0.41353590439E+02  0.80219198309E+00 -0.13147651002E+02  0.43400733646E+02  0.00000000000E+00 0. -1.
         11    1    3    3    0    0  0.20106045846E+02 -0.35325509473E+01  0.12651203652E+02  0.24016347555E+02  0.51100000000E-03 0. -1.
        -11    1    3    3    0    0  0.18962865628E+02 -0.13946990652E+01  0.92082162829E+00  0.19036369692E+02  0.51100000000E-03 0.  1.
        -12    1    3    3    0    0  0.22846789647E+01  0.41250580294E+01 -0.42437427840E+00  0.47345491069E+01  0.00000000000E+00 0.  1.
</event>
<event>
 7    1  0.1812501E-009  0.4778728E+02  0.7816164E-02  0.1312668E+00
        -11   -1    0    0    0    0  0.00000000000E+00  0.00000000000E+00  0.45593999997E+02  0.45594000000E+02  0.51100000000E-03 0.  1.
         11   -1    0    0    0    0 -0.00000000000E+00 -0.00000000000E+00 -0.45593999997E+02  0.45594000000E+02  0.51100000000E-03 0. -1.
    9900012    2    1    2    0    0 -0.99472428898E+01 -0.42027896930E+02  0.42814840853E+01  0.47787275726E+02  0.20000021347E+02 0.  0.
         12    1    1    2    0    0  0.99472428898E+01  0.42027896930E+02 -0.42814840853E+01  0.43400724274E+02  0.00000000000E+00 0. -1.
         11    1    3    3    0    0  0.28869509356E+00 -0.36199155726E+01  0.45281747025E+01  0.58044379579E+01  0.51100000000E-03 0. -1.
        -11    1    3    3    0    0 -0.57242977475E+01 -0.36442209075E+02  0.10127116618E+01  0.36902950724E+02  0.51100000000E-03 0.  1.
         12    1    3    3    0    0 -0.45116402359E+01 -0.19657722829E+01 -0.12594022790E+01  0.50798870447E+01  0.00000000000E+00 0. -1.
</event>
<event>
 7    1  0.1631716E-009  0.4778727E+02  0.7816164E-02  0.1312668E+00
        -11   -1    0    0    0    0  0.00000000000E+00  0.00000000000E+00  0.45593999997E+02  0.45594000000E+02  0.51100000000E-03 0. -1.
         11   -1    0    0    0    0 -0.00000000000E+00 -0.00000000000E+00 -0.45593999997E+02  0.45594000000E+02  0.51100000000E-03 0.  1.
    9900012    2    1    2    0    0 -0.19474583140E+02 -0.39242604399E+01 -0.38587093396E+02  0.47787274370E+02  0.20000015161E+02 0.  0.
         12    1    1    2    0    0  0.19474583140E+02  0.39242604399E+01  0.38587093396E+02  0.43400725630E+02  0.00000000000E+00 0. -1.
         11    1    3    3    0    0 -0.31356792985E+01  0.87314169381E+00 -0.30126347766E+01  0.44351809026E+01  0.51100000000E-03 0. -1.
        -11    1    3    3    0    0 -0.13628241543E+02 -0.91208242325E+01 -0.34410311654E+02  0.38118079052E+02  0.51100000000E-03 0.  1.
         12    1    3    3    0    0 -0.27106622989E+01  0.43234220988E+01 -0.11641469658E+01  0.52340144154E+01  0.00000000000E+00 0. -1.
</event>
<event>
 7    1  0.1631716E-009  0.4778727E+02  0.7816164E-02  0.1312668E+00
        -11   -1    0    0    0    0  0.00000000000E+00  0.00000000000E+00  0.45593999997E+02  0.45594000000E+02  0.51100000000E-03 0. -1.
         11   -1    0    0    0    0 -0.00000000000E+00 -0.00000000000E+00 -0.45593999997E+02  0.45594000000E+02  0.51100000000E-03 0.  1.
    9900012    2    1    2    0    0 -0.87422480832E+00  0.30055355822E+01 -0.43287709641E+02  0.47787270523E+02  0.19999997625E+02 0.  0.
         12    1    1    2    0    0  0.87422480832E+00 -0.30055355822E+01  0.43287709641E+02  0.43400729477E+02  0.00000000000E+00 0. -1.
         11    1    3    3    0    0 -0.57690265660E+01 -0.98588520030E+00 -0.25576568039E+01  0.63871156037E+01  0.51100000000E-03 0. -1.
        -11    1    3    3    0    0  0.73583381473E+00  0.27849281454E+01 -0.21265917749E+02  0.21460114961E+02  0.51100000000E-03 0.  1.
         12    1    3    3    0    0  0.41589679429E+01  0.12064926372E+01 -0.19464135088E+02  0.19940039959E+02  0.00000000000E+00 0. -1.
</event>
<event>
 7    1  0.1631716E-009  0.4778727E+02  0.7816164E-02  0.1312668E+00
        -11   -1    0    0    0    0  0.00000000000E+00  0.00000000000E+00  0.45593999997E+02  0.45594000000E+02  0.51100000000E-03 0.  1.
         11   -1    0    0    0    0 -0.00000000000E+00 -0.00000000000E+00 -0.45593999997E+02  0.45594000000E+02  0.51100000000E-03 0. -1.
    9900012    2    1    2    0    0  0.22256899763E+02  0.24560293061E+02  0.28018669865E+02  0.47787269092E+02  0.19999991099E+02 0.  0.
         12    1    1    2    0    0 -0.22256899763E+02 -0.24560293061E+02 -0.28018669865E+02  0.43400730908E+02  0.00000000000E+00 0. -1.
         11    1    3    3    0    0  0.10459416334E+00  0.80720994903E+01  0.56260067566E+01  0.98398009333E+01  0.51100000000E-03 0. -1.
        -11    1    3    3    0    0  0.14383824301E+02  0.99167301431E+01  0.21542993805E+02  0.27736916206E+02  0.51100000000E-03 0.  1.
         12    1    3    3    0    0  0.77684812986E+01  0.65714634275E+01  0.84966930368E+00  0.10210551953E+02  0.00000000000E+00 0. -1.
</event>
<event>
 7    1  0.1631716E-009  0.4778727E+02  0.7816164E-02  0.1312668E+00
        -11   -1    0    0    0    0  0.00000000000E+00  0.00000000000E+00  0.45593999997E+02  0.45594000000E+02  0.51100000000E-03 0. -1.
         11   -1    0    0    0    0 -0.00000000000E+00 -0.00000000000E+00 -0.45593999997E+02  0.45594000000E+02  0.51100000000E-03 0.  1.
    9900012    2    1    2    0    0 -0.24161334672E+02 -0.32513365723E+02 -0.15579924740E+02  0.47787273063E+02  0.20000009205E+02 0.  0.
         12    1    1    2    0    0  0.24161334672E+02  0.32513365723E+02  0.15579924740E+02  0.43400726937E+02  0.00000000000E+00 0. -1.
         11    1    3    3    0    0 -0.16090368558E+02 -0.13617081271E+02 -0.56435180312E+01  0.21821415140E+02  0.51100000000E-03 0. -1.
        -11    1    3    3    0    0 -0.10203056987E+02 -0.92627264013E+01 -0.79233842735E+01  0.15895926864E+02  0.51100000000E-03 0.  1.
        -12    1    3    3    0    0  0.21320908738E+01 -0.96335580507E+01 -0.20130224348E+01  0.10069931059E+02  0.00000000000E+00 0.  1.
</event>
<event>
 7    1  0.1631716E-009  0.4778727E+02  0.7816164E-02  0.1312668E+00
        -11   -1    0    0    0    0  0.00000000000E+00  0.00000000000E+00  0.45593999997E+02  0.45594000000E+02  0.51100000000E-03 0.  1.
         11   -1    0    0    0    0 -0.00000000000E+00 -0.00000000000E+00 -0.45593999997E+02  0.45594000000E+02  0.51100000000E-03 0. -1.
    9900012    2    1    2    0    0 -0.12639384522E+02 -0.35145779979E+02  0.22105282094E+02  0.47787269731E+02  0.19999994012E+02 0.  0.
         12    1    1    2    0    0  0.12639384522E+02  0.35145779979E+02 -0.22105282094E+02  0.43400730269E+02  0.00000000000E+00 0. -1.
         11    1    3    3    0    0  0.12707031051E+01 -0.79246503388E+01  0.45112266744E+01  0.92068417898E+01  0.51100000000E-03 0. -1.
        -11    1    3    3    0    0 -0.15266027674E+02 -0.25257796438E+02  0.10879081923E+02  0.31454130184E+02  0.51100000000E-03 0.  1.
        -12    1    3    3    0    0  0.13559400471E+01 -0.19633332019E+01  0.67149734963E+01  0.71262977575E+01  0.00000000000E+00 0.  1.
</event>
<event>
 7    1  0.1631716E-009  0.4778727E+02  0.7816164E-02  0.1312668E+00
        -11   -1    0    0    0    0  0.00000000000E+00  0.00000000000E+00  0.45593999997E+02  0.45594000000E+02  0.51100000000E-03 0. -1.
         11   -1    0    0    0    0 -0.00000000000E+00 -0.00000000000E+00 -0.45593999997E+02  0.45594000000E+02  0.51100000000E-03 0.  1.
    9900012    2    1    2    0    0  0.43273075815E+02  0.11040442699E+01  0.31377179405E+01  0.47787270996E+02  0.19999999778E+02 0.  0.
         12    1    1    2    0    0 -0.43273075815E+02 -0.11040442699E+01 -0.31377179405E+01  0.43400729004E+02  0.00000000000E+00 0. -1.
         11    1    3    3    0    0  0.25199889122E+02  0.10093548104E+01 -0.16956242693E+01  0.25277032081E+02  0.51100000000E-03 0. -1.
        -11    1    3    3    0    0  0.13839484296E+02  0.50982316757E+01  0.58709848693E+01  0.15874248184E+02  0.51100000000E-03 0.  1.
         12    1    3    3    0    0  0.42337023964E+01 -0.50035422162E+01 -0.10376426594E+01  0.66359907308E+01  0.00000000000E+00 0. -1.
</event>
<event>
 7    1  0.1631716E-009  0.4778727E+02  0.7816164E-02  0.1312668E+00
        -11   -1    0    0    0    0  0.00000000000E+00  0.00000000000E+00  0.45593999997E+02  0.45594000000E+02  0.51100000000E-03 0.  1.
         11   -1    0    0    0    0 -0.00000000000E+00 -0.00000000000E+00 -0.45593999997E+02  0.45594000000E+02  0.51100000000E-03 0. -1.
    9900012    2    1    2    0    0  0.39442699195E+02 -0.18049166624E+02  0.14576855428E+01  0.47787265182E+02  0.19999973271E+02 0.  0.
         12    1    1    2    0    0 -0.39442699195E+02  0.18049166624E+02 -0.14576855428E+01  0.43400734818E+02  0.00000000000E+00 0. -1.
         11    1    3    3    0    0  0.23021911807E+01 -0.47737031695E+01  0.20699056312E+01  0.56897131532E+01  0.51100000000E-03 0. -1.
        -11    1    3    3    0    0  0.29730913804E+02 -0.76693822515E+01  0.51951023688E+01  0.31140580415E+02  0.51100000000E-03 0.  1.
         12    1    3    3    0    0  0.74095942104E+01 -0.56060812034E+01 -0.58073224572E+01  0.10956971614E+02  0.00000000000E+00 0. -1.
</event>
<event>
 7    1  0.1631716E-009  0.4778727E+02  0.7816164E-02  0.1312668E+00
        -11   -1    0    0    0    0  0.00000000000E+00  0.00000000000E+00  0.45593999997E+02  0.45594000000E+02  0.51100000000E-03 0.  1.
         11   -1    0    0    0    0 -0.00000000000E+00 -0.00000000000E+00 -0.45593999997E+02  0.45594000000E+02  0.51100000000E-03 0. -1.
    9900012    2    1    2    0    0 -0.81471335134E+01 -0.12098779636E+02  0.40876240627E+02  0.47787270732E+02  0.19999998576E+02 0.  0.
         12    1    1    2    0    0  0.81471335134E+01  0.12098779636E+02 -0.40876240627E+02  0.43400729268E+02  0.00000000000E+00 0. -1.
         11    1    3    3    0    0 -0.72642528957E+01 -0.11452192326E+02  0.28942295432E+02  0.31962142361E+02  0.51100000000E-03 0. -1.
        -11    1    3    3    0    0 -0.55855309399E+01 -0.91090066771E+00  0.59792857807E+01  0.82328460823E+01  0.51100000000E-03 0.  1.
         12    1    3    3    0    0  0.47026503222E+01  0.26431335708E+00  0.59546594146E+01  0.75922822885E+01  0.00000000000E+00 0. -1.
</event>
<event>
 7    1  0.1631716E-009  0.4778728E+02  0.7816164E-02  0.1312668E+00
        -11   -1    0    0    0    0  0.00000000000E+00  0.00000000000E+00  0.45593999997E+02  0.45594000000E+02  0.51100000000E-03 0.  1.
         11   -1    0    0    0    0 -0.00000000000E+00 -0.00000000000E+00 -0.45593999997E+02  0.45594000000E+02  0.51100000000E-03 0. -1.
    9900012    2    1    2    0    0  0.24192545498E+02  0.16553028327E+02  0.32005317119E+02  0.47787281937E+02  0.20000049664E+02 0.  0.
         12    1    1    2    0    0 -0.24192545498E+02 -0.16553028327E+02 -0.32005317119E+02  0.43400718063E+02  0.00000000000E+00 0. -1.
         11    1    3    3    0    0 -0.95290357633E+00  0.88392139730E+00 -0.90708356941E+00  0.15849741718E+01  0.51100000000E-03 0. -1.
        -11    1    3    3    0    0  0.10614669765E+02  0.21613789287E+01  0.19331954746E+02  0.22160037176E+02  0.51100000000E-03 0.  1.
         12    1    3    3    0    0  0.14530779310E+02  0.13507728001E+02  0.13580445943E+02  0.24042270589E+02  0.00000000000E+00 0. -1.
</event>
<event>
 7    1  0.1631716E-009  0.4778723E+02  0.7816164E-02  0.1312668E+00
        -11   -1    0    0    0    0  0.00000000000E+00  0.00000000000E+00  0.45593999997E+02  0.45594000000E+02  0.51100000000E-03 0. -1.
         11   -1    0    0    0    0 -0.00000000000E+00 -0.00000000000E+00 -0.45593999997E+02  0.45594000000E+02  0.51100000000E-03 0.  1.
    9900012    2    1    2    0    0 -0.27900338226E+02 -0.27290867192E+01 -0.33132311562E+02  0.47787229766E+02  0.19999811795E+02 0.  0.
         12    1    1    2    0    0  0.27900338226E+02  0.27290867192E+01  0.33132311562E+02  0.43400770234E+02  0.00000000000E+00 0. -1.
         11    1    3    3    0    0 -0.74301203360E+00  0.26509880721E+01 -0.11249525117E+01  0.29741087833E+01  0.51100000000E-03 0. -1.
        -11    1    3    3    0    0 -0.16526376616E+02 -0.10464507525E+02 -0.19201870392E+02  0.27410561260E+02  0.51100000000E-03 0.  1.
        -12    1    3    3    0    0 -0.10630949577E+02  0.50844327337E+01 -0.12805488659E+02  0.17402559723E+02  0.00000000000E+00 0.  1.
</event>
<event>
 7    1  0.1631716E-009  0.4778727E+02  0.7816164E-02  0.1312668E+00
        -11   -1    0    0    0    0  0.00000000000E+00  0.00000000000E+00  0.45593999997E+02  0.45594000000E+02  0.51100000000E-03 0.  1.
         11   -1    0    0    0    0 -0.00000000000E+00 -0.00000000000E+00 -0.45593999997E+02  0.45594000000E+02  0.51100000000E-03 0. -1.
    9900012    2    1    2    0    0  0.42130155632E+02 -0.10409749004E+02  0.55718186130E+00  0.47787270288E+02  0.19999996549E+02 0.  0.
         12    1    1    2    0    0 -0.42130155632E+02  0.10409749004E+02 -0.55718186130E+00  0.43400729712E+02  0.00000000000E+00 0. -1.
         11    1    3    3    0    0  0.17717769093E+02 -0.77957557113E+01 -0.35012443673E+00  0.19360158474E+02  0.51100000000E-03 0. -1.
        -11    1    3    3    0    0  0.15418043036E+02 -0.73635120316E+01 -0.33313899239E+01  0.17407915429E+02  0.51100000000E-03 0.  1.
         12    1    3    3    0    0  0.89943435029E+01  0.47495187384E+01  0.42386962219E+01  0.11019196384E+02  0.00000000000E+00 0. -1.
</event>
<event>
 7    1  0.1631716E-009  0.4778730E+02  0.7816164E-02  0.1312668E+00
        -11   -1    0    0    0    0  0.00000000000E+00  0.00000000000E+00  0.45593999997E+02  0.45594000000E+02  0.51100000000E-03 0. -1.
         11   -1    0    0    0    0 -0.00000000000E+00 -0.00000000000E+00 -0.45593999997E+02  0.45594000000E+02  0.51100000000E-03 0.  1.
    9900012    2    1    2    0    0 -0.42746944206E+02 -0.72288700495E+01 -0.20156482124E+01  0.47787301401E+02  0.20000138409E+02 0.  0.
         12    1    1    2    0    0  0.42746944206E+02  0.72288700495E+01  0.20156482124E+01  0.43400698599E+02  0.00000000000E+00 0. -1.
         11    1    3    3    0    0 -0.18837079608E+02 -0.42438079365E+01  0.32278355317E+01  0.19577139639E+02  0.51100000000E-03 0.  1.
        -11    1    3    3    0    0 -0.45913840137E+01 -0.65338414236E+01 -0.25596447614E+01  0.83859210869E+01  0.51100000000E-03 0. -1.
        -12    1    3    3    0    0 -0.19318480584E+02  0.35487793106E+01 -0.26838389828E+01  0.19824240675E+02  0.00000000000E+00 0.  1.
</event>
<event>
 7    1  0.1631716E-009  0.4778727E+02  0.7816164E-02  0.1312668E+00
        -11   -1    0    0    0    0  0.00000000000E+00  0.00000000000E+00  0.45593999997E+02  0.45594000000E+02  0.51100000000E-03 0. -1.
         11   -1    0    0    0    0 -0.00000000000E+00 -0.00000000000E+00 -0.45593999997E+02  0.45594000000E+02  0.51100000000E-03 0.  1.
    9900012    2    1    2    0    0  0.17492152355E+02 -0.17941016113E+02 -0.35436815614E+02  0.47787270121E+02  0.19999995789E+02 0.  0.
         12    1    1    2    0    0 -0.17492152355E+02  0.17941016113E+02  0.35436815614E+02  0.43400729879E+02  0.00000000000E+00 0. -1.
         11    1    3    3    0    0  0.72279101155E+01 -0.61653228344E+01 -0.13241897335E+02  0.16297292278E+02  0.51100000000E-03 0. -1.
        -11    1    3    3    0    0  0.34595829346E+01 -0.14407493760E+02 -0.16897398119E+02  0.22473688037E+02  0.51100000000E-03 0.  1.
         12    1    3    3    0    0  0.68046593048E+01  0.26318004812E+01 -0.52975201593E+01  0.90162898061E+01  0.00000000000E+00 0. -1.
</event>
<event>
 7    1  0.1631716E-009  0.4778727E+02  0.7816164E-02  0.1312668E+00
        -11   -1    0    0    0    0  0.00000000000E+00  0.00000000000E+00  0.45593999997E+02  0.45594000000E+02  0.51100000000E-03 0.  1.
         11   -1    0    0    0    0 -0.00000000000E+00 -0.00000000000E+00 -0.45593999997E+02  0.45594000000E+02  0.51100000000E-03 0. -1.
    9900012    2    1    2    0    0  0.27378734711E+02  0.26682175051E+02  0.20544819992E+02  0.47787271799E+02  0.20000003442E+02 0.  0.
         12    1    1    2    0    0 -0.27378734711E+02 -0.26682175051E+02 -0.20544819992E+02  0.43400728201E+02  0.00000000000E+00 0. -1.
         11    1    3    3    0    0  0.13193374514E+02  0.10089388562E+02 -0.25505130139E+00  0.16611018754E+02  0.51100000000E-03 0. -1.
        -11    1    3    3    0    0  0.33552264784E+01  0.42744257727E+01  0.11040088838E+01  0.55450064278E+01  0.51100000000E-03 0.  1.
        -12    1    3    3    0    0  0.10830133719E+02  0.12318360716E+02  0.19695862410E+02  0.25631246617E+02  0.00000000000E+00 0.  1.
</event>
<event>
 7    1  0.1631716E-009  0.4778727E+02  0.7816164E-02  0.1312668E+00
        -11   -1    0    0    0    0  0.00000000000E+00  0.00000000000E+00  0.45593999997E+02  0.45594000000E+02  0.51100000000E-03 0.  1.
         11   -1    0    0    0    0 -0.00000000000E+00 -0.00000000000E+00 -0.45593999997E+02  0.45594000000E+02  0.51100000000E-03 0. -1.
    9900012    2    1    2    0    0  0.11485574890E+02  0.33944045021E+02  0.24484820185E+02  0.47787273711E+02  0.20000012158E+02 0.  0.
         12    1    1    2    0    0 -0.11485574890E+02 -0.33944045021E+02 -0.24484820185E+02  0.43400726289E+02  0.00000000000E+00 0. -1.
         11    1    3    3    0    0 -0.60461470727E+00  0.32817043598E+01 -0.23340308458E+00  0.33450888943E+01  0.51100000000E-03 0. -1.
        -11    1    3    3    0    0  0.15603967690E+02  0.29049487673E+02  0.23043269339E+02  0.40228706216E+02  0.51100000000E-03 0.  1.
        -12    1    3    3    0    0 -0.35137780928E+01  0.16128529874E+01  0.16749539311E+01  0.42134786004E+01  0.00000000000E+00 0.  1.
</event>
<event>
 7    1  0.1631716E-009  0.4778727E+02  0.7816164E-02  0.1312668E+00
        -11   -1    0    0    0    0  0.00000000000E+00  0.00000000000E+00  0.45593999997E+02  0.45594000000E+02  0.51100000000E-03 0.  1.
         11   -1    0    0    0    0 -0.00000000000E+00 -0.00000000000E+00 -0.45593999997E+02  0.45594000000E+02  0.51100000000E-03 0. -1.
    9900012    2    1    2    0    0  0.11632143881E+02  0.40254992071E+02  0.11307176774E+02  0.47787269540E+02  0.19999993141E+02 0.  0.
         12    1    1    2    0    0 -0.11632143881E+02 -0.40254992071E+02 -0.11307176774E+02  0.43400730460E+02  0.00000000000E+00 0. -1.
         11    1    3    3    0    0  0.21480930129E+01  0.84821667971E+00  0.53314184386E+01  0.58101461218E+01  0.51100000000E-03 0. -1.
        -11    1    3    3    0    0  0.52676046703E+00  0.15153137085E+02 -0.10078033501E+01  0.15195746377E+02  0.51100000000E-03 0.  1.
        -12    1    3    3    0    0  0.89572904007E+01  0.24253638306E+02  0.69835616859E+01  0.26781377041E+02  0.00000000000E+00 0.  1.
</event>
<event>
 7    1  0.1631716E-009  0.4778730E+02  0.7816164E-02  0.1312668E+00
        -11   -1    0    0    0    0  0.00000000000E+00  0.00000000000E+00  0.45593999997E+02  0.45594000000E+02  0.51100000000E-03 0.  1.
         11   -1    0    0    0    0 -0.00000000000E+00 -0.00000000000E+00 -0.45593999997E+02  0.45594000000E+02  0.51100000000E-03 0. -1.
    9900012    2    1    2    0    0  0.42795891770E+01 -0.25420577536E+02  0.34915615153E+02  0.47787299230E+02  0.20000128510E+02 0.  0.
         12    1    1    2    0    0 -0.42795891770E+01  0.25420577536E+02 -0.34915615153E+02  0.43400700770E+02  0.00000000000E+00 0. -1.
         11    1    3    3    0    0  0.57848302664E+01 -0.27306349004E+01  0.24368585654E+01  0.68453566817E+01  0.51100000000E-03 0. -1.
        -11    1    3    3    0    0  0.28146845142E+01 -0.98295061288E+01  0.20216150021E+02  0.22654676373E+02  0.51100000000E-03 0.  1.
         12    1    3    3    0    0 -0.43199256036E+01 -0.12860436506E+02  0.12262606567E+02  0.18287266176E+02  0.00000000000E+00 0. -1.
</event>
<event>
 7    1  0.1631716E-009  0.4778727E+02  0.7816164E-02  0.1312668E+00
        -11   -1    0    0    0    0  0.00000000000E+00  0.00000000000E+00  0.45593999997E+02  0.45594000000E+02  0.51100000000E-03 0.  1.
         11   -1    0    0    0    0 -0.00000000000E+00 -0.00000000000E+00 -0.45593999997E+02  0.45594000000E+02  0.51100000000E-03 0. -1.
    9900012    2    1    2    0    0 -0.39235959515E+00 -0.25585887994E+02  0.35054694490E+02  0.47787271708E+02  0.20000003025E+02 0.  0.
         12    1    1    2    0    0  0.39235959515E+00  0.25585887994E+02 -0.35054694490E+02  0.43400728292E+02  0.00000000000E+00 0. -1.
         11    1    3    3    0    0 -0.30555625649E+01 -0.88164637390E+01  0.18459279020E+02  0.20683604078E+02  0.51100000000E-03 0. -1.
        -11    1    3    3    0    0 -0.41107651432E+01 -0.51530089371E+01  0.10364254552E+02  0.12282901279E+02  0.51100000000E-03 0.  1.
         12    1    3    3    0    0  0.67739681129E+01 -0.11616415318E+02  0.62311609186E+01  0.14820766351E+02  0.00000000000E+00 0. -1.
</event>
<event>
 7    1  0.1631716E-009  0.4778727E+02  0.7816164E-02  0.1312668E+00
        -11   -1    0    0    0    0  0.00000000000E+00  0.00000000000E+00  0.45593999997E+02  0.45594000000E+02  0.51100000000E-03 0.  1.
         11   -1    0    0    0    0 -0.00000000000E+00 -0.00000000000E+00 -0.45593999997E+02  0.45594000000E+02  0.51100000000E-03 0. -1.
    9900012    2    1    2    0    0  0.22825191310E+01  0.20833411584E+02  0.38005029275E+02  0.47787272103E+02  0.20000004824E+02 0.  0.
         12    1    1    2    0    0 -0.22825191310E+01 -0.20833411584E+02 -0.38005029275E+02  0.43400727897E+02  0.00000000000E+00 0. -1.
         11    1    3    3    0    0  0.30394288237E+01  0.16897187189E+02  0.21948919799E+02  0.27865895699E+02  0.51100000000E-03 0.  1.
        -11    1    3    3    0    0  0.50993150231E+01  0.11068351579E+01  0.60767170296E+01  0.80096559159E+01  0.51100000000E-03 0. -1.
         12    1    3    3    0    0 -0.58562247158E+01  0.28293892364E+01  0.99793924471E+01  0.11911720488E+02  0.00000000000E+00 0. -1.
</event>
<event>
 7    1  0.1631716E-009  0.4778727E+02  0.7816164E-02  0.1312668E+00
        -11   -1    0    0    0    0  0.00000000000E+00  0.00000000000E+00  0.45593999997E+02  0.45594000000E+02  0.51100000000E-03 0.  1.
         11   -1    0    0    0    0 -0.00000000000E+00 -0.00000000000E+00 -0.45593999997E+02  0.45594000000E+02  0.51100000000E-03 0. -1.
    9900012    2    1    2    0    0 -0.22170149822E+02  0.19898768766E+01  0.37257855929E+02  0.47787274413E+02  0.20000015357E+02 0.  0.
         12    1    1    2    0    0  0.22170149822E+02 -0.19898768766E+01 -0.37257855929E+02  0.43400725587E+02  0.00000000000E+00 0. -1.
         11    1    3    3    0    0  0.23655676173E+01 -0.15845089652E+01  0.50004967058E+01  0.57542633220E+01  0.51100000000E-03 0. -1.
        -11    1    3    3    0    0 -0.28472715024E+01 -0.11127967069E+01  0.10579229729E+02  0.11012055823E+02  0.51100000000E-03 0.  1.
         12    1    3    3    0    0 -0.21688445937E+02  0.46871825487E+01  0.21678129494E+02  0.31020955268E+02  0.00000000000E+00 0. -1.
</event>
<event>
 7    1  0.1631716E-009  0.4778725E+02  0.7816164E-02  0.1312668E+00
        -11   -1    0    0    0    0  0.00000000000E+00  0.00000000000E+00  0.45593999997E+02  0.45594000000E+02  0.51100000000E-03 0.  1.
         11   -1    0    0    0    0 -0.00000000000E+00 -0.00000000000E+00 -0.45593999997E+02  0.45594000000E+02  0.51100000000E-03 0. -1.
    9900012    2    1    2    0    0  0.37658597314E+02  0.18565472393E+02  0.10989934078E+02  0.47787246921E+02  0.19999890010E+02 0.  0.
         12    1    1    2    0    0 -0.37658597314E+02 -0.18565472393E+02 -0.10989934078E+02  0.43400753079E+02  0.00000000000E+00 0. -1.
         11    1    3    3    0    0  0.28178427905E+01 -0.77883043544E+00 -0.82449263600E+00  0.30375324208E+01  0.51100000000E-03 0. -1.
        -11    1    3    3    0    0  0.29960257290E+02  0.21144548226E+02  0.13801038949E+02  0.39181342664E+02  0.51100000000E-03 0.  1.
        -12    1    3    3    0    0  0.48804972331E+01 -0.18002453979E+01 -0.19866122352E+01  0.55683718363E+01  0.00000000000E+00 0.  1.
</event>
<event>
 7    1  0.1631716E-009  0.4778728E+02  0.7816164E-02  0.1312668E+00
        -11   -1    0    0    0    0  0.00000000000E+00  0.00000000000E+00  0.45593999997E+02  0.45594000000E+02  0.51100000000E-03 0.  1.
         11   -1    0    0    0    0 -0.00000000000E+00 -0.00000000000E+00 -0.45593999997E+02  0.45594000000E+02  0.51100000000E-03 0. -1.
    9900012    2    1    2    0    0  0.27496585006E+02 -0.84822196284E+01  0.32490193434E+02  0.47787275280E+02  0.20000019312E+02 0.  0.
         12    1    1    2    0    0 -0.27496585006E+02  0.84822196284E+01 -0.32490193434E+02  0.43400724720E+02  0.00000000000E+00 0. -1.
         11    1    3    3    0    0  0.66444952325E+01  0.27327817629E-02  0.16848097612E+02  0.18110983347E+02  0.51100000000E-03 0. -1.
        -11    1    3    3    0    0  0.12444477462E+02  0.88709024018E+00  0.61562762836E+01  0.13912285446E+02  0.51100000000E-03 0.  1.
        -12    1    3    3    0    0  0.84076123116E+01 -0.93720426503E+01  0.94858195381E+01  0.15764006487E+02  0.00000000000E+00 0.  1.
</event>
<event>
 7    1  0.1631716E-009  0.4778726E+02  0.7816164E-02  0.1312668E+00
        -11   -1    0    0    0    0  0.00000000000E+00  0.00000000000E+00  0.45593999997E+02  0.45594000000E+02  0.51100000000E-03 0.  1.
         11   -1    0    0    0    0 -0.00000000000E+00 -0.00000000000E+00 -0.45593999997E+02  0.45594000000E+02  0.51100000000E-03 0. -1.
    9900012    2    1    2    0    0  0.38271073051E+01  0.89073576000E+01  0.42304093775E+02  0.47787261298E+02  0.19999955561E+02 0.  0.
         12    1    1    2    0    0 -0.38271073051E+01 -0.89073576000E+01 -0.42304093775E+02  0.43400738702E+02  0.00000000000E+00 0. -1.
         11    1    3    3    0    0  0.14863369845E+01 -0.24948132737E+01  0.37365672821E+00  0.29279532978E+01  0.51100000000E-03 0. -1.
        -11    1    3    3    0    0  0.35146395139E+01  0.10158084093E+02  0.18724519260E+02  0.21590437353E+02  0.51100000000E-03 0.  1.
        -12    1    3    3    0    0 -0.11738691933E+01  0.12440867810E+01  0.23205917788E+02  0.23268870647E+02  0.00000000000E+00 0.  1.
</event>
<event>
 7    1  0.1631716E-009  0.4778727E+02  0.7816164E-02  0.1312668E+00
        -11   -1    0    0    0    0  0.00000000000E+00  0.00000000000E+00  0.45593999997E+02  0.45594000000E+02  0.51100000000E-03 0.  1.
         11   -1    0    0    0    0 -0.00000000000E+00 -0.00000000000E+00 -0.45593999997E+02  0.45594000000E+02  0.51100000000E-03 0. -1.
    9900012    2    1    2    0    0  0.55649754386E+01 -0.16896511379E+02  0.39587395617E+02  0.47787274889E+02  0.20000017529E+02 0.  0.
         12    1    1    2    0    0 -0.55649754386E+01  0.16896511379E+02 -0.39587395617E+02  0.43400725111E+02  0.00000000000E+00 0. -1.
         11    1    3    3    0    0 -0.52316922726E+01 -0.14304598554E+02  0.23648918170E+02  0.28129405872E+02  0.51100000000E-03 0.  1.
        -11    1    3    3    0    0  0.54047591577E+01 -0.11971377252E+01  0.53738019105E+01  0.77150701566E+01  0.51100000000E-03 0. -1.
        -12    1    3    3    0    0  0.53919085535E+01 -0.13947750997E+01  0.10564675536E+02  0.11942798860E+02  0.00000000000E+00 0.  1.
</event>
<event>
 7    1  0.1631716E-009  0.4778727E+02  0.7816164E-02  0.1312668E+00
        -11   -1    0    0    0    0  0.00000000000E+00  0.00000000000E+00  0.45593999997E+02  0.45594000000E+02  0.51100000000E-03 0. -1.
         11   -1    0    0    0    0 -0.00000000000E+00 -0.00000000000E+00 -0.45593999997E+02  0.45594000000E+02  0.51100000000E-03 0.  1.
    9900012    2    1    2    0    0  0.41502805206E+02 -0.12694027608E+02 -0.47764233840E-01  0.47787268919E+02  0.19999990312E+02 0.  0.
         12    1    1    2    0    0 -0.41502805206E+02  0.12694027608E+02  0.47764233840E-01  0.43400731081E+02  0.00000000000E+00 0. -1.
         11    1    3    3    0    0  0.31110535725E+02 -0.10797097185E+02 -0.77158576316E+01  0.33822732000E+02  0.51100000000E-03 0.  1.
        -11    1    3    3    0    0  0.14989265860E+01 -0.16869896243E+01  0.57538585233E-01  0.22574378956E+01  0.51100000000E-03 0. -1.
        -12    1    3    3    0    0  0.88933428958E+01 -0.20994079855E+00  0.76105548126E+01  0.11707099024E+02  0.00000000000E+00 0.  1.
</event>
<event>
 7    1  0.1631716E-009  0.4778727E+02  0.7816164E-02  0.1312668E+00
        -11   -1    0    0    0    0  0.00000000000E+00  0.00000000000E+00  0.45593999997E+02  0.45594000000E+02  0.51100000000E-03 0. -1.
         11   -1    0    0    0    0 -0.00000000000E+00 -0.00000000000E+00 -0.45593999997E+02  0.45594000000E+02  0.51100000000E-03 0.  1.
    9900012    2    1    2    0    0  0.14480741997E+02 -0.30682292460E+02 -0.27065256895E+02  0.47787273161E+02  0.20000009649E+02 0.  0.
         12    1    1    2    0    0 -0.14480741997E+02  0.30682292460E+02  0.27065256895E+02  0.43400726839E+02  0.00000000000E+00 0. -1.
         11    1    3    3    0    0  0.39341888342E+01 -0.37951717140E+01 -0.57108472290E+00  0.54961175519E+01  0.51100000000E-03 0. -1.
        -11    1    3    3    0    0  0.53281180239E+01 -0.26812362420E+02 -0.24484786272E+02  0.36698724491E+02  0.51100000000E-03 0.  1.
        -12    1    3    3    0    0  0.52184351390E+01 -0.74758325379E-01 -0.20093858999E+01  0.55924311173E+01  0.00000000000E+00 0.  1.
</event>
<event>
 7    1  0.1631716E-009  0.4778727E+02  0.7816164E-02  0.1312668E+00
        -11   -1    0    0    0    0  0.00000000000E+00  0.00000000000E+00  0.45593999997E+02  0.45594000000E+02  0.51100000000E-03 0.  1.
         11   -1    0    0    0    0 -0.00000000000E+00 -0.00000000000E+00 -0.45593999997E+02  0.45594000000E+02  0.51100000000E-03 0. -1.
    9900012    2    1    2    0    0  0.11813282016E+02  0.19046718407E+00  0.41761625105E+02  0.47787271421E+02  0.20000001718E+02 0.  0.
         12    1    1    2    0    0 -0.11813282016E+02 -0.19046718407E+00 -0.41761625105E+02  0.43400728579E+02  0.00000000000E+00 0. -1.
         11    1    3    3    0    0 -0.34353499480E+01 -0.41195194552E+00  0.87483312301E+01  0.94076901120E+01  0.51100000000E-03 0. -1.
        -11    1    3    3    0    0  0.81364279459E+01 -0.51942429318E+01  0.22136771360E+02  0.24149912336E+02  0.51100000000E-03 0.  1.
         12    1    3    3    0    0  0.71122040184E+01  0.57966620614E+01  0.10876522515E+02  0.14229668973E+02  0.00000000000E+00 0. -1.
</event>
<event>
 7    1  0.1631716E-009  0.4778727E+02  0.7816164E-02  0.1312668E+00
        -11   -1    0    0    0    0  0.00000000000E+00  0.00000000000E+00  0.45593999997E+02  0.45594000000E+02  0.51100000000E-03 0. -1.
         11   -1    0    0    0    0 -0.00000000000E+00 -0.00000000000E+00 -0.45593999997E+02  0.45594000000E+02  0.51100000000E-03 0.  1.
    9900012    2    1    2    0    0  0.30468874313E+02 -0.96757569181E+01 -0.29353892916E+02  0.47787267251E+02  0.19999982705E+02 0.  0.
         12    1    1    2    0    0 -0.30468874313E+02  0.96757569181E+01  0.29353892916E+02  0.43400732749E+02  0.00000000000E+00 0. -1.
         11    1    3    3    0    0  0.27732440771E+02 -0.66751610667E+01 -0.25672669290E+02  0.38376190472E+02  0.51100000000E-03 0. -1.
        -11    1    3    3    0    0  0.51887462777E+01 -0.61235972569E+00 -0.19670413120E+01  0.55827702937E+01  0.51100000000E-03 0.  1.
         12    1    3    3    0    0 -0.24523127356E+01 -0.23882361257E+01 -0.17141823133E+01  0.38283064857E+01  0.00000000000E+00 0. -1.
</event>
<event>
 7    1  0.1631716E-009  0.4778725E+02  0.7816164E-02  0.1312668E+00
        -11   -1    0    0    0    0  0.00000000000E+00  0.00000000000E+00  0.45593999997E+02  0.45594000000E+02  0.51100000000E-03 0.  1.
         11   -1    0    0    0    0 -0.00000000000E+00 -0.00000000000E+00 -0.45593999997E+02  0.45594000000E+02  0.51100000000E-03 0. -1.
    9900012    2    1    2    0    0  0.29144620782E+02 -0.24042357977E+02  0.21358402175E+02  0.47787248381E+02  0.19999896670E+02 0.  0.
         12    1    1    2    0    0 -0.29144620782E+02  0.24042357977E+02 -0.21358402175E+02  0.43400751619E+02  0.00000000000E+00 0. -1.
         11    1    3    3    0    0  0.98783398480E+01 -0.91067484181E+01  0.19656389299E+01  0.13578593505E+02  0.51100000000E-03 0. -1.
        -11    1    3    3    0    0  0.14855325083E+02 -0.58457758127E+01  0.52054528205E+01  0.16791382239E+02  0.51100000000E-03 0.  1.
        -12    1    3    3    0    0  0.44109558506E+01 -0.90898337458E+01  0.14187310425E+02  0.17417272637E+02  0.00000000000E+00 0.  1.
</event>
<event>
 7    1  0.1631716E-009  0.4778727E+02  0.7816164E-02  0.1312668E+00
        -11   -1    0    0    0    0  0.00000000000E+00  0.00000000000E+00  0.45593999997E+02  0.45594000000E+02  0.51100000000E-03 0.  1.
         11   -1    0    0    0    0 -0.00000000000E+00 -0.00000000000E+00 -0.45593999997E+02  0.45594000000E+02  0.51100000000E-03 0. -1.
    9900012    2    1    2    0    0 -0.13476578083E+02  0.40695065133E+02 -0.67761734684E+01  0.47787274086E+02  0.20000013866E+02 0.  0.
         12    1    1    2    0    0  0.13476578083E+02 -0.40695065133E+02  0.67761734684E+01  0.43400725914E+02  0.00000000000E+00 0. -1.
         11    1    3    3    0    0  0.68561535324E+00  0.13212713404E+01 -0.10175068420E+01  0.18030936754E+01  0.51100000000E-03 0. -1.
        -11    1    3    3    0    0 -0.10802888071E+02  0.40622577141E+02 -0.51461106217E+01  0.42348301253E+02  0.51100000000E-03 0.  1.
        -12    1    3    3    0    0 -0.33593053653E+01 -0.12487833480E+01 -0.61255600474E+00  0.36358791573E+01  0.00000000000E+00 0.  1.
</event>
<event>
 7    1  0.1631716E-009  0.4778727E+02  0.7816164E-02  0.1312668E+00
        -11   -1    0    0    0    0  0.00000000000E+00  0.00000000000E+00  0.45593999997E+02  0.45594000000E+02  0.51100000000E-03 0.  1.
         11   -1    0    0    0    0 -0.00000000000E+00 -0.00000000000E+00 -0.45593999997E+02  0.45594000000E+02  0.51100000000E-03 0. -1.
    9900012    2    1    2    0    0 -0.40735215685E+02  0.76541712954E+01  0.12871655171E+02  0.47787266804E+02  0.19999980668E+02 0.  0.
         12    1    1    2    0    0  0.40735215685E+02 -0.76541712954E+01 -0.12871655171E+02  0.43400733196E+02  0.00000000000E+00 0. -1.
         11    1    3    3    0    0 -0.15697473695E+02 -0.28439715265E+01 -0.24362068194E+01  0.16137966364E+02  0.51100000000E-03 0. -1.
        -11    1    3    3    0    0 -0.11097140466E+01 -0.48482567335E+00  0.34204832442E-01  0.12114831532E+01  0.51100000000E-03 0.  1.
        -12    1    3    3    0    0 -0.23928027943E+02  0.10982968495E+02  0.15273657158E+02  0.30437817287E+02  0.00000000000E+00 0.  1.
</event>
<event>
 7    1  0.1631716E-009  0.4778727E+02  0.7816164E-02  0.1312668E+00
        -11   -1    0    0    0    0  0.00000000000E+00  0.00000000000E+00  0.45593999997E+02  0.45594000000E+02  0.51100000000E-03 0. -1.
         11   -1    0    0    0    0 -0.00000000000E+00 -0.00000000000E+00 -0.45593999997E+02  0.45594000000E+02  0.51100000000E-03 0.  1.
    9900012    2    1    2    0    0  0.38221782999E+02 -0.20553684179E+02 -0.51453580965E+00  0.47787269867E+02  0.19999994633E+02 0.  0.
         12    1    1    2    0    0 -0.38221782999E+02  0.20553684179E+02  0.51453580965E+00  0.43400730133E+02  0.00000000000E+00 0. -1.
         11    1    3    3    0    0  0.15508616932E+02 -0.38455631873E+01 -0.33812049184E+01  0.16332118733E+02  0.51100000000E-03 0. -1.
        -11    1    3    3    0    0  0.22574508505E+02 -0.15795851150E+02  0.59922752838E+01  0.28196182563E+02  0.51100000000E-03 0.  1.
         12    1    3    3    0    0  0.13865756216E+00 -0.91226984151E+00 -0.31256061751E+01  0.32589685708E+01  0.00000000000E+00 0. -1.
</event>
<event>
 7    1  0.1631716E-009  0.4778728E+02  0.7816164E-02  0.1312668E+00
        -11   -1    0    0    0    0  0.00000000000E+00  0.00000000000E+00  0.45593999997E+02  0.45594000000E+02  0.51100000000E-03 0. -1.
         11   -1    0    0    0    0 -0.00000000000E+00 -0.00000000000E+00 -0.45593999997E+02  0.45594000000E+02  0.51100000000E-03 0.  1.
    9900012    2    1    2    0    0 -0.60912266927E+01 -0.42916905584E+02  0.21584859676E+01  0.47787275476E+02  0.20000020203E+02 0.  0.
         12    1    1    2    0    0  0.60912266927E+01  0.42916905584E+02 -0.21584859676E+01  0.43400724524E+02  0.00000000000E+00 0. -1.
         11    1    3    3    0    0 -0.15806899589E+01  0.29260013605E+00 -0.80460537535E+00  0.17976611630E+01  0.51100000000E-03 0. -1.
        -11    1    3    3    0    0 -0.14402195512E+01 -0.37199247166E+02 -0.24936683871E+01  0.37310542804E+02  0.51100000000E-03 0.  1.
        -12    1    3    3    0    0 -0.30703171825E+01 -0.60102585547E+01  0.54567597301E+01  0.86790715084E+01  0.00000000000E+00 0.  1.
</event>
<event>
 7    1  0.1631716E-009  0.4778727E+02  0.7816164E-02  0.1312668E+00
        -11   -1    0    0    0    0  0.00000000000E+00  0.00000000000E+00  0.45593999997E+02  0.45594000000E+02  0.51100000000E-03 0.  1.
         11   -1    0    0    0    0 -0.00000000000E+00 -0.00000000000E+00 -0.45593999997E+02  0.45594000000E+02  0.51100000000E-03 0. -1.
    9900012    2    1    2    0    0 -0.26917712854E+02 -0.72562741265E+01  0.33262688708E+02  0.47787271440E+02  0.20000001802E+02 0.  0.
         12    1    1    2    0    0  0.26917712854E+02  0.72562741265E+01 -0.33262688708E+02  0.43400728560E+02  0.00000000000E+00 0. -1.
         11    1    3    3    0    0 -0.53655484346E+01 -0.61807591244E+01  0.23701555914E+01  0.85210639680E+01  0.51100000000E-03 0. -1.
        -11    1    3    3    0    0 -0.18210959984E+02 -0.32603541632E+01  0.18165981084E+02  0.25928205526E+02  0.51100000000E-03 0.  1.
         12    1    3    3    0    0 -0.33412044345E+01  0.21848391611E+01  0.12726552033E+02  0.13338001945E+02  0.00000000000E+00 0. -1.
</event>
<event>
 7    1  0.1631716E-009  0.4778727E+02  0.7816164E-02  0.1312668E+00
        -11   -1    0    0    0    0  0.00000000000E+00  0.00000000000E+00  0.45593999997E+02  0.45594000000E+02  0.51100000000E-03 0. -1.
         11   -1    0    0    0    0 -0.00000000000E+00 -0.00000000000E+00 -0.45593999997E+02  0.45594000000E+02  0.51100000000E-03 0.  1.
    9900012    2    1    2    0    0  0.34480047396E+02  0.22937048334E+02 -0.12986191298E+02  0.47787273979E+02  0.20000013381E+02 0.  0.
         12    1    1    2    0    0 -0.34480047396E+02 -0.22937048334E+02  0.12986191298E+02  0.43400726021E+02  0.00000000000E+00 0. -1.
         11    1    3    3    0    0  0.17571671943E+02  0.80689254181E+01 -0.21319597199E+01  0.19452929466E+02  0.51100000000E-03 0. -1.
        -11    1    3    3    0    0  0.84829422486E+01  0.53956573968E-01 -0.73712604689E+00  0.85150793052E+01  0.51100000000E-03 0.  1.
        -12    1    3    3    0    0  0.84254332042E+01  0.14814166342E+02 -0.10117105531E+02  0.19819265208E+02  0.00000000000E+00 0.  1.
</event>
<event>
 7    1  0.1631716E-009  0.4778726E+02  0.7816164E-02  0.1312668E+00
        -11   -1    0    0    0    0  0.00000000000E+00  0.00000000000E+00  0.45593999997E+02  0.45594000000E+02  0.51100000000E-03 0.  1.
         11   -1    0    0    0    0 -0.00000000000E+00 -0.00000000000E+00 -0.45593999997E+02  0.45594000000E+02  0.51100000000E-03 0. -1.
    9900012    2    1    2    0    0  0.27476476546E+02 -0.32835880761E+02  0.71044138678E+01  0.47787256629E+02  0.19999934276E+02 0.  0.
         12    1    1    2    0    0 -0.27476476546E+02  0.32835880761E+02 -0.71044138678E+01  0.43400743371E+02  0.00000000000E+00 0. -1.
         11    1    3    3    0    0  0.31689480477E+01  0.13369528995E+01 -0.29417169629E+01  0.45258561328E+01  0.51100000000E-03 0. -1.
        -11    1    3    3    0    0  0.81755579713E+01 -0.12118739754E+02  0.18560729962E+01  0.14735963104E+02  0.51100000000E-03 0.  1.
         12    1    3    3    0    0  0.16131970527E+02 -0.22054093906E+02  0.81900578344E+01  0.28525437392E+02  0.00000000000E+00 0. -1.
</event>
<event>
 7    1  0.1631716E-009  0.4778727E+02  0.7816164E-02  0.1312668E+00
        -11   -1    0    0    0    0  0.00000000000E+00  0.00000000000E+00  0.45593999997E+02  0.45594000000E+02  0.51100000000E-03 0.  1.
         11   -1    0    0    0    0 -0.00000000000E+00 -0.00000000000E+00 -0.45593999997E+02  0.45594000000E+02  0.51100000000E-03 0. -1.
    9900012    2    1    2    0    0  0.38456354167E+02  0.20114703220E+02 -0.36213642023E+00  0.47787267239E+02  0.19999982649E+02 0.  0.
         12    1    1    2    0    0 -0.38456354167E+02 -0.20114703220E+02  0.36213642023E+00  0.43400732761E+02  0.00000000000E+00 0. -1.
         11    1    3    3    0    0  0.18577619880E+01  0.45813395750E+01  0.91398878618E-01  0.49445228205E+01  0.51100000000E-03 0. -1.
        -11    1    3    3    0    0 -0.97682337214E+00 -0.13261435097E+01  0.15033626163E+00  0.16539170963E+01  0.51100000000E-03 0.  1.
        -12    1    3    3    0    0  0.37575415551E+02  0.16859507154E+02 -0.60387156048E+00  0.41188827322E+02  0.00000000000E+00 0.  1.
</event>
<event>
 7    1  0.1631716E-009  0.4778727E+02  0.7816164E-02  0.1312668E+00
        -11   -1    0    0    0    0  0.00000000000E+00  0.00000000000E+00  0.45593999997E+02  0.45594000000E+02  0.51100000000E-03 0.  1.
         11   -1    0    0    0    0 -0.00000000000E+00 -0.00000000000E+00 -0.45593999997E+02  0.45594000000E+02  0.51100000000E-03 0. -1.
    9900012    2    1    2    0    0 -0.14753301872E+02  0.40721227933E+02 -0.27830288538E+01  0.47787267632E+02  0.19999984442E+02 0.  0.
         12    1    1    2    0    0  0.14753301872E+02 -0.40721227933E+02  0.27830288538E+01  0.43400732368E+02  0.00000000000E+00 0. -1.
         11    1    3    3    0    0 -0.11103876157E+02  0.38177357202E+02  0.44510401901E+00  0.39761850894E+02  0.51100000000E-03 0.  1.
        -11    1    3    3    0    0 -0.44589984226E+01  0.36773680856E+01 -0.18567121397E+01  0.60706740318E+01  0.51100000000E-03 0. -1.
        -12    1    3    3    0    0  0.80957270726E+00 -0.11334973550E+01 -0.13714207331E+01  0.19547427066E+01  0.00000000000E+00 0.  1.
</event>
<event>
 7    1  0.1631716E-009  0.4778727E+02  0.7816164E-02  0.1312668E+00
        -11   -1    0    0    0    0  0.00000000000E+00  0.00000000000E+00  0.45593999997E+02  0.45594000000E+02  0.51100000000E-03 0.  1.
         11   -1    0    0    0    0 -0.00000000000E+00 -0.00000000000E+00 -0.45593999997E+02  0.45594000000E+02  0.51100000000E-03 0. -1.
    9900012    2    1    2    0    0 -0.10659368850E+02  0.31319110109E+01  0.41954647476E+02  0.47787268950E+02  0.19999990451E+02 0.  0.
         12    1    1    2    0    0  0.10659368850E+02 -0.31319110109E+01 -0.41954647476E+02  0.43400731050E+02  0.00000000000E+00 0. -1.
         11    1    3    3    0    0 -0.41395830398E+01 -0.41659918057E+01  0.13587668382E+02  0.14802579768E+02  0.51100000000E-03 0.  1.
        -11    1    3    3    0    0  0.37186705910E+01  0.14598548694E+01  0.29437686608E+01  0.49624047994E+01  0.51100000000E-03 0. -1.
         12    1    3    3    0    0 -0.10238456401E+02  0.58380479472E+01  0.25423210433E+02  0.28022284383E+02  0.00000000000E+00 0. -1.
</event>
<event>
 7    1  0.1631716E-009  0.4778727E+02  0.7816164E-02  0.1312668E+00
        -11   -1    0    0    0    0  0.00000000000E+00  0.00000000000E+00  0.45593999997E+02  0.45594000000E+02  0.51100000000E-03 0.  1.
         11   -1    0    0    0    0 -0.00000000000E+00 -0.00000000000E+00 -0.45593999997E+02  0.45594000000E+02  0.51100000000E-03 0. -1.
    9900012    2    1    2    0    0  0.25865860285E+02 -0.93216957058E+01  0.33581048545E+02  0.47787267743E+02  0.19999984946E+02 0.  0.
         12    1    1    2    0    0 -0.25865860285E+02  0.93216957058E+01 -0.33581048545E+02  0.43400732257E+02  0.00000000000E+00 0. -1.
         11    1    3    3    0    0  0.21282953983E+02 -0.15587099343E+01  0.21112768970E+02  0.30019039304E+02  0.51100000000E-03 0. -1.
        -11    1    3    3    0    0 -0.12966586485E+01 -0.47627019892E+00 -0.74844363342E+00  0.15710904133E+01  0.51100000000E-03 0.  1.
        -12    1    3    3    0    0  0.58795649505E+01 -0.72867155726E+01  0.13216723208E+02  0.16197138025E+02  0.00000000000E+00 0.  1.
</event>
<event>
 7    1  0.1631716E-009  0.4778726E+02  0.7816164E-02  0.1312668E+00
        -11   -1    0    0    0    0  0.00000000000E+00  0.00000000000E+00  0.45593999997E+02  0.45594000000E+02  0.51100000000E-03 0. -1.
         11   -1    0    0    0    0 -0.00000000000E+00 -0.00000000000E+00 -0.45593999997E+02  0.45594000000E+02  0.51100000000E-03 0.  1.
    9900012    2    1    2    0    0  0.36509356534E+02  0.17102501997E+02 -0.16068459263E+02  0.47787261848E+02  0.19999958068E+02 0.  0.
         12    1    1    2    0    0 -0.36509356534E+02 -0.17102501997E+02  0.16068459263E+02  0.43400738152E+02  0.00000000000E+00 0. -1.
         11    1    3    3    0    0  0.18707888296E+02  0.12597568018E+02 -0.85875908937E+01  0.24133597371E+02  0.51100000000E-03 0. -1.
        -11    1    3    3    0    0  0.11720150021E+02  0.79618405411E+01 -0.11437354243E+01  0.14214814536E+02  0.51100000000E-03 0.  1.
         12    1    3    3    0    0  0.60813182173E+01 -0.34569065617E+01 -0.63371329454E+01  0.94388499408E+01  0.00000000000E+00 0. -1.
</event>
<event>
 7    1  0.1631716E-009  0.4778727E+02  0.7816164E-02  0.1312668E+00
        -11   -1    0    0    0    0  0.00000000000E+00  0.00000000000E+00  0.45593999997E+02  0.45594000000E+02  0.51100000000E-03 0. -1.
         11   -1    0    0    0    0 -0.00000000000E+00 -0.00000000000E+00 -0.45593999997E+02  0.45594000000E+02  0.51100000000E-03 0.  1.
    9900012    2    1    2    0    0 -0.34850780068E+02 -0.11459384784E+02 -0.23188990033E+02  0.47787266945E+02  0.19999981308E+02 0.  0.
         12    1    1    2    0    0  0.34850780068E+02  0.11459384784E+02  0.23188990033E+02  0.43400733055E+02  0.00000000000E+00 0. -1.
         11    1    3    3    0    0 -0.18412297255E+02 -0.96247768880E+01 -0.15542768867E+02  0.25946612200E+02  0.51100000000E-03 0. -1.
        -11    1    3    3    0    0 -0.77214609468E+01 -0.68502294526E+01 -0.29116352301E+01  0.10724934624E+02  0.51100000000E-03 0.  1.
         12    1    3    3    0    0 -0.87170218668E+01  0.50156215570E+01 -0.47345859362E+01  0.11115720121E+02  0.00000000000E+00 0. -1.
</event>
<event>
 7    1  0.1631716E-009  0.4778727E+02  0.7816164E-02  0.1312668E+00
        -11   -1    0    0    0    0  0.00000000000E+00  0.00000000000E+00  0.45593999997E+02  0.45594000000E+02  0.51100000000E-03 0.  1.
         11   -1    0    0    0    0 -0.00000000000E+00 -0.00000000000E+00 -0.45593999997E+02  0.45594000000E+02  0.51100000000E-03 0. -1.
    9900012    2    1    2    0    0 -0.38217290939E+01 -0.13717956681E+02  0.40997992339E+02  0.47787270460E+02  0.19999997336E+02 0.  0.
         12    1    1    2    0    0  0.38217290939E+01  0.13717956681E+02 -0.40997992339E+02  0.43400729540E+02  0.00000000000E+00 0. -1.
         11    1    3    3    0    0  0.41965335724E+01  0.28468751951E+01  0.11267830996E+02  0.12356359011E+02  0.51100000000E-03 0. -1.
        -11    1    3    3    0    0 -0.42221761895E+01 -0.52537590047E+01  0.67547212136E+01  0.95422751160E+01  0.51100000000E-03 0.  1.
         12    1    3    3    0    0 -0.37960864768E+01 -0.11311072871E+02  0.22975440129E+02  0.25888636333E+02  0.00000000000E+00 0. -1.
</event>
<event>
 7    1  0.1631716E-009  0.4778727E+02  0.7816164E-02  0.1312668E+00
        -11   -1    0    0    0    0  0.00000000000E+00  0.00000000000E+00  0.45593999997E+02  0.45594000000E+02  0.51100000000E-03 0. -1.
         11   -1    0    0    0    0 -0.00000000000E+00 -0.00000000000E+00 -0.45593999997E+02  0.45594000000E+02  0.51100000000E-03 0.  1.
    9900012    2    1    2    0    0  0.15746652359E+02  0.23817765698E+02 -0.32686084113E+02  0.47787272840E+02  0.20000008188E+02 0.  0.
         12    1    1    2    0    0 -0.15746652359E+02 -0.23817765698E+02  0.32686084113E+02  0.43400727160E+02  0.00000000000E+00 0. -1.
         11    1    3    3    0    0 -0.68373727036E+00  0.52947811627E+01 -0.43177451721E+01  0.68662309783E+01  0.51100000000E-03 0.  1.
        -11    1    3    3    0    0  0.44458568794E+01 -0.73152342138E+00  0.12025034637E+00  0.45072419854E+01  0.51100000000E-03 0. -1.
         12    1    3    3    0    0  0.11984532749E+02  0.19254507957E+02 -0.28488589287E+02  0.36413799877E+02  0.00000000000E+00 0. -1.
</event>
<event>
 7    1  0.1631716E-009  0.4778727E+02  0.7816164E-02  0.1312668E+00
        -11   -1    0    0    0    0  0.00000000000E+00  0.00000000000E+00  0.45593999997E+02  0.45594000000E+02  0.51100000000E-03 0.  1.
         11   -1    0    0    0    0 -0.00000000000E+00 -0.00000000000E+00 -0.45593999997E+02  0.45594000000E+02  0.51100000000E-03 0. -1.
    9900012    2    1    2    0    0 -0.11526557138E+02  0.76293026047E+01  0.41140680837E+02  0.47787269621E+02  0.19999993509E+02 0.  0.
         12    1    1    2    0    0  0.11526557138E+02 -0.76293026047E+01 -0.41140680837E+02  0.43400730379E+02  0.00000000000E+00 0. -1.
         11    1    3    3    0    0 -0.63905894540E+00  0.16531882048E+01  0.21270925096E+02  0.21344640599E+02  0.51100000000E-03 0.  1.
        -11    1    3    3    0    0  0.78361404133E+00  0.22597691378E+01 -0.70889649183E+00  0.24946226206E+01  0.51100000000E-03 0. -1.
        -12    1    3    3    0    0 -0.11671112234E+02  0.37163452620E+01  0.20578652233E+02  0.23948006402E+02  0.00000000000E+00 0.  1.
</event>
<event>
 7    1  0.1631716E-009  0.4778727E+02  0.7816164E-02  0.1312668E+00
        -11   -1    0    0    0    0  0.00000000000E+00  0.00000000000E+00  0.45593999997E+02  0.45594000000E+02  0.51100000000E-03 0.  1.
         11   -1    0    0    0    0 -0.00000000000E+00 -0.00000000000E+00 -0.45593999997E+02  0.45594000000E+02  0.51100000000E-03 0. -1.
    9900012    2    1    2    0    0  0.95754262703E+01 -0.42145087706E+01  0.42120925107E+02  0.47787271846E+02  0.20000003654E+02 0.  0.
         12    1    1    2    0    0 -0.95754262703E+01  0.42145087706E+01 -0.42120925107E+02  0.43400728154E+02  0.00000000000E+00 0. -1.
         11    1    3    3    0    0  0.25162692362E+01 -0.11574862378E+02  0.21381280962E+02  0.24443163170E+02  0.51100000000E-03 0. -1.
        -11    1    3    3    0    0  0.39043782267E+01  0.32042463974E+01  0.13548619720E+02  0.14459476508E+02  0.51100000000E-03 0.  1.
        -12    1    3    3    0    0  0.31547788074E+01  0.41561072101E+01  0.71910244257E+01  0.88846321678E+01  0.00000000000E+00 0.  1.
</event>
<event>
 7    1  0.1631716E-009  0.4778727E+02  0.7816164E-02  0.1312668E+00
        -11   -1    0    0    0    0  0.00000000000E+00  0.00000000000E+00  0.45593999997E+02  0.45594000000E+02  0.51100000000E-03 0. -1.
         11   -1    0    0    0    0 -0.00000000000E+00 -0.00000000000E+00 -0.45593999997E+02  0.45594000000E+02  0.51100000000E-03 0.  1.
    9900012    2    1    2    0    0  0.12972067202E+02 -0.22248989418E+02 -0.34933238946E+02  0.47787271425E+02  0.20000001733E+02 0.  0.
         12    1    1    2    0    0 -0.12972067202E+02  0.22248989418E+02  0.34933238946E+02  0.43400728575E+02  0.00000000000E+00 0. -1.
         11    1    3    3    0    0 -0.26022057574E+01 -0.33267371647E+01 -0.45981375211E+01  0.62435185505E+01  0.51100000000E-03 0. -1.
        -11    1    3    3    0    0  0.12887097181E+02 -0.21177974789E+02 -0.25443248503E+02  0.35523834035E+02  0.51100000000E-03 0.  1.
         12    1    3    3    0    0  0.26871757785E+01  0.22557225352E+01 -0.48918529213E+01  0.60199188387E+01  0.00000000000E+00 0. -1.
</event>
<event>
 7    1  0.1631716E-009  0.4778727E+02  0.7816164E-02  0.1312668E+00
        -11   -1    0    0    0    0  0.00000000000E+00  0.00000000000E+00  0.45593999997E+02  0.45594000000E+02  0.51100000000E-03 0. -1.
         11   -1    0    0    0    0 -0.00000000000E+00 -0.00000000000E+00 -0.45593999997E+02  0.45594000000E+02  0.51100000000E-03 0.  1.
    9900012    2    1    2    0    0 -0.30607011147E+02  0.21455670226E+02 -0.22056479904E+02  0.47787271643E+02  0.20000002728E+02 0.  0.
         12    1    1    2    0    0  0.30607011147E+02 -0.21455670226E+02  0.22056479904E+02  0.43400728357E+02  0.00000000000E+00 0. -1.
         11    1    3    3    0    0 -0.14034368004E+02  0.14277274308E+02 -0.12018889246E+02  0.23350754719E+02  0.51100000000E-03 0. -1.
        -11    1    3    3    0    0 -0.62830943452E+01 -0.30701673451E+00 -0.98783921405E+01  0.11711283677E+02  0.51100000000E-03 0.  1.
         12    1    3    3    0    0 -0.10289548797E+02  0.74854126521E+01 -0.15919851762E+00  0.12725233247E+02  0.00000000000E+00 0. -1.
</event>
<event>
 7    1  0.1631716E-009  0.4778727E+02  0.7816164E-02  0.1312668E+00
        -11   -1    0    0    0    0  0.00000000000E+00  0.00000000000E+00  0.45593999997E+02  0.45594000000E+02  0.51100000000E-03 0. -1.
         11   -1    0    0    0    0 -0.00000000000E+00 -0.00000000000E+00 -0.45593999997E+02  0.45594000000E+02  0.51100000000E-03 0.  1.
    9900012    2    1    2    0    0  0.31328751575E+00 -0.43134875979E+02 -0.47862022056E+01  0.47787269518E+02  0.19999993040E+02 0.  0.
         12    1    1    2    0    0 -0.31328751575E+00  0.43134875979E+02  0.47862022056E+01  0.43400730482E+02  0.00000000000E+00 0. -1.
         11    1    3    3    0    0 -0.53517929924E+00 -0.43109311425E-01  0.19547019846E+01  0.20271002454E+01  0.51100000000E-03 0. -1.
        -11    1    3    3    0    0  0.14509461486E+01 -0.54469663814E+01 -0.58156726346E+01  0.80991811895E+01  0.51100000000E-03 0.  1.
        -12    1    3    3    0    0 -0.60247933360E+00 -0.37644800286E+02 -0.92523155562E+00  0.37660988083E+02  0.00000000000E+00 0.  1.
</event>
<event>
 7    1  0.2536344E-009  0.4778727E+02  0.7816164E-02  0.1312668E+00
        -11   -1    0    0    0    0  0.00000000000E+00  0.00000000000E+00  0.45593999997E+02  0.45594000000E+02  0.51100000000E-03 0. -1.
         11   -1    0    0    0    0 -0.00000000000E+00 -0.00000000000E+00 -0.45593999997E+02  0.45594000000E+02  0.51100000000E-03 0.  1.
    9900012    2    1    2    0    0  0.18261334030E+02  0.23423412184E+01 -0.39302174125E+02  0.47787265284E+02  0.19999973735E+02 0.  0.
         12    1    1    2    0    0 -0.18261334030E+02 -0.23423412184E+01  0.39302174125E+02  0.43400734716E+02  0.00000000000E+00 0. -1.
         11    1    3    3    0    0  0.11288183735E+02  0.84904481248E-01 -0.10151795857E+02  0.15181872749E+02  0.51100000000E-03 0. -1.
        -11    1    3    3    0    0  0.52529615158E+01 -0.31760801669E+01 -0.24477049125E+02  0.25235035646E+02  0.51100000000E-03 0.  1.
         12    1    3    3    0    0  0.17201887799E+01  0.54335169040E+01 -0.46733291430E+01  0.73703568885E+01  0.00000000000E+00 0. -1.
</event>
<event>
 7    1  0.1631716E-009  0.4778726E+02  0.7816164E-02  0.1312668E+00
        -11   -1    0    0    0    0  0.00000000000E+00  0.00000000000E+00  0.45593999997E+02  0.45594000000E+02  0.51100000000E-03 0. -1.
         11   -1    0    0    0    0 -0.00000000000E+00 -0.00000000000E+00 -0.45593999997E+02  0.45594000000E+02  0.51100000000E-03 0.  1.
    9900012    2    1    2    0    0 -0.42730723929E+02 -0.75777952546E+01 -0.53492774140E+00  0.47787263876E+02  0.19999967315E+02 0.  0.
         12    1    1    2    0    0  0.42730723929E+02  0.75777952546E+01  0.53492774140E+00  0.43400736124E+02  0.00000000000E+00 0. -1.
         11    1    3    3    0    0 -0.21018423803E+02  0.23326642758E+01 -0.27537986539E+01  0.21326013905E+02  0.51100000000E-03 0. -1.
        -11    1    3    3    0    0 -0.21984786805E+02 -0.94035098071E+01 -0.26364522288E+00  0.23912891013E+02  0.51100000000E-03 0.  1.
         12    1    3    3    0    0  0.27248667912E+00 -0.50694972330E+00  0.24825161353E+01  0.25483589571E+01  0.00000000000E+00 0. -1.
</event>
<event>
 7    1  0.1631716E-009  0.4778727E+02  0.7816164E-02  0.1312668E+00
        -11   -1    0    0    0    0  0.00000000000E+00  0.00000000000E+00  0.45593999997E+02  0.45594000000E+02  0.51100000000E-03 0. -1.
         11   -1    0    0    0    0 -0.00000000000E+00 -0.00000000000E+00 -0.45593999997E+02  0.45594000000E+02  0.51100000000E-03 0.  1.
    9900012    2    1    2    0    0  0.18690040500E+02 -0.17424642127E+02 -0.35081158581E+02  0.47787268963E+02  0.19999990512E+02 0.  0.
         12    1    1    2    0    0 -0.18690040500E+02  0.17424642127E+02  0.35081158581E+02  0.43400731037E+02  0.00000000000E+00 0. -1.
         11    1    3    3    0    0  0.71628079369E+01 -0.33276928451E+01 -0.21209309832E+02  0.22632149280E+02  0.51100000000E-03 0. -1.
        -11    1    3    3    0    0  0.29909584892E+01 -0.63319576794E+00 -0.72954269730E+01  0.79101216517E+01  0.51100000000E-03 0.  1.
        -12    1    3    3    0    0  0.85362740736E+01 -0.13463753514E+02 -0.65764217759E+01  0.17244998032E+02  0.00000000000E+00 0.  1.
</event>
<event>
 7    1  0.1631716E-009  0.4778724E+02  0.7816164E-02  0.1312668E+00
        -11   -1    0    0    0    0  0.00000000000E+00  0.00000000000E+00  0.45593999997E+02  0.45594000000E+02  0.51100000000E-03 0.  1.
         11   -1    0    0    0    0 -0.00000000000E+00 -0.00000000000E+00 -0.45593999997E+02  0.45594000000E+02  0.51100000000E-03 0. -1.
    9900012    2    1    2    0    0  0.29416181092E+02 -0.25807918629E+02  0.18768749201E+02  0.47787235945E+02  0.19999839968E+02 0.  0.
         12    1    1    2    0    0 -0.29416181092E+02  0.25807918629E+02 -0.18768749201E+02  0.43400764055E+02  0.00000000000E+00 0. -1.
         11    1    3    3    0    0 -0.27033094426E+01 -0.16240268880E+01  0.18608039207E+01  0.36616849629E+01  0.51100000000E-03 0. -1.
        -11    1    3    3    0    0  0.36067311370E+01 -0.48040201321E+00  0.20855806387E+01  0.41939173157E+01  0.51100000000E-03 0.  1.
        -12    1    3    3    0    0  0.28512759397E+02 -0.23703489728E+02  0.14822364642E+02  0.39931633667E+02  0.00000000000E+00 0.  1.
</event>
<event>
 7    1  0.1631716E-009  0.4778727E+02  0.7816164E-02  0.1312668E+00
        -11   -1    0    0    0    0  0.00000000000E+00  0.00000000000E+00  0.45593999997E+02  0.45594000000E+02  0.51100000000E-03 0. -1.
         11   -1    0    0    0    0 -0.00000000000E+00 -0.00000000000E+00 -0.45593999997E+02  0.45594000000E+02  0.51100000000E-03 0.  1.
    9900012    2    1    2    0    0 -0.20120750221E+02 -0.26275029843E+02 -0.28078488229E+02  0.47787270929E+02  0.19999999472E+02 0.  0.
         12    1    1    2    0    0  0.20120750221E+02  0.26275029843E+02  0.28078488229E+02  0.43400729071E+02  0.00000000000E+00 0. -1.
         11    1    3    3    0    0 -0.27294866355E+01 -0.96716429624E+01 -0.42621632392E+01  0.10915897152E+02  0.51100000000E-03 0. -1.
        -11    1    3    3    0    0 -0.15793455353E+02 -0.16390807145E+02 -0.25740803471E+02  0.34361035410E+02  0.51100000000E-03 0.  1.
        -12    1    3    3    0    0 -0.15978082327E+01 -0.21257973519E+00  0.19244784813E+01  0.25103383671E+01  0.00000000000E+00 0.  1.
</event>
<event>
 7    1  0.3090792E-009  0.4778728E+02  0.7816164E-02  0.1312668E+00
        -11   -1    0    0    0    0  0.00000000000E+00  0.00000000000E+00  0.45593999997E+02  0.45594000000E+02  0.51100000000E-03 0. -1.
         11   -1    0    0    0    0 -0.00000000000E+00 -0.00000000000E+00 -0.45593999997E+02  0.45594000000E+02  0.51100000000E-03 0.  1.
    9900012    2    1    2    0    0 -0.23405364160E+02  0.78187489524E+01 -0.35702645751E+02  0.47787276270E+02  0.20000023825E+02 0.  0.
         12    1    1    2    0    0  0.23405364160E+02 -0.78187489524E+01  0.35702645751E+02  0.43400723730E+02  0.00000000000E+00 0. -1.
         11    1    3    3    0    0  0.54617659432E+00  0.53639661833E+01 -0.46912553508E+01  0.71469097599E+01  0.51100000000E-03 0. -1.
        -11    1    3    3    0    0 -0.14186569467E+02  0.63543385593E+01 -0.20951114871E+02  0.26088035311E+02  0.51100000000E-03 0.  1.
         12    1    3    3    0    0 -0.97649712872E+01 -0.38995557903E+01 -0.10060275529E+02  0.14552331199E+02  0.00000000000E+00 0. -1.
</event>
<event>
 7    1  0.1631716E-009  0.4778728E+02  0.7816164E-02  0.1312668E+00
        -11   -1    0    0    0    0  0.00000000000E+00  0.00000000000E+00  0.45593999997E+02  0.45594000000E+02  0.51100000000E-03 0. -1.
         11   -1    0    0    0    0 -0.00000000000E+00 -0.00000000000E+00 -0.45593999997E+02  0.45594000000E+02  0.51100000000E-03 0.  1.
    9900012    2    1    2    0    0  0.24155390565E+02  0.31288022881E+02 -0.17922021491E+02  0.47787284298E+02  0.20000060428E+02 0.  0.
         12    1    1    2    0    0 -0.24155390565E+02 -0.31288022881E+02  0.17922021491E+02  0.43400715702E+02  0.00000000000E+00 0. -1.
         11    1    3    3    0    0 -0.29265333321E+01  0.20715857659E+01 -0.13423911270E+01  0.38285870929E+01  0.51100000000E-03 0. -1.
        -11    1    3    3    0    0  0.10407495376E+02  0.89635882734E+01 -0.18134051361E+01  0.13854613426E+02  0.51100000000E-03 0.  1.
        -12    1    3    3    0    0  0.16674428521E+02  0.20252848842E+02 -0.14766225228E+02  0.30104083779E+02  0.00000000000E+00 0.  1.
</event>
<event>
 7    1  0.1631716E-009  0.4778727E+02  0.7816164E-02  0.1312668E+00
        -11   -1    0    0    0    0  0.00000000000E+00  0.00000000000E+00  0.45593999997E+02  0.45594000000E+02  0.51100000000E-03 0.  1.
         11   -1    0    0    0    0 -0.00000000000E+00 -0.00000000000E+00 -0.45593999997E+02  0.45594000000E+02  0.51100000000E-03 0. -1.
    9900012    2    1    2    0    0  0.38379395161E+02 -0.30387856819E+01  0.20035245971E+02  0.47787271060E+02  0.20000000072E+02 0.  0.
         12    1    1    2    0    0 -0.38379395161E+02  0.30387856819E+01 -0.20035245971E+02  0.43400728940E+02  0.00000000000E+00 0. -1.
         11    1    3    3    0    0  0.12540304208E+02  0.87195116621E+00  0.87996661993E+01  0.15344499143E+02  0.51100000000E-03 0. -1.
        -11    1    3    3    0    0  0.90191241432E+01  0.34489993866E+01  0.10212358137E+02  0.14054624010E+02  0.51100000000E-03 0.  1.
         12    1    3    3    0    0  0.16819966810E+02 -0.73597362347E+01  0.10232216346E+01  0.18388147907E+02  0.00000000000E+00 0. -1.
</event>
<event>
 7    1  0.1631716E-009  0.4778727E+02  0.7816164E-02  0.1312668E+00
        -11   -1    0    0    0    0  0.00000000000E+00  0.00000000000E+00  0.45593999997E+02  0.45594000000E+02  0.51100000000E-03 0.  1.
         11   -1    0    0    0    0 -0.00000000000E+00 -0.00000000000E+00 -0.45593999997E+02  0.45594000000E+02  0.51100000000E-03 0. -1.
    9900012    2    1    2    0    0 -0.20441689649E+02 -0.32065440842E+02  0.20918125764E+02  0.47787272384E+02  0.20000006107E+02 0.  0.
         12    1    1    2    0    0  0.20441689649E+02  0.32065440842E+02 -0.20918125764E+02  0.43400727616E+02  0.00000000000E+00 0. -1.
         11    1    3    3    0    0 -0.23994586660E+01 -0.28081642093E+01 -0.10627378013E+00  0.36951972199E+01  0.51100000000E-03 0. -1.
        -11    1    3    3    0    0 -0.12557536953E+02 -0.10853025611E+02  0.14349135659E+01  0.16659498085E+02  0.51100000000E-03 0.  1.
        -12    1    3    3    0    0 -0.54846940292E+01 -0.18404251022E+02  0.19589485979E+02  0.27432577079E+02  0.00000000000E+00 0.  1.
</event>
<event>
 7    1  0.1631716E-009  0.4778721E+02  0.7816164E-02  0.1312668E+00
        -11   -1    0    0    0    0  0.00000000000E+00  0.00000000000E+00  0.45593999997E+02  0.45594000000E+02  0.51100000000E-03 0. -1.
         11   -1    0    0    0    0 -0.00000000000E+00 -0.00000000000E+00 -0.45593999997E+02  0.45594000000E+02  0.51100000000E-03 0.  1.
    9900012    2    1    2    0    0 -0.31940496122E+02  0.14670434965E+02 -0.25460000273E+02  0.47787210048E+02  0.19999721892E+02 0.  0.
         12    1    1    2    0    0  0.31940496122E+02 -0.14670434965E+02  0.25460000273E+02  0.43400789952E+02  0.00000000000E+00 0. -1.
         11    1    3    3    0    0 -0.22217731071E+01  0.16658716045E+01  0.40585256965E+00  0.28064426792E+01  0.51100000000E-03 0. -1.
        -11    1    3    3    0    0 -0.16532908222E+02  0.16094577623E+02 -0.14098323978E+02  0.27039512244E+02  0.51100000000E-03 0.  1.
         12    1    3    3    0    0 -0.13185814793E+02 -0.30900142623E+01 -0.11767528865E+02  0.17941255125E+02  0.00000000000E+00 0. -1.
</event>
<event>
 7    1  0.1631716E-009  0.4778728E+02  0.7816164E-02  0.1312668E+00
        -11   -1    0    0    0    0  0.00000000000E+00  0.00000000000E+00  0.45593999997E+02  0.45594000000E+02  0.51100000000E-03 0.  1.
         11   -1    0    0    0    0 -0.00000000000E+00 -0.00000000000E+00 -0.45593999997E+02  0.45594000000E+02  0.51100000000E-03 0. -1.
    9900012    2    1    2    0    0  0.60848257996E+01  0.42408900319E+02  0.69341644650E+01  0.47787279175E+02  0.20000037072E+02 0.  0.
         12    1    1    2    0    0 -0.60848257996E+01 -0.42408900319E+02 -0.69341644650E+01  0.43400720825E+02  0.00000000000E+00 0. -1.
         11    1    3    3    0    0  0.31614799749E+00 -0.66425013029E+00  0.35118916450E+00  0.81517598240E+00  0.51100000000E-03 0. -1.
        -11    1    3    3    0    0  0.36494852206E+01  0.43903562343E+02  0.53363911985E+01  0.44377005308E+02  0.51100000000E-03 0.  1.
        -12    1    3    3    0    0  0.21191925815E+01 -0.83041189398E+00  0.12465841020E+01  0.25950978853E+01  0.00000000000E+00 0.  1.
</event>
<event>
 7    1  0.1631716E-009  0.4778727E+02  0.7816164E-02  0.1312668E+00
        -11   -1    0    0    0    0  0.00000000000E+00  0.00000000000E+00  0.45593999997E+02  0.45594000000E+02  0.51100000000E-03 0.  1.
         11   -1    0    0    0    0 -0.00000000000E+00 -0.00000000000E+00 -0.45593999997E+02  0.45594000000E+02  0.51100000000E-03 0. -1.
    9900012    2    1    2    0    0  0.15873871894E+02 -0.62636130286E+01  0.39905016103E+02  0.47787274577E+02  0.20000016108E+02 0.  0.
         12    1    1    2    0    0 -0.15873871894E+02  0.62636130286E+01 -0.39905016103E+02  0.43400725423E+02  0.00000000000E+00 0. -1.
         11    1    3    3    0    0  0.58832629019E+01  0.31921825768E+00  0.10178674187E+02  0.11760956217E+02  0.51100000000E-03 0. -1.
        -11    1    3    3    0    0  0.72835353004E+01  0.46380875889E+01  0.15091644874E+02  0.17387337007E+02  0.51100000000E-03 0.  1.
         12    1    3    3    0    0  0.27070736912E+01 -0.11220918875E+02  0.14634697042E+02  0.18638981353E+02  0.00000000000E+00 0. -1.
</event>
<event>
 7    1  0.1631716E-009  0.4778727E+02  0.7816164E-02  0.1312668E+00
        -11   -1    0    0    0    0  0.00000000000E+00  0.00000000000E+00  0.45593999997E+02  0.45594000000E+02  0.51100000000E-03 0.  1.
         11   -1    0    0    0    0 -0.00000000000E+00 -0.00000000000E+00 -0.45593999997E+02  0.45594000000E+02  0.51100000000E-03 0. -1.
    9900012    2    1    2    0    0 -0.98096263084E+00  0.86319759155E+01  0.42522346465E+02  0.47787271380E+02  0.20000001528E+02 0.  0.
         12    1    1    2    0    0  0.98096263084E+00 -0.86319759155E+01 -0.42522346465E+02  0.43400728620E+02  0.00000000000E+00 0. -1.
         11    1    3    3    0    0 -0.37340106292E+01 -0.14032655008E+01  0.78531755412E+01  0.88081982146E+01  0.51100000000E-03 0. -1.
        -11    1    3    3    0    0 -0.53878384375E+01  0.54125683474E+01  0.21541468912E+02  0.22855187207E+02  0.51100000000E-03 0.  1.
        -12    1    3    3    0    0  0.81408864358E+01  0.46226730689E+01  0.13127702012E+02  0.16123885958E+02  0.00000000000E+00 0.  1.
</event>
<event>
 7    1  0.1631716E-009  0.4778727E+02  0.7816164E-02  0.1312668E+00
        -11   -1    0    0    0    0  0.00000000000E+00  0.00000000000E+00  0.45593999997E+02  0.45594000000E+02  0.51100000000E-03 0.  1.
         11   -1    0    0    0    0 -0.00000000000E+00 -0.00000000000E+00 -0.45593999997E+02  0.45594000000E+02  0.51100000000E-03 0. -1.
    9900012    2    1    2    0    0  0.38866249099E+02 -0.26052252555E+01  0.19137671056E+02  0.47787274532E+02  0.20000015902E+02 0.  0.
         12    1    1    2    0    0 -0.38866249099E+02  0.26052252555E+01 -0.19137671056E+02  0.43400725468E+02  0.00000000000E+00 0. -1.
         11    1    3    3    0    0  0.78277287960E+00  0.30868118377E-01 -0.22033867302E+01  0.23385037023E+01  0.51100000000E-03 0. -1.
        -11    1    3    3    0    0  0.28442193147E+02 -0.11574894520E+00  0.95326264958E+01  0.29997378502E+02  0.51100000000E-03 0.  1.
        -12    1    3    3    0    0  0.96412830730E+01 -0.25203444287E+01  0.11808431291E+02  0.15451392328E+02  0.00000000000E+00 0.  1.
</event>
<event>
 7    1  0.1631716E-009  0.4778727E+02  0.7816164E-02  0.1312668E+00
        -11   -1    0    0    0    0  0.00000000000E+00  0.00000000000E+00  0.45593999997E+02  0.45594000000E+02  0.51100000000E-03 0. -1.
         11   -1    0    0    0    0 -0.00000000000E+00 -0.00000000000E+00 -0.45593999997E+02  0.45594000000E+02  0.51100000000E-03 0.  1.
    9900012    2    1    2    0    0 -0.18741038736E+02  0.30211372714E+02 -0.24893165454E+02  0.47787271199E+02  0.20000000705E+02 0.  0.
         12    1    1    2    0    0  0.18741038736E+02 -0.30211372714E+02  0.24893165454E+02  0.43400728801E+02  0.00000000000E+00 0. -1.
         11    1    3    3    0    0 -0.47720369055E+01  0.26061314838E+00 -0.56023613344E+01  0.73638786127E+01  0.51100000000E-03 0. -1.
        -11    1    3    3    0    0 -0.74815756476E+01  0.38441138323E+01 -0.65352840942E+01  0.10651813169E+02  0.51100000000E-03 0.  1.
         12    1    3    3    0    0 -0.64874261829E+01  0.26106645733E+02 -0.12755520025E+02  0.29771579418E+02  0.00000000000E+00 0. -1.
</event>
<event>
 7    1  0.1631716E-009  0.4778727E+02  0.7816164E-02  0.1312668E+00
        -11   -1    0    0    0    0  0.00000000000E+00  0.00000000000E+00  0.45593999997E+02  0.45594000000E+02  0.51100000000E-03 0. -1.
         11   -1    0    0    0    0 -0.00000000000E+00 -0.00000000000E+00 -0.45593999997E+02  0.45594000000E+02  0.51100000000E-03 0.  1.
    9900012    2    1    2    0    0 -0.11421213737E+02  0.39189387491E+02 -0.14743510104E+02  0.47787270682E+02  0.19999998349E+02 0.  0.
         12    1    1    2    0    0  0.11421213737E+02 -0.39189387491E+02  0.14743510104E+02  0.43400729318E+02  0.00000000000E+00 0. -1.
         11    1    3    3    0    0 -0.15431664564E+01  0.69037128927E+01 -0.44436306513E+00  0.70880232231E+01  0.51100000000E-03 0. -1.
        -11    1    3    3    0    0 -0.31460894101E+01  0.30353007419E+02 -0.86977372369E+01  0.31730956041E+02  0.51100000000E-03 0.  1.
         12    1    3    3    0    0 -0.67319578709E+01  0.19326671791E+01 -0.56014098016E+01  0.89682914184E+01  0.00000000000E+00 0. -1.
</event>
<event>
 7    1  0.1631716E-009  0.4778727E+02  0.7816164E-02  0.1312668E+00
        -11   -1    0    0    0    0  0.00000000000E+00  0.00000000000E+00  0.45593999997E+02  0.45594000000E+02  0.51100000000E-03 0.  1.
         11   -1    0    0    0    0 -0.00000000000E+00 -0.00000000000E+00 -0.45593999997E+02  0.45594000000E+02  0.51100000000E-03 0. -1.
    9900012    2    1    2    0    0 -0.22180648065E+02 -0.36118432735E+02  0.93327828587E+01  0.47787272268E+02  0.20000005578E+02 0.  0.
         12    1    1    2    0    0  0.22180648065E+02  0.36118432735E+02 -0.93327828587E+01  0.43400727732E+02  0.00000000000E+00 0. -1.
         11    1    3    3    0    0 -0.94707831553E+01 -0.26446675008E+02 -0.74825862442E+00  0.28101285447E+02  0.51100000000E-03 0. -1.
        -11    1    3    3    0    0 -0.50973676954E+01 -0.67071844948E+01  0.70064747063E+01  0.10957197148E+02  0.51100000000E-03 0.  1.
         12    1    3    3    0    0 -0.76124972145E+01 -0.29645732321E+01  0.30745667768E+01  0.87287896729E+01  0.00000000000E+00 0. -1.
</event>
<event>
 7    1  0.1631716E-009  0.4778728E+02  0.7816164E-02  0.1312668E+00
        -11   -1    0    0    0    0  0.00000000000E+00  0.00000000000E+00  0.45593999997E+02  0.45594000000E+02  0.51100000000E-03 0.  1.
         11   -1    0    0    0    0 -0.00000000000E+00 -0.00000000000E+00 -0.45593999997E+02  0.45594000000E+02  0.51100000000E-03 0. -1.
    9900012    2    1    2    0    0 -0.43324348071E+02 -0.16438446891E+01  0.19802541192E+01  0.47787276878E+02  0.20000026598E+02 0.  0.
         12    1    1    2    0    0  0.43324348071E+02  0.16438446891E+01 -0.19802541192E+01  0.43400723122E+02  0.00000000000E+00 0. -1.
         11    1    3    3    0    0 -0.69099003092E+01 -0.55649192129E+01  0.27518451494E+01  0.92891172948E+01  0.51100000000E-03 0. -1.
        -11    1    3    3    0    0 -0.84249673071E+01 -0.28807313651E+01  0.31150380862E+01  0.94330350293E+01  0.51100000000E-03 0.  1.
         12    1    3    3    0    0 -0.27989480454E+02  0.68018058888E+01 -0.38866291163E+01  0.29065124554E+02  0.00000000000E+00 0. -1.
</event>
<event>
 7    1  0.1631716E-009  0.4778727E+02  0.7816164E-02  0.1312668E+00
        -11   -1    0    0    0    0  0.00000000000E+00  0.00000000000E+00  0.45593999997E+02  0.45594000000E+02  0.51100000000E-03 0.  1.
         11   -1    0    0    0    0 -0.00000000000E+00 -0.00000000000E+00 -0.45593999997E+02  0.45594000000E+02  0.51100000000E-03 0. -1.
    9900012    2    1    2    0    0 -0.19384514097E+01  0.43053774370E+02 -0.51223080759E+01  0.47787272801E+02  0.20000008008E+02 0.  0.
         12    1    1    2    0    0  0.19384514097E+01 -0.43053774370E+02  0.51223080759E+01  0.43400727199E+02  0.00000000000E+00 0. -1.
         11    1    3    3    0    0  0.47102543399E+00  0.18731189875E+02 -0.66587667481E+01  0.19885132988E+02  0.51100000000E-03 0. -1.
        -11    1    3    3    0    0 -0.19615318393E+00  0.12982291635E+02 -0.57948377934E+01  0.14218245935E+02  0.51100000000E-03 0.  1.
        -12    1    3    3    0    0 -0.22133236598E+01  0.11340292860E+02  0.73312964656E+01  0.13683893877E+02  0.00000000000E+00 0.  1.
</event>
<event>
 7    1  0.1631716E-009  0.4778727E+02  0.7816164E-02  0.1312668E+00
        -11   -1    0    0    0    0  0.00000000000E+00  0.00000000000E+00  0.45593999997E+02  0.45594000000E+02  0.51100000000E-03 0.  1.
         11   -1    0    0    0    0 -0.00000000000E+00 -0.00000000000E+00 -0.45593999997E+02  0.45594000000E+02  0.51100000000E-03 0. -1.
    9900012    2    1    2    0    0  0.24194059070E+02 -0.24493237585E+02  0.26426351869E+02  0.47787271265E+02  0.20000001004E+02 0.  0.
         12    1    1    2    0    0 -0.24194059070E+02  0.24493237585E+02 -0.26426351869E+02  0.43400728735E+02  0.00000000000E+00 0. -1.
         11    1    3    3    0    0  0.15170054000E+02 -0.16703873426E+02  0.94278163658E+01  0.24454726486E+02  0.51100000000E-03 0. -1.
        -11    1    3    3    0    0 -0.18500467591E+01 -0.12003849025E+01  0.13034566708E+00  0.22092051012E+01  0.51100000000E-03 0.  1.
        -12    1    3    3    0    0  0.10874051829E+02 -0.65889792566E+01  0.16868189836E+02  0.21123339678E+02  0.00000000000E+00 0.  1.
</event>
<event>
 7    1  0.1631716E-009  0.4778727E+02  0.7816164E-02  0.1312668E+00
        -11   -1    0    0    0    0  0.00000000000E+00  0.00000000000E+00  0.45593999997E+02  0.45594000000E+02  0.51100000000E-03 0.  1.
         11   -1    0    0    0    0 -0.00000000000E+00 -0.00000000000E+00 -0.45593999997E+02  0.45594000000E+02  0.51100000000E-03 0. -1.
    9900012    2    1    2    0    0 -0.29341663188E+02 -0.21423188065E+02  0.23743143240E+02  0.47787273780E+02  0.20000012472E+02 0.  0.
         12    1    1    2    0    0  0.29341663188E+02  0.21423188065E+02 -0.23743143240E+02  0.43400726220E+02  0.00000000000E+00 0. -1.
         11    1    3    3    0    0 -0.86965657164E+00 -0.51616600163E+00 -0.23660607969E+01  0.25731253078E+01  0.51100000000E-03 0. -1.
        -11    1    3    3    0    0 -0.11168277397E+02 -0.47709269376E+01  0.14330423506E+02  0.18784387187E+02  0.51100000000E-03 0.  1.
        -12    1    3    3    0    0 -0.17303729219E+02 -0.16136095126E+02  0.11778780531E+02  0.26429761285E+02  0.00000000000E+00 0.  1.
</event>
<event>
 7    1  0.1631716E-009  0.4778727E+02  0.7816164E-02  0.1312668E+00
        -11   -1    0    0    0    0  0.00000000000E+00  0.00000000000E+00  0.45593999997E+02  0.45594000000E+02  0.51100000000E-03 0. -1.
         11   -1    0    0    0    0 -0.00000000000E+00 -0.00000000000E+00 -0.45593999997E+02  0.45594000000E+02  0.51100000000E-03 0.  1.
    9900012    2    1    2    0    0  0.34262504032E+01 -0.42559299268E+02 -0.77839559960E+01  0.47787272852E+02  0.20000008241E+02 0.  0.
         12    1    1    2    0    0 -0.34262504032E+01  0.42559299268E+02  0.77839559960E+01  0.43400727148E+02  0.00000000000E+00 0. -1.
         11    1    3    3    0    0 -0.11338677452E+01 -0.16541775159E+02  0.68558283695E+00  0.16594758376E+02  0.51100000000E-03 0.  1.
        -11    1    3    3    0    0 -0.25890820105E+01 -0.12248836890E+02  0.17117235559E+01  0.12635954598E+02  0.51100000000E-03 0. -1.
        -12    1    3    3    0    0  0.71492001589E+01 -0.13768687219E+02 -0.10181262389E+02  0.18556559877E+02  0.00000000000E+00 0.  1.
</event>
<event>
 7    1  0.1631716E-009  0.4778726E+02  0.7816164E-02  0.1312668E+00
        -11   -1    0    0    0    0  0.00000000000E+00  0.00000000000E+00  0.45593999997E+02  0.45594000000E+02  0.51100000000E-03 0.  1.
         11   -1    0    0    0    0 -0.00000000000E+00 -0.00000000000E+00 -0.45593999997E+02  0.45594000000E+02  0.51100000000E-03 0. -1.
    9900012    2    1    2    0    0  0.19879534073E+02  0.15738787717E+02  0.35223844276E+02  0.47787256696E+02  0.19999934579E+02 0.  0.
         12    1    1    2    0    0 -0.19879534073E+02 -0.15738787717E+02 -0.35223844276E+02  0.43400743304E+02  0.00000000000E+00 0. -1.
         11    1    3    3    0    0  0.20992187905E+00  0.55352031114E+01  0.72180756677E+01  0.90985250060E+01  0.51100000000E-03 0. -1.
        -11    1    3    3    0    0  0.16391806385E+02  0.42581337112E+01  0.26933174423E+02  0.31815387849E+02  0.51100000000E-03 0.  1.
        -12    1    3    3    0    0  0.32778058097E+01  0.59454508944E+01  0.10725941853E+01  0.68733438405E+01  0.00000000000E+00 0.  1.
</event>
<event>
 7    1  0.1631716E-009  0.4778727E+02  0.7816164E-02  0.1312668E+00
        -11   -1    0    0    0    0  0.00000000000E+00  0.00000000000E+00  0.45593999997E+02  0.45594000000E+02  0.51100000000E-03 0.  1.
         11   -1    0    0    0    0 -0.00000000000E+00 -0.00000000000E+00 -0.45593999997E+02  0.45594000000E+02  0.51100000000E-03 0. -1.
    9900012    2    1    2    0    0  0.36302849693E+02  0.26877470746E+01  0.23632659056E+02  0.47787268967E+02  0.19999990528E+02 0.  0.
         12    1    1    2    0    0 -0.36302849693E+02 -0.26877470746E+01 -0.23632659056E+02  0.43400731033E+02  0.00000000000E+00 0. -1.
         11    1    3    3    0    0  0.43065646593E+01 -0.10069736798E+01  0.75296466371E+01  0.87324723817E+01  0.51100000000E-03 0. -1.
        -11    1    3    3    0    0  0.29909172088E+02  0.24503417014E+01  0.86730044684E+01  0.31237537614E+02  0.51100000000E-03 0.  1.
        -12    1    3    3    0    0  0.20871129456E+01  0.12443790530E+01  0.74300079507E+01  0.78172589711E+01  0.00000000000E+00 0.  1.
</event>
<event>
 7    1  0.1631716E-009  0.4778728E+02  0.7816164E-02  0.1312668E+00
        -11   -1    0    0    0    0  0.00000000000E+00  0.00000000000E+00  0.45593999997E+02  0.45594000000E+02  0.51100000000E-03 0.  1.
         11   -1    0    0    0    0 -0.00000000000E+00 -0.00000000000E+00 -0.45593999997E+02  0.45594000000E+02  0.51100000000E-03 0. -1.
    9900012    2    1    2    0    0 -0.31657988783E+02  0.25045620396E+02  0.15940864969E+02  0.47787279605E+02  0.20000039033E+02 0.  0.
         12    1    1    2    0    0  0.31657988783E+02 -0.25045620396E+02 -0.15940864969E+02  0.43400720395E+02  0.00000000000E+00 0. -1.
         11    1    3    3    0    0 -0.17341267298E+02  0.17425225694E+02  0.79428527712E+01  0.25834994724E+02  0.51100000000E-03 0. -1.
        -11    1    3    3    0    0 -0.16602242183E+02  0.70324156683E+01  0.65477655683E+01  0.19182349956E+02  0.51100000000E-03 0.  1.
         12    1    3    3    0    0  0.22855206978E+01  0.58797903318E+00  0.14502466294E+01  0.27699349252E+01  0.00000000000E+00 0. -1.
</event>
<event>
 7    1  0.1631716E-009  0.4778727E+02  0.7816164E-02  0.1312668E+00
        -11   -1    0    0    0    0  0.00000000000E+00  0.00000000000E+00  0.45593999997E+02  0.45594000000E+02  0.51100000000E-03 0. -1.
         11   -1    0    0    0    0 -0.00000000000E+00 -0.00000000000E+00 -0.45593999997E+02  0.45594000000E+02  0.51100000000E-03 0.  1.
    9900012    2    1    2    0    0  0.39956454105E+02  0.14950552085E+02  0.79740824955E+01  0.47787271620E+02  0.20000002622E+02 0.  0.
         12    1    1    2    0    0 -0.39956454105E+02 -0.14950552085E+02 -0.79740824955E+01  0.43400728380E+02  0.00000000000E+00 0. -1.
         11    1    3    3    0    0  0.26931669234E+01  0.51060442097E+01  0.23249133456E+01  0.62233478027E+01  0.51100000000E-03 0. -1.
        -11    1    3    3    0    0  0.18310960291E+01  0.26762000636E+01  0.43040705109E+01  0.53888758264E+01  0.51100000000E-03 0.  1.
        -12    1    3    3    0    0  0.35432191153E+02  0.71683078120E+01  0.13450986390E+01  0.36175047990E+02  0.00000000000E+00 0.  1.
</event>
<event>
 7    1  0.1631716E-009  0.4778727E+02  0.7816164E-02  0.1312668E+00
        -11   -1    0    0    0    0  0.00000000000E+00  0.00000000000E+00  0.45593999997E+02  0.45594000000E+02  0.51100000000E-03 0. -1.
         11   -1    0    0    0    0 -0.00000000000E+00 -0.00000000000E+00 -0.45593999997E+02  0.45594000000E+02  0.51100000000E-03 0.  1.
    9900012    2    1    2    0    0 -0.88619873756E+01 -0.41452000553E+02 -0.93177201659E+01  0.47787273287E+02  0.20000010225E+02 0.  0.
         12    1    1    2    0    0  0.88619873756E+01  0.41452000553E+02  0.93177201659E+01  0.43400726713E+02  0.00000000000E+00 0. -1.
         11    1    3    3    0    0 -0.66234508669E+01 -0.12588672801E+02 -0.11933610264E+02  0.18567601851E+02  0.51100000000E-03 0. -1.
        -11    1    3    3    0    0 -0.16024702314E+01 -0.71370747439E+01  0.14193879893E+01  0.74512018673E+01  0.51100000000E-03 0.  1.
        -12    1    3    3    0    0 -0.63606627731E+00 -0.21726253008E+02  0.11965021092E+01  0.21768469569E+02  0.00000000000E+00 0.  1.
</event>
<event>
 7    1  0.1631716E-009  0.4778728E+02  0.7816164E-02  0.1312668E+00
        -11   -1    0    0    0    0  0.00000000000E+00  0.00000000000E+00  0.45593999997E+02  0.45594000000E+02  0.51100000000E-03 0. -1.
         11   -1    0    0    0    0 -0.00000000000E+00 -0.00000000000E+00 -0.45593999997E+02  0.45594000000E+02  0.51100000000E-03 0.  1.
    9900012    2    1    2    0    0  0.64682573814E+01  0.30322017587E+02 -0.30370372013E+02  0.47787278804E+02  0.20000035381E+02 0.  0.
         12    1    1    2    0    0 -0.64682573814E+01 -0.30322017587E+02  0.30370372013E+02  0.43400721196E+02  0.00000000000E+00 0. -1.
         11    1    3    3    0    0 -0.23469728828E+01  0.16089677579E+02 -0.18699315244E+02  0.24780040298E+02  0.51100000000E-03 0. -1.
        -11    1    3    3    0    0  0.68501564964E+01  0.11040577770E+02 -0.13585424836E+02  0.18798477858E+02  0.51100000000E-03 0.  1.
         12    1    3    3    0    0  0.19650737678E+01  0.31917622381E+01  0.19143680679E+01  0.42087606486E+01  0.00000000000E+00 0. -1.
</event>
<event>
 7    1  0.1631716E-009  0.4778727E+02  0.7816164E-02  0.1312668E+00
        -11   -1    0    0    0    0  0.00000000000E+00  0.00000000000E+00  0.45593999997E+02  0.45594000000E+02  0.51100000000E-03 0.  1.
         11   -1    0    0    0    0 -0.00000000000E+00 -0.00000000000E+00 -0.45593999997E+02  0.45594000000E+02  0.51100000000E-03 0. -1.
    9900012    2    1    2    0    0 -0.39483569897E+02 -0.23947871352E+00 -0.18017038984E+02  0.47787270333E+02  0.19999996757E+02 0.  0.
         12    1    1    2    0    0  0.39483569897E+02  0.23947871352E+00  0.18017038984E+02  0.43400729667E+02  0.00000000000E+00 0. -1.
         11    1    3    3    0    0 -0.14034481776E+01 -0.17709187883E+01 -0.57388852869E+01  0.61677082242E+01  0.51100000000E-03 0. -1.
        -11    1    3    3    0    0 -0.13664501558E+02  0.46117976402E+01 -0.74254189252E+00  0.14440867322E+02  0.51100000000E-03 0.  1.
         12    1    3    3    0    0 -0.24415620162E+02 -0.30803575654E+01 -0.11535611805E+02  0.27178694787E+02  0.00000000000E+00 0. -1.
</event>
<event>
 7    1  0.1631716E-009  0.4778727E+02  0.7816164E-02  0.1312668E+00
        -11   -1    0    0    0    0  0.00000000000E+00  0.00000000000E+00  0.45593999997E+02  0.45594000000E+02  0.51100000000E-03 0.  1.
         11   -1    0    0    0    0 -0.00000000000E+00 -0.00000000000E+00 -0.45593999997E+02  0.45594000000E+02  0.51100000000E-03 0. -1.
    9900012    2    1    2    0    0 -0.17074966603E+02  0.10531779501E+02  0.38485719932E+02  0.47787268409E+02  0.19999987986E+02 0.  0.
         12    1    1    2    0    0  0.17074966603E+02 -0.10531779501E+02 -0.38485719932E+02  0.43400731591E+02  0.00000000000E+00 0. -1.
         11    1    3    3    0    0 -0.98732139680E+01 -0.34675047943E+01  0.14177705938E+02  0.17621330525E+02  0.51100000000E-03 0. -1.
        -11    1    3    3    0    0 -0.22504401744E+01 -0.27166684032E+00  0.61014766496E+01  0.65089401147E+01  0.51100000000E-03 0.  1.
         12    1    3    3    0    0 -0.49513124603E+01  0.14270951136E+02  0.18206537344E+02  0.23656997769E+02  0.00000000000E+00 0. -1.
</event>
<event>
 7    1  0.1631716E-009  0.4778728E+02  0.7816164E-02  0.1312668E+00
        -11   -1    0    0    0    0  0.00000000000E+00  0.00000000000E+00  0.45593999997E+02  0.45594000000E+02  0.51100000000E-03 0.  1.
         11   -1    0    0    0    0 -0.00000000000E+00 -0.00000000000E+00 -0.45593999997E+02  0.45594000000E+02  0.51100000000E-03 0. -1.
    9900012    2    1    2    0    0  0.25561210607E+02  0.94608182025E+01  0.33774847713E+02  0.47787275274E+02  0.20000019282E+02 0.  0.
         12    1    1    2    0    0 -0.25561210607E+02 -0.94608182025E+01 -0.33774847713E+02  0.43400724726E+02  0.00000000000E+00 0. -1.
         11    1    3    3    0    0  0.34588960692E+01  0.37211643659E+01  0.49624655829E+01  0.71019075732E+01  0.51100000000E-03 0. -1.
        -11    1    3    3    0    0  0.10101418678E+02 -0.88248618712E+00  0.24174996123E+02  0.26215413004E+02  0.51100000000E-03 0.  1.
        -12    1    3    3    0    0  0.12000895860E+02  0.66221400237E+01  0.46373860070E+01  0.14469954696E+02  0.00000000000E+00 0.  1.
</event>
<event>
 7    1  0.1631716E-009  0.4778727E+02  0.7816164E-02  0.1312668E+00
        -11   -1    0    0    0    0  0.00000000000E+00  0.00000000000E+00  0.45593999997E+02  0.45594000000E+02  0.51100000000E-03 0. -1.
         11   -1    0    0    0    0 -0.00000000000E+00 -0.00000000000E+00 -0.45593999997E+02  0.45594000000E+02  0.51100000000E-03 0.  1.
    9900012    2    1    2    0    0 -0.19018718462E+02  0.85059863432E+01 -0.38073086417E+02  0.47787269995E+02  0.19999995215E+02 0.  0.
         12    1    1    2    0    0  0.19018718462E+02 -0.85059863432E+01  0.38073086417E+02  0.43400730005E+02  0.00000000000E+00 0. -1.
         11    1    3    3    0    0 -0.52551145367E+01  0.55198053102E+01 -0.59195334777E+01  0.96501479943E+01  0.51100000000E-03 0. -1.
        -11    1    3    3    0    0 -0.13661143810E+02  0.60643840492E+01 -0.16837856159E+02  0.22514817441E+02  0.51100000000E-03 0.  1.
         12    1    3    3    0    0 -0.10246011520E+00 -0.30782030162E+01 -0.15315696781E+02  0.15622304560E+02  0.00000000000E+00 0. -1.
</event>
<event>
 7    1  0.1631716E-009  0.4778726E+02  0.7816164E-02  0.1312668E+00
        -11   -1    0    0    0    0  0.00000000000E+00  0.00000000000E+00  0.45593999997E+02  0.45594000000E+02  0.51100000000E-03 0.  1.
         11   -1    0    0    0    0 -0.00000000000E+00 -0.00000000000E+00 -0.45593999997E+02  0.45594000000E+02  0.51100000000E-03 0. -1.
    9900012    2    1    2    0    0  0.30579833233E+02  0.32484897856E+00  0.30795986928E+02  0.47787256477E+02  0.19999933582E+02 0.  0.
         12    1    1    2    0    0 -0.30579833233E+02 -0.32484897856E+00 -0.30795986928E+02  0.43400743523E+02  0.00000000000E+00 0. -1.
         11    1    3    3    0    0  0.24327033575E+02 -0.81380983043E+01  0.21948532768E+02  0.33760499071E+02  0.51100000000E-03 0.  1.
        -11    1    3    3    0    0  0.19410271937E+01  0.27636648371E+01  0.12626621828E+01  0.36055160446E+01  0.51100000000E-03 0. -1.
        -12    1    3    3    0    0  0.43117724643E+01  0.56992824457E+01  0.75847919773E+01  0.10421241362E+02  0.00000000000E+00 0.  1.
</event>
<event>
 7    1  0.1631716E-009  0.4778727E+02  0.7816164E-02  0.1312668E+00
        -11   -1    0    0    0    0  0.00000000000E+00  0.00000000000E+00  0.45593999997E+02  0.45594000000E+02  0.51100000000E-03 0.  1.
         11   -1    0    0    0    0 -0.00000000000E+00 -0.00000000000E+00 -0.45593999997E+02  0.45594000000E+02  0.51100000000E-03 0. -1.
    9900012    2    1    2    0    0 -0.74163100412E+01 -0.27238043329E+02  0.32965294090E+02  0.47787271049E+02  0.20000000020E+02 0.  0.
         12    1    1    2    0    0  0.74163100412E+01  0.27238043329E+02 -0.32965294090E+02  0.43400728951E+02  0.00000000000E+00 0. -1.
         11    1    3    3    0    0 -0.20287605798E+01 -0.71889708455E+01  0.44351160009E+01  0.86871989450E+01  0.51100000000E-03 0. -1.
        -11    1    3    3    0    0 -0.21594623755E+01 -0.17901168291E+02  0.10945747218E+02  0.21093233189E+02  0.51100000000E-03 0.  1.
         12    1    3    3    0    0 -0.32280870859E+01 -0.21479041930E+01  0.17584430871E+02  0.18006838915E+02  0.00000000000E+00 0. -1.
</event>
<event>
 7    1  0.1631716E-009  0.4778727E+02  0.7816164E-02  0.1312668E+00
        -11   -1    0    0    0    0  0.00000000000E+00  0.00000000000E+00  0.45593999997E+02  0.45594000000E+02  0.51100000000E-03 0.  1.
         11   -1    0    0    0    0 -0.00000000000E+00 -0.00000000000E+00 -0.45593999997E+02  0.45594000000E+02  0.51100000000E-03 0. -1.
    9900012    2    1    2    0    0  0.49763317906E+01  0.42394540298E+02 -0.78461637248E+01  0.47787271776E+02  0.20000003338E+02 0.  0.
         12    1    1    2    0    0 -0.49763317906E+01 -0.42394540298E+02  0.78461637248E+01  0.43400728224E+02  0.00000000000E+00 0. -1.
         11    1    3    3    0    0  0.49415178092E+01  0.26580865090E+02 -0.12632612588E+02  0.29841981976E+02  0.51100000000E-03 0. -1.
        -11    1    3    3    0    0 -0.12641517912E+01  0.49439486548E+01 -0.15034501663E+01  0.53198750659E+01  0.51100000000E-03 0.  1.
        -12    1    3    3    0    0  0.12989657726E+01  0.10869726553E+02  0.62898990300E+01  0.12625414735E+02  0.00000000000E+00 0.  1.
</event>
<event>
 7    1  0.1631716E-009  0.4778727E+02  0.7816164E-02  0.1312668E+00
        -11   -1    0    0    0    0  0.00000000000E+00  0.00000000000E+00  0.45593999997E+02  0.45594000000E+02  0.51100000000E-03 0.  1.
         11   -1    0    0    0    0 -0.00000000000E+00 -0.00000000000E+00 -0.45593999997E+02  0.45594000000E+02  0.51100000000E-03 0. -1.
    9900012    2    1    2    0    0  0.79713098743E+01 -0.34085566011E+02  0.25656491774E+02  0.47787272338E+02  0.20000005899E+02 0.  0.
         12    1    1    2    0    0 -0.79713098743E+01  0.34085566011E+02 -0.25656491774E+02  0.43400727662E+02  0.00000000000E+00 0. -1.
         11    1    3    3    0    0 -0.24732938311E+01  0.72287819519E+00 -0.38895814454E+00  0.26059593165E+01  0.51100000000E-03 0. -1.
        -11    1    3    3    0    0  0.61675486040E+00 -0.11641719270E+02  0.97814741352E+01  0.15217991019E+02  0.51100000000E-03 0.  1.
         12    1    3    3    0    0  0.98278488449E+01 -0.23166724937E+02  0.16263975783E+02  0.29963322003E+02  0.00000000000E+00 0. -1.
</event>
<event>
 7    1  0.1631716E-009  0.4778728E+02  0.7816164E-02  0.1312668E+00
        -11   -1    0    0    0    0  0.00000000000E+00  0.00000000000E+00  0.45593999997E+02  0.45594000000E+02  0.51100000000E-03 0.  1.
         11   -1    0    0    0    0 -0.00000000000E+00 -0.00000000000E+00 -0.45593999997E+02  0.45594000000E+02  0.51100000000E-03 0. -1.
    9900012    2    1    2    0    0 -0.69282669284E+01 -0.31078201555E+02  0.29491807515E+02  0.47787283358E+02  0.20000056143E+02 0.  0.
         12    1    1    2    0    0  0.69282669284E+01  0.31078201555E+02 -0.29491807515E+02  0.43400716642E+02  0.00000000000E+00 0. -1.
         11    1    3    3    0    0 -0.77470137986E+01 -0.11293309091E+02  0.56709555282E+01  0.14822779425E+02  0.51100000000E-03 0.  1.
        -11    1    3    3    0    0 -0.38206336860E+01 -0.37778964597E+01  0.25642978442E+01  0.59536011890E+01  0.51100000000E-03 0. -1.
         12    1    3    3    0    0  0.46393805561E+01 -0.16006996004E+02  0.21256554143E+02  0.27010902744E+02  0.00000000000E+00 0. -1.
</event>
<event>
 7    1  0.1631716E-009  0.4778727E+02  0.7816164E-02  0.1312668E+00
        -11   -1    0    0    0    0  0.00000000000E+00  0.00000000000E+00  0.45593999997E+02  0.45594000000E+02  0.51100000000E-03 0. -1.
         11   -1    0    0    0    0 -0.00000000000E+00 -0.00000000000E+00 -0.45593999997E+02  0.45594000000E+02  0.51100000000E-03 0.  1.
    9900012    2    1    2    0    0 -0.17106916347E+02 -0.13952085301E+02 -0.37367312071E+02  0.47787270945E+02  0.19999999545E+02 0.  0.
         12    1    1    2    0    0  0.17106916347E+02  0.13952085301E+02  0.37367312071E+02  0.43400729055E+02  0.00000000000E+00 0. -1.
         11    1    3    3    0    0 -0.22047823559E+01 -0.86661144201E+01 -0.16377934263E+02  0.18660100090E+02  0.51100000000E-03 0.  1.
        -11    1    3    3    0    0 -0.15360141673E+02 -0.73332268219E+01 -0.20996966188E+02  0.27029294426E+02  0.51100000000E-03 0. -1.
         12    1    3    3    0    0  0.45800768227E+00  0.20472559411E+01  0.75883800079E-02  0.20978764284E+01  0.00000000000E+00 0. -1.
</event>
<event>
 7    1  0.1631716E-009  0.4778728E+02  0.7816164E-02  0.1312668E+00
        -11   -1    0    0    0    0  0.00000000000E+00  0.00000000000E+00  0.45593999997E+02  0.45594000000E+02  0.51100000000E-03 0. -1.
         11   -1    0    0    0    0 -0.00000000000E+00 -0.00000000000E+00 -0.45593999997E+02  0.45594000000E+02  0.51100000000E-03 0.  1.
    9900012    2    1    2    0    0 -0.31591673493E+02  0.90655447823E+01 -0.28344395179E+02  0.47787277951E+02  0.20000031491E+02 0.  0.
         12    1    1    2    0    0  0.31591673493E+02 -0.90655447823E+01  0.28344395179E+02  0.43400722049E+02  0.00000000000E+00 0. -1.
         11    1    3    3    0    0 -0.86957366109E+01 -0.13530912307E+01 -0.17942590986E+02  0.19984575618E+02  0.51100000000E-03 0. -1.
        -11    1    3    3    0    0 -0.82346583746E+01  0.12253738463E+01 -0.19824941992E+01  0.85581203030E+01  0.51100000000E-03 0.  1.
         12    1    3    3    0    0 -0.14661278507E+02  0.91932621668E+01 -0.84193099941E+01  0.19244582030E+02  0.00000000000E+00 0. -1.
</event>
<event>
 7    1  0.1631716E-009  0.4778727E+02  0.7816164E-02  0.1312668E+00
        -11   -1    0    0    0    0  0.00000000000E+00  0.00000000000E+00  0.45593999997E+02  0.45594000000E+02  0.51100000000E-03 0.  1.
         11   -1    0    0    0    0 -0.00000000000E+00 -0.00000000000E+00 -0.45593999997E+02  0.45594000000E+02  0.51100000000E-03 0. -1.
    9900012    2    1    2    0    0 -0.37215315097E+02 -0.19335458153E+02  0.11170661842E+02  0.47787270678E+02  0.19999998327E+02 0.  0.
         12    1    1    2    0    0  0.37215315097E+02  0.19335458153E+02 -0.11170661842E+02  0.43400729322E+02  0.00000000000E+00 0. -1.
         11    1    3    3    0    0 -0.11438400705E+02 -0.33416890389E+01  0.67208195405E+00  0.11935476142E+02  0.51100000000E-03 0. -1.
        -11    1    3    3    0    0 -0.27482299282E+02 -0.12197080014E+02  0.85718542730E+01  0.31265351760E+02  0.51100000000E-03 0.  1.
         12    1    3    3    0    0  0.17053848904E+01 -0.37966890993E+01  0.19267256146E+01  0.45864427757E+01  0.00000000000E+00 0. -1.
</event>
<event>
 7    1  0.1631716E-009  0.4778727E+02  0.7816164E-02  0.1312668E+00
        -11   -1    0    0    0    0  0.00000000000E+00  0.00000000000E+00  0.45593999997E+02  0.45594000000E+02  0.51100000000E-03 0.  1.
         11   -1    0    0    0    0 -0.00000000000E+00 -0.00000000000E+00 -0.45593999997E+02  0.45594000000E+02  0.51100000000E-03 0. -1.
    9900012    2    1    2    0    0 -0.42419101884E+02  0.67587901146E+01  0.62098378830E+01  0.47787268036E+02  0.19999986283E+02 0.  0.
         12    1    1    2    0    0  0.42419101884E+02 -0.67587901146E+01 -0.62098378830E+01  0.43400731964E+02  0.00000000000E+00 0. -1.
         11    1    3    3    0    0 -0.32815051764E+01  0.40671282397E+01  0.68810306591E+00  0.52709860967E+01  0.51100000000E-03 0. -1.
        -11    1    3    3    0    0 -0.27119401378E+02 -0.49161681921E+01  0.62962514694E+01  0.28271424153E+02  0.51100000000E-03 0.  1.
         12    1    3    3    0    0 -0.12018195330E+02  0.76078300670E+01 -0.77451665229E+00  0.14244857787E+02  0.00000000000E+00 0. -1.
</event>
<event>
 7    1  0.1631716E-009  0.4778727E+02  0.7816164E-02  0.1312668E+00
        -11   -1    0    0    0    0  0.00000000000E+00  0.00000000000E+00  0.45593999997E+02  0.45594000000E+02  0.51100000000E-03 0.  1.
         11   -1    0    0    0    0 -0.00000000000E+00 -0.00000000000E+00 -0.45593999997E+02  0.45594000000E+02  0.51100000000E-03 0. -1.
    9900012    2    1    2    0    0  0.43023951139E+02  0.56958116923E+01 -0.34713765527E+00  0.47787272507E+02  0.20000006666E+02 0.  0.
         12    1    1    2    0    0 -0.43023951139E+02 -0.56958116923E+01  0.34713765527E+00  0.43400727493E+02  0.00000000000E+00 0. -1.
         11    1    3    3    0    0  0.30777283415E+01  0.26324911340E+01 -0.29251051548E+01  0.49958644640E+01  0.51100000000E-03 0. -1.
        -11    1    3    3    0    0  0.31312298351E+02  0.79779101660E+01  0.46425987006E+01  0.32644460504E+02  0.51100000000E-03 0.  1.
         12    1    3    3    0    0  0.86339244459E+01 -0.49145896077E+01 -0.20646312011E+01  0.10146947538E+02  0.00000000000E+00 0. -1.
</event>
<event>
 7    1  0.1631716E-009  0.4778721E+02  0.7816164E-02  0.1312668E+00
        -11   -1    0    0    0    0  0.00000000000E+00  0.00000000000E+00  0.45593999997E+02  0.45594000000E+02  0.51100000000E-03 0.  1.
         11   -1    0    0    0    0 -0.00000000000E+00 -0.00000000000E+00 -0.45593999997E+02  0.45594000000E+02  0.51100000000E-03 0. -1.
    9900012    2    1    2    0    0 -0.41384865003E+02 -0.12664226987E+02 -0.32463585374E+01  0.47787210373E+02  0.19999723374E+02 0.  0.
         12    1    1    2    0    0  0.41384865003E+02  0.12664226987E+02  0.32463585374E+01  0.43400789627E+02  0.00000000000E+00 0. -1.
         11    1    3    3    0    0  0.15119713196E+00 -0.25611630276E+01 -0.19110965336E+01  0.31991728382E+01  0.51100000000E-03 0. -1.
        -11    1    3    3    0    0 -0.18102523842E+02 -0.63455053163E+01  0.53814051538E+01  0.19923010035E+02  0.51100000000E-03 0.  1.
         12    1    3    3    0    0 -0.23433538293E+02 -0.37575586428E+01 -0.67166671576E+01  0.24665027500E+02  0.00000000000E+00 0. -1.
</event>
<event>
 7    1  0.1631716E-009  0.4778727E+02  0.7816164E-02  0.1312668E+00
        -11   -1    0    0    0    0  0.00000000000E+00  0.00000000000E+00  0.45593999997E+02  0.45594000000E+02  0.51100000000E-03 0.  1.
         11   -1    0    0    0    0 -0.00000000000E+00 -0.00000000000E+00 -0.45593999997E+02  0.45594000000E+02  0.51100000000E-03 0. -1.
    9900012    2    1    2    0    0 -0.28993398710E+02  0.25235662458E+02  0.20153591547E+02  0.47787273270E+02  0.20000010147E+02 0.  0.
         12    1    1    2    0    0  0.28993398710E+02 -0.25235662458E+02 -0.20153591547E+02  0.43400726730E+02  0.00000000000E+00 0. -1.
         11    1    3    3    0    0 -0.26738450308E+02  0.20915250648E+02  0.15051256497E+02  0.37133983855E+02  0.51100000000E-03 0. -1.
        -11    1    3    3    0    0 -0.63064778870E+00  0.35250893327E+01  0.71040273228E+01  0.79555751458E+01  0.51100000000E-03 0.  1.
        -12    1    3    3    0    0 -0.16243006129E+01  0.79532247745E+00 -0.20016922722E+01  0.26977142689E+01  0.00000000000E+00 0.  1.
</event>
<event>
 7    1  0.1631716E-009  0.4778727E+02  0.7816164E-02  0.1312668E+00
        -11   -1    0    0    0    0  0.00000000000E+00  0.00000000000E+00  0.45593999997E+02  0.45594000000E+02  0.51100000000E-03 0.  1.
         11   -1    0    0    0    0 -0.00000000000E+00 -0.00000000000E+00 -0.45593999997E+02  0.45594000000E+02  0.51100000000E-03 0. -1.
    9900012    2    1    2    0    0 -0.33281388204E+02 -0.27684701205E+02  0.30870669915E+01  0.47787268852E+02  0.19999990003E+02 0.  0.
         12    1    1    2    0    0  0.33281388204E+02  0.27684701205E+02 -0.30870669915E+01  0.43400731148E+02  0.00000000000E+00 0. -1.
         11    1    3    3    0    0 -0.24115017648E+02 -0.10722276890E+02  0.45651688719E+01  0.26783242241E+02  0.51100000000E-03 0. -1.
        -11    1    3    3    0    0 -0.71781158518E+01 -0.84711061145E+01 -0.41953324521E+01  0.11869532452E+02  0.51100000000E-03 0.  1.
        -12    1    3    3    0    0 -0.19882547044E+01 -0.84913182004E+01  0.27172305717E+01  0.91344941584E+01  0.00000000000E+00 0.  1.
</event>
<event>
 7    1  0.1631716E-009  0.4778727E+02  0.7816164E-02  0.1312668E+00
        -11   -1    0    0    0    0  0.00000000000E+00  0.00000000000E+00  0.45593999997E+02  0.45594000000E+02  0.51100000000E-03 0.  1.
         11   -1    0    0    0    0 -0.00000000000E+00 -0.00000000000E+00 -0.45593999997E+02  0.45594000000E+02  0.51100000000E-03 0. -1.
    9900012    2    1    2    0    0 -0.27939860190E+02  0.50344107637E+01  0.32827459525E+02  0.47787272148E+02  0.20000005033E+02 0.  0.
         12    1    1    2    0    0  0.27939860190E+02 -0.50344107637E+01 -0.32827459525E+02  0.43400727852E+02  0.00000000000E+00 0. -1.
         11    1    3    3    0    0 -0.72821277982E+01 -0.37623353074E+01  0.47654685508E+01  0.94812574590E+01  0.51100000000E-03 0. -1.
        -11    1    3    3    0    0 -0.12067210310E+02  0.32575842040E+01  0.24459752384E+02  0.27468325512E+02  0.51100000000E-03 0.  1.
         12    1    3    3    0    0 -0.85905220819E+01  0.55391618672E+01  0.36022385905E+01  0.10837689177E+02  0.00000000000E+00 0. -1.
</event>
<event>
 7    1  0.1631716E-009  0.4778727E+02  0.7816164E-02  0.1312668E+00
        -11   -1    0    0    0    0  0.00000000000E+00  0.00000000000E+00  0.45593999997E+02  0.45594000000E+02  0.51100000000E-03 0.  1.
         11   -1    0    0    0    0 -0.00000000000E+00 -0.00000000000E+00 -0.45593999997E+02  0.45594000000E+02  0.51100000000E-03 0. -1.
    9900012    2    1    2    0    0  0.13959845043E+02 -0.22766555368E+02  0.34211547069E+02  0.47787271091E+02  0.20000000213E+02 0.  0.
         12    1    1    2    0    0 -0.13959845043E+02  0.22766555368E+02 -0.34211547069E+02  0.43400728909E+02  0.00000000000E+00 0. -1.
         11    1    3    3    0    0 -0.85355260138E+00 -0.59311983868E+01  0.44305344054E+01  0.74523353202E+01  0.51100000000E-03 0. -1.
        -11    1    3    3    0    0  0.83191138351E+01  0.56478923549E+00  0.12079316806E+02  0.14677756526E+02  0.51100000000E-03 0.  1.
        -12    1    3    3    0    0  0.64942838095E+01 -0.17400146217E+02  0.17701695857E+02  0.25657179245E+02  0.00000000000E+00 0.  1.
</event>
<event>
 7    1  0.1631716E-009  0.4778727E+02  0.7816164E-02  0.1312668E+00
        -11   -1    0    0    0    0  0.00000000000E+00  0.00000000000E+00  0.45593999997E+02  0.45594000000E+02  0.51100000000E-03 0.  1.
         11   -1    0    0    0    0 -0.00000000000E+00 -0.00000000000E+00 -0.45593999997E+02  0.45594000000E+02  0.51100000000E-03 0. -1.
    9900012    2    1    2    0    0 -0.29101452774E+02  0.82949086284E+01  0.31111464520E+02  0.47787270890E+02  0.19999999297E+02 0.  0.
         12    1    1    2    0    0  0.29101452774E+02 -0.82949086284E+01 -0.31111464520E+02  0.43400729110E+02  0.00000000000E+00 0. -1.
         11    1    3    3    0    0 -0.12135084936E+02 -0.10259258796E+01  0.27408514147E+01  0.12482991510E+02  0.51100000000E-03 0. -1.
        -11    1    3    3    0    0 -0.79923955660E+01  0.18394533199E+00  0.13395563416E+02  0.15599786609E+02  0.51100000000E-03 0.  1.
        -12    1    3    3    0    0 -0.89739722720E+01  0.91368891759E+01  0.14975049689E+02  0.19704492771E+02  0.00000000000E+00 0.  1.
</event>
<event>
 7    1  0.1631716E-009  0.4778727E+02  0.7816164E-02  0.1312668E+00
        -11   -1    0    0    0    0  0.00000000000E+00  0.00000000000E+00  0.45593999997E+02  0.45594000000E+02  0.51100000000E-03 0.  1.
         11   -1    0    0    0    0 -0.00000000000E+00 -0.00000000000E+00 -0.45593999997E+02  0.45594000000E+02  0.51100000000E-03 0. -1.
    9900012    2    1    2    0    0  0.31374878576E+01 -0.24488919944E+02  0.35694153988E+02  0.47787266608E+02  0.19999979771E+02 0.  0.
         12    1    1    2    0    0 -0.31374878576E+01  0.24488919944E+02 -0.35694153988E+02  0.43400733392E+02  0.00000000000E+00 0. -1.
         11    1    3    3    0    0  0.46115324845E+01 -0.31708993426E+01  0.17471524480E+02  0.18345980552E+02  0.51100000000E-03 0. -1.
        -11    1    3    3    0    0 -0.33366204013E+00 -0.14592646941E+02  0.17175412770E+02  0.22539997320E+02  0.51100000000E-03 0.  1.
        -12    1    3    3    0    0 -0.11403825868E+01 -0.67253736606E+01  0.10472167377E+01  0.69012887358E+01  0.00000000000E+00 0.  1.
</event>
<event>
 7    1  0.1631716E-009  0.4778729E+02  0.7816164E-02  0.1312668E+00
        -11   -1    0    0    0    0  0.00000000000E+00  0.00000000000E+00  0.45593999997E+02  0.45594000000E+02  0.51100000000E-03 0. -1.
         11   -1    0    0    0    0 -0.00000000000E+00 -0.00000000000E+00 -0.45593999997E+02  0.45594000000E+02  0.51100000000E-03 0.  1.
    9900012    2    1    2    0    0 -0.34734052170E+02  0.87578663805E+01  0.24504429076E+02  0.47787289775E+02  0.20000085401E+02 0.  0.
         12    1    1    2    0    0  0.34734052170E+02 -0.87578663805E+01 -0.24504429076E+02  0.43400710225E+02  0.00000000000E+00 0. -1.
         11    1    3    3    0    0 -0.18016828176E+01 -0.24797551518E+01  0.71011777034E+00  0.31463493286E+01  0.51100000000E-03 0. -1.
        -11    1    3    3    0    0 -0.31046390336E+02  0.62064157518E+01  0.16864517553E+02  0.35872132665E+02  0.51100000000E-03 0.  1.
        -12    1    3    3    0    0 -0.18859790163E+01  0.50312057805E+01  0.69297937532E+01  0.87688077820E+01  0.00000000000E+00 0.  1.
</event>
<event>
 7    1  0.1631716E-009  0.4778727E+02  0.7816164E-02  0.1312668E+00
        -11   -1    0    0    0    0  0.00000000000E+00  0.00000000000E+00  0.45593999997E+02  0.45594000000E+02  0.51100000000E-03 0. -1.
         11   -1    0    0    0    0 -0.00000000000E+00 -0.00000000000E+00 -0.45593999997E+02  0.45594000000E+02  0.51100000000E-03 0.  1.
    9900012    2    1    2    0    0 -0.16246312610E+02  0.13002559227E+02 -0.38086924910E+02  0.47787273405E+02  0.20000010761E+02 0.  0.
         12    1    1    2    0    0  0.16246312610E+02 -0.13002559227E+02  0.38086924910E+02  0.43400726595E+02  0.00000000000E+00 0. -1.
         11    1    3    3    0    0 -0.58360163854E+01  0.20026551166E+01 -0.38471352969E+01  0.72711873185E+01  0.51100000000E-03 0. -1.
        -11    1    3    3    0    0  0.25475843930E+01  0.33641474668E+01 -0.17545628456E+02  0.18045962224E+02  0.51100000000E-03 0.  1.
        -12    1    3    3    0    0 -0.12957880618E+02  0.76357566440E+01 -0.16694161157E+02  0.22470123862E+02  0.00000000000E+00 0.  1.
</event>
<event>
 7    1  0.1631716E-009  0.4778727E+02  0.7816164E-02  0.1312668E+00
        -11   -1    0    0    0    0  0.00000000000E+00  0.00000000000E+00  0.45593999997E+02  0.45594000000E+02  0.51100000000E-03 0.  1.
         11   -1    0    0    0    0 -0.00000000000E+00 -0.00000000000E+00 -0.45593999997E+02  0.45594000000E+02  0.51100000000E-03 0. -1.
    9900012    2    1    2    0    0 -0.25918981024E+02  0.24253848962E+02  0.24971592662E+02  0.47787271817E+02  0.20000003520E+02 0.  0.
         12    1    1    2    0    0  0.25918981024E+02 -0.24253848962E+02 -0.24971592662E+02  0.43400728183E+02  0.00000000000E+00 0. -1.
         11    1    3    3    0    0 -0.19347069910E+02  0.14765463023E+02  0.13988313296E+02  0.28071354109E+02  0.51100000000E-03 0. -1.
        -11    1    3    3    0    0 -0.19654061750E+01  0.96661281761E+01  0.11414325110E+02  0.15085876618E+02  0.51100000000E-03 0.  1.
         12    1    3    3    0    0 -0.46065049396E+01 -0.17774223725E+00 -0.43104574431E+00  0.46300410900E+01  0.00000000000E+00 0. -1.
</event>
<event>
 7    1  0.1631716E-009  0.4778722E+02  0.7816164E-02  0.1312668E+00
        -11   -1    0    0    0    0  0.00000000000E+00  0.00000000000E+00  0.45593999997E+02  0.45594000000E+02  0.51100000000E-03 0. -1.
         11   -1    0    0    0    0 -0.00000000000E+00 -0.00000000000E+00 -0.45593999997E+02  0.45594000000E+02  0.51100000000E-03 0.  1.
    9900012    2    1    2    0    0  0.18286702793E+02 -0.38991636222E+02  0.53737239255E+01  0.47787215409E+02  0.19999746333E+02 0.  0.
         12    1    1    2    0    0 -0.18286702793E+02  0.38991636222E+02 -0.53737239255E+01  0.43400784591E+02  0.00000000000E+00 0. -1.
         11    1    3    3    0    0  0.29207676899E+01 -0.14012966013E+02  0.12614790938E+01  0.14369600904E+02  0.51100000000E-03 0.  1.
        -11    1    3    3    0    0 -0.16064634354E-02 -0.81194247626E+01 -0.41960441842E+01  0.91395759263E+01  0.51100000000E-03 0. -1.
         12    1    3    3    0    0  0.15367541567E+02 -0.16859245446E+02  0.83082890159E+01  0.24278038578E+02  0.00000000000E+00 0. -1.
</event>
<event>
 7    1  0.1631716E-009  0.4778727E+02  0.7816164E-02  0.1312668E+00
        -11   -1    0    0    0    0  0.00000000000E+00  0.00000000000E+00  0.45593999997E+02  0.45594000000E+02  0.51100000000E-03 0.  1.
         11   -1    0    0    0    0 -0.00000000000E+00 -0.00000000000E+00 -0.45593999997E+02  0.45594000000E+02  0.51100000000E-03 0. -1.
    9900012    2    1    2    0    0  0.19411771664E+02 -0.22449419961E+01  0.38752633382E+02  0.47787271461E+02  0.20000001897E+02 0.  0.
         12    1    1    2    0    0 -0.19411771664E+02  0.22449419961E+01 -0.38752633382E+02  0.43400728539E+02  0.00000000000E+00 0. -1.
         11    1    3    3    0    0 -0.20141378998E+01  0.12453093558E+01  0.61263821039E+01  0.65681127286E+01  0.51100000000E-03 0. -1.
        -11    1    3    3    0    0  0.12932292432E+02  0.41840342641E+01  0.19937720627E+02  0.24130127110E+02  0.51100000000E-03 0.  1.
        -12    1    3    3    0    0  0.84936171313E+01 -0.76742856161E+01  0.12688530652E+02  0.17089031622E+02  0.00000000000E+00 0.  1.
</event>
<event>
 7    1  0.1631716E-009  0.4778727E+02  0.7816164E-02  0.1312668E+00
        -11   -1    0    0    0    0  0.00000000000E+00  0.00000000000E+00  0.45593999997E+02  0.45594000000E+02  0.51100000000E-03 0.  1.
         11   -1    0    0    0    0 -0.00000000000E+00 -0.00000000000E+00 -0.45593999997E+02  0.45594000000E+02  0.51100000000E-03 0. -1.
    9900012    2    1    2    0    0  0.15587960173E+02 -0.20079120402E+02  0.35177665526E+02  0.47787265786E+02  0.19999976023E+02 0.  0.
         12    1    1    2    0    0 -0.15587960173E+02  0.20079120402E+02 -0.35177665526E+02  0.43400734214E+02  0.00000000000E+00 0. -1.
         11    1    3    3    0    0 -0.13339088231E+01 -0.72293334025E+00  0.77196159418E+01  0.78673004209E+01  0.51100000000E-03 0. -1.
        -11    1    3    3    0    0  0.14869725513E+02 -0.93066451730E+01  0.22492527624E+02  0.28524308588E+02  0.51100000000E-03 0.  1.
        -12    1    3    3    0    0  0.20521434830E+01 -0.10049541888E+02  0.49655219606E+01  0.11395656777E+02  0.00000000000E+00 0.  1.
</event>
<event>
 7    1  0.1631716E-009  0.4778721E+02  0.7816164E-02  0.1312668E+00
        -11   -1    0    0    0    0  0.00000000000E+00  0.00000000000E+00  0.45593999997E+02  0.45594000000E+02  0.51100000000E-03 0. -1.
         11   -1    0    0    0    0 -0.00000000000E+00 -0.00000000000E+00 -0.45593999997E+02  0.45594000000E+02  0.51100000000E-03 0.  1.
    9900012    2    1    2    0    0  0.30484810184E+02  0.18810999135E+02 -0.24504107047E+02  0.47787209655E+02  0.19999720099E+02 0.  0.
         12    1    1    2    0    0 -0.30484810184E+02 -0.18810999135E+02  0.24504107047E+02  0.43400790345E+02  0.00000000000E+00 0. -1.
         11    1    3    3    0    0  0.65086582614E+01  0.42775922460E+01 -0.62587951531E+01  0.99916437494E+01  0.51100000000E-03 0.  1.
        -11    1    3    3    0    0  0.21943145090E+01 -0.39396584714E+01 -0.30527363804E+01  0.54456519082E+01  0.51100000000E-03 0. -1.
         12    1    3    3    0    0  0.21781837413E+02  0.18473065360E+02 -0.15192575513E+02  0.32349913997E+02  0.00000000000E+00 0. -1.
</event>
<event>
 7    1  0.1631716E-009  0.4778727E+02  0.7816164E-02  0.1312668E+00
        -11   -1    0    0    0    0  0.00000000000E+00  0.00000000000E+00  0.45593999997E+02  0.45594000000E+02  0.51100000000E-03 0.  1.
         11   -1    0    0    0    0 -0.00000000000E+00 -0.00000000000E+00 -0.45593999997E+02  0.45594000000E+02  0.51100000000E-03 0. -1.
    9900012    2    1    2    0    0 -0.83521297674E+01 -0.71405329342E+01  0.41986641423E+02  0.47787270280E+02  0.19999996515E+02 0.  0.
         12    1    1    2    0    0  0.83521297674E+01  0.71405329342E+01 -0.41986641423E+02  0.43400729720E+02  0.00000000000E+00 0. -1.
         11    1    3    3    0    0 -0.12311354219E+01 -0.84445035681E+00 -0.14008815651E+01  0.20472567628E+01  0.51100000000E-03 0. -1.
        -11    1    3    3    0    0 -0.16098541859E+01 -0.76553082531E+01  0.16508431578E+02  0.18268105768E+02  0.51100000000E-03 0.  1.
         12    1    3    3    0    0 -0.55111401596E+01  0.13592256757E+01  0.26879091411E+02  0.27471907749E+02  0.00000000000E+00 0. -1.
</event>
<event>
 7    1  0.1631716E-009  0.4778727E+02  0.7816164E-02  0.1312668E+00
        -11   -1    0    0    0    0  0.00000000000E+00  0.00000000000E+00  0.45593999997E+02  0.45594000000E+02  0.51100000000E-03 0. -1.
         11   -1    0    0    0    0 -0.00000000000E+00 -0.00000000000E+00 -0.45593999997E+02  0.45594000000E+02  0.51100000000E-03 0.  1.
    9900012    2    1    2    0    0  0.13521386359E+02  0.23502295469E+02 -0.33888609204E+02  0.47787267112E+02  0.19999982072E+02 0.  0.
         12    1    1    2    0    0 -0.13521386359E+02 -0.23502295469E+02  0.33888609204E+02  0.43400732888E+02  0.00000000000E+00 0. -1.
         11    1    3    3    0    0  0.80061017046E+01  0.12007203426E+02 -0.24095493031E+02  0.28086711863E+02  0.51100000000E-03 0. -1.
        -11    1    3    3    0    0 -0.23453034204E+01  0.76932639219E+01 -0.65970474480E+01  0.10402297496E+02  0.51100000000E-03 0.  1.
        -12    1    3    3    0    0  0.78605880748E+01  0.38018281209E+01 -0.31960687252E+01  0.92982577529E+01  0.00000000000E+00 0.  1.
</event>
<event>
 7    1  0.1631716E-009  0.4778727E+02  0.7816164E-02  0.1312668E+00
        -11   -1    0    0    0    0  0.00000000000E+00  0.00000000000E+00  0.45593999997E+02  0.45594000000E+02  0.51100000000E-03 0.  1.
         11   -1    0    0    0    0 -0.00000000000E+00 -0.00000000000E+00 -0.45593999997E+02  0.45594000000E+02  0.51100000000E-03 0. -1.
    9900012    2    1    2    0    0  0.34628833803E+02 -0.12553022698E+02  0.22954060722E+02  0.47787269441E+02  0.19999992688E+02 0.  0.
         12    1    1    2    0    0 -0.34628833803E+02  0.12553022698E+02 -0.22954060722E+02  0.43400730559E+02  0.00000000000E+00 0. -1.
         11    1    3    3    0    0  0.11728689067E+02 -0.47577290891E+01  0.57608138669E+01  0.13906297494E+02  0.51100000000E-03 0. -1.
        -11    1    3    3    0    0  0.51359246426E+00  0.38999272756E+01  0.24948633775E+01  0.46580632787E+01  0.51100000000E-03 0.  1.
        -12    1    3    3    0    0  0.22386552272E+02 -0.11695220885E+02  0.14698383478E+02  0.29222908668E+02  0.00000000000E+00 0.  1.
</event>
<event>
 7    1  0.1631716E-009  0.4778727E+02  0.7816164E-02  0.1312668E+00
        -11   -1    0    0    0    0  0.00000000000E+00  0.00000000000E+00  0.45593999997E+02  0.45594000000E+02  0.51100000000E-03 0.  1.
         11   -1    0    0    0    0 -0.00000000000E+00 -0.00000000000E+00 -0.45593999997E+02  0.45594000000E+02  0.51100000000E-03 0. -1.
    9900012    2    1    2    0    0 -0.24052974747E+02 -0.11372470196E+02  0.34289130723E+02  0.47787272376E+02  0.20000006070E+02 0.  0.
         12    1    1    2    0    0  0.24052974747E+02  0.11372470196E+02 -0.34289130723E+02  0.43400727624E+02  0.00000000000E+00 0. -1.
         11    1    3    3    0    0 -0.53914854209E+01  0.25868375732E+01  0.11822684708E+02  0.13248989306E+02  0.51100000000E-03 0. -1.
        -11    1    3    3    0    0 -0.10726343829E+02 -0.94026457465E+01  0.20825156864E+02  0.25241857254E+02  0.51100000000E-03 0.  1.
         12    1    3    3    0    0 -0.79351454975E+01 -0.45566620231E+01  0.16412891509E+01  0.92964258152E+01  0.00000000000E+00 0. -1.
</event>
<event>
 7    1  0.1631716E-009  0.4778727E+02  0.7816164E-02  0.1312668E+00
        -11   -1    0    0    0    0  0.00000000000E+00  0.00000000000E+00  0.45593999997E+02  0.45594000000E+02  0.51100000000E-03 0.  1.
         11   -1    0    0    0    0 -0.00000000000E+00 -0.00000000000E+00 -0.45593999997E+02  0.45594000000E+02  0.51100000000E-03 0. -1.
    9900012    2    1    2    0    0 -0.40603623180E+01 -0.23965846112E+02  0.35955175674E+02  0.47787274433E+02  0.20000015448E+02 0.  0.
         12    1    1    2    0    0  0.40603623180E+01  0.23965846112E+02 -0.35955175674E+02  0.43400725567E+02  0.00000000000E+00 0. -1.
         11    1    3    3    0    0 -0.13391843993E+01  0.15434038486E+01  0.30908414179E+00  0.20666503243E+01  0.51100000000E-03 0. -1.
        -11    1    3    3    0    0 -0.82941540384E+00 -0.25083896150E+02  0.27013749807E+02  0.36873194259E+02  0.51100000000E-03 0.  1.
         12    1    3    3    0    0 -0.18917625148E+01 -0.42535381106E+00  0.86323417255E+01  0.88474298495E+01  0.00000000000E+00 0. -1.
</event>
<event>
 7    1  0.1631716E-009  0.4778727E+02  0.7816164E-02  0.1312668E+00
        -11   -1    0    0    0    0  0.00000000000E+00  0.00000000000E+00  0.45593999997E+02  0.45594000000E+02  0.51100000000E-03 0.  1.
         11   -1    0    0    0    0 -0.00000000000E+00 -0.00000000000E+00 -0.45593999997E+02  0.45594000000E+02  0.51100000000E-03 0. -1.
    9900012    2    1    2    0    0 -0.41438118710E+02 -0.43061309499E+01  0.12163995083E+02  0.47787271638E+02  0.20000002705E+02 0.  0.
         12    1    1    2    0    0  0.41438118710E+02  0.43061309499E+01 -0.12163995083E+02  0.43400728362E+02  0.00000000000E+00 0. -1.
         11    1    3    3    0    0 -0.12095711174E+02  0.72082362401E+01  0.48296726756E+01  0.14885920761E+02  0.51100000000E-03 0. -1.
        -11    1    3    3    0    0 -0.60276387971E+01 -0.50392191829E+01  0.13048506116E+01  0.79642196618E+01  0.51100000000E-03 0.  1.
        -12    1    3    3    0    0 -0.23314768739E+02 -0.64751480071E+01  0.60294717960E+01  0.24937131214E+02  0.00000000000E+00 0.  1.
</event>
<event>
 7    1  0.1631716E-009  0.4778727E+02  0.7816164E-02  0.1312668E+00
        -11   -1    0    0    0    0  0.00000000000E+00  0.00000000000E+00  0.45593999997E+02  0.45594000000E+02  0.51100000000E-03 0. -1.
         11   -1    0    0    0    0 -0.00000000000E+00 -0.00000000000E+00 -0.45593999997E+02  0.45594000000E+02  0.51100000000E-03 0.  1.
    9900012    2    1    2    0    0 -0.10885862968E+02  0.14408969693E+02 -0.39465211968E+02  0.47787269869E+02  0.19999994643E+02 0.  0.
         12    1    1    2    0    0  0.10885862968E+02 -0.14408969693E+02  0.39465211968E+02  0.43400730131E+02  0.00000000000E+00 0. -1.
         11    1    3    3    0    0 -0.64673549434E+01  0.10753966840E+02 -0.26602353243E+02  0.29413596874E+02  0.51100000000E-03 0.  1.
        -11    1    3    3    0    0  0.12045431971E+01 -0.24224712710E+01 -0.86908537570E+01  0.91022102074E+01  0.51100000000E-03 0. -1.
         12    1    3    3    0    0 -0.56230512220E+01  0.60774741242E+01 -0.41720049686E+01  0.92714627882E+01  0.00000000000E+00 0. -1.
</event>
<event>
 7    1  0.1631716E-009  0.4778727E+02  0.7816164E-02  0.1312668E+00
        -11   -1    0    0    0    0  0.00000000000E+00  0.00000000000E+00  0.45593999997E+02  0.45594000000E+02  0.51100000000E-03 0.  1.
         11   -1    0    0    0    0 -0.00000000000E+00 -0.00000000000E+00 -0.45593999997E+02  0.45594000000E+02  0.51100000000E-03 0. -1.
    9900012    2    1    2    0    0  0.61069198600E+00 -0.42296765072E+02 -0.97074171021E+01  0.47787271584E+02  0.20000002460E+02 0.  0.
         12    1    1    2    0    0 -0.61069198600E+00  0.42296765072E+02  0.97074171021E+01  0.43400728416E+02  0.00000000000E+00 0. -1.
         11    1    3    3    0    0  0.62067974416E+01 -0.19075174230E+02 -0.93468756147E+01  0.22130311575E+02  0.51100000000E-03 0. -1.
        -11    1    3    3    0    0 -0.53928963595E+01 -0.14329606640E+02 -0.43384772037E+01  0.15913621283E+02  0.51100000000E-03 0.  1.
        -12    1    3    3    0    0 -0.20320909614E+00 -0.88919842019E+01  0.39779357163E+01  0.97433387269E+01  0.00000000000E+00 0.  1.
</event>
<event>
 7    1  0.1631716E-009  0.4778726E+02  0.7816164E-02  0.1312668E+00
        -11   -1    0    0    0    0  0.00000000000E+00  0.00000000000E+00  0.45593999997E+02  0.45594000000E+02  0.51100000000E-03 0.  1.
         11   -1    0    0    0    0 -0.00000000000E+00 -0.00000000000E+00 -0.45593999997E+02  0.45594000000E+02  0.51100000000E-03 0. -1.
    9900012    2    1    2    0    0 -0.34175416268E+02 -0.23304619748E+02  0.13136201428E+02  0.47787260759E+02  0.19999953106E+02 0.  0.
         12    1    1    2    0    0  0.34175416268E+02  0.23304619748E+02 -0.13136201428E+02  0.43400739241E+02  0.00000000000E+00 0. -1.
         11    1    3    3    0    0 -0.83195526554E+01 -0.11061276094E+01 -0.31608813640E+01  0.89682576866E+01  0.51100000000E-03 0. -1.
        -11    1    3    3    0    0 -0.98168587495E+01 -0.74475968166E+01  0.10703269273E+02  0.16321684577E+02  0.51100000000E-03 0.  1.
        -12    1    3    3    0    0 -0.16039004863E+02 -0.14750895322E+02  0.55938135190E+01  0.22497318495E+02  0.00000000000E+00 0.  1.
</event>
<event>
 7    1  0.1631716E-009  0.4778727E+02  0.7816164E-02  0.1312668E+00
        -11   -1    0    0    0    0  0.00000000000E+00  0.00000000000E+00  0.45593999997E+02  0.45594000000E+02  0.51100000000E-03 0. -1.
         11   -1    0    0    0    0 -0.00000000000E+00 -0.00000000000E+00 -0.45593999997E+02  0.45594000000E+02  0.51100000000E-03 0.  1.
    9900012    2    1    2    0    0 -0.25832539278E+02 -0.26194666133E+02  0.23024822723E+02  0.47787273268E+02  0.20000010140E+02 0.  0.
         12    1    1    2    0    0  0.25832539278E+02  0.26194666133E+02 -0.23024822723E+02  0.43400726732E+02  0.00000000000E+00 0. -1.
         11    1    3    3    0    0 -0.10913089267E+02 -0.12747436608E+02  0.69021039560E+01  0.18144742949E+02  0.51100000000E-03 0. -1.
        -11    1    3    3    0    0 -0.16522923586E+02 -0.15232919702E+02  0.14481134143E+02  0.26734847911E+02  0.51100000000E-03 0.  1.
         12    1    3    3    0    0  0.16034735748E+01  0.17856901762E+01  0.16415846242E+01  0.29076824085E+01  0.00000000000E+00 0. -1.
</event>
<event>
 7    1  0.1631716E-009  0.4778727E+02  0.7816164E-02  0.1312668E+00
        -11   -1    0    0    0    0  0.00000000000E+00  0.00000000000E+00  0.45593999997E+02  0.45594000000E+02  0.51100000000E-03 0. -1.
         11   -1    0    0    0    0 -0.00000000000E+00 -0.00000000000E+00 -0.45593999997E+02  0.45594000000E+02  0.51100000000E-03 0.  1.
    9900012    2    1    2    0    0 -0.71861411731E+01 -0.42790126670E+02 -0.99385162139E+00  0.47787270669E+02  0.19999998290E+02 0.  0.
         12    1    1    2    0    0  0.71861411731E+01  0.42790126670E+02  0.99385162139E+00  0.43400729331E+02  0.00000000000E+00 0. -1.
         11    1    3    3    0    0  0.19150138885E+01  0.95753002475E-01  0.19943650325E+01  0.27665753152E+01  0.51100000000E-03 0. -1.
        -11    1    3    3    0    0 -0.21315163408E+01 -0.16210367465E+02 -0.57039169900E+01  0.17316294192E+02  0.51100000000E-03 0.  1.
        -12    1    3    3    0    0 -0.69696387207E+01 -0.26675512208E+02  0.27157003361E+01  0.27704401162E+02  0.00000000000E+00 0.  1.
</event>
<event>
 7    1  0.1631716E-009  0.4778727E+02  0.7816164E-02  0.1312668E+00
        -11   -1    0    0    0    0  0.00000000000E+00  0.00000000000E+00  0.45593999997E+02  0.45594000000E+02  0.51100000000E-03 0. -1.
         11   -1    0    0    0    0 -0.00000000000E+00 -0.00000000000E+00 -0.45593999997E+02  0.45594000000E+02  0.51100000000E-03 0.  1.
    9900012    2    1    2    0    0 -0.25024864976E+02 -0.40315935153E+01 -0.35229612260E+02  0.47787271972E+02  0.20000004230E+02 0.  0.
         12    1    1    2    0    0  0.25024864976E+02  0.40315935153E+01  0.35229612260E+02  0.43400728028E+02  0.00000000000E+00 0. -1.
         11    1    3    3    0    0 -0.45176371088E+01  0.12622497562E+01  0.32715025343E-01  0.46907771241E+01  0.51100000000E-03 0. -1.
        -11    1    3    3    0    0 -0.22238400038E+02 -0.39535859243E+01 -0.32175661564E+02  0.39312217887E+02  0.51100000000E-03 0.  1.
         12    1    3    3    0    0  0.17311721702E+01 -0.13402573472E+01 -0.30866657217E+01  0.37842769610E+01  0.00000000000E+00 0. -1.
</event>
<event>
 7    1  0.1631716E-009  0.4778727E+02  0.7816164E-02  0.1312668E+00
        -11   -1    0    0    0    0  0.00000000000E+00  0.00000000000E+00  0.45593999997E+02  0.45594000000E+02  0.51100000000E-03 0.  1.
         11   -1    0    0    0    0 -0.00000000000E+00 -0.00000000000E+00 -0.45593999997E+02  0.45594000000E+02  0.51100000000E-03 0. -1.
    9900012    2    1    2    0    0  0.12405465136E+02 -0.69032661159E+01  0.41013076705E+02  0.47787272942E+02  0.20000008654E+02 0.  0.
         12    1    1    2    0    0 -0.12405465136E+02  0.69032661159E+01 -0.41013076705E+02  0.43400727058E+02  0.00000000000E+00 0. -1.
         11    1    3    3    0    0  0.37653383351E+01 -0.60659854229E-01  0.23194102370E+02  0.23497826227E+02  0.51100000000E-03 0.  1.
        -11    1    3    3    0    0  0.54600035593E+01  0.25397381733E+01  0.37898762686E+01  0.71151297422E+01  0.51100000000E-03 0. -1.
         12    1    3    3    0    0  0.31801232415E+01 -0.93823444349E+01  0.14029098066E+02  0.17174316973E+02  0.00000000000E+00 0. -1.
</event>
<event>
 7    1  0.1631716E-009  0.4778726E+02  0.7816164E-02  0.1312668E+00
        -11   -1    0    0    0    0  0.00000000000E+00  0.00000000000E+00  0.45593999997E+02  0.45594000000E+02  0.51100000000E-03 0.  1.
         11   -1    0    0    0    0 -0.00000000000E+00 -0.00000000000E+00 -0.45593999997E+02  0.45594000000E+02  0.51100000000E-03 0. -1.
    9900012    2    1    2    0    0  0.19560504018E+02 -0.38710046317E+02  0.15946180829E+01  0.47787264866E+02  0.19999971832E+02 0.  0.
         12    1    1    2    0    0 -0.19560504018E+02  0.38710046317E+02 -0.15946180829E+01  0.43400735134E+02  0.00000000000E+00 0. -1.
         11    1    3    3    0    0  0.11515465849E+02 -0.21645139654E+02 -0.60232203825E+01  0.25246726687E+02  0.51100000000E-03 0. -1.
        -11    1    3    3    0    0  0.10177058111E+02 -0.13042589886E+02  0.49684867842E+01  0.17273318266E+02  0.51100000000E-03 0.  1.
        -12    1    3    3    0    0 -0.21320199422E+01 -0.40223167766E+01  0.26493516811E+01  0.52672199134E+01  0.00000000000E+00 0.  1.
</event>
<event>
 7    1  0.1631716E-009  0.4778727E+02  0.7816164E-02  0.1312668E+00
        -11   -1    0    0    0    0  0.00000000000E+00  0.00000000000E+00  0.45593999997E+02  0.45594000000E+02  0.51100000000E-03 0.  1.
         11   -1    0    0    0    0 -0.00000000000E+00 -0.00000000000E+00 -0.45593999997E+02  0.45594000000E+02  0.51100000000E-03 0. -1.
    9900012    2    1    2    0    0 -0.35400030442E+02  0.63893823200E+01  0.24282446151E+02  0.47787267831E+02  0.19999985348E+02 0.  0.
         12    1    1    2    0    0  0.35400030442E+02 -0.63893823200E+01 -0.24282446151E+02  0.43400732169E+02  0.00000000000E+00 0. -1.
         11    1    3    3    0    0  0.10337473314E+00 -0.17776933113E+01  0.18217184423E+01  0.25474572006E+01  0.51100000000E-03 0. -1.
        -11    1    3    3    0    0 -0.31183646787E+02  0.55789339787E+01  0.24250722196E+02  0.39895386432E+02  0.51100000000E-03 0.  1.
         12    1    3    3    0    0 -0.43197583882E+01  0.25881416526E+01 -0.17899944873E+01  0.53444241982E+01  0.00000000000E+00 0. -1.
</event>
<event>
 7    1  0.1631716E-009  0.4778727E+02  0.7816164E-02  0.1312668E+00
        -11   -1    0    0    0    0  0.00000000000E+00  0.00000000000E+00  0.45593999997E+02  0.45594000000E+02  0.51100000000E-03 0.  1.
         11   -1    0    0    0    0 -0.00000000000E+00 -0.00000000000E+00 -0.45593999997E+02  0.45594000000E+02  0.51100000000E-03 0. -1.
    9900012    2    1    2    0    0  0.29222590760E+01  0.16626927815E+02  0.39982859670E+02  0.47787269660E+02  0.19999993689E+02 0.  0.
         12    1    1    2    0    0 -0.29222590760E+01 -0.16626927815E+02 -0.39982859670E+02  0.43400730340E+02  0.00000000000E+00 0. -1.
         11    1    3    3    0    0 -0.36514621389E+01  0.79014153093E+01  0.16404072947E+02  0.18570383657E+02  0.51100000000E-03 0. -1.
        -11    1    3    3    0    0  0.34677223219E+01  0.77349864537E+01  0.24420490597E+02  0.25849864115E+02  0.51100000000E-03 0.  1.
         12    1    3    3    0    0  0.31059988929E+01  0.99052605163E+00 -0.84170387424E+00  0.33670218879E+01  0.00000000000E+00 0. -1.
</event>
<event>
 7    1  0.1631716E-009  0.4778727E+02  0.7816164E-02  0.1312668E+00
        -11   -1    0    0    0    0  0.00000000000E+00  0.00000000000E+00  0.45593999997E+02  0.45594000000E+02  0.51100000000E-03 0.  1.
         11   -1    0    0    0    0 -0.00000000000E+00 -0.00000000000E+00 -0.45593999997E+02  0.45594000000E+02  0.51100000000E-03 0. -1.
    9900012    2    1    2    0    0 -0.19436614233E+02 -0.80293806550E+01  0.37965385842E+02  0.47787269031E+02  0.19999990818E+02 0.  0.
         12    1    1    2    0    0  0.19436614233E+02  0.80293806550E+01 -0.37965385842E+02  0.43400730969E+02  0.00000000000E+00 0. -1.
         11    1    3    3    0    0  0.39658851253E+01 -0.15374168592E+01  0.43537790592E+01  0.60866483210E+01  0.51100000000E-03 0. -1.
        -11    1    3    3    0    0 -0.11516557906E+02 -0.35629850724E+01  0.20350891467E+02  0.23653430035E+02  0.51100000000E-03 0.  1.
        -12    1    3    3    0    0 -0.11885941453E+02 -0.29289787234E+01  0.13260715315E+02  0.18047190675E+02  0.00000000000E+00 0.  1.
</event>
<event>
 7    1  0.1631716E-009  0.4778727E+02  0.7816164E-02  0.1312668E+00
        -11   -1    0    0    0    0  0.00000000000E+00  0.00000000000E+00  0.45593999997E+02  0.45594000000E+02  0.51100000000E-03 0. -1.
         11   -1    0    0    0    0 -0.00000000000E+00 -0.00000000000E+00 -0.45593999997E+02  0.45594000000E+02  0.51100000000E-03 0.  1.
    9900012    2    1    2    0    0 -0.26943434871E+00 -0.33018330590E+02 -0.28166296470E+02  0.47787274123E+02  0.20000014035E+02 0.  0.
         12    1    1    2    0    0  0.26943434871E+00  0.33018330590E+02  0.28166296470E+02  0.43400725877E+02  0.00000000000E+00 0. -1.
         11    1    3    3    0    0  0.31238868509E+01 -0.15991022916E+02 -0.11593949533E+02  0.19997278539E+02  0.51100000000E-03 0.  1.
        -11    1    3    3    0    0 -0.24894226402E+01 -0.49183264754E+00  0.17579451686E+01  0.30869881619E+01  0.51100000000E-03 0. -1.
         12    1    3    3    0    0 -0.90389855935E+00 -0.16535475027E+02 -0.18330292106E+02  0.24703007421E+02  0.00000000000E+00 0. -1.
</event>
<event>
 7    1  0.1631716E-009  0.4778729E+02  0.7816164E-02  0.1312668E+00
        -11   -1    0    0    0    0  0.00000000000E+00  0.00000000000E+00  0.45593999997E+02  0.45594000000E+02  0.51100000000E-03 0. -1.
         11   -1    0    0    0    0 -0.00000000000E+00 -0.00000000000E+00 -0.45593999997E+02  0.45594000000E+02  0.51100000000E-03 0.  1.
    9900012    2    1    2    0    0  0.73619710192E+01  0.19157381340E+02 -0.38241566005E+02  0.47787294388E+02  0.20000106432E+02 0.  0.
         12    1    1    2    0    0 -0.73619710192E+01 -0.19157381340E+02  0.38241566005E+02  0.43400705612E+02  0.00000000000E+00 0. -1.
         11    1    3    3    0    0  0.61778984333E+01  0.11379587018E+02 -0.17736219643E+02  0.21959847842E+02  0.51100000000E-03 0.  1.
        -11    1    3    3    0    0  0.10954102341E+01  0.11034406603E+02 -0.10372511517E+02  0.15183775818E+02  0.51100000000E-03 0. -1.
        -12    1    3    3    0    0  0.88662351709E-01 -0.32566122810E+01 -0.10132834845E+02  0.10643670728E+02  0.00000000000E+00 0.  1.
</event>
<event>
 7    1  0.1631716E-009  0.4778727E+02  0.7816164E-02  0.1312668E+00
        -11   -1    0    0    0    0  0.00000000000E+00  0.00000000000E+00  0.45593999997E+02  0.45594000000E+02  0.51100000000E-03 0.  1.
         11   -1    0    0    0    0 -0.00000000000E+00 -0.00000000000E+00 -0.45593999997E+02  0.45594000000E+02  0.51100000000E-03 0. -1.
    9900012    2    1    2    0    0 -0.18231821892E+02  0.33581071934E+02  0.20579979059E+02  0.47787271207E+02  0.20000000739E+02 0.  0.
         12    1    1    2    0    0  0.18231821892E+02 -0.33581071934E+02 -0.20579979059E+02  0.43400728793E+02  0.00000000000E+00 0. -1.
         11    1    3    3    0    0  0.16829588712E+01  0.32603834299E+01  0.48482550633E+00  0.37010142805E+01  0.51100000000E-03 0. -1.
        -11    1    3    3    0    0 -0.16161266203E+02  0.14163357085E+02  0.16551128923E+02  0.27124289449E+02  0.51100000000E-03 0.  1.
        -12    1    3    3    0    0 -0.37535145604E+01  0.16157331419E+02  0.35440246294E+01  0.16961967477E+02  0.00000000000E+00 0.  1.
</event>
<event>
 7    1  0.1631716E-009  0.4778727E+02  0.7816164E-02  0.1312668E+00
        -11   -1    0    0    0    0  0.00000000000E+00  0.00000000000E+00  0.45593999997E+02  0.45594000000E+02  0.51100000000E-03 0.  1.
         11   -1    0    0    0    0 -0.00000000000E+00 -0.00000000000E+00 -0.45593999997E+02  0.45594000000E+02  0.51100000000E-03 0. -1.
    9900012    2    1    2    0    0  0.82529508306E+01  0.14569026744E+01  0.42583909746E+02  0.47787272678E+02  0.20000007449E+02 0.  0.
         12    1    1    2    0    0 -0.82529508306E+01 -0.14569026744E+01 -0.42583909746E+02  0.43400727322E+02  0.00000000000E+00 0. -1.
         11    1    3    3    0    0  0.10529107095E+02  0.37894945401E+01  0.22447784215E+02  0.25082371928E+02  0.51100000000E-03 0.  1.
        -11    1    3    3    0    0 -0.84712552553E-01 -0.51949201283E+01  0.52414345565E+01  0.73801766799E+01  0.51100000000E-03 0. -1.
        -12    1    3    3    0    0 -0.21914437115E+01  0.28623282626E+01  0.14894690974E+02  0.15324724071E+02  0.00000000000E+00 0.  1.
</event>
<event>
 7    1  0.1631716E-009  0.4778727E+02  0.7816164E-02  0.1312668E+00
        -11   -1    0    0    0    0  0.00000000000E+00  0.00000000000E+00  0.45593999997E+02  0.45594000000E+02  0.51100000000E-03 0.  1.
         11   -1    0    0    0    0 -0.00000000000E+00 -0.00000000000E+00 -0.45593999997E+02  0.45594000000E+02  0.51100000000E-03 0. -1.
    9900012    2    1    2    0    0 -0.32992547875E+02  0.27837350731E+02  0.44941027857E+01  0.47787271079E+02  0.20000000160E+02 0.  0.
         12    1    1    2    0    0  0.32992547875E+02 -0.27837350731E+02 -0.44941027857E+01  0.43400728921E+02  0.00000000000E+00 0. -1.
         11    1    3    3    0    0 -0.87770052143E+01  0.17986607800E+02  0.51902492237E+01  0.20675893401E+02  0.51100000000E-03 0. -1.
        -11    1    3    3    0    0 -0.81477750058E+01  0.30914620505E+01 -0.36195306096E+01  0.94363328285E+01  0.51100000000E-03 0.  1.
        -12    1    3    3    0    0 -0.16067767654E+02  0.67592808809E+01  0.29233841716E+01  0.17675044850E+02  0.00000000000E+00 0.  1.
</event>
<event>
 7    1  0.1631716E-009  0.4778727E+02  0.7816164E-02  0.1312668E+00
        -11   -1    0    0    0    0  0.00000000000E+00  0.00000000000E+00  0.45593999997E+02  0.45594000000E+02  0.51100000000E-03 0.  1.
         11   -1    0    0    0    0 -0.00000000000E+00 -0.00000000000E+00 -0.45593999997E+02  0.45594000000E+02  0.51100000000E-03 0. -1.
    9900012    2    1    2    0    0  0.41714132116E+02 -0.31012356911E+01  0.11573098471E+02  0.47787273172E+02  0.20000009699E+02 0.  0.
         12    1    1    2    0    0 -0.41714132116E+02  0.31012356911E+01 -0.11573098471E+02  0.43400726828E+02  0.00000000000E+00 0. -1.
         11    1    3    3    0    0  0.95673948485E+01  0.12497803162E+01  0.33131855404E+00  0.96543651926E+01  0.51100000000E-03 0. -1.
        -11    1    3    3    0    0  0.28602998092E+02  0.23370395766E+01  0.10367990463E+02  0.30513742484E+02  0.51100000000E-03 0.  1.
         12    1    3    3    0    0  0.35437391751E+01 -0.66880555839E+01  0.87378945353E+00  0.76191654952E+01  0.00000000000E+00 0. -1.
</event>
<event>
 7    1  0.1631716E-009  0.4778727E+02  0.7816164E-02  0.1312668E+00
        -11   -1    0    0    0    0  0.00000000000E+00  0.00000000000E+00  0.45593999997E+02  0.45594000000E+02  0.51100000000E-03 0.  1.
         11   -1    0    0    0    0 -0.00000000000E+00 -0.00000000000E+00 -0.45593999997E+02  0.45594000000E+02  0.51100000000E-03 0. -1.
    9900012    2    1    2    0    0 -0.21983484913E+02 -0.80690362183E+01  0.36540937660E+02  0.47787273284E+02  0.20000010210E+02 0.  0.
         12    1    1    2    0    0  0.21983484913E+02  0.80690362183E+01 -0.36540937660E+02  0.43400726716E+02  0.00000000000E+00 0. -1.
         11    1    3    3    0    0  0.21913138240E-01  0.20524384227E+01  0.14326526758E+01  0.25030936090E+01  0.51100000000E-03 0. -1.
        -11    1    3    3    0    0 -0.85418091000E+01 -0.11307541903E+02  0.23623031131E+02  0.27547606187E+02  0.51100000000E-03 0.  1.
        -12    1    3    3    0    0 -0.13463588951E+02  0.11860672620E+01  0.11485253854E+02  0.17736573487E+02  0.00000000000E+00 0.  1.
</event>
<event>
 7    1  0.1631716E-009  0.4778727E+02  0.7816164E-02  0.1312668E+00
        -11   -1    0    0    0    0  0.00000000000E+00  0.00000000000E+00  0.45593999997E+02  0.45594000000E+02  0.51100000000E-03 0. -1.
         11   -1    0    0    0    0 -0.00000000000E+00 -0.00000000000E+00 -0.45593999997E+02  0.45594000000E+02  0.51100000000E-03 0.  1.
    9900012    2    1    2    0    0  0.29427475046E+02  0.23145962830E+02 -0.21952479117E+02  0.47787271639E+02  0.20000002709E+02 0.  0.
         12    1    1    2    0    0 -0.29427475046E+02 -0.23145962830E+02  0.21952479117E+02  0.43400728361E+02  0.00000000000E+00 0. -1.
         11    1    3    3    0    0  0.60589736736E+01  0.88447870648E+01  0.50111003418E+00  0.10732778379E+02  0.51100000000E-03 0. -1.
        -11    1    3    3    0    0  0.12974033901E+02  0.12146680253E+02 -0.90129272900E+01  0.19927374524E+02  0.51100000000E-03 0.  1.
         12    1    3    3    0    0  0.10394467471E+02  0.21544955128E+01 -0.13440661861E+02  0.17127118736E+02  0.00000000000E+00 0. -1.
</event>
<event>
 7    1  0.1631716E-009  0.4778727E+02  0.7816164E-02  0.1312668E+00
        -11   -1    0    0    0    0  0.00000000000E+00  0.00000000000E+00  0.45593999997E+02  0.45594000000E+02  0.51100000000E-03 0. -1.
         11   -1    0    0    0    0 -0.00000000000E+00 -0.00000000000E+00 -0.45593999997E+02  0.45594000000E+02  0.51100000000E-03 0.  1.
    9900012    2    1    2    0    0 -0.22985890316E+02 -0.98460855274E+01 -0.35472905369E+02  0.47787267643E+02  0.19999984492E+02 0.  0.
         12    1    1    2    0    0  0.22985890316E+02  0.98460855274E+01  0.35472905369E+02  0.43400732357E+02  0.00000000000E+00 0. -1.
         11    1    3    3    0    0  0.15934595123E+01 -0.58942156340E+00  0.96132256235E+00  0.19520943437E+01  0.51100000000E-03 0. -1.
        -11    1    3    3    0    0 -0.98100320313E+01 -0.76731494993E+01 -0.12355897865E+02  0.17543721498E+02  0.51100000000E-03 0.  1.
        -12    1    3    3    0    0 -0.14769317797E+02 -0.15835144648E+01 -0.24078330066E+02  0.28291451801E+02  0.00000000000E+00 0.  1.
</event>
<event>
 7    1  0.1631716E-009  0.4778728E+02  0.7816164E-02  0.1312668E+00
        -11   -1    0    0    0    0  0.00000000000E+00  0.00000000000E+00  0.45593999997E+02  0.45594000000E+02  0.51100000000E-03 0.  1.
         11   -1    0    0    0    0 -0.00000000000E+00 -0.00000000000E+00 -0.45593999997E+02  0.45594000000E+02  0.51100000000E-03 0. -1.
    9900012    2    1    2    0    0  0.32697243502E+02  0.25324004036E+02  0.13160824081E+02  0.47787283376E+02  0.20000056224E+02 0.  0.
         12    1    1    2    0    0 -0.32697243502E+02 -0.25324004036E+02 -0.13160824081E+02  0.43400716624E+02  0.00000000000E+00 0. -1.
         11    1    3    3    0    0  0.21925305660E+02  0.44493103129E+01  0.73446136389E+01  0.23546947579E+02  0.51100000000E-03 0. -1.
        -11    1    3    3    0    0  0.33451974156E+01  0.75265529507E+01  0.25232977698E+01  0.86143123327E+01  0.51100000000E-03 0.  1.
         12    1    3    3    0    0  0.74267404262E+01  0.13348140772E+02  0.32929126726E+01  0.15626023464E+02  0.00000000000E+00 0. -1.
</event>
<event>
 7    1  0.1631716E-009  0.4778727E+02  0.7816164E-02  0.1312668E+00
        -11   -1    0    0    0    0  0.00000000000E+00  0.00000000000E+00  0.45593999997E+02  0.45594000000E+02  0.51100000000E-03 0.  1.
         11   -1    0    0    0    0 -0.00000000000E+00 -0.00000000000E+00 -0.45593999997E+02  0.45594000000E+02  0.51100000000E-03 0. -1.
    9900012    2    1    2    0    0  0.25253269283E+02  0.25519107796E+02  0.24385875008E+02  0.47787269913E+02  0.19999994844E+02 0.  0.
         12    1    1    2    0    0 -0.25253269283E+02 -0.25519107796E+02 -0.24385875008E+02  0.43400730087E+02  0.00000000000E+00 0. -1.
         11    1    3    3    0    0  0.59916473198E+00  0.46171004190E+01 -0.20168737031E+01  0.50738934213E+01  0.51100000000E-03 0. -1.
        -11    1    3    3    0    0  0.70694367357E+01  0.81729664362E+01  0.14088668456E+02  0.17755700359E+02  0.51100000000E-03 0.  1.
        -12    1    3    3    0    0  0.17584667815E+02  0.12729040941E+02  0.12314080254E+02  0.24957676133E+02  0.00000000000E+00 0.  1.
</event>
<event>
 7    1  0.1631716E-009  0.4778727E+02  0.7816164E-02  0.1312668E+00
        -11   -1    0    0    0    0  0.00000000000E+00  0.00000000000E+00  0.45593999997E+02  0.45594000000E+02  0.51100000000E-03 0.  1.
         11   -1    0    0    0    0 -0.00000000000E+00 -0.00000000000E+00 -0.45593999997E+02  0.45594000000E+02  0.51100000000E-03 0. -1.
    9900012    2    1    2    0    0 -0.15315843054E+02  0.63256568247E+01  0.40112769182E+02  0.47787271502E+02  0.20000002088E+02 0.  0.
         12    1    1    2    0    0  0.15315843054E+02 -0.63256568247E+01 -0.40112769182E+02  0.43400728498E+02  0.00000000000E+00 0. -1.
         11    1    3    3    0    0  0.78810452961E+00 -0.11064342228E+00  0.19674777256E+02  0.19690866183E+02  0.51100000000E-03 0. -1.
        -11    1    3    3    0    0 -0.42545631031E+00 -0.52877068464E+00  0.49100601074E+01  0.49567430868E+01  0.51100000000E-03 0.  1.
        -12    1    3    3    0    0 -0.15678491273E+02  0.69650709317E+01  0.15527931819E+02  0.23139662233E+02  0.00000000000E+00 0.  1.
</event>
<event>
 7    1  0.1631716E-009  0.4778728E+02  0.7816164E-02  0.1312668E+00
        -11   -1    0    0    0    0  0.00000000000E+00  0.00000000000E+00  0.45593999997E+02  0.45594000000E+02  0.51100000000E-03 0.  1.
         11   -1    0    0    0    0 -0.00000000000E+00 -0.00000000000E+00 -0.45593999997E+02  0.45594000000E+02  0.51100000000E-03 0. -1.
    9900012    2    1    2    0    0  0.34162636004E+02  0.50770296426E+01  0.26282329304E+02  0.47787276938E+02  0.20000026869E+02 0.  0.
         12    1    1    2    0    0 -0.34162636004E+02 -0.50770296426E+01 -0.26282329304E+02  0.43400723062E+02  0.00000000000E+00 0. -1.
         11    1    3    3    0    0  0.73149100853E+01  0.11088687732E+00  0.14029501305E+02  0.15822361157E+02  0.51100000000E-03 0. -1.
        -11    1    3    3    0    0  0.23256391967E+02  0.53590467607E+00  0.12186836986E+02  0.26261491906E+02  0.51100000000E-03 0.  1.
        -12    1    3    3    0    0  0.35913339518E+01  0.44302380892E+01  0.65991012735E-01  0.57034238747E+01  0.00000000000E+00 0.  1.
</event>
<event>
 7    1  0.1740608E-009  0.4778727E+02  0.7816164E-02  0.1312668E+00
        -11   -1    0    0    0    0  0.00000000000E+00  0.00000000000E+00  0.45593999997E+02  0.45594000000E+02  0.51100000000E-03 0. -1.
         11   -1    0    0    0    0 -0.00000000000E+00 -0.00000000000E+00 -0.45593999997E+02  0.45594000000E+02  0.51100000000E-03 0.  1.
    9900012    2    1    2    0    0 -0.39026741477E+00 -0.20476435948E+01 -0.43350640968E+02  0.47787271604E+02  0.20000002551E+02 0.  0.
         12    1    1    2    0    0  0.39026741477E+00  0.20476435948E+01  0.43350640968E+02  0.43400728396E+02  0.00000000000E+00 0. -1.
         11    1    3    3    0    0 -0.57127349886E+01  0.17002743692E+00 -0.96101755475E+01  0.11181221968E+02  0.51100000000E-03 0. -1.
        -11    1    3    3    0    0  0.20393073846E+01  0.31176644563E+01 -0.27543429333E+02  0.27794227925E+02  0.51100000000E-03 0.  1.
         12    1    3    3    0    0  0.32831601892E+01 -0.53353354880E+01 -0.61970360880E+01  0.88118217113E+01  0.00000000000E+00 0. -1.
</event>
<event>
 7    1  0.1631716E-009  0.4778727E+02  0.7816164E-02  0.1312668E+00
        -11   -1    0    0    0    0  0.00000000000E+00  0.00000000000E+00  0.45593999997E+02  0.45594000000E+02  0.51100000000E-03 0.  1.
         11   -1    0    0    0    0 -0.00000000000E+00 -0.00000000000E+00 -0.45593999997E+02  0.45594000000E+02  0.51100000000E-03 0. -1.
    9900012    2    1    2    0    0  0.23909466117E+02  0.22637974913E+02  0.28275133924E+02  0.47787266406E+02  0.19999978849E+02 0.  0.
         12    1    1    2    0    0 -0.23909466117E+02 -0.22637974913E+02 -0.28275133924E+02  0.43400733594E+02  0.00000000000E+00 0. -1.
         11    1    3    3    0    0  0.83989485809E+01  0.60341477320E+01  0.18098071276E+02  0.20844506717E+02  0.51100000000E-03 0.  1.
        -11    1    3    3    0    0  0.37459206564E+01 -0.95221211203E-01 -0.68206739166E+00  0.38087012000E+01  0.51100000000E-03 0. -1.
        -12    1    3    3    0    0  0.11764596880E+02  0.16699048392E+02  0.10859130040E+02  0.23134058489E+02  0.00000000000E+00 0.  1.
</event>
<event>
 7    1  0.1631716E-009  0.4778728E+02  0.7816164E-02  0.1312668E+00
        -11   -1    0    0    0    0  0.00000000000E+00  0.00000000000E+00  0.45593999997E+02  0.45594000000E+02  0.51100000000E-03 0. -1.
         11   -1    0    0    0    0 -0.00000000000E+00 -0.00000000000E+00 -0.45593999997E+02  0.45594000000E+02  0.51100000000E-03 0.  1.
    9900012    2    1    2    0    0 -0.29926610855E+02  0.31255282628E+02  0.33358880319E+01  0.47787275600E+02  0.20000020773E+02 0.  0.
         12    1    1    2    0    0  0.29926610855E+02 -0.31255282628E+02 -0.33358880319E+01  0.43400724400E+02  0.00000000000E+00 0. -1.
         11    1    3    3    0    0 -0.14401831015E+02  0.13368167997E+02 -0.41503184380E+01  0.20083470706E+02  0.51100000000E-03 0. -1.
        -11    1    3    3    0    0 -0.66472029252E+01  0.39530238053E+01 -0.28190310329E+01  0.82315636522E+01  0.51100000000E-03 0.  1.
         12    1    3    3    0    0 -0.88775769148E+01  0.13934090826E+02  0.10305237503E+02  0.19472241242E+02  0.00000000000E+00 0. -1.
</event>
<event>
 7    1  0.1631716E-009  0.4778727E+02  0.7816164E-02  0.1312668E+00
        -11   -1    0    0    0    0  0.00000000000E+00  0.00000000000E+00  0.45593999997E+02  0.45594000000E+02  0.51100000000E-03 0. -1.
         11   -1    0    0    0    0 -0.00000000000E+00 -0.00000000000E+00 -0.45593999997E+02  0.45594000000E+02  0.51100000000E-03 0.  1.
    9900012    2    1    2    0    0 -0.66307599213E+01  0.34053945393E+02 -0.26076523845E+02  0.47787271091E+02  0.20000000212E+02 0.  0.
         12    1    1    2    0    0  0.66307599213E+01 -0.34053945393E+02  0.26076523845E+02  0.43400728909E+02  0.00000000000E+00 0. -1.
         11    1    3    3    0    0 -0.44596530259E+01  0.88835586442E+01 -0.11757950769E+01  0.10009426238E+02  0.51100000000E-03 0. -1.
        -11    1    3    3    0    0  0.54750330856E+01  0.93463564921E+01 -0.97805695820E+01  0.14594173789E+02  0.51100000000E-03 0.  1.
         12    1    3    3    0    0 -0.76461399810E+01  0.15824030257E+02 -0.15120159186E+02  0.23183671064E+02  0.00000000000E+00 0. -1.
</event>
<event>
 7    1  0.1631716E-009  0.4778724E+02  0.7816164E-02  0.1312668E+00
        -11   -1    0    0    0    0  0.00000000000E+00  0.00000000000E+00  0.45593999997E+02  0.45594000000E+02  0.51100000000E-03 0.  1.
         11   -1    0    0    0    0 -0.00000000000E+00 -0.00000000000E+00 -0.45593999997E+02  0.45594000000E+02  0.51100000000E-03 0. -1.
    9900012    2    1    2    0    0 -0.25420360161E+02  0.34361689231E+02  0.75303319882E+01  0.47787236212E+02  0.19999841183E+02 0.  0.
         12    1    1    2    0    0  0.25420360161E+02 -0.34361689231E+02 -0.75303319882E+01  0.43400763788E+02  0.00000000000E+00 0. -1.
         11    1    3    3    0    0  0.13162906240E+01  0.71693091652E+00 -0.14330698494E+01  0.20737165670E+01  0.51100000000E-03 0. -1.
        -11    1    3    3    0    0 -0.12774489074E+02  0.25222666234E+02  0.33606871943E+01  0.28472173814E+02  0.51100000000E-03 0.  1.
        -12    1    3    3    0    0 -0.13962161711E+02  0.84220920812E+01  0.56027146433E+01  0.17241345830E+02  0.00000000000E+00 0.  1.
</event>
<event>
 7    1  0.1631716E-009  0.4778727E+02  0.7816164E-02  0.1312668E+00
        -11   -1    0    0    0    0  0.00000000000E+00  0.00000000000E+00  0.45593999997E+02  0.45594000000E+02  0.51100000000E-03 0.  1.
         11   -1    0    0    0    0 -0.00000000000E+00 -0.00000000000E+00 -0.45593999997E+02  0.45594000000E+02  0.51100000000E-03 0. -1.
    9900012    2    1    2    0    0  0.27472258060E+02  0.13078467302E+01  0.33573622110E+02  0.47787268122E+02  0.19999986674E+02 0.  0.
         12    1    1    2    0    0 -0.27472258060E+02 -0.13078467302E+01 -0.33573622110E+02  0.43400731878E+02  0.00000000000E+00 0. -1.
         11    1    3    3    0    0  0.12743193152E+02 -0.63636681337E+00  0.90894418225E+01  0.15665627575E+02  0.51100000000E-03 0.  1.
        -11    1    3    3    0    0  0.11594098700E+02  0.29319347373E+01  0.25911570282E+02  0.28538199675E+02  0.51100000000E-03 0. -1.
         12    1    3    3    0    0  0.31349662082E+01 -0.98772119373E+00 -0.14273899939E+01  0.35834408713E+01  0.00000000000E+00 0. -1.
</event>
<event>
 7    1  0.1631716E-009  0.4778733E+02  0.7816164E-02  0.1312667E+00
        -11   -1    0    0    0    0  0.00000000000E+00  0.00000000000E+00  0.45593999997E+02  0.45594000000E+02  0.51100000000E-03 0.  1.
         11   -1    0    0    0    0 -0.00000000000E+00 -0.00000000000E+00 -0.45593999997E+02  0.45594000000E+02  0.51100000000E-03 0. -1.
    9900012    2    1    2    0    0 -0.42492008919E+02 -0.83967513121E+01  0.27462510386E+01  0.47787330081E+02  0.20000269172E+02 0.  0.
         12    1    1    2    0    0  0.42492008919E+02  0.83967513121E+01 -0.27462510386E+01  0.43400669919E+02  0.00000000000E+00 0. -1.
         11    1    3    3    0    0 -0.15198096566E+02  0.29257987652E+00  0.83396322104E+01  0.17338316178E+02  0.51100000000E-03 0. -1.
        -11    1    3    3    0    0 -0.19904312123E+02 -0.21917495215E+01 -0.27939835503E+01  0.20218599145E+02  0.51100000000E-03 0.  1.
         12    1    3    3    0    0 -0.73896002304E+01 -0.64975816671E+01 -0.27993976216E+01  0.10230414758E+02  0.00000000000E+00 0. -1.
</event>
<event>
 7    1  0.1631716E-009  0.4778727E+02  0.7816164E-02  0.1312668E+00
        -11   -1    0    0    0    0  0.00000000000E+00  0.00000000000E+00  0.45593999997E+02  0.45594000000E+02  0.51100000000E-03 0. -1.
         11   -1    0    0    0    0 -0.00000000000E+00 -0.00000000000E+00 -0.45593999997E+02  0.45594000000E+02  0.51100000000E-03 0.  1.
    9900012    2    1    2    0    0 -0.29418578815E+02  0.31875615709E+02 -0.14544715238E+01  0.47787272544E+02  0.20000006836E+02 0.  0.
         12    1    1    2    0    0  0.29418578815E+02 -0.31875615709E+02  0.14544715238E+01  0.43400727456E+02  0.00000000000E+00 0. -1.
         11    1    3    3    0    0 -0.11973565344E+02  0.16924036910E+02 -0.32130059120E+01  0.20978863163E+02  0.51100000000E-03 0. -1.
        -11    1    3    3    0    0 -0.39232083529E+01  0.58129291260E+01 -0.55334094982E+01  0.89331030297E+01  0.51100000000E-03 0.  1.
         12    1    3    3    0    0 -0.13521805117E+02  0.91386496738E+01  0.72919438864E+01  0.17875306351E+02  0.00000000000E+00 0. -1.
</event>
<event>
 7    1  0.1631716E-009  0.4778727E+02  0.7816164E-02  0.1312668E+00
        -11   -1    0    0    0    0  0.00000000000E+00  0.00000000000E+00  0.45593999997E+02  0.45594000000E+02  0.51100000000E-03 0.  1.
         11   -1    0    0    0    0 -0.00000000000E+00 -0.00000000000E+00 -0.45593999997E+02  0.45594000000E+02  0.51100000000E-03 0. -1.
    9900012    2    1    2    0    0 -0.83579674360E+01  0.37983049901E+02  0.19262806273E+02  0.47787269534E+02  0.19999993112E+02 0.  0.
         12    1    1    2    0    0  0.83579674360E+01 -0.37983049901E+02 -0.19262806273E+02  0.43400730466E+02  0.00000000000E+00 0. -1.
         11    1    3    3    0    0  0.39852688289E+01  0.11263887883E+02  0.41143997670E+01  0.12636685625E+02  0.51100000000E-03 0. -1.
        -11    1    3    3    0    0 -0.28976765799E+01  0.50801019291E+01  0.90325207400E+01  0.10760594610E+02  0.51100000000E-03 0.  1.
        -12    1    3    3    0    0 -0.94455596850E+01  0.21639060089E+02  0.61158857664E+01  0.24389989299E+02  0.00000000000E+00 0.  1.
</event>
<event>
 7    1  0.1631716E-009  0.4778727E+02  0.7816164E-02  0.1312668E+00
        -11   -1    0    0    0    0  0.00000000000E+00  0.00000000000E+00  0.45593999997E+02  0.45594000000E+02  0.51100000000E-03 0. -1.
         11   -1    0    0    0    0 -0.00000000000E+00 -0.00000000000E+00 -0.45593999997E+02  0.45594000000E+02  0.51100000000E-03 0.  1.
    9900012    2    1    2    0    0  0.34632633115E+01 -0.42691012101E+02  0.70075967584E+01  0.47787272826E+02  0.20000008121E+02 0.  0.
         12    1    1    2    0    0 -0.34632633115E+01  0.42691012101E+02 -0.70075967584E+01  0.43400727174E+02  0.00000000000E+00 0. -1.
         11    1    3    3    0    0  0.14242717412E+01 -0.69674543131E+01  0.53760964247E+01  0.89149527551E+01  0.51100000000E-03 0. -1.
        -11    1    3    3    0    0  0.62298766035E+01 -0.27459116227E+02 -0.33437861707E+01  0.28354811455E+02  0.51100000000E-03 0.  1.
        -12    1    3    3    0    0 -0.41908850331E+01 -0.82644415604E+01  0.49752865044E+01  0.10517508615E+02  0.00000000000E+00 0.  1.
</event>
<event>
 7    1  0.1631716E-009  0.4778727E+02  0.7816164E-02  0.1312668E+00
        -11   -1    0    0    0    0  0.00000000000E+00  0.00000000000E+00  0.45593999997E+02  0.45594000000E+02  0.51100000000E-03 0.  1.
         11   -1    0    0    0    0 -0.00000000000E+00 -0.00000000000E+00 -0.45593999997E+02  0.45594000000E+02  0.51100000000E-03 0. -1.
    9900012    2    1    2    0    0  0.14423029263E+02 -0.81833728137E+01  0.40107749662E+02  0.47787274814E+02  0.20000017185E+02 0.  0.
         12    1    1    2    0    0 -0.14423029263E+02  0.81833728137E+01 -0.40107749662E+02  0.43400725186E+02  0.00000000000E+00 0. -1.
         11    1    3    3    0    0 -0.83170909729E+00 -0.64219562546E+01  0.14212044591E+02  0.15617793502E+02  0.51100000000E-03 0. -1.
        -11    1    3    3    0    0  0.74436778139E+01  0.11530300489E+01  0.21422504582E+02  0.22708181796E+02  0.51100000000E-03 0.  1.
         12    1    3    3    0    0  0.78110605464E+01 -0.29144466080E+01  0.44732004900E+01  0.94612995151E+01  0.00000000000E+00 0. -1.
</event>
<event>
 7    1  0.1631716E-009  0.4778727E+02  0.7816164E-02  0.1312668E+00
        -11   -1    0    0    0    0  0.00000000000E+00  0.00000000000E+00  0.45593999997E+02  0.45594000000E+02  0.51100000000E-03 0.  1.
         11   -1    0    0    0    0 -0.00000000000E+00 -0.00000000000E+00 -0.45593999997E+02  0.45594000000E+02  0.51100000000E-03 0. -1.
    9900012    2    1    2    0    0 -0.21496904337E+02 -0.22523423530E+02  0.30235765530E+02  0.47787273960E+02  0.20000013293E+02 0.  0.
         12    1    1    2    0    0  0.21496904337E+02  0.22523423530E+02 -0.30235765530E+02  0.43400726040E+02  0.00000000000E+00 0. -1.
         11    1    3    3    0    0 -0.18194558657E+02 -0.13412362219E+02  0.14763003663E+02  0.26997772175E+02  0.51100000000E-03 0. -1.
        -11    1    3    3    0    0 -0.39671691593E+01 -0.74768150356E+00  0.99695118787E+01  0.10755864732E+02  0.51100000000E-03 0.  1.
         12    1    3    3    0    0  0.66482347898E+00 -0.83633798082E+01  0.55032499878E+01  0.10033637053E+02  0.00000000000E+00 0. -1.
</event>
<event>
 7    1  0.1631716E-009  0.4778728E+02  0.7816164E-02  0.1312668E+00
        -11   -1    0    0    0    0  0.00000000000E+00  0.00000000000E+00  0.45593999997E+02  0.45594000000E+02  0.51100000000E-03 0.  1.
         11   -1    0    0    0    0 -0.00000000000E+00 -0.00000000000E+00 -0.45593999997E+02  0.45594000000E+02  0.51100000000E-03 0. -1.
    9900012    2    1    2    0    0 -0.42864047081E+02 -0.67386300666E+01  0.94183553888E+00  0.47787277408E+02  0.20000029016E+02 0.  0.
         12    1    1    2    0    0  0.42864047081E+02  0.67386300666E+01 -0.94183553888E+00  0.43400722592E+02  0.00000000000E+00 0. -1.
         11    1    3    3    0    0 -0.16090524158E+02  0.56139084469E+00 -0.22604563496E+01  0.16258222244E+02  0.51100000000E-03 0. -1.
        -11    1    3    3    0    0 -0.91458199828E+01 -0.16287374137E+01  0.81542173013E+01  0.12360827997E+02  0.51100000000E-03 0.  1.
        -12    1    3    3    0    0 -0.17627702940E+02 -0.56712834976E+01 -0.49519254128E+01  0.19168227167E+02  0.00000000000E+00 0.  1.
</event>
<event>
 7    1  0.1631716E-009  0.4778727E+02  0.7816164E-02  0.1312668E+00
        -11   -1    0    0    0    0  0.00000000000E+00  0.00000000000E+00  0.45593999997E+02  0.45594000000E+02  0.51100000000E-03 0.  1.
         11   -1    0    0    0    0 -0.00000000000E+00 -0.00000000000E+00 -0.45593999997E+02  0.45594000000E+02  0.51100000000E-03 0. -1.
    9900012    2    1    2    0    0 -0.22719770948E+02  0.23531462777E+02  0.28525520393E+02  0.47787273669E+02  0.20000011966E+02 0.  0.
         12    1    1    2    0    0  0.22719770948E+02 -0.23531462777E+02 -0.28525520393E+02  0.43400726331E+02  0.00000000000E+00 0. -1.
         11    1    3    3    0    0 -0.77976518620E+01 -0.33405705881E+00  0.33394697410E+01  0.84892300647E+01  0.51100000000E-03 0. -1.
        -11    1    3    3    0    0 -0.16384513918E+02  0.20092722358E+02  0.20138050512E+02  0.32828506923E+02  0.51100000000E-03 0.  1.
         12    1    3    3    0    0  0.14623948323E+01  0.37727974783E+01  0.50480001398E+01  0.64695366811E+01  0.00000000000E+00 0. -1.
</event>
<event>
 7    1  0.1631716E-009  0.4778727E+02  0.7816164E-02  0.1312668E+00
        -11   -1    0    0    0    0  0.00000000000E+00  0.00000000000E+00  0.45593999997E+02  0.45594000000E+02  0.51100000000E-03 0.  1.
         11   -1    0    0    0    0 -0.00000000000E+00 -0.00000000000E+00 -0.45593999997E+02  0.45594000000E+02  0.51100000000E-03 0. -1.
    9900012    2    1    2    0    0 -0.31718932566E+02 -0.77023074131E+01  0.28604315866E+02  0.47787272946E+02  0.20000008672E+02 0.  0.
         12    1    1    2    0    0  0.31718932566E+02  0.77023074131E+01 -0.28604315866E+02  0.43400727054E+02  0.00000000000E+00 0. -1.
         11    1    3    3    0    0 -0.11872993470E+01 -0.36343811913E+01 -0.81022253953E+00  0.39083074607E+01  0.51100000000E-03 0. -1.
        -11    1    3    3    0    0 -0.13440870802E+01  0.17564886716E+01  0.27940718011E+00  0.22293252715E+01  0.51100000000E-03 0.  1.
        -12    1    3    3    0    0 -0.29187546139E+02 -0.58244148935E+01  0.29135131225E+02  0.41649640214E+02  0.00000000000E+00 0.  1.
</event>
<event>
 7    1  0.1631716E-009  0.4778727E+02  0.7816164E-02  0.1312668E+00
        -11   -1    0    0    0    0  0.00000000000E+00  0.00000000000E+00  0.45593999997E+02  0.45594000000E+02  0.51100000000E-03 0.  1.
         11   -1    0    0    0    0 -0.00000000000E+00 -0.00000000000E+00 -0.45593999997E+02  0.45594000000E+02  0.51100000000E-03 0. -1.
    9900012    2    1    2    0    0  0.13185752890E+02  0.41341199475E+02 -0.81527497891E+00  0.47787268133E+02  0.19999986725E+02 0.  0.
         12    1    1    2    0    0 -0.13185752890E+02 -0.41341199475E+02  0.81527497891E+00  0.43400731867E+02  0.00000000000E+00 0. -1.
         11    1    3    3    0    0 -0.23438710232E+01  0.76311524440E+01 -0.39837474018E+01  0.89217970510E+01  0.51100000000E-03 0. -1.
        -11    1    3    3    0    0  0.91712958065E+01  0.82071711628E+01 -0.55311848604E+00  0.12319751036E+02  0.51100000000E-03 0.  1.
         12    1    3    3    0    0  0.63583281071E+01  0.25502875868E+02  0.37215909089E+01  0.26545720046E+02  0.00000000000E+00 0. -1.
</event>
<event>
 7    1  0.1631716E-009  0.4778727E+02  0.7816164E-02  0.1312668E+00
        -11   -1    0    0    0    0  0.00000000000E+00  0.00000000000E+00  0.45593999997E+02  0.45594000000E+02  0.51100000000E-03 0.  1.
         11   -1    0    0    0    0 -0.00000000000E+00 -0.00000000000E+00 -0.45593999997E+02  0.45594000000E+02  0.51100000000E-03 0. -1.
    9900012    2    1    2    0    0 -0.30245120478E+02 -0.66360522573E+01  0.30410830459E+02  0.47787272915E+02  0.20000008529E+02 0.  0.
         12    1    1    2    0    0  0.30245120478E+02  0.66360522573E+01 -0.30410830459E+02  0.43400727085E+02  0.00000000000E+00 0. -1.
         11    1    3    3    0    0 -0.15021426961E+02 -0.94789507024E+01  0.11195236493E+02  0.20995882805E+02  0.51100000000E-03 0. -1.
        -11    1    3    3    0    0 -0.16351838441E+02  0.11368601382E+01  0.18247694900E+02  0.24528624927E+02  0.51100000000E-03 0.  1.
        -12    1    3    3    0    0  0.11281449238E+01  0.17060383069E+01  0.96789906615E+00  0.22627651836E+01  0.00000000000E+00 0.  1.
</event>
<event>
 7    1  0.1631716E-009  0.4778727E+02  0.7816164E-02  0.1312668E+00
        -11   -1    0    0    0    0  0.00000000000E+00  0.00000000000E+00  0.45593999997E+02  0.45594000000E+02  0.51100000000E-03 0.  1.
         11   -1    0    0    0    0 -0.00000000000E+00 -0.00000000000E+00 -0.45593999997E+02  0.45594000000E+02  0.51100000000E-03 0. -1.
    9900012    2    1    2    0    0  0.10855395217E+02  0.33014557759E+02  0.25996586628E+02  0.47787272522E+02  0.20000006736E+02 0.  0.
         12    1    1    2    0    0 -0.10855395217E+02 -0.33014557759E+02 -0.25996586628E+02  0.43400727478E+02  0.00000000000E+00 0. -1.
         11    1    3    3    0    0 -0.15916885567E+01  0.74588280854E+01  0.13483874758E+02  0.15491367519E+02  0.51100000000E-03 0.  1.
        -11    1    3    3    0    0  0.45150248145E+01  0.73123171251E+01 -0.35929962083E+00  0.86014258871E+01  0.51100000000E-03 0. -1.
        -12    1    3    3    0    0  0.79320589590E+01  0.18243412548E+02  0.12872011491E+02  0.23694479116E+02  0.00000000000E+00 0.  1.
</event>
<event>
 7    1  0.1631716E-009  0.4778730E+02  0.7816164E-02  0.1312668E+00
        -11   -1    0    0    0    0  0.00000000000E+00  0.00000000000E+00  0.45593999997E+02  0.45594000000E+02  0.51100000000E-03 0.  1.
         11   -1    0    0    0    0 -0.00000000000E+00 -0.00000000000E+00 -0.45593999997E+02  0.45594000000E+02  0.51100000000E-03 0. -1.
    9900012    2    1    2    0    0  0.10215887888E+02 -0.28107685182E+02  0.31451778172E+02  0.47787300907E+02  0.20000136153E+02 0.  0.
         12    1    1    2    0    0 -0.10215887888E+02  0.28107685182E+02 -0.31451778172E+02  0.43400699093E+02  0.00000000000E+00 0. -1.
         11    1    3    3    0    0 -0.51528730547E+00  0.43633024110E+00  0.17445696326E+00  0.69738122976E+00  0.51100000000E-03 0. -1.
        -11    1    3    3    0    0  0.81240782752E+01 -0.28735605476E+01  0.38657307275E+01  0.94446742856E+01  0.51100000000E-03 0.  1.
         12    1    3    3    0    0  0.26070969185E+01 -0.25670454875E+02  0.27411590481E+02  0.37645245391E+02  0.00000000000E+00 0. -1.
</event>
<event>
 7    1  0.1631716E-009  0.4778727E+02  0.7816164E-02  0.1312668E+00
        -11   -1    0    0    0    0  0.00000000000E+00  0.00000000000E+00  0.45593999997E+02  0.45594000000E+02  0.51100000000E-03 0.  1.
         11   -1    0    0    0    0 -0.00000000000E+00 -0.00000000000E+00 -0.45593999997E+02  0.45594000000E+02  0.51100000000E-03 0. -1.
    9900012    2    1    2    0    0  0.24452996378E+01  0.26936035438E+02  0.33942507132E+02  0.47787270907E+02  0.19999999374E+02 0.  0.
         12    1    1    2    0    0 -0.24452996378E+01 -0.26936035438E+02 -0.33942507132E+02  0.43400729093E+02  0.00000000000E+00 0. -1.
         11    1    3    3    0    0 -0.10913865959E+01  0.10700892015E+02  0.79005132406E+01  0.13346097720E+02  0.51100000000E-03 0. -1.
        -11    1    3    3    0    0  0.18619627243E+01 -0.21614764988E+01  0.85017658407E+01  0.89676590319E+01  0.51100000000E-03 0.  1.
        -12    1    3    3    0    0  0.16747235094E+01  0.18396619922E+02  0.17540228050E+02  0.25473514156E+02  0.00000000000E+00 0.  1.
</event>
<event>
 7    1  0.1631716E-009  0.4778727E+02  0.7816164E-02  0.1312668E+00
        -11   -1    0    0    0    0  0.00000000000E+00  0.00000000000E+00  0.45593999997E+02  0.45594000000E+02  0.51100000000E-03 0.  1.
         11   -1    0    0    0    0 -0.00000000000E+00 -0.00000000000E+00 -0.45593999997E+02  0.45594000000E+02  0.51100000000E-03 0. -1.
    9900012    2    1    2    0    0  0.27211771990E+01  0.43299705057E+02  0.11635757130E+01  0.47787272221E+02  0.20000005363E+02 0.  0.
         12    1    1    2    0    0 -0.27211771990E+01 -0.43299705057E+02 -0.11635757130E+01  0.43400727779E+02  0.00000000000E+00 0. -1.
         11    1    3    3    0    0  0.31213168110E+01  0.18872094738E+02 -0.16066052940E+01  0.19195826611E+02  0.51100000000E-03 0. -1.
        -11    1    3    3    0    0 -0.20125674282E+01  0.25952342669E+02  0.15919771058E+01  0.26078897772E+02  0.51100000000E-03 0.  1.
         12    1    3    3    0    0  0.16124278162E+01 -0.15247323504E+01  0.11782039012E+01  0.25125478375E+01  0.00000000000E+00 0. -1.
</event>
<event>
 7    1  0.1631716E-009  0.4778727E+02  0.7816164E-02  0.1312668E+00
        -11   -1    0    0    0    0  0.00000000000E+00  0.00000000000E+00  0.45593999997E+02  0.45594000000E+02  0.51100000000E-03 0.  1.
         11   -1    0    0    0    0 -0.00000000000E+00 -0.00000000000E+00 -0.45593999997E+02  0.45594000000E+02  0.51100000000E-03 0. -1.
    9900012    2    1    2    0    0  0.19593023057E+02 -0.58940364253E+01  0.38275279532E+02  0.47787271421E+02  0.20000001718E+02 0.  0.
         12    1    1    2    0    0 -0.19593023057E+02  0.58940364253E+01 -0.38275279532E+02  0.43400728579E+02  0.00000000000E+00 0. -1.
         11    1    3    3    0    0 -0.32119891142E+01 -0.37933859526E+01  0.43018879891E+01  0.65736513132E+01  0.51100000000E-03 0. -1.
        -11    1    3    3    0    0  0.65707712531E+01 -0.10747243663E+01  0.13605607610E+02  0.15147363666E+02  0.51100000000E-03 0.  1.
         12    1    3    3    0    0  0.16234240918E+02 -0.10259261064E+01  0.20367783933E+02  0.26066256442E+02  0.00000000000E+00 0. -1.
</event>
<event>
 7    1  0.1631716E-009  0.4778727E+02  0.7816164E-02  0.1312668E+00
        -11   -1    0    0    0    0  0.00000000000E+00  0.00000000000E+00  0.45593999997E+02  0.45594000000E+02  0.51100000000E-03 0. -1.
         11   -1    0    0    0    0 -0.00000000000E+00 -0.00000000000E+00 -0.45593999997E+02  0.45594000000E+02  0.51100000000E-03 0.  1.
    9900012    2    1    2    0    0  0.22874912303E+02  0.36521852882E+02 -0.51493655894E+01  0.47787270550E+02  0.19999997747E+02 0.  0.
         12    1    1    2    0    0 -0.22874912303E+02 -0.36521852882E+02  0.51493655894E+01  0.43400729450E+02  0.00000000000E+00 0. -1.
         11    1    3    3    0    0  0.47740111489E+01  0.18224807813E+02 -0.81156507409E+01  0.20513375867E+02  0.51100000000E-03 0. -1.
        -11    1    3    3    0    0  0.48635118532E+01  0.96194609501E+01  0.37859297032E+01  0.11424580539E+02  0.51100000000E-03 0.  1.
        -12    1    3    3    0    0  0.13237389301E+02  0.86775841192E+01 -0.81964455160E+00  0.15849314144E+02  0.00000000000E+00 0.  1.
</event>
<event>
 7    1  0.1631716E-009  0.4778727E+02  0.7816164E-02  0.1312668E+00
        -11   -1    0    0    0    0  0.00000000000E+00  0.00000000000E+00  0.45593999997E+02  0.45594000000E+02  0.51100000000E-03 0.  1.
         11   -1    0    0    0    0 -0.00000000000E+00 -0.00000000000E+00 -0.45593999997E+02  0.45594000000E+02  0.51100000000E-03 0. -1.
    9900012    2    1    2    0    0 -0.40591253899E+02 -0.15243896613E+02 -0.18966406134E+01  0.47787268178E+02  0.19999986933E+02 0.  0.
         12    1    1    2    0    0  0.40591253899E+02  0.15243896613E+02  0.18966406134E+01  0.43400731822E+02  0.00000000000E+00 0. -1.
         11    1    3    3    0    0 -0.10730234164E+02 -0.96620311833E+01  0.35617081242E+01  0.14872072378E+02  0.51100000000E-03 0. -1.
        -11    1    3    3    0    0 -0.23626511555E+02 -0.89561609893E+01 -0.31657072086E+01  0.25464614082E+02  0.51100000000E-03 0.  1.
        -12    1    3    3    0    0 -0.62345081795E+01  0.33742955594E+01 -0.22926415291E+01  0.74505817185E+01  0.00000000000E+00 0.  1.
</event>
<event>
 7    1  0.1631716E-009  0.4778728E+02  0.7816164E-02  0.1312668E+00
        -11   -1    0    0    0    0  0.00000000000E+00  0.00000000000E+00  0.45593999997E+02  0.45594000000E+02  0.51100000000E-03 0.  1.
         11   -1    0    0    0    0 -0.00000000000E+00 -0.00000000000E+00 -0.45593999997E+02  0.45594000000E+02  0.51100000000E-03 0. -1.
    9900012    2    1    2    0    0 -0.12966871924E+02  0.14013769438E+02  0.38975599279E+02  0.47787276037E+02  0.20000022764E+02 0.  0.
         12    1    1    2    0    0  0.12966871924E+02 -0.14013769438E+02 -0.38975599279E+02  0.43400723963E+02  0.00000000000E+00 0. -1.
         11    1    3    3    0    0 -0.22473912217E+01  0.97020276436E+01  0.12442961029E+02  0.15937609204E+02  0.51100000000E-03 0. -1.
        -11    1    3    3    0    0  0.29162136381E+01  0.18579293528E+01  0.31871605475E+01  0.47025733465E+01  0.51100000000E-03 0.  1.
         12    1    3    3    0    0 -0.13635694340E+02  0.24538124415E+01  0.23345477702E+02  0.27147093487E+02  0.00000000000E+00 0. -1.
</event>
<event>
 7    1  0.1631716E-009  0.4778726E+02  0.7816164E-02  0.1312668E+00
        -11   -1    0    0    0    0  0.00000000000E+00  0.00000000000E+00  0.45593999997E+02  0.45594000000E+02  0.51100000000E-03 0.  1.
         11   -1    0    0    0    0 -0.00000000000E+00 -0.00000000000E+00 -0.45593999997E+02  0.45594000000E+02  0.51100000000E-03 0. -1.
    9900012    2    1    2    0    0 -0.32016548854E+02  0.99634701075E+01  0.27555289393E+02  0.47787261405E+02  0.19999956049E+02 0.  0.
         12    1    1    2    0    0  0.32016548854E+02 -0.99634701075E+01 -0.27555289393E+02  0.43400738595E+02  0.00000000000E+00 0. -1.
         11    1    3    3    0    0 -0.12255972536E+01  0.23331856219E+01  0.90063086140E+01  0.93839990882E+01  0.51100000000E-03 0. -1.
        -11    1    3    3    0    0 -0.20567278189E+02  0.99259527147E+01  0.15075253907E+02  0.27364223906E+02  0.51100000000E-03 0.  1.
         12    1    3    3    0    0 -0.10223673412E+02 -0.22956682291E+01  0.34737268721E+01  0.11039038410E+02  0.00000000000E+00 0. -1.
</event>
<event>
 7    1  0.1631716E-009  0.4778728E+02  0.7816164E-02  0.1312668E+00
        -11   -1    0    0    0    0  0.00000000000E+00  0.00000000000E+00  0.45593999997E+02  0.45594000000E+02  0.51100000000E-03 0. -1.
         11   -1    0    0    0    0 -0.00000000000E+00 -0.00000000000E+00 -0.45593999997E+02  0.45594000000E+02  0.51100000000E-03 0.  1.
    9900012    2    1    2    0    0 -0.26011557543E+02 -0.96570055058E+01 -0.33373101739E+02  0.47787276495E+02  0.20000024850E+02 0.  0.
         12    1    1    2    0    0  0.26011557543E+02  0.96570055058E+01  0.33373101739E+02  0.43400723505E+02  0.00000000000E+00 0. -1.
         11    1    3    3    0    0 -0.11466435863E+01  0.19410182790E+01 -0.79633471237E+01  0.82763060086E+01  0.51100000000E-03 0. -1.
        -11    1    3    3    0    0 -0.71753866809E+01 -0.68153065765E+01 -0.16245807078E+02  0.19022639818E+02  0.51100000000E-03 0.  1.
        -12    1    3    3    0    0 -0.17689527275E+02 -0.47827172083E+01 -0.91639475370E+01  0.20488330668E+02  0.00000000000E+00 0.  1.
</event>
<event>
 7    1  0.1631716E-009  0.4778727E+02  0.7816164E-02  0.1312668E+00
        -11   -1    0    0    0    0  0.00000000000E+00  0.00000000000E+00  0.45593999997E+02  0.45594000000E+02  0.51100000000E-03 0. -1.
         11   -1    0    0    0    0 -0.00000000000E+00 -0.00000000000E+00 -0.45593999997E+02  0.45594000000E+02  0.51100000000E-03 0.  1.
    9900012    2    1    2    0    0 -0.18463436624E+02 -0.34251271555E+02 -0.19224338196E+02  0.47787271041E+02  0.19999999984E+02 0.  0.
         12    1    1    2    0    0  0.18463436624E+02  0.34251271555E+02  0.19224338196E+02  0.43400728959E+02  0.00000000000E+00 0. -1.
         11    1    3    3    0    0 -0.59018353339E+01 -0.79127061538E+01  0.50581375849E+00  0.98842514539E+01  0.51100000000E-03 0. -1.
        -11    1    3    3    0    0  0.10178798629E+01 -0.11678924024E+02 -0.11072144755E+02  0.16125313501E+02  0.51100000000E-03 0.  1.
         12    1    3    3    0    0 -0.13579481154E+02 -0.14659641377E+02 -0.86580071997E+01  0.21777706086E+02  0.00000000000E+00 0. -1.
</event>
<event>
 7    1  0.1631716E-009  0.4778727E+02  0.7816164E-02  0.1312668E+00
        -11   -1    0    0    0    0  0.00000000000E+00  0.00000000000E+00  0.45593999997E+02  0.45594000000E+02  0.51100000000E-03 0.  1.
         11   -1    0    0    0    0 -0.00000000000E+00 -0.00000000000E+00 -0.45593999997E+02  0.45594000000E+02  0.51100000000E-03 0. -1.
    9900012    2    1    2    0    0  0.23024246531E+02 -0.28638119029E+02  0.23094707581E+02  0.47787270650E+02  0.19999998202E+02 0.  0.
         12    1    1    2    0    0 -0.23024246531E+02  0.28638119029E+02 -0.23094707581E+02  0.43400729350E+02  0.00000000000E+00 0. -1.
         11    1    3    3    0    0  0.11894177232E+02 -0.12006244256E+02  0.11595792357E+02  0.20495944814E+02  0.51100000000E-03 0. -1.
        -11    1    3    3    0    0  0.12042226230E+02 -0.13412018200E+02  0.14235442555E+02  0.22968353658E+02  0.51100000000E-03 0.  1.
         12    1    3    3    0    0 -0.91215693134E+00 -0.32198565731E+01 -0.27365273308E+01  0.43229721778E+01  0.00000000000E+00 0. -1.
</event>
<event>
 7    1  0.1631716E-009  0.4778727E+02  0.7816164E-02  0.1312668E+00
        -11   -1    0    0    0    0  0.00000000000E+00  0.00000000000E+00  0.45593999997E+02  0.45594000000E+02  0.51100000000E-03 0. -1.
         11   -1    0    0    0    0 -0.00000000000E+00 -0.00000000000E+00 -0.45593999997E+02  0.45594000000E+02  0.51100000000E-03 0.  1.
    9900012    2    1    2    0    0 -0.79889824669E+01  0.17264039979E+02  0.39009644878E+02  0.47787270620E+02  0.19999998064E+02 0.  0.
         12    1    1    2    0    0  0.79889824669E+01 -0.17264039979E+02 -0.39009644878E+02  0.43400729380E+02  0.00000000000E+00 0. -1.
         11    1    3    3    0    0  0.12452880036E+01  0.97227794522E+01  0.10549951237E+02  0.14400856011E+02  0.51100000000E-03 0.  1.
        -11    1    3    3    0    0 -0.70864228614E+01  0.54599020341E-01  0.50144730364E+01  0.86813196069E+01  0.51100000000E-03 0. -1.
         12    1    3    3    0    0 -0.21478476091E+01  0.74866615062E+01  0.23445220604E+02  0.24705095002E+02  0.00000000000E+00 0. -1.
</event>
<event>
 7    1  0.1631716E-009  0.4778727E+02  0.7816164E-02  0.1312668E+00
        -11   -1    0    0    0    0  0.00000000000E+00  0.00000000000E+00  0.45593999997E+02  0.45594000000E+02  0.51100000000E-03 0.  1.
         11   -1    0    0    0    0 -0.00000000000E+00 -0.00000000000E+00 -0.45593999997E+02  0.45594000000E+02  0.51100000000E-03 0. -1.
    9900012    2    1    2    0    0 -0.27477843247E+01  0.37777671593E+02  0.21187744898E+02  0.47787270472E+02  0.19999997390E+02 0.  0.
         12    1    1    2    0    0  0.27477843247E+01 -0.37777671593E+02 -0.21187744898E+02  0.43400729528E+02  0.00000000000E+00 0. -1.
         11    1    3    3    0    0 -0.72370951383E+01  0.28928845452E+02  0.84536398261E+01  0.30995445985E+02  0.51100000000E-03 0. -1.
        -11    1    3    3    0    0  0.16225967875E+01  0.75943689092E+01  0.97830638956E+01  0.12490620437E+02  0.51100000000E-03 0.  1.
         12    1    3    3    0    0  0.28667140262E+01  0.12544572319E+01  0.29510411761E+01  0.43012040497E+01  0.00000000000E+00 0. -1.
</event>
<event>
 7    1  0.1631716E-009  0.4778724E+02  0.7816164E-02  0.1312668E+00
        -11   -1    0    0    0    0  0.00000000000E+00  0.00000000000E+00  0.45593999997E+02  0.45594000000E+02  0.51100000000E-03 0.  1.
         11   -1    0    0    0    0 -0.00000000000E+00 -0.00000000000E+00 -0.45593999997E+02  0.45594000000E+02  0.51100000000E-03 0. -1.
    9900012    2    1    2    0    0 -0.33829030951E+02 -0.10803138925E+02  0.24950243369E+02  0.47787242059E+02  0.19999867843E+02 0.  0.
         12    1    1    2    0    0  0.33829030951E+02  0.10803138925E+02 -0.24950243369E+02  0.43400757941E+02  0.00000000000E+00 0. -1.
         11    1    3    3    0    0 -0.97383472684E+00  0.26293893272E+01 -0.11675855827E+01  0.30373176757E+01  0.51100000000E-03 0. -1.
        -11    1    3    3    0    0 -0.34160142147E+01  0.61269928810E+00  0.10942860988E+01  0.36389580734E+01  0.51100000000E-03 0.  1.
        -12    1    3    3    0    0 -0.29439182009E+02 -0.14045227540E+02  0.25023542852E+02  0.41110966310E+02  0.00000000000E+00 0.  1.
</event>
<event>
 7    1  0.1631716E-009  0.4778727E+02  0.7816164E-02  0.1312668E+00
        -11   -1    0    0    0    0  0.00000000000E+00  0.00000000000E+00  0.45593999997E+02  0.45594000000E+02  0.51100000000E-03 0.  1.
         11   -1    0    0    0    0 -0.00000000000E+00 -0.00000000000E+00 -0.45593999997E+02  0.45594000000E+02  0.51100000000E-03 0. -1.
    9900012    2    1    2    0    0 -0.94634749133E+01  0.28120948619E+02  0.31674565198E+02  0.47787272020E+02  0.20000004450E+02 0.  0.
         12    1    1    2    0    0  0.94634749133E+01 -0.28120948619E+02 -0.31674565198E+02  0.43400727980E+02  0.00000000000E+00 0. -1.
         11    1    3    3    0    0 -0.95766225196E+01  0.69085225910E+01  0.49825565254E+01  0.12816600683E+02  0.51100000000E-03 0. -1.
        -11    1    3    3    0    0 -0.49527466151E+00  0.41864849954E+01  0.11109325828E+02  0.11882300881E+02  0.51100000000E-03 0.  1.
        -12    1    3    3    0    0  0.60842226780E+00  0.17025941033E+02  0.15582682844E+02  0.23088370456E+02  0.00000000000E+00 0.  1.
</event>
<event>
 7    1  0.1631716E-009  0.4778728E+02  0.7816164E-02  0.1312668E+00
        -11   -1    0    0    0    0  0.00000000000E+00  0.00000000000E+00  0.45593999997E+02  0.45594000000E+02  0.51100000000E-03 0. -1.
         11   -1    0    0    0    0 -0.00000000000E+00 -0.00000000000E+00 -0.45593999997E+02  0.45594000000E+02  0.51100000000E-03 0.  1.
    9900012    2    1    2    0    0 -0.74239731154E+01  0.41764621518E+02 -0.91773202598E+01  0.47787283479E+02  0.20000056695E+02 0.  0.
         12    1    1    2    0    0  0.74239731154E+01 -0.41764621518E+02  0.91773202598E+01  0.43400716521E+02  0.00000000000E+00 0. -1.
         11    1    3    3    0    0  0.10048570442E+01 -0.10037406615E+01  0.10608115956E+01  0.17727251613E+01  0.51100000000E-03 0. -1.
        -11    1    3    3    0    0  0.21238535858E+01  0.73124127307E+01 -0.36314954182E+01  0.84362250581E+01  0.51100000000E-03 0.  1.
        -12    1    3    3    0    0 -0.10552683745E+02  0.35455949449E+02 -0.66066364372E+01  0.37578333260E+02  0.00000000000E+00 0.  1.
</event>
<event>
 7    1  0.1631716E-009  0.4778728E+02  0.7816164E-02  0.1312668E+00
        -11   -1    0    0    0    0  0.00000000000E+00  0.00000000000E+00  0.45593999997E+02  0.45594000000E+02  0.51100000000E-03 0. -1.
         11   -1    0    0    0    0 -0.00000000000E+00 -0.00000000000E+00 -0.45593999997E+02  0.45594000000E+02  0.51100000000E-03 0.  1.
    9900012    2    1    2    0    0  0.17865211570E+02  0.84763731412E+01  0.38634288426E+02  0.47787275026E+02  0.20000018152E+02 0.  0.
         12    1    1    2    0    0 -0.17865211570E+02 -0.84763731412E+01 -0.38634288426E+02  0.43400724974E+02  0.00000000000E+00 0. -1.
         11    1    3    3    0    0  0.47438586265E+01  0.72523580673E+01  0.21829463198E+02  0.23486727230E+02  0.51100000000E-03 0. -1.
        -11    1    3    3    0    0  0.46078291792E+01  0.43581843125E+01  0.15133478214E+01  0.65204357321E+01  0.51100000000E-03 0.  1.
         12    1    3    3    0    0  0.85135237648E+01 -0.31341692385E+01  0.15291477406E+02  0.17780112063E+02  0.00000000000E+00 0. -1.
</event>
<event>
 7    1  0.1631716E-009  0.4778727E+02  0.7816164E-02  0.1312668E+00
        -11   -1    0    0    0    0  0.00000000000E+00  0.00000000000E+00  0.45593999997E+02  0.45594000000E+02  0.51100000000E-03 0. -1.
         11   -1    0    0    0    0 -0.00000000000E+00 -0.00000000000E+00 -0.45593999997E+02  0.45594000000E+02  0.51100000000E-03 0.  1.
    9900012    2    1    2    0    0  0.21083091361E+02  0.16411004046E+02 -0.34202424424E+02  0.47787266923E+02  0.19999981209E+02 0.  0.
         12    1    1    2    0    0 -0.21083091361E+02 -0.16411004046E+02  0.34202424424E+02  0.43400733077E+02  0.00000000000E+00 0. -1.
         11    1    3    3    0    0  0.53024157428E+01 -0.44077001959E+01 -0.70406806299E+01  0.98546749170E+01  0.51100000000E-03 0.  1.
        -11    1    3    3    0    0  0.66801528204E+01  0.82736022579E+01 -0.81119665079E+01  0.13374637824E+02  0.51100000000E-03 0. -1.
        -12    1    3    3    0    0  0.91005227982E+01  0.12545101984E+02 -0.19049777286E+02  0.24557954183E+02  0.00000000000E+00 0.  1.
</event>
<event>
 7    1  0.1631716E-009  0.4778727E+02  0.7816164E-02  0.1312668E+00
        -11   -1    0    0    0    0  0.00000000000E+00  0.00000000000E+00  0.45593999997E+02  0.45594000000E+02  0.51100000000E-03 0.  1.
         11   -1    0    0    0    0 -0.00000000000E+00 -0.00000000000E+00 -0.45593999997E+02  0.45594000000E+02  0.51100000000E-03 0. -1.
    9900012    2    1    2    0    0  0.33499230292E+02 -0.14969304476E+02  0.23180693894E+02  0.47787273323E+02  0.20000010390E+02 0.  0.
         12    1    1    2    0    0 -0.33499230292E+02  0.14969304476E+02 -0.23180693894E+02  0.43400726677E+02  0.00000000000E+00 0. -1.
         11    1    3    3    0    0  0.29047079540E+01  0.38380137558E+01  0.26586962413E+01  0.54987583919E+01  0.51100000000E-03 0. -1.
        -11    1    3    3    0    0  0.10822943706E+02 -0.73750325886E+01  0.12436077904E+02  0.18060544013E+02  0.51100000000E-03 0.  1.
         12    1    3    3    0    0  0.19771578632E+02 -0.11432285643E+02  0.80859197483E+01  0.24227970918E+02  0.00000000000E+00 0. -1.
</event>
<event>
 7    1  0.1631716E-009  0.4778727E+02  0.7816164E-02  0.1312668E+00
        -11   -1    0    0    0    0  0.00000000000E+00  0.00000000000E+00  0.45593999997E+02  0.45594000000E+02  0.51100000000E-03 0.  1.
         11   -1    0    0    0    0 -0.00000000000E+00 -0.00000000000E+00 -0.45593999997E+02  0.45594000000E+02  0.51100000000E-03 0. -1.
    9900012    2    1    2    0    0  0.35967035466E+02  0.23824416303E+02  0.47321199775E+01  0.47787269455E+02  0.19999992751E+02 0.  0.
         12    1    1    2    0    0 -0.35967035466E+02 -0.23824416303E+02 -0.47321199775E+01  0.43400730545E+02  0.00000000000E+00 0. -1.
         11    1    3    3    0    0  0.13759065391E+02  0.39349730121E+01 -0.27714593475E+01  0.14576586714E+02  0.51100000000E-03 0. -1.
        -11    1    3    3    0    0  0.16777793025E+02  0.99876544565E+01  0.95464838535E+01  0.21734372192E+02  0.51100000000E-03 0.  1.
         12    1    3    3    0    0  0.54301770495E+01  0.99017888344E+01 -0.20429045284E+01  0.11476310549E+02  0.00000000000E+00 0. -1.
</event>
<event>
 7    1  0.1631716E-009  0.4778728E+02  0.7816164E-02  0.1312668E+00
        -11   -1    0    0    0    0  0.00000000000E+00  0.00000000000E+00  0.45593999997E+02  0.45594000000E+02  0.51100000000E-03 0. -1.
         11   -1    0    0    0    0 -0.00000000000E+00 -0.00000000000E+00 -0.45593999997E+02  0.45594000000E+02  0.51100000000E-03 0.  1.
    9900012    2    1    2    0    0 -0.10605835600E+02 -0.39857484244E+02 -0.13510000738E+02  0.47787275133E+02  0.20000018641E+02 0.  0.
         12    1    1    2    0    0  0.10605835600E+02  0.39857484244E+02  0.13510000738E+02  0.43400724867E+02  0.00000000000E+00 0. -1.
         11    1    3    3    0    0 -0.29668466289E+01 -0.67008781116E+01  0.37749213974E+01  0.82434202977E+01  0.51100000000E-03 0. -1.
        -11    1    3    3    0    0  0.91284983847E+00 -0.18281467791E+02 -0.74124112934E+01  0.19748144238E+02  0.51100000000E-03 0.  1.
        -12    1    3    3    0    0 -0.85518388094E+01 -0.14875138342E+02 -0.98725108422E+01  0.19795710597E+02  0.00000000000E+00 0.  1.
</event>
<event>
 7    1  0.1631716E-009  0.4778727E+02  0.7816164E-02  0.1312668E+00
        -11   -1    0    0    0    0  0.00000000000E+00  0.00000000000E+00  0.45593999997E+02  0.45594000000E+02  0.51100000000E-03 0.  1.
         11   -1    0    0    0    0 -0.00000000000E+00 -0.00000000000E+00 -0.45593999997E+02  0.45594000000E+02  0.51100000000E-03 0. -1.
    9900012    2    1    2    0    0  0.93780308915E+01  0.41930166418E+02 -0.61267541575E+01  0.47787269179E+02  0.19999991496E+02 0.  0.
         12    1    1    2    0    0 -0.93780308915E+01 -0.41930166418E+02  0.61267541575E+01  0.43400730821E+02  0.00000000000E+00 0. -1.
         11    1    3    3    0    0  0.51714103639E+01  0.10954786333E+02 -0.44581054151E+01  0.12908351286E+02  0.51100000000E-03 0. -1.
        -11    1    3    3    0    0  0.90320213741E+01  0.27338721763E+02 -0.11648824782E+01  0.28815621964E+02  0.51100000000E-03 0.  1.
         12    1    3    3    0    0 -0.48254008466E+01  0.36366583223E+01 -0.50376626426E+00  0.60632959298E+01  0.00000000000E+00 0. -1.
</event>
<event>
 7    1  0.1631716E-009  0.4778728E+02  0.7816164E-02  0.1312668E+00
        -11   -1    0    0    0    0  0.00000000000E+00  0.00000000000E+00  0.45593999997E+02  0.45594000000E+02  0.51100000000E-03 0.  1.
         11   -1    0    0    0    0 -0.00000000000E+00 -0.00000000000E+00 -0.45593999997E+02  0.45594000000E+02  0.51100000000E-03 0. -1.
    9900012    2    1    2    0    0  0.13480184764E+02 -0.95253029394E+01  0.40139448954E+02  0.47787284111E+02  0.20000059575E+02 0.  0.
         12    1    1    2    0    0 -0.13480184764E+02  0.95253029394E+01 -0.40139448954E+02  0.43400715889E+02  0.00000000000E+00 0. -1.
         11    1    3    3    0    0  0.31749337728E+00 -0.33843503745E+01  0.65432225172E+00  0.34616134060E+01  0.51100000000E-03 0. -1.
        -11    1    3    3    0    0  0.74615732427E+01 -0.54922602461E+01  0.77588226668E+01  0.12084673239E+02  0.51100000000E-03 0.  1.
        -12    1    3    3    0    0  0.57011181436E+01 -0.64869231881E+00  0.31726304036E+02  0.32240997466E+02  0.00000000000E+00 0.  1.
</event>
<event>
 7    1  0.1631716E-009  0.4778726E+02  0.7816164E-02  0.1312668E+00
        -11   -1    0    0    0    0  0.00000000000E+00  0.00000000000E+00  0.45593999997E+02  0.45594000000E+02  0.51100000000E-03 0.  1.
         11   -1    0    0    0    0 -0.00000000000E+00 -0.00000000000E+00 -0.45593999997E+02  0.45594000000E+02  0.51100000000E-03 0. -1.
    9900012    2    1    2    0    0  0.24692435186E+02  0.32335602246E+02  0.15110154822E+02  0.47787259145E+02  0.19999945745E+02 0.  0.
         12    1    1    2    0    0 -0.24692435186E+02 -0.32335602246E+02 -0.15110154822E+02  0.43400740855E+02  0.00000000000E+00 0. -1.
         11    1    3    3    0    0  0.10296220302E+01  0.38136386012E+01 -0.32178285000E+01  0.50949368418E+01  0.51100000000E-03 0. -1.
        -11    1    3    3    0    0 -0.47049752970E+00 -0.46634903647E+00  0.96053001379E+00  0.11668194024E+01  0.51100000000E-03 0.  1.
        -12    1    3    3    0    0  0.24133310686E+02  0.28988312681E+02  0.17367453308E+02  0.41525502901E+02  0.00000000000E+00 0.  1.
</event>
<event>
 7    1  0.1631716E-009  0.4778727E+02  0.7816164E-02  0.1312668E+00
        -11   -1    0    0    0    0  0.00000000000E+00  0.00000000000E+00  0.45593999997E+02  0.45594000000E+02  0.51100000000E-03 0. -1.
         11   -1    0    0    0    0 -0.00000000000E+00 -0.00000000000E+00 -0.45593999997E+02  0.45594000000E+02  0.51100000000E-03 0.  1.
    9900012    2    1    2    0    0  0.18966909015E+02 -0.38599184530E+02 -0.58294770270E+01  0.47787268596E+02  0.19999988837E+02 0.  0.
         12    1    1    2    0    0 -0.18966909015E+02  0.38599184530E+02  0.58294770270E+01  0.43400731404E+02  0.00000000000E+00 0. -1.
         11    1    3    3    0    0  0.12060605205E+01 -0.15396941193E+01  0.33905182506E+01  0.39141862793E+01  0.51100000000E-03 0. -1.
        -11    1    3    3    0    0  0.92644110849E+01 -0.20233277485E+02 -0.11212152195E+02  0.24918410616E+02  0.51100000000E-03 0.  1.
         12    1    3    3    0    0  0.84964374094E+01 -0.16826212926E+02  0.19921569175E+01  0.18954671700E+02  0.00000000000E+00 0. -1.
</event>
<event>
 7    1  0.1631716E-009  0.4778727E+02  0.7816164E-02  0.1312668E+00
        -11   -1    0    0    0    0  0.00000000000E+00  0.00000000000E+00  0.45593999997E+02  0.45594000000E+02  0.51100000000E-03 0.  1.
         11   -1    0    0    0    0 -0.00000000000E+00 -0.00000000000E+00 -0.45593999997E+02  0.45594000000E+02  0.51100000000E-03 0. -1.
    9900012    2    1    2    0    0 -0.19711801725E+01  0.25743429484E+02  0.34885723423E+02  0.47787269458E+02  0.19999992766E+02 0.  0.
         12    1    1    2    0    0  0.19711801725E+01 -0.25743429484E+02 -0.34885723423E+02  0.43400730542E+02  0.00000000000E+00 0. -1.
         11    1    3    3    0    0  0.56693337211E+00 -0.14537103869E+01  0.93446620918E+00  0.18187673558E+01  0.51100000000E-03 0. -1.
        -11    1    3    3    0    0 -0.21416068303E+00  0.27781382597E+02  0.27518621697E+02  0.39104035907E+02  0.51100000000E-03 0.  1.
         12    1    3    3    0    0 -0.23239528616E+01 -0.58424272606E+00  0.64326355159E+01  0.68644661953E+01  0.00000000000E+00 0. -1.
</event>
<event>
 7    1  0.1631716E-009  0.4778729E+02  0.7816164E-02  0.1312668E+00
        -11   -1    0    0    0    0  0.00000000000E+00  0.00000000000E+00  0.45593999997E+02  0.45594000000E+02  0.51100000000E-03 0.  1.
         11   -1    0    0    0    0 -0.00000000000E+00 -0.00000000000E+00 -0.45593999997E+02  0.45594000000E+02  0.51100000000E-03 0. -1.
    9900012    2    1    2    0    0 -0.77042844675E+01  0.32806048074E+02  0.27350117066E+02  0.47787289258E+02  0.20000083041E+02 0.  0.
         12    1    1    2    0    0  0.77042844675E+01 -0.32806048074E+02 -0.27350117066E+02  0.43400710742E+02  0.00000000000E+00 0. -1.
         11    1    3    3    0    0  0.39884893760E+00  0.62493341117E+01  0.40308429914E+01  0.74472110751E+01  0.51100000000E-03 0.  1.
        -11    1    3    3    0    0  0.39820367220E+01  0.15734462232E+02  0.82878864021E+01  0.18224131789E+02  0.51100000000E-03 0. -1.
         12    1    3    3    0    0 -0.12085170127E+02  0.10822251730E+02  0.15031387673E+02  0.22115946394E+02  0.00000000000E+00 0. -1.
</event>
<event>
 7    1  0.2098143E-009  0.4778726E+02  0.7816164E-02  0.1312668E+00
        -11   -1    0    0    0    0  0.00000000000E+00  0.00000000000E+00  0.45593999997E+02  0.45594000000E+02  0.51100000000E-03 0. -1.
         11   -1    0    0    0    0 -0.00000000000E+00 -0.00000000000E+00 -0.45593999997E+02  0.45594000000E+02  0.51100000000E-03 0.  1.
    9900012    2    1    2    0    0  0.37068568620E+02 -0.54682726274E+00  0.22566489738E+02  0.47787259699E+02  0.19999948272E+02 0.  0.
         12    1    1    2    0    0 -0.37068568620E+02  0.54682726274E+00 -0.22566489738E+02  0.43400740301E+02  0.00000000000E+00 0. -1.
         11    1    3    3    0    0  0.10611403978E+02  0.53031417095E+01  0.11417240288E+02  0.16464464231E+02  0.51100000000E-03 0. -1.
        -11    1    3    3    0    0  0.19713916853E+02 -0.40087713756E+01  0.13171897016E+02  0.24045948451E+02  0.51100000000E-03 0.  1.
         12    1    3    3    0    0  0.67432477883E+01 -0.18411975967E+01 -0.20226475662E+01  0.72768470165E+01  0.00000000000E+00 0. -1.
</event>
<event>
 7    1  0.1631716E-009  0.4778727E+02  0.7816164E-02  0.1312668E+00
        -11   -1    0    0    0    0  0.00000000000E+00  0.00000000000E+00  0.45593999997E+02  0.45594000000E+02  0.51100000000E-03 0.  1.
         11   -1    0    0    0    0 -0.00000000000E+00 -0.00000000000E+00 -0.45593999997E+02  0.45594000000E+02  0.51100000000E-03 0. -1.
    9900012    2    1    2    0    0 -0.68965926113E+00  0.18635921602E+02  0.39189925367E+02  0.47787268968E+02  0.19999990531E+02 0.  0.
         12    1    1    2    0    0  0.68965926113E+00 -0.18635921602E+02 -0.39189925367E+02  0.43400731032E+02  0.00000000000E+00 0. -1.
         11    1    3    3    0    0 -0.45533190833E+01  0.95412111288E+01  0.10439505279E+02  0.14857681354E+02  0.51100000000E-03 0.  1.
        -11    1    3    3    0    0  0.64275890151E+01  0.28178031168E+01  0.61415919651E+01  0.93259351852E+01  0.51100000000E-03 0. -1.
         12    1    3    3    0    0 -0.25639291929E+01  0.62769073563E+01  0.22608828123E+02  0.23603652429E+02  0.00000000000E+00 0. -1.
</event>
<event>
 7    1  0.1631716E-009  0.4778727E+02  0.7816164E-02  0.1312668E+00
        -11   -1    0    0    0    0  0.00000000000E+00  0.00000000000E+00  0.45593999997E+02  0.45594000000E+02  0.51100000000E-03 0. -1.
         11   -1    0    0    0    0 -0.00000000000E+00 -0.00000000000E+00 -0.45593999997E+02  0.45594000000E+02  0.51100000000E-03 0.  1.
    9900012    2    1    2    0    0  0.34368536264E+02  0.20787322914E+02  0.16441235891E+02  0.47787270553E+02  0.19999997761E+02 0.  0.
         12    1    1    2    0    0 -0.34368536264E+02 -0.20787322914E+02 -0.16441235891E+02  0.43400729447E+02  0.00000000000E+00 0. -1.
         11    1    3    3    0    0  0.30967374895E+02  0.17821552413E+02  0.11537189803E+02  0.37545875767E+02  0.51100000000E-03 0.  1.
        -11    1    3    3    0    0  0.98666151625E+00  0.50669468856E+01  0.11145837789E+01  0.52810746019E+01  0.51100000000E-03 0. -1.
        -12    1    3    3    0    0  0.24144998529E+01 -0.21011763846E+01  0.37894623094E+01  0.49603201846E+01  0.00000000000E+00 0.  1.
</event>
<event>
 7    1  0.1631716E-009  0.4778727E+02  0.7816164E-02  0.1312668E+00
        -11   -1    0    0    0    0  0.00000000000E+00  0.00000000000E+00  0.45593999997E+02  0.45594000000E+02  0.51100000000E-03 0.  1.
         11   -1    0    0    0    0 -0.00000000000E+00 -0.00000000000E+00 -0.45593999997E+02  0.45594000000E+02  0.51100000000E-03 0. -1.
    9900012    2    1    2    0    0  0.24547794462E+02 -0.15284338291E+02  0.32363836323E+02  0.47787272915E+02  0.20000008530E+02 0.  0.
         12    1    1    2    0    0 -0.24547794462E+02  0.15284338291E+02 -0.32363836323E+02  0.43400727085E+02  0.00000000000E+00 0. -1.
         11    1    3    3    0    0  0.97934767908E+01 -0.78006063742E+01  0.27188727523E+02  0.29933067869E+02  0.51100000000E-03 0. -1.
        -11    1    3    3    0    0  0.52664845624E+01 -0.41004859850E+01  0.34619065946E+00  0.66835389722E+01  0.51100000000E-03 0.  1.
         12    1    3    3    0    0  0.94878331091E+01 -0.33832459316E+01  0.48289181407E+01  0.11170666075E+02  0.00000000000E+00 0. -1.
</event>
<event>
 7    1  0.1631716E-009  0.4778727E+02  0.7816164E-02  0.1312668E+00
        -11   -1    0    0    0    0  0.00000000000E+00  0.00000000000E+00  0.45593999997E+02  0.45594000000E+02  0.51100000000E-03 0.  1.
         11   -1    0    0    0    0 -0.00000000000E+00 -0.00000000000E+00 -0.45593999997E+02  0.45594000000E+02  0.51100000000E-03 0. -1.
    9900012    2    1    2    0    0  0.31276702020E+02 -0.22337917891E+02  0.20159573988E+02  0.47787273182E+02  0.20000009747E+02 0.  0.
         12    1    1    2    0    0 -0.31276702020E+02  0.22337917891E+02 -0.20159573988E+02  0.43400726818E+02  0.00000000000E+00 0. -1.
         11    1    3    3    0    0  0.11117590467E+02 -0.85267005142E+01  0.35144515036E+00  0.14015311392E+02  0.51100000000E-03 0. -1.
        -11    1    3    3    0    0  0.44641922648E+01 -0.10354350153E+02  0.85200334719E+01  0.14132676686E+02  0.51100000000E-03 0.  1.
         12    1    3    3    0    0  0.15694919288E+02 -0.34568672239E+01  0.11288095365E+02  0.19639285105E+02  0.00000000000E+00 0. -1.
</event>
<event>
 7    1  0.1631716E-009  0.4778727E+02  0.7816164E-02  0.1312668E+00
        -11   -1    0    0    0    0  0.00000000000E+00  0.00000000000E+00  0.45593999997E+02  0.45594000000E+02  0.51100000000E-03 0.  1.
         11   -1    0    0    0    0 -0.00000000000E+00 -0.00000000000E+00 -0.45593999997E+02  0.45594000000E+02  0.51100000000E-03 0. -1.
    9900012    2    1    2    0    0 -0.19839573246E+00 -0.20302705837E+02  0.38358626463E+02  0.47787269024E+02  0.19999990787E+02 0.  0.
         12    1    1    2    0    0  0.19839573246E+00  0.20302705837E+02 -0.38358626463E+02  0.43400730976E+02  0.00000000000E+00 0. -1.
         11    1    3    3    0    0  0.52925004347E+01 -0.88781459751E+01  0.19541196762E+02  0.22106343161E+02  0.51100000000E-03 0.  1.
        -11    1    3    3    0    0  0.16520409259E+00  0.20847568125E+01  0.36517204111E+00  0.21229352887E+01  0.51100000000E-03 0. -1.
         12    1    3    3    0    0 -0.56561002598E+01 -0.13509316674E+02  0.18452257660E+02  0.23557990574E+02  0.00000000000E+00 0. -1.
</event>
<event>
 7    1  0.1631716E-009  0.4778727E+02  0.7816164E-02  0.1312668E+00
        -11   -1    0    0    0    0  0.00000000000E+00  0.00000000000E+00  0.45593999997E+02  0.45594000000E+02  0.51100000000E-03 0.  1.
         11   -1    0    0    0    0 -0.00000000000E+00 -0.00000000000E+00 -0.45593999997E+02  0.45594000000E+02  0.51100000000E-03 0. -1.
    9900012    2    1    2    0    0  0.26174580114E+01  0.31655496336E+02  0.29575357572E+02  0.47787270626E+02  0.19999998090E+02 0.  0.
         12    1    1    2    0    0 -0.26174580114E+01 -0.31655496336E+02 -0.29575357572E+02  0.43400729374E+02  0.00000000000E+00 0. -1.
         11    1    3    3    0    0 -0.20390829480E+01  0.15417164451E+01  0.72860547985E+01  0.77214858450E+01  0.51100000000E-03 0. -1.
        -11    1    3    3    0    0 -0.25346045565E+01  0.23132276424E+02  0.15614521939E+02  0.28023913511E+02  0.51100000000E-03 0.  1.
         12    1    3    3    0    0  0.71911455159E+01  0.69815034669E+01  0.66747808346E+01  0.12041871270E+02  0.00000000000E+00 0. -1.
</event>
<event>
 7    1  0.1631716E-009  0.4778727E+02  0.7816164E-02  0.1312668E+00
        -11   -1    0    0    0    0  0.00000000000E+00  0.00000000000E+00  0.45593999997E+02  0.45594000000E+02  0.51100000000E-03 0.  1.
         11   -1    0    0    0    0 -0.00000000000E+00 -0.00000000000E+00 -0.45593999997E+02  0.45594000000E+02  0.51100000000E-03 0. -1.
    9900012    2    1    2    0    0 -0.91610008909E+01 -0.17469946374E+02  0.38658768387E+02  0.47787270319E+02  0.19999996693E+02 0.  0.
         12    1    1    2    0    0  0.91610008909E+01  0.17469946374E+02 -0.38658768387E+02  0.43400729681E+02  0.00000000000E+00 0. -1.
         11    1    3    3    0    0  0.43185151520E+01 -0.63496077238E+01  0.96873265741E+01  0.12361690329E+02  0.51100000000E-03 0. -1.
        -11    1    3    3    0    0 -0.50039131700E+01  0.13615299851E+01  0.91216008717E+01  0.10492688580E+02  0.51100000000E-03 0.  1.
         12    1    3    3    0    0 -0.84756028729E+01 -0.12481868636E+02  0.19849840941E+02  0.24932891411E+02  0.00000000000E+00 0. -1.
</event>
<event>
 7    1  0.1631716E-009  0.4778727E+02  0.7816164E-02  0.1312668E+00
        -11   -1    0    0    0    0  0.00000000000E+00  0.00000000000E+00  0.45593999997E+02  0.45594000000E+02  0.51100000000E-03 0.  1.
         11   -1    0    0    0    0 -0.00000000000E+00 -0.00000000000E+00 -0.45593999997E+02  0.45594000000E+02  0.51100000000E-03 0. -1.
    9900012    2    1    2    0    0  0.20330254713E+02  0.23900866870E+02  0.29984206041E+02  0.47787270677E+02  0.19999998326E+02 0.  0.
         12    1    1    2    0    0 -0.20330254713E+02 -0.23900866870E+02 -0.29984206041E+02  0.43400729323E+02  0.00000000000E+00 0. -1.
         11    1    3    3    0    0 -0.21150214543E+01  0.55303315189E+01  0.52766200598E+01  0.79309899746E+01  0.51100000000E-03 0. -1.
        -11    1    3    3    0    0  0.29615751377E+01  0.73150244438E+01  0.11187222746E+02  0.13690670654E+02  0.51100000000E-03 0.  1.
        -12    1    3    3    0    0  0.19483701029E+02  0.11055510907E+02  0.13520363235E+02  0.26165610049E+02  0.00000000000E+00 0.  1.
</event>
<event>
 7    1  0.1631716E-009  0.4778725E+02  0.7816164E-02  0.1312668E+00
        -11   -1    0    0    0    0  0.00000000000E+00  0.00000000000E+00  0.45593999997E+02  0.45594000000E+02  0.51100000000E-03 0.  1.
         11   -1    0    0    0    0 -0.00000000000E+00 -0.00000000000E+00 -0.45593999997E+02  0.45594000000E+02  0.51100000000E-03 0. -1.
    9900012    2    1    2    0    0  0.10965458490E+02  0.18172975035E+02  0.37856655534E+02  0.47787254963E+02  0.19999926678E+02 0.  0.
         12    1    1    2    0    0 -0.10965458490E+02 -0.18172975035E+02 -0.37856655534E+02  0.43400745037E+02  0.00000000000E+00 0. -1.
         11    1    3    3    0    0  0.21093055393E+01 -0.34647190782E+00  0.15063229964E+00  0.21428726028E+01  0.51100000000E-03 0. -1.
        -11    1    3    3    0    0  0.12404772588E+02  0.15787369313E+02  0.35170499561E+02  0.40497943805E+02  0.51100000000E-03 0.  1.
        -12    1    3    3    0    0 -0.35486196372E+01  0.27320776298E+01  0.25355236737E+01  0.51464385554E+01  0.00000000000E+00 0.  1.
</event>
<event>
 7    1  0.1631716E-009  0.4778728E+02  0.7816164E-02  0.1312668E+00
        -11   -1    0    0    0    0  0.00000000000E+00  0.00000000000E+00  0.45593999997E+02  0.45594000000E+02  0.51100000000E-03 0. -1.
         11   -1    0    0    0    0 -0.00000000000E+00 -0.00000000000E+00 -0.45593999997E+02  0.45594000000E+02  0.51100000000E-03 0.  1.
    9900012    2    1    2    0    0  0.28234583774E+02 -0.49574810088E+01  0.32586107088E+02  0.47787277495E+02  0.20000029411E+02 0.  0.
         12    1    1    2    0    0 -0.28234583774E+02  0.49574810088E+01 -0.32586107088E+02  0.43400722505E+02  0.00000000000E+00 0. -1.
         11    1    3    3    0    0  0.94479714021E-01  0.22580097850E+01 -0.62585565493E+00  0.23450437453E+01  0.51100000000E-03 0. -1.
        -11    1    3    3    0    0  0.17743433052E+02 -0.55369094498E+01  0.13099803254E+02  0.22739648816E+02  0.51100000000E-03 0.  1.
        -12    1    3    3    0    0  0.10396671007E+02 -0.16785813440E+01  0.20112159489E+02  0.22702584933E+02  0.00000000000E+00 0.  1.
</event>
<event>
 7    1  0.1631716E-009  0.4778729E+02  0.7816164E-02  0.1312668E+00
        -11   -1    0    0    0    0  0.00000000000E+00  0.00000000000E+00  0.45593999997E+02  0.45594000000E+02  0.51100000000E-03 0.  1.
         11   -1    0    0    0    0 -0.00000000000E+00 -0.00000000000E+00 -0.45593999997E+02  0.45594000000E+02  0.51100000000E-03 0. -1.
    9900012    2    1    2    0    0 -0.84255305336E+01  0.27512288415E+02  0.32491630112E+02  0.47787290260E+02  0.20000087612E+02 0.  0.
         12    1    1    2    0    0  0.84255305336E+01 -0.27512288415E+02 -0.32491630112E+02  0.43400709740E+02  0.00000000000E+00 0. -1.
         11    1    3    3    0    0  0.40939552456E+01  0.73352860070E+00  0.74264837705E+01  0.85118267849E+01  0.51100000000E-03 0. -1.
        -11    1    3    3    0    0 -0.29351882485E+01  0.12688819044E+02  0.87991851410E+01  0.15717732603E+02  0.51100000000E-03 0.  1.
        -12    1    3    3    0    0 -0.95842975308E+01  0.14089940771E+02  0.16265961200E+02  0.23557730872E+02  0.00000000000E+00 0.  1.
</event>
<event>
 7    1  0.1631716E-009  0.4778727E+02  0.7816164E-02  0.1312668E+00
        -11   -1    0    0    0    0  0.00000000000E+00  0.00000000000E+00  0.45593999997E+02  0.45594000000E+02  0.51100000000E-03 0.  1.
         11   -1    0    0    0    0 -0.00000000000E+00 -0.00000000000E+00 -0.45593999997E+02  0.45594000000E+02  0.51100000000E-03 0. -1.
    9900012    2    1    2    0    0  0.40868560800E+02 -0.11234696286E+02 -0.93362506218E+01  0.47787271455E+02  0.20000001874E+02 0.  0.
         12    1    1    2    0    0 -0.40868560800E+02  0.11234696286E+02  0.93362506218E+01  0.43400728545E+02  0.00000000000E+00 0. -1.
         11    1    3    3    0    0  0.26103477978E+02 -0.10075409638E+02 -0.73149876088E+01  0.28920831349E+02  0.51100000000E-03 0. -1.
        -11    1    3    3    0    0  0.11775671987E+02 -0.58346171496E+01 -0.69192515269E+00  0.13160089996E+02  0.51100000000E-03 0.  1.
        -12    1    3    3    0    0  0.29894108352E+01  0.46753305013E+01 -0.13293378603E+01  0.57063501106E+01  0.00000000000E+00 0.  1.
</event>
<event>
 7    1  0.1631716E-009  0.4778725E+02  0.7816164E-02  0.1312668E+00
        -11   -1    0    0    0    0  0.00000000000E+00  0.00000000000E+00  0.45593999997E+02  0.45594000000E+02  0.51100000000E-03 0.  1.
         11   -1    0    0    0    0 -0.00000000000E+00 -0.00000000000E+00 -0.45593999997E+02  0.45594000000E+02  0.51100000000E-03 0. -1.
    9900012    2    1    2    0    0 -0.22389654010E+02 -0.36619001115E+02 -0.64325216196E+01  0.47787249042E+02  0.19999899683E+02 0.  0.
         12    1    1    2    0    0  0.22389654010E+02  0.36619001115E+02  0.64325216196E+01  0.43400750958E+02  0.00000000000E+00 0. -1.
         11    1    3    3    0    0  0.90652878118E+00 -0.33570654175E+01  0.19535936666E+01  0.39885098877E+01  0.51100000000E-03 0. -1.
        -11    1    3    3    0    0 -0.16164967464E+02 -0.28197440607E+02 -0.12770042378E+01  0.32527412593E+02  0.51100000000E-03 0.  1.
         12    1    3    3    0    0 -0.71312153270E+01 -0.50644950898E+01 -0.71091110485E+01  0.11271326561E+02  0.00000000000E+00 0. -1.
</event>
<event>
 7    1  0.1631716E-009  0.4778729E+02  0.7816164E-02  0.1312668E+00
        -11   -1    0    0    0    0  0.00000000000E+00  0.00000000000E+00  0.45593999997E+02  0.45594000000E+02  0.51100000000E-03 0. -1.
         11   -1    0    0    0    0 -0.00000000000E+00 -0.00000000000E+00 -0.45593999997E+02  0.45594000000E+02  0.51100000000E-03 0.  1.
    9900012    2    1    2    0    0 -0.23108876610E+02  0.26518510550E+02 -0.25423812077E+02  0.47787288019E+02  0.20000077392E+02 0.  0.
         12    1    1    2    0    0  0.23108876610E+02 -0.26518510550E+02  0.25423812077E+02  0.43400711981E+02  0.00000000000E+00 0. -1.
         11    1    3    3    0    0 -0.67087737070E+01  0.16148751667E+02 -0.89649807928E+01  0.19650972137E+02  0.51100000000E-03 0. -1.
        -11    1    3    3    0    0 -0.13827305012E+02  0.73214910785E+01 -0.56834661173E+01  0.16646332415E+02  0.51100000000E-03 0.  1.
         12    1    3    3    0    0 -0.25727978918E+01  0.30482678046E+01 -0.10775365167E+02  0.11489983467E+02  0.00000000000E+00 0. -1.
</event>
<event>
 7    1  0.1631716E-009  0.4778727E+02  0.7816164E-02  0.1312668E+00
        -11   -1    0    0    0    0  0.00000000000E+00  0.00000000000E+00  0.45593999997E+02  0.45594000000E+02  0.51100000000E-03 0.  1.
         11   -1    0    0    0    0 -0.00000000000E+00 -0.00000000000E+00 -0.45593999997E+02  0.45594000000E+02  0.51100000000E-03 0. -1.
    9900012    2    1    2    0    0  0.24056932183E+02  0.26499639303E+02  0.24549055235E+02  0.47787274405E+02  0.20000015322E+02 0.  0.
         12    1    1    2    0    0 -0.24056932183E+02 -0.26499639303E+02 -0.24549055235E+02  0.43400725595E+02  0.00000000000E+00 0. -1.
         11    1    3    3    0    0  0.45906656138E+01  0.41572904288E+01  0.78619873229E+01  0.10008402441E+02  0.51100000000E-03 0. -1.
        -11    1    3    3    0    0  0.18867149209E+02  0.13602763865E+02  0.17314268337E+02  0.28996351363E+02  0.51100000000E-03 0.  1.
         12    1    3    3    0    0  0.59911735945E+00  0.87395850089E+01 -0.62720042483E+00  0.87825206012E+01  0.00000000000E+00 0. -1.
</event>
<event>
 7    1  0.2157743E-009  0.4778728E+02  0.7816164E-02  0.1312668E+00
        -11   -1    0    0    0    0  0.00000000000E+00  0.00000000000E+00  0.45593999997E+02  0.45594000000E+02  0.51100000000E-03 0.  1.
         11   -1    0    0    0    0 -0.00000000000E+00 -0.00000000000E+00 -0.45593999997E+02  0.45594000000E+02  0.51100000000E-03 0. -1.
    9900012    2    1    2    0    0  0.76105541119E+01 -0.41487250661E+02 -0.10223022224E+02  0.47787277832E+02  0.20000030949E+02 0.  0.
         12    1    1    2    0    0 -0.76105541119E+01  0.41487250661E+02  0.10223022224E+02  0.43400722168E+02  0.00000000000E+00 0. -1.
         11    1    3    3    0    0 -0.21749744113E+01 -0.42142411371E+01 -0.63410700498E+01  0.79183023237E+01  0.51100000000E-03 0. -1.
        -11    1    3    3    0    0  0.32723881658E+01 -0.23059966984E+02 -0.61039509360E+01  0.24077558408E+02  0.51100000000E-03 0.  1.
         12    1    3    3    0    0  0.65131403575E+01 -0.14213042540E+02  0.22219987614E+01  0.15791417101E+02  0.00000000000E+00 0. -1.
</event>
<event>
 7    1  0.1631716E-009  0.4778727E+02  0.7816164E-02  0.1312668E+00
        -11   -1    0    0    0    0  0.00000000000E+00  0.00000000000E+00  0.45593999997E+02  0.45594000000E+02  0.51100000000E-03 0.  1.
         11   -1    0    0    0    0 -0.00000000000E+00 -0.00000000000E+00 -0.45593999997E+02  0.45594000000E+02  0.51100000000E-03 0. -1.
    9900012    2    1    2    0    0 -0.17699505617E+02 -0.28806721022E+02  0.27212565865E+02  0.47787269406E+02  0.19999992530E+02 0.  0.
         12    1    1    2    0    0  0.17699505617E+02  0.28806721022E+02 -0.27212565865E+02  0.43400730594E+02  0.00000000000E+00 0. -1.
         11    1    3    3    0    0  0.17471877558E+01 -0.45409052274E+01  0.31320657615E+01  0.57863910630E+01  0.51100000000E-03 0.  1.
        -11    1    3    3    0    0 -0.15067774859E+01  0.12311516962E+01 -0.80995366635E+00  0.21076380367E+01  0.51100000000E-03 0. -1.
         12    1    3    3    0    0 -0.17939915886E+02 -0.25496967491E+02  0.24890453770E+02  0.39893240306E+02  0.00000000000E+00 0. -1.
</event>
<event>
 7    1  0.1631716E-009  0.4778727E+02  0.7816164E-02  0.1312668E+00
        -11   -1    0    0    0    0  0.00000000000E+00  0.00000000000E+00  0.45593999997E+02  0.45594000000E+02  0.51100000000E-03 0. -1.
         11   -1    0    0    0    0 -0.00000000000E+00 -0.00000000000E+00 -0.45593999997E+02  0.45594000000E+02  0.51100000000E-03 0.  1.
    9900012    2    1    2    0    0  0.71653651809E+01 -0.41641499280E+02 -0.99129574892E+01  0.47787266750E+02  0.19999980422E+02 0.  0.
         12    1    1    2    0    0 -0.71653651809E+01  0.41641499280E+02  0.99129574892E+01  0.43400733250E+02  0.00000000000E+00 0. -1.
         11    1    3    3    0    0 -0.23099323077E+01 -0.40695934778E+01  0.23268147516E+01  0.52260353510E+01  0.51100000000E-03 0. -1.
        -11    1    3    3    0    0  0.97271737671E+01 -0.13847852118E+02 -0.35257289953E+01  0.17286170281E+02  0.51100000000E-03 0.  1.
        -12    1    3    3    0    0 -0.25187627853E+00 -0.23724053684E+02 -0.87140432455E+01  0.25275061118E+02  0.00000000000E+00 0.  1.
</event>
<event>
 7    1  0.1631716E-009  0.4778727E+02  0.7816164E-02  0.1312668E+00
        -11   -1    0    0    0    0  0.00000000000E+00  0.00000000000E+00  0.45593999997E+02  0.45594000000E+02  0.51100000000E-03 0.  1.
         11   -1    0    0    0    0 -0.00000000000E+00 -0.00000000000E+00 -0.45593999997E+02  0.45594000000E+02  0.51100000000E-03 0. -1.
    9900012    2    1    2    0    0  0.13604596900E+02  0.40286269436E+02  0.86922298616E+01  0.47787269340E+02  0.19999992227E+02 0.  0.
         12    1    1    2    0    0 -0.13604596900E+02 -0.40286269436E+02 -0.86922298616E+01  0.43400730660E+02  0.00000000000E+00 0. -1.
         11    1    3    3    0    0  0.68732670652E+00 -0.96148808166E+00  0.40276778896E+01  0.41975072098E+01  0.51100000000E-03 0. -1.
        -11    1    3    3    0    0  0.34477373192E+01  0.16141681770E+02  0.19280931742E+01  0.16618012111E+02  0.51100000000E-03 0.  1.
         12    1    3    3    0    0  0.94695328745E+01  0.25106075748E+02  0.27364587978E+01  0.26971750019E+02  0.00000000000E+00 0. -1.
</event>
<event>
 7    1  0.1631716E-009  0.4778727E+02  0.7816164E-02  0.1312668E+00
        -11   -1    0    0    0    0  0.00000000000E+00  0.00000000000E+00  0.45593999997E+02  0.45594000000E+02  0.51100000000E-03 0.  1.
         11   -1    0    0    0    0 -0.00000000000E+00 -0.00000000000E+00 -0.45593999997E+02  0.45594000000E+02  0.51100000000E-03 0. -1.
    9900012    2    1    2    0    0 -0.16326347551E+02 -0.24117267003E+02  0.32178114152E+02  0.47787271637E+02  0.20000002703E+02 0.  0.
         12    1    1    2    0    0  0.16326347551E+02  0.24117267003E+02 -0.32178114152E+02  0.43400728363E+02  0.00000000000E+00 0. -1.
         11    1    3    3    0    0  0.59973987877E+00 -0.21254849541E+01  0.66591633457E+01  0.70158271742E+01  0.51100000000E-03 0. -1.
        -11    1    3    3    0    0 -0.13172901875E+02 -0.77351093408E+01  0.62390116841E+01  0.16500985649E+02  0.51100000000E-03 0.  1.
        -12    1    3    3    0    0 -0.37531855547E+01 -0.14256672708E+02  0.19279939122E+02  0.24270458814E+02  0.00000000000E+00 0.  1.
</event>
<event>
 7    1  0.1631716E-009  0.4778727E+02  0.7816164E-02  0.1312668E+00
        -11   -1    0    0    0    0  0.00000000000E+00  0.00000000000E+00  0.45593999997E+02  0.45594000000E+02  0.51100000000E-03 0.  1.
         11   -1    0    0    0    0 -0.00000000000E+00 -0.00000000000E+00 -0.45593999997E+02  0.45594000000E+02  0.51100000000E-03 0. -1.
    9900012    2    1    2    0    0  0.18276681924E+02  0.12024127427E+02  0.37483420503E+02  0.47787267804E+02  0.19999985228E+02 0.  0.
         12    1    1    2    0    0 -0.18276681924E+02 -0.12024127427E+02 -0.37483420503E+02  0.43400732196E+02  0.00000000000E+00 0. -1.
         11    1    3    3    0    0  0.11946868626E+01  0.58088628120E+01 -0.46572199479E-01  0.59306267037E+01  0.51100000000E-03 0. -1.
        -11    1    3    3    0    0  0.99129459549E+01  0.24133864771E+01  0.17689379105E+02  0.20420701877E+02  0.51100000000E-03 0.  1.
         12    1    3    3    0    0  0.71690491064E+01  0.38018781378E+01  0.19840613597E+02  0.21435939223E+02  0.00000000000E+00 0. -1.
</event>
<event>
 7    1  0.1631716E-009  0.4778727E+02  0.7816164E-02  0.1312668E+00
        -11   -1    0    0    0    0  0.00000000000E+00  0.00000000000E+00  0.45593999997E+02  0.45594000000E+02  0.51100000000E-03 0.  1.
         11   -1    0    0    0    0 -0.00000000000E+00 -0.00000000000E+00 -0.45593999997E+02  0.45594000000E+02  0.51100000000E-03 0. -1.
    9900012    2    1    2    0    0  0.23786542387E+02 -0.27389956733E+00  0.36300809196E+02  0.47787269960E+02  0.19999995056E+02 0.  0.
         12    1    1    2    0    0 -0.23786542387E+02  0.27389956733E+00 -0.36300809196E+02  0.43400730040E+02  0.00000000000E+00 0. -1.
         11    1    3    3    0    0  0.55233955515E+01  0.21123088355E+01 -0.58198821118E+00  0.59420920200E+01  0.51100000000E-03 0. -1.
        -11    1    3    3    0    0  0.12345644058E+02 -0.24358791645E+01  0.17331765712E+02  0.21418182403E+02  0.51100000000E-03 0.  1.
         12    1    3    3    0    0  0.59175027777E+01  0.49670761698E-01  0.19551031696E+02  0.20426995537E+02  0.00000000000E+00 0. -1.
</event>
<event>
 7    1  0.1631716E-009  0.4778727E+02  0.7816164E-02  0.1312668E+00
        -11   -1    0    0    0    0  0.00000000000E+00  0.00000000000E+00  0.45593999997E+02  0.45594000000E+02  0.51100000000E-03 0.  1.
         11   -1    0    0    0    0 -0.00000000000E+00 -0.00000000000E+00 -0.45593999997E+02  0.45594000000E+02  0.51100000000E-03 0. -1.
    9900012    2    1    2    0    0 -0.33551994572E+02  0.11332897535E+02  0.25088885277E+02  0.47787273384E+02  0.20000010668E+02 0.  0.
         12    1    1    2    0    0  0.33551994572E+02 -0.11332897535E+02 -0.25088885277E+02  0.43400726616E+02  0.00000000000E+00 0. -1.
         11    1    3    3    0    0 -0.10446500443E+01 -0.29248285131E+01  0.31849762932E+01  0.44485941369E+01  0.51100000000E-03 0. -1.
        -11    1    3    3    0    0 -0.22995182458E+02  0.60513223840E+01  0.19019415348E+02  0.30448892908E+02  0.51100000000E-03 0.  1.
        -12    1    3    3    0    0 -0.95121620704E+01  0.82064036639E+01  0.28844936358E+01  0.12889786340E+02  0.00000000000E+00 0.  1.
</event>
<event>
 7    1  0.1755825E-009  0.4778728E+02  0.7816164E-02  0.1312668E+00
        -11   -1    0    0    0    0  0.00000000000E+00  0.00000000000E+00  0.45593999997E+02  0.45594000000E+02  0.51100000000E-03 0.  1.
         11   -1    0    0    0    0 -0.00000000000E+00 -0.00000000000E+00 -0.45593999997E+02  0.45594000000E+02  0.51100000000E-03 0. -1.
    9900012    2    1    2    0    0 -0.35236622712E+02 -0.21488421410E+02  0.13425755602E+02  0.47787277099E+02  0.20000027607E+02 0.  0.
         12    1    1    2    0    0  0.35236622712E+02  0.21488421410E+02 -0.13425755602E+02  0.43400722901E+02  0.00000000000E+00 0. -1.
         11    1    3    3    0    0 -0.54794935455E+01 -0.22460627490E+01 -0.34960004446E+01  0.68768936852E+01  0.51100000000E-03 0. -1.
        -11    1    3    3    0    0 -0.20262016861E+02 -0.15452902251E+02  0.64716079659E+01  0.26291124457E+02  0.51100000000E-03 0.  1.
         12    1    3    3    0    0 -0.94951123050E+01 -0.37894564097E+01  0.10450148081E+02  0.14619258958E+02  0.00000000000E+00 0. -1.
</event>
<event>
 7    1  0.1631716E-009  0.4778727E+02  0.7816164E-02  0.1312668E+00
        -11   -1    0    0    0    0  0.00000000000E+00  0.00000000000E+00  0.45593999997E+02  0.45594000000E+02  0.51100000000E-03 0.  1.
         11   -1    0    0    0    0 -0.00000000000E+00 -0.00000000000E+00 -0.45593999997E+02  0.45594000000E+02  0.51100000000E-03 0. -1.
    9900012    2    1    2    0    0  0.10393868130E+02  0.69744565827E+01  0.41556562439E+02  0.47787269349E+02  0.19999992269E+02 0.  0.
         12    1    1    2    0    0 -0.10393868130E+02 -0.69744565827E+01 -0.41556562439E+02  0.43400730651E+02  0.00000000000E+00 0. -1.
         11    1    3    3    0    0  0.29916330240E+01 -0.23630223787E+01  0.11952272689E+02  0.12545539670E+02  0.51100000000E-03 0. -1.
        -11    1    3    3    0    0  0.11062739226E+02  0.96977611889E+01  0.19079318127E+02  0.24092553864E+02  0.51100000000E-03 0.  1.
         12    1    3    3    0    0 -0.36605041195E+01 -0.36028222746E+00  0.10524971623E+02  0.11149175815E+02  0.00000000000E+00 0. -1.
</event>
<event>
 7    1  0.1631716E-009  0.4778727E+02  0.7816164E-02  0.1312668E+00
        -11   -1    0    0    0    0  0.00000000000E+00  0.00000000000E+00  0.45593999997E+02  0.45594000000E+02  0.51100000000E-03 0.  1.
         11   -1    0    0    0    0 -0.00000000000E+00 -0.00000000000E+00 -0.45593999997E+02  0.45594000000E+02  0.51100000000E-03 0. -1.
    9900012    2    1    2    0    0 -0.39517788713E+02  0.17254845838E+02  0.49231968540E+01  0.47787271930E+02  0.20000004040E+02 0.  0.
         12    1    1    2    0    0  0.39517788713E+02 -0.17254845838E+02 -0.49231968540E+01  0.43400728070E+02  0.00000000000E+00 0. -1.
         11    1    3    3    0    0 -0.16609243218E+02  0.26833096303E+01  0.56528312100E+01  0.17748848182E+02  0.51100000000E-03 0.  1.
        -11    1    3    3    0    0 -0.22028578574E+02  0.13656045893E+02 -0.42788514136E+01  0.26268887169E+02  0.51100000000E-03 0. -1.
         12    1    3    3    0    0 -0.87996692141E+00  0.91549031500E+00  0.35492170575E+01  0.37695365791E+01  0.00000000000E+00 0. -1.
</event>
<event>
 7    1  0.1631716E-009  0.4778727E+02  0.7816164E-02  0.1312668E+00
        -11   -1    0    0    0    0  0.00000000000E+00  0.00000000000E+00  0.45593999997E+02  0.45594000000E+02  0.51100000000E-03 0.  1.
         11   -1    0    0    0    0 -0.00000000000E+00 -0.00000000000E+00 -0.45593999997E+02  0.45594000000E+02  0.51100000000E-03 0. -1.
    9900012    2    1    2    0    0  0.24008079661E+02 -0.22979188919E+02  0.27914017082E+02  0.47787270028E+02  0.19999995367E+02 0.  0.
         12    1    1    2    0    0 -0.24008079661E+02  0.22979188919E+02 -0.27914017082E+02  0.43400729972E+02  0.00000000000E+00 0. -1.
         11    1    3    3    0    0  0.31441478213E+01 -0.99278211366E+01  0.17458120047E+02  0.20328139459E+02  0.51100000000E-03 0. -1.
        -11    1    3    3    0    0  0.98614296671E+01 -0.73404901988E+01  0.20042811888E+01  0.12455831357E+02  0.51100000000E-03 0.  1.
        -12    1    3    3    0    0  0.11002502173E+02 -0.57108775838E+01  0.84516158470E+01  0.15003299213E+02  0.00000000000E+00 0.  1.
</event>
<event>
 7    1  0.1631716E-009  0.4778727E+02  0.7816164E-02  0.1312668E+00
        -11   -1    0    0    0    0  0.00000000000E+00  0.00000000000E+00  0.45593999997E+02  0.45594000000E+02  0.51100000000E-03 0.  1.
         11   -1    0    0    0    0 -0.00000000000E+00 -0.00000000000E+00 -0.45593999997E+02  0.45594000000E+02  0.51100000000E-03 0. -1.
    9900012    2    1    2    0    0  0.42069646447E+02  0.83172974578E+01  0.66776404449E+01  0.47787268773E+02  0.19999989642E+02 0.  0.
         12    1    1    2    0    0 -0.42069646447E+02 -0.83172974578E+01 -0.66776404449E+01  0.43400731227E+02  0.00000000000E+00 0. -1.
         11    1    3    3    0    0  0.14296756165E+02  0.84470302429E+01  0.79060549470E+01  0.18391717208E+02  0.51100000000E-03 0. -1.
        -11    1    3    3    0    0  0.22806011609E+02  0.15319674142E+01  0.24603652773E+01  0.22989442951E+02  0.51100000000E-03 0.  1.
        -12    1    3    3    0    0  0.49668786736E+01 -0.16617001993E+01 -0.36887797794E+01  0.64061086138E+01  0.00000000000E+00 0.  1.
</event>
<event>
 7    1  0.1631716E-009  0.4778728E+02  0.7816164E-02  0.1312668E+00
        -11   -1    0    0    0    0  0.00000000000E+00  0.00000000000E+00  0.45593999997E+02  0.45594000000E+02  0.51100000000E-03 0.  1.
         11   -1    0    0    0    0 -0.00000000000E+00 -0.00000000000E+00 -0.45593999997E+02  0.45594000000E+02  0.51100000000E-03 0. -1.
    9900012    2    1    2    0    0 -0.89595902142E+01 -0.29909029641E+02  0.30146285424E+02  0.47787276092E+02  0.20000023013E+02 0.  0.
         12    1    1    2    0    0  0.89595902142E+01  0.29909029641E+02 -0.30146285424E+02  0.43400723908E+02  0.00000000000E+00 0. -1.
         11    1    3    3    0    0 -0.23919622254E+00 -0.60533799549E+01  0.11509583462E+02  0.13006580467E+02  0.51100000000E-03 0.  1.
        -11    1    3    3    0    0 -0.10466487109E+02 -0.74018959094E+01  0.82513093742E+01  0.15245311479E+02  0.51100000000E-03 0. -1.
         12    1    3    3    0    0  0.17460931170E+01 -0.16453753777E+02  0.10385392588E+02  0.19535384146E+02  0.00000000000E+00 0. -1.
</event>
<event>
 7    1  0.1631716E-009  0.4778727E+02  0.7816164E-02  0.1312668E+00
        -11   -1    0    0    0    0  0.00000000000E+00  0.00000000000E+00  0.45593999997E+02  0.45594000000E+02  0.51100000000E-03 0.  1.
         11   -1    0    0    0    0 -0.00000000000E+00 -0.00000000000E+00 -0.45593999997E+02  0.45594000000E+02  0.51100000000E-03 0. -1.
    9900012    2    1    2    0    0 -0.76916700692E+01 -0.38089903282E+02  0.19329272792E+02  0.47787270661E+02  0.19999998252E+02 0.  0.
         12    1    1    2    0    0  0.76916700692E+01  0.38089903282E+02 -0.19329272792E+02  0.43400729339E+02  0.00000000000E+00 0. -1.
         11    1    3    3    0    0 -0.34745266571E+01  0.50163304211E-01  0.39136416507E+01  0.52336835096E+01  0.51100000000E-03 0. -1.
        -11    1    3    3    0    0  0.18406299027E+01 -0.12614344492E+02  0.14412319344E+01  0.12829136961E+02  0.51100000000E-03 0.  1.
         12    1    3    3    0    0 -0.60577733149E+01 -0.25525722094E+02  0.13974399207E+02  0.29724450191E+02  0.00000000000E+00 0. -1.
</event>
<event>
 7    1  0.1631716E-009  0.4778727E+02  0.7816164E-02  0.1312668E+00
        -11   -1    0    0    0    0  0.00000000000E+00  0.00000000000E+00  0.45593999997E+02  0.45594000000E+02  0.51100000000E-03 0. -1.
         11   -1    0    0    0    0 -0.00000000000E+00 -0.00000000000E+00 -0.45593999997E+02  0.45594000000E+02  0.51100000000E-03 0.  1.
    9900012    2    1    2    0    0 -0.16786309044E+02  0.14122244352E+02 -0.37448702930E+02  0.47787270652E+02  0.19999998209E+02 0.  0.
         12    1    1    2    0    0  0.16786309044E+02 -0.14122244352E+02  0.37448702930E+02  0.43400729348E+02  0.00000000000E+00 0. -1.
         11    1    3    3    0    0  0.46499578814E+00  0.65464286006E+01 -0.11795927067E+02  0.13498734909E+02  0.51100000000E-03 0. -1.
        -11    1    3    3    0    0 -0.71526453242E+01 -0.57727418767E-01 -0.18301654711E+02  0.19649789643E+02  0.51100000000E-03 0.  1.
         12    1    3    3    0    0 -0.10098659508E+02  0.76335431706E+01 -0.73511211517E+01  0.14638746100E+02  0.00000000000E+00 0. -1.
</event>
<event>
 7    1  0.1631716E-009  0.4778727E+02  0.7816164E-02  0.1312668E+00
        -11   -1    0    0    0    0  0.00000000000E+00  0.00000000000E+00  0.45593999997E+02  0.45594000000E+02  0.51100000000E-03 0. -1.
         11   -1    0    0    0    0 -0.00000000000E+00 -0.00000000000E+00 -0.45593999997E+02  0.45594000000E+02  0.51100000000E-03 0.  1.
    9900012    2    1    2    0    0  0.26844987209E+02  0.33598947595E+02  0.58378629301E+01  0.47787271189E+02  0.20000000659E+02 0.  0.
         12    1    1    2    0    0 -0.26844987209E+02 -0.33598947595E+02 -0.58378629301E+01  0.43400728811E+02  0.00000000000E+00 0. -1.
         11    1    3    3    0    0  0.49670953621E+01  0.15808377419E+02  0.40036949880E+01  0.17047181784E+02  0.51100000000E-03 0. -1.
        -11    1    3    3    0    0  0.11196744767E+02  0.83207297607E+01 -0.51222455562E+01  0.14860653987E+02  0.51100000000E-03 0.  1.
         12    1    3    3    0    0  0.10681147080E+02  0.94698404149E+01  0.69564134983E+01  0.15879435418E+02  0.00000000000E+00 0. -1.
</event>
<event>
 7    1  0.1631716E-009  0.4778725E+02  0.7816164E-02  0.1312668E+00
        -11   -1    0    0    0    0  0.00000000000E+00  0.00000000000E+00  0.45593999997E+02  0.45594000000E+02  0.51100000000E-03 0.  1.
         11   -1    0    0    0    0 -0.00000000000E+00 -0.00000000000E+00 -0.45593999997E+02  0.45594000000E+02  0.51100000000E-03 0. -1.
    9900012    2    1    2    0    0  0.38814152748E+02 -0.14901128296E+02  0.12451636537E+02  0.47787247351E+02  0.19999891974E+02 0.  0.
         12    1    1    2    0    0 -0.38814152748E+02  0.14901128296E+02 -0.12451636537E+02  0.43400752649E+02  0.00000000000E+00 0. -1.
         11    1    3    3    0    0  0.45505417595E+01 -0.33021581429E+01  0.33567364445E+01  0.65482332369E+01  0.51100000000E-03 0.  1.
        -11    1    3    3    0    0  0.17964809513E+02 -0.98707214288E+01  0.13151609392E+02  0.24354267639E+02  0.51100000000E-03 0. -1.
        -12    1    3    3    0    0  0.16298801476E+02 -0.17282487240E+01 -0.40567093002E+01  0.16884746476E+02  0.00000000000E+00 0.  1.
</event>
<event>
 7    1  0.1631716E-009  0.4778728E+02  0.7816164E-02  0.1312668E+00
        -11   -1    0    0    0    0  0.00000000000E+00  0.00000000000E+00  0.45593999997E+02  0.45594000000E+02  0.51100000000E-03 0. -1.
         11   -1    0    0    0    0 -0.00000000000E+00 -0.00000000000E+00 -0.45593999997E+02  0.45594000000E+02  0.51100000000E-03 0.  1.
    9900012    2    1    2    0    0  0.23178693398E+02 -0.28366670056E+02 -0.23274511073E+02  0.47787278078E+02  0.20000032067E+02 0.  0.
         12    1    1    2    0    0 -0.23178693398E+02  0.28366670056E+02  0.23274511073E+02  0.43400721922E+02  0.00000000000E+00 0. -1.
         11    1    3    3    0    0  0.65895130701E+01 -0.17737133062E+02 -0.11265261964E+02  0.22021210211E+02  0.51100000000E-03 0. -1.
        -11    1    3    3    0    0  0.10637368644E+02 -0.77635488287E+01 -0.13664958174E+01  0.13239849439E+02  0.51100000000E-03 0.  1.
         12    1    3    3    0    0  0.59518116837E+01 -0.28659881649E+01 -0.10642753292E+02  0.12526218428E+02  0.00000000000E+00 0. -1.
</event>
<event>
 7    1  0.1631716E-009  0.4778727E+02  0.7816164E-02  0.1312668E+00
        -11   -1    0    0    0    0  0.00000000000E+00  0.00000000000E+00  0.45593999997E+02  0.45594000000E+02  0.51100000000E-03 0.  1.
         11   -1    0    0    0    0 -0.00000000000E+00 -0.00000000000E+00 -0.45593999997E+02  0.45594000000E+02  0.51100000000E-03 0. -1.
    9900012    2    1    2    0    0  0.85289426031E+01 -0.71118001504E+01  0.41955961785E+02  0.47787270829E+02  0.19999999017E+02 0.  0.
         12    1    1    2    0    0 -0.85289426031E+01  0.71118001504E+01 -0.41955961785E+02  0.43400729171E+02  0.00000000000E+00 0. -1.
         11    1    3    3    0    0 -0.45638035879E+01 -0.23891678476E+01  0.59241566831E+01  0.78506088210E+01  0.51100000000E-03 0. -1.
        -11    1    3    3    0    0  0.72258913533E+01  0.49369224346E-01  0.74800801516E+01  0.10400362614E+02  0.51100000000E-03 0.  1.
         12    1    3    3    0    0  0.58668548377E+01 -0.47720015271E+01  0.28551724950E+02  0.29536299394E+02  0.00000000000E+00 0. -1.
</event>
<event>
 7    1  0.1631716E-009  0.4778726E+02  0.7816164E-02  0.1312668E+00
        -11   -1    0    0    0    0  0.00000000000E+00  0.00000000000E+00  0.45593999997E+02  0.45594000000E+02  0.51100000000E-03 0.  1.
         11   -1    0    0    0    0 -0.00000000000E+00 -0.00000000000E+00 -0.45593999997E+02  0.45594000000E+02  0.51100000000E-03 0. -1.
    9900012    2    1    2    0    0  0.43140242684E+02  0.47362757210E+01 -0.33334739178E+00  0.47787263059E+02  0.19999963591E+02 0.  0.
         12    1    1    2    0    0 -0.43140242684E+02 -0.47362757210E+01  0.33334739178E+00  0.43400736941E+02  0.00000000000E+00 0. -1.
         11    1    3    3    0    0  0.27670543057E+02 -0.31976917502E+01  0.52259834954E+01  0.28340696698E+02  0.51100000000E-03 0.  1.
        -11    1    3    3    0    0  0.13492801494E+02  0.40986886327E+01 -0.29587153265E+01  0.14408641064E+02  0.51100000000E-03 0. -1.
        -12    1    3    3    0    0  0.19768981330E+01  0.38352788386E+01 -0.26006155606E+01  0.50379252964E+01  0.00000000000E+00 0.  1.
</event>
<event>
 7    1  0.1631716E-009  0.4778729E+02  0.7816164E-02  0.1312668E+00
        -11   -1    0    0    0    0  0.00000000000E+00  0.00000000000E+00  0.45593999997E+02  0.45594000000E+02  0.51100000000E-03 0. -1.
         11   -1    0    0    0    0 -0.00000000000E+00 -0.00000000000E+00 -0.45593999997E+02  0.45594000000E+02  0.51100000000E-03 0.  1.
    9900012    2    1    2    0    0  0.98886871492E+01 -0.41021222597E+02 -0.10153577028E+02  0.47787286143E+02  0.20000068839E+02 0.  0.
         12    1    1    2    0    0 -0.98886871492E+01  0.41021222597E+02  0.10153577028E+02  0.43400713857E+02  0.00000000000E+00 0. -1.
         11    1    3    3    0    0  0.17141472450E+01 -0.68488160340E+01  0.17589008626E+01  0.72758720681E+01  0.51100000000E-03 0. -1.
        -11    1    3    3    0    0  0.54691008093E+01 -0.31094893605E+02 -0.15402549954E+02  0.35128934189E+02  0.51100000000E-03 0.  1.
        -12    1    3    3    0    0  0.27054390949E+01 -0.30775129582E+01  0.34900720637E+01  0.53824798851E+01  0.00000000000E+00 0.  1.
</event>
<event>
 7    1  0.1631716E-009  0.4778728E+02  0.7816164E-02  0.1312668E+00
        -11   -1    0    0    0    0  0.00000000000E+00  0.00000000000E+00  0.45593999997E+02  0.45594000000E+02  0.51100000000E-03 0.  1.
         11   -1    0    0    0    0 -0.00000000000E+00 -0.00000000000E+00 -0.45593999997E+02  0.45594000000E+02  0.51100000000E-03 0. -1.
    9900012    2    1    2    0    0 -0.23047796995E+02  0.11183841541E+02  0.35033462855E+02  0.47787276763E+02  0.20000026074E+02 0.  0.
         12    1    1    2    0    0  0.23047796995E+02 -0.11183841541E+02 -0.35033462855E+02  0.43400723237E+02  0.00000000000E+00 0. -1.
         11    1    3    3    0    0 -0.13312011577E+02 -0.97697537968E+00  0.63861414015E+01  0.14796855591E+02  0.51100000000E-03 0. -1.
        -11    1    3    3    0    0 -0.70207641417E+01  0.50175243068E+01  0.13456525675E+02  0.15985767508E+02  0.51100000000E-03 0.  1.
         12    1    3    3    0    0 -0.27150212760E+01  0.71432926135E+01  0.15190795778E+02  0.17004653665E+02  0.00000000000E+00 0. -1.
</event>
<event>
 7    1  0.1631716E-009  0.4778728E+02  0.7816164E-02  0.1312668E+00
        -11   -1    0    0    0    0  0.00000000000E+00  0.00000000000E+00  0.45593999997E+02  0.45594000000E+02  0.51100000000E-03 0.  1.
         11   -1    0    0    0    0 -0.00000000000E+00 -0.00000000000E+00 -0.45593999997E+02  0.45594000000E+02  0.51100000000E-03 0. -1.
    9900012    2    1    2    0    0  0.86299308324E+01  0.39265402956E+01  0.42352442219E+02  0.47787276656E+02  0.20000025585E+02 0.  0.
         12    1    1    2    0    0 -0.86299308324E+01 -0.39265402956E+01 -0.42352442219E+02  0.43400723344E+02  0.00000000000E+00 0. -1.
         11    1    3    3    0    0  0.90501121595E+00 -0.51876040939E+01  0.70264638399E+01  0.87807446091E+01  0.51100000000E-03 0. -1.
        -11    1    3    3    0    0  0.17400304764E+01 -0.13184265252E+01  0.16651954019E+02  0.16794449306E+02  0.51100000000E-03 0.  1.
         12    1    3    3    0    0  0.59848891400E+01  0.10432570915E+02  0.18674024360E+02  0.22212082741E+02  0.00000000000E+00 0. -1.
</event>
<event>
 7    1  0.1631716E-009  0.4778727E+02  0.7816164E-02  0.1312668E+00
        -11   -1    0    0    0    0  0.00000000000E+00  0.00000000000E+00  0.45593999997E+02  0.45594000000E+02  0.51100000000E-03 0.  1.
         11   -1    0    0    0    0 -0.00000000000E+00 -0.00000000000E+00 -0.45593999997E+02  0.45594000000E+02  0.51100000000E-03 0. -1.
    9900012    2    1    2    0    0 -0.12597435029E+01 -0.41275236809E+02  0.13356305882E+02  0.47787273806E+02  0.20000012592E+02 0.  0.
         12    1    1    2    0    0  0.12597435029E+01  0.41275236809E+02 -0.13356305882E+02  0.43400726194E+02  0.00000000000E+00 0. -1.
         11    1    3    3    0    0 -0.29638749029E+01 -0.80458684888E+01 -0.40432923456E+01  0.94799138938E+01  0.51100000000E-03 0. -1.
        -11    1    3    3    0    0 -0.26333414699E+01 -0.16097927145E+02  0.65987882030E+01  0.17596072052E+02  0.51100000000E-03 0.  1.
        -12    1    3    3    0    0  0.43374728699E+01 -0.17131441175E+02  0.10800810025E+02  0.20711287860E+02  0.00000000000E+00 0.  1.
</event>
<event>
 7    1  0.1631716E-009  0.4778727E+02  0.7816164E-02  0.1312668E+00
        -11   -1    0    0    0    0  0.00000000000E+00  0.00000000000E+00  0.45593999997E+02  0.45594000000E+02  0.51100000000E-03 0.  1.
         11   -1    0    0    0    0 -0.00000000000E+00 -0.00000000000E+00 -0.45593999997E+02  0.45594000000E+02  0.51100000000E-03 0. -1.
    9900012    2    1    2    0    0  0.16119716055E+02  0.40224000453E+02 -0.24099606207E+01  0.47787269957E+02  0.19999995041E+02 0.  0.
         12    1    1    2    0    0 -0.16119716055E+02 -0.40224000453E+02  0.24099606207E+01  0.43400730043E+02  0.00000000000E+00 0. -1.
         11    1    3    3    0    0  0.85494231134E+01  0.80669821542E+01  0.28025956204E+01  0.12084013370E+02  0.51100000000E-03 0. -1.
        -11    1    3    3    0    0  0.24615273225E+01  0.77247997977E+00 -0.28104500331E+01  0.38150323364E+01  0.51100000000E-03 0.  1.
        -12    1    3    3    0    0  0.51087656188E+01  0.31384538319E+02 -0.24021062080E+01  0.31888224251E+02  0.00000000000E+00 0.  1.
</event>
<event>
 7    1  0.1631716E-009  0.4778727E+02  0.7816164E-02  0.1312668E+00
        -11   -1    0    0    0    0  0.00000000000E+00  0.00000000000E+00  0.45593999997E+02  0.45594000000E+02  0.51100000000E-03 0.  1.
         11   -1    0    0    0    0 -0.00000000000E+00 -0.00000000000E+00 -0.45593999997E+02  0.45594000000E+02  0.51100000000E-03 0. -1.
    9900012    2    1    2    0    0  0.44899194147E+01  0.38874963968E+02  0.18767021191E+02  0.47787270925E+02  0.19999999457E+02 0.  0.
         12    1    1    2    0    0 -0.44899194147E+01 -0.38874963968E+02 -0.18767021191E+02  0.43400729075E+02  0.00000000000E+00 0. -1.
         11    1    3    3    0    0  0.45994092435E+01  0.12747918616E+02  0.36708283621E+01  0.14040618774E+02  0.51100000000E-03 0. -1.
        -11    1    3    3    0    0 -0.66156937984E+01  0.14524178635E+02  0.40756079978E+01  0.16472090040E+02  0.51100000000E-03 0.  1.
        -12    1    3    3    0    0  0.65062039697E+01  0.11602866716E+02  0.11020584831E+02  0.17274562111E+02  0.00000000000E+00 0.  1.
</event>
<event>
 7    1  0.1631716E-009  0.4778727E+02  0.7816164E-02  0.1312668E+00
        -11   -1    0    0    0    0  0.00000000000E+00  0.00000000000E+00  0.45593999997E+02  0.45594000000E+02  0.51100000000E-03 0.  1.
         11   -1    0    0    0    0 -0.00000000000E+00 -0.00000000000E+00 -0.45593999997E+02  0.45594000000E+02  0.51100000000E-03 0. -1.
    9900012    2    1    2    0    0 -0.41412464998E+02 -0.33137565918E+00  0.12981563234E+02  0.47787273612E+02  0.20000011707E+02 0.  0.
         12    1    1    2    0    0  0.41412464998E+02  0.33137565918E+00 -0.12981563234E+02  0.43400726388E+02  0.00000000000E+00 0. -1.
         11    1    3    3    0    0 -0.94072199059E+01  0.68967916916E+00 -0.21156735209E+01  0.96668256642E+01  0.51100000000E-03 0.  1.
        -11    1    3    3    0    0 -0.27050486556E+01  0.25011420994E+01 -0.18147708353E+01  0.41068714950E+01  0.51100000000E-03 0. -1.
        -12    1    3    3    0    0 -0.29300196436E+02 -0.35221969278E+01  0.16912007590E+02  0.34013576453E+02  0.00000000000E+00 0.  1.
</event>
<event>
 7    1  0.1631716E-009  0.4778727E+02  0.7816164E-02  0.1312668E+00
        -11   -1    0    0    0    0  0.00000000000E+00  0.00000000000E+00  0.45593999997E+02  0.45594000000E+02  0.51100000000E-03 0.  1.
         11   -1    0    0    0    0 -0.00000000000E+00 -0.00000000000E+00 -0.45593999997E+02  0.45594000000E+02  0.51100000000E-03 0. -1.
    9900012    2    1    2    0    0 -0.78134479077E+01  0.28476997495E+02  0.31806199179E+02  0.47787266588E+02  0.19999979680E+02 0.  0.
         12    1    1    2    0    0  0.78134479077E+01 -0.28476997495E+02 -0.31806199179E+02  0.43400733412E+02  0.00000000000E+00 0. -1.
         11    1    3    3    0    0  0.15792856354E+01  0.10273879206E+02  0.19565206837E+01  0.10577084215E+02  0.51100000000E-03 0. -1.
        -11    1    3    3    0    0 -0.45562121903E+01  0.14150937383E+02  0.15209596651E+02  0.21268284578E+02  0.51100000000E-03 0.  1.
        -12    1    3    3    0    0 -0.48365213528E+01  0.40521809062E+01  0.14640081844E+02  0.15941897794E+02  0.00000000000E+00 0.  1.
</event>
<event>
 7    1  0.1631716E-009  0.4778726E+02  0.7816164E-02  0.1312668E+00
        -11   -1    0    0    0    0  0.00000000000E+00  0.00000000000E+00  0.45593999997E+02  0.45594000000E+02  0.51100000000E-03 0.  1.
         11   -1    0    0    0    0 -0.00000000000E+00 -0.00000000000E+00 -0.45593999997E+02  0.45594000000E+02  0.51100000000E-03 0. -1.
    9900012    2    1    2    0    0 -0.20698662874E+02 -0.29039346062E+02 -0.24736727687E+02  0.47787263126E+02  0.19999963899E+02 0.  0.
         12    1    1    2    0    0  0.20698662874E+02  0.29039346062E+02  0.24736727687E+02  0.43400736874E+02  0.00000000000E+00 0. -1.
         11    1    3    3    0    0 -0.62692266888E+00 -0.39974351829E+01 -0.83295829423E+01  0.92603710685E+01  0.51100000000E-03 0. -1.
        -11    1    3    3    0    0  0.87727468136E+00 -0.69953230669E+01 -0.48565129893E+01  0.85609505520E+01  0.51100000000E-03 0.  1.
        -12    1    3    3    0    0 -0.20949014886E+02 -0.18046587812E+02 -0.11550631756E+02  0.29965941506E+02  0.00000000000E+00 0.  1.
</event>
<event>
 7    1  0.1631716E-009  0.4778727E+02  0.7816164E-02  0.1312668E+00
        -11   -1    0    0    0    0  0.00000000000E+00  0.00000000000E+00  0.45593999997E+02  0.45594000000E+02  0.51100000000E-03 0.  1.
         11   -1    0    0    0    0 -0.00000000000E+00 -0.00000000000E+00 -0.45593999997E+02  0.45594000000E+02  0.51100000000E-03 0. -1.
    9900012    2    1    2    0    0  0.22811578540E+02 -0.31936816640E+02  0.18528211301E+02  0.47787274354E+02  0.20000015091E+02 0.  0.
         12    1    1    2    0    0 -0.22811578540E+02  0.31936816640E+02 -0.18528211301E+02  0.43400725646E+02  0.00000000000E+00 0. -1.
         11    1    3    3    0    0  0.10808491864E+01  0.24918695265E+00 -0.23188331064E+01  0.25704700616E+01  0.51100000000E-03 0. -1.
        -11    1    3    3    0    0  0.54828298274E+01 -0.16711120552E+02  0.10739531919E+02  0.20607292863E+02  0.51100000000E-03 0.  1.
         12    1    3    3    0    0  0.16247899527E+02 -0.15474883040E+02  0.10107512488E+02  0.24609511430E+02  0.00000000000E+00 0. -1.
</event>
<event>
 7    1  0.1631716E-009  0.4778728E+02  0.7816164E-02  0.1312668E+00
        -11   -1    0    0    0    0  0.00000000000E+00  0.00000000000E+00  0.45593999997E+02  0.45594000000E+02  0.51100000000E-03 0. -1.
         11   -1    0    0    0    0 -0.00000000000E+00 -0.00000000000E+00 -0.45593999997E+02  0.45594000000E+02  0.51100000000E-03 0.  1.
    9900012    2    1    2    0    0 -0.14148964817E+02 -0.34003156814E+02  0.22961157143E+02  0.47787278622E+02  0.20000034550E+02 0.  0.
         12    1    1    2    0    0  0.14148964817E+02  0.34003156814E+02 -0.22961157143E+02  0.43400721378E+02  0.00000000000E+00 0. -1.
         11    1    3    3    0    0 -0.70148400292E+00  0.16294522962E+00  0.33984567956E+01  0.34739228268E+01  0.51100000000E-03 0. -1.
        -11    1    3    3    0    0 -0.33651446914E+01 -0.11019152600E+02  0.14573318194E+02  0.18577608195E+02  0.51100000000E-03 0.  1.
         12    1    3    3    0    0 -0.10082336123E+02 -0.23146949444E+02  0.49893821537E+01  0.25735747600E+02  0.00000000000E+00 0. -1.
</event>
<event>
 7    1  0.1631716E-009  0.4778727E+02  0.7816164E-02  0.1312668E+00
        -11   -1    0    0    0    0  0.00000000000E+00  0.00000000000E+00  0.45593999997E+02  0.45594000000E+02  0.51100000000E-03 0.  1.
         11   -1    0    0    0    0 -0.00000000000E+00 -0.00000000000E+00 -0.45593999997E+02  0.45594000000E+02  0.51100000000E-03 0. -1.
    9900012    2    1    2    0    0  0.20496812560E+02  0.31401008395E+02  0.21851328070E+02  0.47787271990E+02  0.20000004313E+02 0.  0.
         12    1    1    2    0    0 -0.20496812560E+02 -0.31401008395E+02 -0.21851328070E+02  0.43400728010E+02  0.00000000000E+00 0. -1.
         11    1    3    3    0    0 -0.32044772199E-01  0.53463504571E+01 -0.19092921395E+00  0.53498546058E+01  0.51100000000E-03 0. -1.
        -11    1    3    3    0    0  0.15426782071E+02  0.80605216197E+01  0.12585504350E+02  0.21479118554E+02  0.51100000000E-03 0.  1.
        -12    1    3    3    0    0  0.51020752610E+01  0.17994136318E+02  0.94567529339E+01  0.20958298830E+02  0.00000000000E+00 0.  1.
</event>
<event>
 7    1  0.1631716E-009  0.4778727E+02  0.7816164E-02  0.1312668E+00
        -11   -1    0    0    0    0  0.00000000000E+00  0.00000000000E+00  0.45593999997E+02  0.45594000000E+02  0.51100000000E-03 0.  1.
         11   -1    0    0    0    0 -0.00000000000E+00 -0.00000000000E+00 -0.45593999997E+02  0.45594000000E+02  0.51100000000E-03 0. -1.
    9900012    2    1    2    0    0  0.14159065681E+02  0.38094218809E+02  0.15230706362E+02  0.47787273464E+02  0.20000011031E+02 0.  0.
         12    1    1    2    0    0 -0.14159065681E+02 -0.38094218809E+02 -0.15230706362E+02  0.43400726536E+02  0.00000000000E+00 0. -1.
         11    1    3    3    0    0  0.36906246254E+01  0.58103943461E+01  0.97635880423E+01  0.11946089080E+02  0.51100000000E-03 0.  1.
        -11    1    3    3    0    0  0.11017662199E+01  0.88458340109E+01 -0.26971546976E+01  0.93132868460E+01  0.51100000000E-03 0. -1.
        -12    1    3    3    0    0  0.93666748352E+01  0.23437990452E+02  0.81642730172E+01  0.26527897538E+02  0.00000000000E+00 0.  1.
</event>
<event>
 7    1  0.1631716E-009  0.4778726E+02  0.7816164E-02  0.1312668E+00
        -11   -1    0    0    0    0  0.00000000000E+00  0.00000000000E+00  0.45593999997E+02  0.45594000000E+02  0.51100000000E-03 0.  1.
         11   -1    0    0    0    0 -0.00000000000E+00 -0.00000000000E+00 -0.45593999997E+02  0.45594000000E+02  0.51100000000E-03 0. -1.
    9900012    2    1    2    0    0  0.19991328743E+02 -0.26656707915E+02  0.27809910270E+02  0.47787257944E+02  0.19999940270E+02 0.  0.
         12    1    1    2    0    0 -0.19991328743E+02  0.26656707915E+02 -0.27809910270E+02  0.43400742056E+02  0.00000000000E+00 0. -1.
         11    1    3    3    0    0  0.51559858916E+01 -0.27919586701E+01  0.98098324112E+01  0.11428562286E+02  0.51100000000E-03 0. -1.
        -11    1    3    3    0    0  0.92183653925E-01 -0.61163319676E+01 -0.13283632767E+01  0.62595977363E+01  0.51100000000E-03 0.  1.
        -12    1    3    3    0    0  0.14743159197E+02 -0.17748417277E+02  0.19328441136E+02  0.30099097922E+02  0.00000000000E+00 0.  1.
</event>
<event>
 7    1  0.1631716E-009  0.4778727E+02  0.7816164E-02  0.1312668E+00
        -11   -1    0    0    0    0  0.00000000000E+00  0.00000000000E+00  0.45593999997E+02  0.45594000000E+02  0.51100000000E-03 0.  1.
         11   -1    0    0    0    0 -0.00000000000E+00 -0.00000000000E+00 -0.45593999997E+02  0.45594000000E+02  0.51100000000E-03 0. -1.
    9900012    2    1    2    0    0  0.11451467022E+02  0.18438566798E+02  0.37583324509E+02  0.47787272775E+02  0.20000007891E+02 0.  0.
         12    1    1    2    0    0 -0.11451467022E+02 -0.18438566798E+02 -0.37583324509E+02  0.43400727225E+02  0.00000000000E+00 0. -1.
         11    1    3    3    0    0  0.17156359382E+01  0.50757307620E+01  0.35426989970E+01  0.64231741285E+01  0.51100000000E-03 0. -1.
        -11    1    3    3    0    0 -0.16879985538E+01  0.11769142292E+02  0.15621206059E+02  0.19631202928E+02  0.51100000000E-03 0.  1.
         12    1    3    3    0    0  0.11423829638E+02  0.15936937440E+01  0.18419419453E+02  0.21732895719E+02  0.00000000000E+00 0. -1.
</event>
<event>
 7    1  0.1631716E-009  0.4778727E+02  0.7816164E-02  0.1312668E+00
        -11   -1    0    0    0    0  0.00000000000E+00  0.00000000000E+00  0.45593999997E+02  0.45594000000E+02  0.51100000000E-03 0. -1.
         11   -1    0    0    0    0 -0.00000000000E+00 -0.00000000000E+00 -0.45593999997E+02  0.45594000000E+02  0.51100000000E-03 0.  1.
    9900012    2    1    2    0    0  0.36120509473E+02 -0.16280032774E+02 -0.17717025408E+02  0.47787266584E+02  0.19999979662E+02 0.  0.
         12    1    1    2    0    0 -0.36120509473E+02  0.16280032774E+02  0.17717025408E+02  0.43400733416E+02  0.00000000000E+00 0. -1.
         11    1    3    3    0    0  0.10959834808E+02 -0.22953126752E+01  0.11299750892E+01  0.11254478365E+02  0.51100000000E-03 0. -1.
        -11    1    3    3    0    0  0.18582229437E+02 -0.15193766838E+02 -0.11560948724E+02  0.26642172157E+02  0.51100000000E-03 0.  1.
        -12    1    3    3    0    0  0.65784452282E+01  0.12090467393E+01 -0.72860517737E+01  0.98906160621E+01  0.00000000000E+00 0.  1.
</event>
<event>
 7    1  0.1631716E-009  0.4778727E+02  0.7816164E-02  0.1312668E+00
        -11   -1    0    0    0    0  0.00000000000E+00  0.00000000000E+00  0.45593999997E+02  0.45594000000E+02  0.51100000000E-03 0.  1.
         11   -1    0    0    0    0 -0.00000000000E+00 -0.00000000000E+00 -0.45593999997E+02  0.45594000000E+02  0.51100000000E-03 0. -1.
    9900012    2    1    2    0    0  0.21106924849E+02 -0.37134989680E+02 -0.76885528307E+01  0.47787267521E+02  0.19999983935E+02 0.  0.
         12    1    1    2    0    0 -0.21106924849E+02  0.37134989680E+02  0.76885528307E+01  0.43400732479E+02  0.00000000000E+00 0. -1.
         11    1    3    3    0    0 -0.45219464214E+00 -0.40083754014E-01 -0.31826856151E+01  0.32148988611E+01  0.51100000000E-03 0. -1.
        -11    1    3    3    0    0  0.46389760670E+01 -0.15982830446E+02  0.19523035979E+01  0.16756564612E+02  0.51100000000E-03 0.  1.
        -12    1    3    3    0    0  0.16920143424E+02 -0.21112075480E+02 -0.64581708135E+01  0.27815804048E+02  0.00000000000E+00 0.  1.
</event>
<event>
 7    1  0.1631716E-009  0.4778727E+02  0.7816164E-02  0.1312668E+00
        -11   -1    0    0    0    0  0.00000000000E+00  0.00000000000E+00  0.45593999997E+02  0.45594000000E+02  0.51100000000E-03 0.  1.
         11   -1    0    0    0    0 -0.00000000000E+00 -0.00000000000E+00 -0.45593999997E+02  0.45594000000E+02  0.51100000000E-03 0. -1.
    9900012    2    1    2    0    0  0.28481541266E+02  0.48828933161E+01  0.32381823791E+02  0.47787270144E+02  0.19999995895E+02 0.  0.
         12    1    1    2    0    0 -0.28481541266E+02 -0.48828933161E+01 -0.32381823791E+02  0.43400729856E+02  0.00000000000E+00 0. -1.
         11    1    3    3    0    0  0.97580104696E+01 -0.74068592210E+01  0.10136226317E+02  0.15900421883E+02  0.51100000000E-03 0. -1.
        -11    1    3    3    0    0  0.44564242169E+01  0.43222231078E+01  0.39606186889E+01  0.73639547836E+01  0.51100000000E-03 0.  1.
         12    1    3    3    0    0  0.14267106579E+02  0.79675294293E+01  0.18284978785E+02  0.24522893478E+02  0.00000000000E+00 0. -1.
</event>
<event>
 7    1  0.1631716E-009  0.4778727E+02  0.7816164E-02  0.1312668E+00
        -11   -1    0    0    0    0  0.00000000000E+00  0.00000000000E+00  0.45593999997E+02  0.45594000000E+02  0.51100000000E-03 0. -1.
         11   -1    0    0    0    0 -0.00000000000E+00 -0.00000000000E+00 -0.45593999997E+02  0.45594000000E+02  0.51100000000E-03 0.  1.
    9900012    2    1    2    0    0  0.27746225721E+02  0.32343166964E+02  0.82274067167E+01  0.47787265993E+02  0.19999976970E+02 0.  0.
         12    1    1    2    0    0 -0.27746225721E+02 -0.32343166964E+02 -0.82274067167E+01  0.43400734007E+02  0.00000000000E+00 0. -1.
         11    1    3    3    0    0 -0.15067454669E+01  0.87868111863E+01  0.35384670098E+01  0.95916151802E+01  0.51100000000E-03 0. -1.
        -11    1    3    3    0    0  0.12694334089E+02  0.13392334349E+02  0.15931351360E+01  0.18521307111E+02  0.51100000000E-03 0.  1.
        -12    1    3    3    0    0  0.16558637099E+02  0.10164021429E+02  0.30958045710E+01  0.19674343703E+02  0.00000000000E+00 0.  1.
</event>
<event>
 7    1  0.1631716E-009  0.4778727E+02  0.7816164E-02  0.1312668E+00
        -11   -1    0    0    0    0  0.00000000000E+00  0.00000000000E+00  0.45593999997E+02  0.45594000000E+02  0.51100000000E-03 0.  1.
         11   -1    0    0    0    0 -0.00000000000E+00 -0.00000000000E+00 -0.45593999997E+02  0.45594000000E+02  0.51100000000E-03 0. -1.
    9900012    2    1    2    0    0 -0.20551294057E+02 -0.36578084250E+02  0.11104569657E+02  0.47787269567E+02  0.19999993266E+02 0.  0.
         12    1    1    2    0    0  0.20551294057E+02  0.36578084250E+02 -0.11104569657E+02  0.43400730433E+02  0.00000000000E+00 0. -1.
         11    1    3    3    0    0 -0.49927977158E+01 -0.16740290221E+01  0.23195493473E-01  0.52660175170E+01  0.51100000000E-03 0. -1.
        -11    1    3    3    0    0  0.26269337779E+00 -0.15995229777E+02  0.72771537629E+01  0.17574793045E+02  0.51100000000E-03 0.  1.
        -12    1    3    3    0    0 -0.15821189719E+02 -0.18908825451E+02  0.38042204010E+01  0.24946459006E+02  0.00000000000E+00 0.  1.
</event>
<event>
 7    1  0.1631716E-009  0.4778727E+02  0.7816164E-02  0.1312668E+00
        -11   -1    0    0    0    0  0.00000000000E+00  0.00000000000E+00  0.45593999997E+02  0.45594000000E+02  0.51100000000E-03 0.  1.
         11   -1    0    0    0    0 -0.00000000000E+00 -0.00000000000E+00 -0.45593999997E+02  0.45594000000E+02  0.51100000000E-03 0. -1.
    9900012    2    1    2    0    0  0.56605724800E+01  0.30356281767E+02  0.30497169132E+02  0.47787271336E+02  0.20000001328E+02 0.  0.
         12    1    1    2    0    0 -0.56605724800E+01 -0.30356281767E+02 -0.30497169132E+02  0.43400728664E+02  0.00000000000E+00 0. -1.
         11    1    3    3    0    0  0.15588653769E+01  0.20649278184E+02  0.23243222303E+02  0.31129891328E+02  0.51100000000E-03 0. -1.
        -11    1    3    3    0    0 -0.25369029095E+01  0.68861955552E+01  0.16464226188E+01  0.75210553314E+01  0.51100000000E-03 0.  1.
         12    1    3    3    0    0  0.66386100127E+01  0.28208080282E+01  0.56075242098E+01  0.91363246766E+01  0.00000000000E+00 0. -1.
</event>
<event>
 7    1  0.1631716E-009  0.4778727E+02  0.7816164E-02  0.1312668E+00
        -11   -1    0    0    0    0  0.00000000000E+00  0.00000000000E+00  0.45593999997E+02  0.45594000000E+02  0.51100000000E-03 0.  1.
         11   -1    0    0    0    0 -0.00000000000E+00 -0.00000000000E+00 -0.45593999997E+02  0.45594000000E+02  0.51100000000E-03 0. -1.
    9900012    2    1    2    0    0 -0.22072816998E+02  0.20118329248E+02  0.31490746319E+02  0.47787268143E+02  0.19999986772E+02 0.  0.
         12    1    1    2    0    0  0.22072816998E+02 -0.20118329248E+02 -0.31490746319E+02  0.43400731857E+02  0.00000000000E+00 0. -1.
         11    1    3    3    0    0 -0.16531031289E+01 -0.20765465264E+01  0.77438404187E+01  0.81860772121E+01  0.51100000000E-03 0. -1.
        -11    1    3    3    0    0 -0.16129768934E+02  0.16676068995E+02  0.22833082285E+02  0.32551656945E+02  0.51100000000E-03 0.  1.
        -12    1    3    3    0    0 -0.42899449349E+01  0.55188067794E+01  0.91382361580E+00  0.70495339856E+01  0.00000000000E+00 0.  1.
</event>
<event>
 7    1  0.1631716E-009  0.4778727E+02  0.7816164E-02  0.1312668E+00
        -11   -1    0    0    0    0  0.00000000000E+00  0.00000000000E+00  0.45593999997E+02  0.45594000000E+02  0.51100000000E-03 0.  1.
         11   -1    0    0    0    0 -0.00000000000E+00 -0.00000000000E+00 -0.45593999997E+02  0.45594000000E+02  0.51100000000E-03 0. -1.
    9900012    2    1    2    0    0  0.36165251580E+02 -0.21200676271E+02  0.11235173438E+02  0.47787271684E+02  0.20000002916E+02 0.  0.
         12    1    1    2    0    0 -0.36165251580E+02  0.21200676271E+02 -0.11235173438E+02  0.43400728316E+02  0.00000000000E+00 0. -1.
         11    1    3    3    0    0  0.34562890372E+01 -0.10063094813E+01  0.66320878415E+01  0.75460706383E+01  0.51100000000E-03 0. -1.
        -11    1    3    3    0    0  0.96256841016E+01 -0.57002622680E+01 -0.36421796756E+01  0.11764873879E+02  0.51100000000E-03 0.  1.
         12    1    3    3    0    0  0.23083278441E+02 -0.14494104522E+02  0.82452652720E+01  0.28476327166E+02  0.00000000000E+00 0. -1.
</event>
<event>
 7    1  0.1631716E-009  0.4778727E+02  0.7816164E-02  0.1312668E+00
        -11   -1    0    0    0    0  0.00000000000E+00  0.00000000000E+00  0.45593999997E+02  0.45594000000E+02  0.51100000000E-03 0.  1.
         11   -1    0    0    0    0 -0.00000000000E+00 -0.00000000000E+00 -0.45593999997E+02  0.45594000000E+02  0.51100000000E-03 0. -1.
    9900012    2    1    2    0    0 -0.38836741835E+02 -0.19146153993E+02  0.29589588460E+01  0.47787272281E+02  0.20000005638E+02 0.  0.
         12    1    1    2    0    0  0.38836741835E+02  0.19146153993E+02 -0.29589588460E+01  0.43400727719E+02  0.00000000000E+00 0. -1.
         11    1    3    3    0    0 -0.18107159498E+02 -0.39109716918E+01 -0.30179174114E+01  0.18768930455E+02  0.51100000000E-03 0. -1.
        -11    1    3    3    0    0 -0.15727515129E+02 -0.15824174358E+02  0.16380682506E+01  0.22370572056E+02  0.51100000000E-03 0.  1.
         12    1    3    3    0    0 -0.50020672080E+01  0.58899205666E+00  0.43388080069E+01  0.66477697701E+01  0.00000000000E+00 0. -1.
</event>
<event>
 7    1  0.1631716E-009  0.4778727E+02  0.7816164E-02  0.1312668E+00
        -11   -1    0    0    0    0  0.00000000000E+00  0.00000000000E+00  0.45593999997E+02  0.45594000000E+02  0.51100000000E-03 0.  1.
         11   -1    0    0    0    0 -0.00000000000E+00 -0.00000000000E+00 -0.45593999997E+02  0.45594000000E+02  0.51100000000E-03 0. -1.
    9900012    2    1    2    0    0  0.14354958451E+02  0.37140767092E+02  0.17266200151E+02  0.47787273278E+02  0.20000010184E+02 0.  0.
         12    1    1    2    0    0 -0.14354958451E+02 -0.37140767092E+02 -0.17266200151E+02  0.43400726722E+02  0.00000000000E+00 0. -1.
         11    1    3    3    0    0  0.15625885012E+01  0.10924521923E+02  0.10900996213E+02  0.15511885145E+02  0.51100000000E-03 0. -1.
        -11    1    3    3    0    0  0.27138527715E+01  0.84031173019E+01 -0.35698874863E+01  0.95247821067E+01  0.51100000000E-03 0.  1.
         12    1    3    3    0    0  0.10078517178E+02  0.17813127867E+02  0.99350914251E+01  0.22750606026E+02  0.00000000000E+00 0. -1.
</event>
<event>
 7    1  0.1631716E-009  0.4778727E+02  0.7816164E-02  0.1312668E+00
        -11   -1    0    0    0    0  0.00000000000E+00  0.00000000000E+00  0.45593999997E+02  0.45594000000E+02  0.51100000000E-03 0.  1.
         11   -1    0    0    0    0 -0.00000000000E+00 -0.00000000000E+00 -0.45593999997E+02  0.45594000000E+02  0.51100000000E-03 0. -1.
    9900012    2    1    2    0    0 -0.26310239665E+02 -0.24161593557E+02  0.24649793788E+02  0.47787266731E+02  0.19999980336E+02 0.  0.
         12    1    1    2    0    0  0.26310239665E+02  0.24161593557E+02 -0.24649793788E+02  0.43400733269E+02  0.00000000000E+00 0. -1.
         11    1    3    3    0    0 -0.38109553184E+01  0.13487948875E+01  0.39499114566E+00  0.40618525766E+01  0.51100000000E-03 0. -1.
        -11    1    3    3    0    0 -0.21790263597E+02 -0.17078427752E+02  0.16391047172E+02  0.32173820254E+02  0.51100000000E-03 0.  1.
        -12    1    3    3    0    0 -0.70902074984E+00 -0.84319606928E+01  0.78637554704E+01  0.11551593901E+02  0.00000000000E+00 0.  1.
</event>
<event>
 7    1  0.1631716E-009  0.4778727E+02  0.7816164E-02  0.1312668E+00
        -11   -1    0    0    0    0  0.00000000000E+00  0.00000000000E+00  0.45593999997E+02  0.45594000000E+02  0.51100000000E-03 0.  1.
         11   -1    0    0    0    0 -0.00000000000E+00 -0.00000000000E+00 -0.45593999997E+02  0.45594000000E+02  0.51100000000E-03 0. -1.
    9900012    2    1    2    0    0 -0.75013877314E+01 -0.17544756699E+02  0.38981201852E+02  0.47787269553E+02  0.19999993198E+02 0.  0.
         12    1    1    2    0    0  0.75013877314E+01  0.17544756699E+02 -0.38981201852E+02  0.43400730447E+02  0.00000000000E+00 0. -1.
         11    1    3    3    0    0 -0.44581053578E+01 -0.31535151414E+01  0.71229840299E+01  0.89753140825E+01  0.51100000000E-03 0. -1.
        -11    1    3    3    0    0  0.60231142734E+01 -0.10736652272E+02  0.19401634691E+02  0.22977750902E+02  0.51100000000E-03 0.  1.
        -12    1    3    3    0    0 -0.90663966470E+01 -0.36545892859E+01  0.12456583131E+02  0.15834204568E+02  0.00000000000E+00 0.  1.
</event>
<event>
 7    1  0.1631716E-009  0.4778727E+02  0.7816164E-02  0.1312668E+00
        -11   -1    0    0    0    0  0.00000000000E+00  0.00000000000E+00  0.45593999997E+02  0.45594000000E+02  0.51100000000E-03 0.  1.
         11   -1    0    0    0    0 -0.00000000000E+00 -0.00000000000E+00 -0.45593999997E+02  0.45594000000E+02  0.51100000000E-03 0. -1.
    9900012    2    1    2    0    0 -0.26000628589E+01 -0.70728582947E+01  0.42741525368E+02  0.47787266802E+02  0.19999980656E+02 0.  0.
         12    1    1    2    0    0  0.26000628589E+01  0.70728582947E+01 -0.42741525368E+02  0.43400733198E+02  0.00000000000E+00 0. -1.
         11    1    3    3    0    0  0.13882133797E+01 -0.29354071803E+01  0.30155816709E+01  0.44314201761E+01  0.51100000000E-03 0. -1.
        -11    1    3    3    0    0 -0.95392230856E+01 -0.28302707230E+00  0.30230491591E+02  0.31701096251E+02  0.51100000000E-03 0.  1.
        -12    1    3    3    0    0  0.55509468470E+01 -0.38544240421E+01  0.94954521065E+01  0.11654750375E+02  0.00000000000E+00 0.  1.
</event>
<event>
 7    1  0.1631716E-009  0.4778727E+02  0.7816164E-02  0.1312668E+00
        -11   -1    0    0    0    0  0.00000000000E+00  0.00000000000E+00  0.45593999997E+02  0.45594000000E+02  0.51100000000E-03 0. -1.
         11   -1    0    0    0    0 -0.00000000000E+00 -0.00000000000E+00 -0.45593999997E+02  0.45594000000E+02  0.51100000000E-03 0.  1.
    9900012    2    1    2    0    0 -0.20947026437E+02  0.15900286267E+02 -0.34525733236E+02  0.47787271027E+02  0.19999999920E+02 0.  0.
         12    1    1    2    0    0  0.20947026437E+02 -0.15900286267E+02  0.34525733236E+02  0.43400728973E+02  0.00000000000E+00 0. -1.
         11    1    3    3    0    0 -0.53664780587E+01 -0.30089550056E+01 -0.11513496030E+02  0.13054251724E+02  0.51100000000E-03 0. -1.
        -11    1    3    3    0    0 -0.27150248925E+00  0.59339218814E+01 -0.56119160005E+01  0.81718262313E+01  0.51100000000E-03 0.  1.
        -12    1    3    3    0    0 -0.15309045889E+02  0.12975319391E+02 -0.17400321205E+02  0.26561193071E+02  0.00000000000E+00 0.  1.
</event>
<event>
 7    1  0.1631716E-009  0.4778727E+02  0.7816164E-02  0.1312668E+00
        -11   -1    0    0    0    0  0.00000000000E+00  0.00000000000E+00  0.45593999997E+02  0.45594000000E+02  0.51100000000E-03 0.  1.
         11   -1    0    0    0    0 -0.00000000000E+00 -0.00000000000E+00 -0.45593999997E+02  0.45594000000E+02  0.51100000000E-03 0. -1.
    9900012    2    1    2    0    0  0.23231468394E+02  0.35355400786E+02  0.96911114054E+01  0.47787272716E+02  0.20000007622E+02 0.  0.
         12    1    1    2    0    0 -0.23231468394E+02 -0.35355400786E+02 -0.96911114054E+01  0.43400727284E+02  0.00000000000E+00 0. -1.
         11    1    3    3    0    0  0.69816306259E+01  0.10991611916E+02  0.63017228817E+01  0.14466181605E+02  0.51100000000E-03 0.  1.
        -11    1    3    3    0    0  0.51762069648E+01  0.13093055166E+02 -0.55889861729E+01  0.15147870438E+02  0.51100000000E-03 0. -1.
         12    1    3    3    0    0  0.11073630804E+02  0.11270733705E+02  0.89783746966E+01  0.18173220672E+02  0.00000000000E+00 0. -1.
</event>
<event>
 7    1  0.1631716E-009  0.4778727E+02  0.7816164E-02  0.1312668E+00
        -11   -1    0    0    0    0  0.00000000000E+00  0.00000000000E+00  0.45593999997E+02  0.45594000000E+02  0.51100000000E-03 0.  1.
         11   -1    0    0    0    0 -0.00000000000E+00 -0.00000000000E+00 -0.45593999997E+02  0.45594000000E+02  0.51100000000E-03 0. -1.
    9900012    2    1    2    0    0 -0.10236451610E+01  0.11230609062E+02  0.41910009031E+02  0.47787270901E+02  0.19999999348E+02 0.  0.
         12    1    1    2    0    0  0.10236451610E+01 -0.11230609062E+02 -0.41910009031E+02  0.43400729099E+02  0.00000000000E+00 0. -1.
         11    1    3    3    0    0  0.95392863839E+00  0.13616339285E+01 -0.18012003368E+01  0.24511935290E+01  0.51100000000E-03 0. -1.
        -11    1    3    3    0    0  0.12464034385E+01  0.59917244816E+01  0.15259997019E+02  0.16441465661E+02  0.51100000000E-03 0.  1.
         12    1    3    3    0    0 -0.32239772378E+01  0.38772506524E+01  0.28451212349E+02  0.28894611712E+02  0.00000000000E+00 0. -1.
</event>
<event>
 7    1  0.1631716E-009  0.4778727E+02  0.7816164E-02  0.1312668E+00
        -11   -1    0    0    0    0  0.00000000000E+00  0.00000000000E+00  0.45593999997E+02  0.45594000000E+02  0.51100000000E-03 0.  1.
         11   -1    0    0    0    0 -0.00000000000E+00 -0.00000000000E+00 -0.45593999997E+02  0.45594000000E+02  0.51100000000E-03 0. -1.
    9900012    2    1    2    0    0  0.27544991700E+02 -0.32616272945E+02 -0.78150910758E+01  0.47787268703E+02  0.19999989324E+02 0.  0.
         12    1    1    2    0    0 -0.27544991700E+02  0.32616272945E+02  0.78150910758E+01  0.43400731297E+02  0.00000000000E+00 0. -1.
         11    1    3    3    0    0  0.99221859061E+01 -0.67337817616E+00  0.12720541936E+00  0.99458228822E+01  0.51100000000E-03 0. -1.
        -11    1    3    3    0    0  0.24146230894E+01 -0.13165305979E+01 -0.11389917423E+01  0.29767364561E+01  0.51100000000E-03 0.  1.
        -12    1    3    3    0    0  0.15208182704E+02 -0.30626364171E+02 -0.68033047529E+01  0.34864709365E+02  0.00000000000E+00 0.  1.
</event>
<event>
 7    1  0.1631716E-009  0.4778726E+02  0.7816164E-02  0.1312668E+00
        -11   -1    0    0    0    0  0.00000000000E+00  0.00000000000E+00  0.45593999997E+02  0.45594000000E+02  0.51100000000E-03 0.  1.
         11   -1    0    0    0    0 -0.00000000000E+00 -0.00000000000E+00 -0.45593999997E+02  0.45594000000E+02  0.51100000000E-03 0. -1.
    9900012    2    1    2    0    0 -0.10523083651E+02 -0.30004867191E+02  0.29539744138E+02  0.47787264656E+02  0.19999970871E+02 0.  0.
         12    1    1    2    0    0  0.10523083651E+02  0.30004867191E+02 -0.29539744138E+02  0.43400735344E+02  0.00000000000E+00 0. -1.
         11    1    3    3    0    0  0.22728808378E+01 -0.28604315714E+01  0.49191082416E+01  0.61274531603E+01  0.51100000000E-03 0. -1.
        -11    1    3    3    0    0  0.25544136441E+01 -0.10185850070E+02  0.55442855871E+01  0.11875002048E+02  0.51100000000E-03 0.  1.
        -12    1    3    3    0    0 -0.15350378133E+02 -0.16958585550E+02  0.19076350310E+02  0.29784809447E+02  0.00000000000E+00 0.  1.
</event>
<event>
 7    1  0.1631716E-009  0.4778725E+02  0.7816164E-02  0.1312668E+00
        -11   -1    0    0    0    0  0.00000000000E+00  0.00000000000E+00  0.45593999997E+02  0.45594000000E+02  0.51100000000E-03 0.  1.
         11   -1    0    0    0    0 -0.00000000000E+00 -0.00000000000E+00 -0.45593999997E+02  0.45594000000E+02  0.51100000000E-03 0. -1.
    9900012    2    1    2    0    0 -0.16166630905E+02 -0.40267380294E+02 -0.89605612735E+00  0.47787253611E+02  0.19999920513E+02 0.  0.
         12    1    1    2    0    0  0.16166630905E+02  0.40267380294E+02  0.89605612735E+00  0.43400746389E+02  0.00000000000E+00 0. -1.
         11    1    3    3    0    0 -0.54846411256E+01 -0.51839439085E+01 -0.28820043746E+01  0.80783978733E+01  0.51100000000E-03 0. -1.
        -11    1    3    3    0    0 -0.12501230589E+02 -0.34618886477E+02  0.39178699125E+01  0.37014831785E+02  0.51100000000E-03 0.  1.
        -12    1    3    3    0    0  0.18192408087E+01 -0.46454990813E+00 -0.19319216652E+01  0.26940239527E+01  0.00000000000E+00 0.  1.
</event>
<event>
 7    1  0.1631716E-009  0.4778725E+02  0.7816164E-02  0.1312668E+00
        -11   -1    0    0    0    0  0.00000000000E+00  0.00000000000E+00  0.45593999997E+02  0.45594000000E+02  0.51100000000E-03 0.  1.
         11   -1    0    0    0    0 -0.00000000000E+00 -0.00000000000E+00 -0.45593999997E+02  0.45594000000E+02  0.51100000000E-03 0. -1.
    9900012    2    1    2    0    0 -0.17396911603E+02 -0.26220081949E+02  0.29891138738E+02  0.47787246484E+02  0.19999888017E+02 0.  0.
         12    1    1    2    0    0  0.17396911603E+02  0.26220081949E+02 -0.29891138738E+02  0.43400753516E+02  0.00000000000E+00 0. -1.
         11    1    3    3    0    0 -0.90160929553E+00 -0.16000338583E+02  0.10801362867E+02  0.19325971493E+02  0.51100000000E-03 0. -1.
        -11    1    3    3    0    0 -0.80761879984E+01 -0.87588985507E+01  0.14482916803E+02  0.18753612873E+02  0.51100000000E-03 0.  1.
         12    1    3    3    0    0 -0.84191143087E+01 -0.14608448157E+01  0.46068590677E+01  0.97076621175E+01  0.00000000000E+00 0. -1.
</event>
<event>
 7    1  0.1631716E-009  0.4778727E+02  0.7816164E-02  0.1312668E+00
        -11   -1    0    0    0    0  0.00000000000E+00  0.00000000000E+00  0.45593999997E+02  0.45594000000E+02  0.51100000000E-03 0.  1.
         11   -1    0    0    0    0 -0.00000000000E+00 -0.00000000000E+00 -0.45593999997E+02  0.45594000000E+02  0.51100000000E-03 0. -1.
    9900012    2    1    2    0    0  0.43689975589E+01  0.39337005618E+02  0.17808294278E+02  0.47787268488E+02  0.19999988346E+02 0.  0.
         12    1    1    2    0    0 -0.43689975589E+01 -0.39337005618E+02 -0.17808294278E+02  0.43400731512E+02  0.00000000000E+00 0. -1.
         11    1    3    3    0    0  0.18583942942E+01  0.23669639195E+02  0.60929294051E+01  0.24511818333E+02  0.51100000000E-03 0.  1.
        -11    1    3    3    0    0 -0.47633153644E+01  0.87732075777E+01  0.46460568689E+01  0.11011093913E+02  0.51100000000E-03 0. -1.
         12    1    3    3    0    0  0.72739186290E+01  0.68941588449E+01  0.70693080043E+01  0.12264356243E+02  0.00000000000E+00 0. -1.
</event>
<event>
 7    1 -0.1631716E-009  0.4778727E+02  0.7816164E-02  0.1312668E+00
        -11   -1    0    0    0    0  0.00000000000E+00  0.00000000000E+00  0.45593999997E+02  0.45594000000E+02  0.51100000000E-03 0. -1.
         11   -1    0    0    0    0 -0.00000000000E+00 -0.00000000000E+00 -0.45593999997E+02  0.45594000000E+02  0.51100000000E-03 0.  1.
    9900012    2    1    2    0    0 -0.34816172160E+02  0.13700115446E+02 -0.21994639675E+02  0.47787272108E+02  0.20000004849E+02 0.  0.
         12    1    1    2    0    0  0.34816172160E+02 -0.13700115446E+02  0.21994639675E+02  0.43400727892E+02  0.00000000000E+00 0. -1.
         11    1    3    3    0    0 -0.15281250870E+02  0.54283333933E+01 -0.16923251796E+02  0.23438854136E+02  0.51100000000E-03 0. -1.
        -11    1    3    3    0    0 -0.53943084541E+01 -0.25509474494E+01 -0.18919660118E+01  0.62598268537E+01  0.51100000000E-03 0.  1.
         12    1    3    3    0    0 -0.14140612836E+02  0.10822729502E+02 -0.31794218675E+01  0.18088591118E+02  0.00000000000E+00 0. -1.
</event>
<event>
 7    1  0.1631716E-009  0.4778727E+02  0.7816164E-02  0.1312668E+00
        -11   -1    0    0    0    0  0.00000000000E+00  0.00000000000E+00  0.45593999997E+02  0.45594000000E+02  0.51100000000E-03 0.  1.
         11   -1    0    0    0    0 -0.00000000000E+00 -0.00000000000E+00 -0.45593999997E+02  0.45594000000E+02  0.51100000000E-03 0. -1.
    9900012    2    1    2    0    0 -0.75091200124E+01  0.83883073636E+01  0.41915065170E+02  0.47787271066E+02  0.20000000099E+02 0.  0.
         12    1    1    2    0    0  0.75091200124E+01 -0.83883073636E+01 -0.41915065170E+02  0.43400728934E+02  0.00000000000E+00 0. -1.
         11    1    3    3    0    0 -0.30605019783E+01  0.91732110344E+01  0.57069971932E+01  0.11228726119E+02  0.51100000000E-03 0. -1.
        -11    1    3    3    0    0 -0.30837138367E+01 -0.40698784543E+00  0.15914462078E+02  0.16215579966E+02  0.51100000000E-03 0.  1.
         12    1    3    3    0    0 -0.13649041974E+01 -0.37791582540E+00  0.20293605899E+02  0.20342964981E+02  0.00000000000E+00 0. -1.
</event>
<event>
 7    1  0.1631716E-009  0.4778727E+02  0.7816164E-02  0.1312668E+00
        -11   -1    0    0    0    0  0.00000000000E+00  0.00000000000E+00  0.45593999997E+02  0.45594000000E+02  0.51100000000E-03 0.  1.
         11   -1    0    0    0    0 -0.00000000000E+00 -0.00000000000E+00 -0.45593999997E+02  0.45594000000E+02  0.51100000000E-03 0. -1.
    9900012    2    1    2    0    0  0.23757671713E+02 -0.12678876905E+02  0.34035898431E+02  0.47787271126E+02  0.20000000370E+02 0.  0.
         12    1    1    2    0    0 -0.23757671713E+02  0.12678876905E+02 -0.34035898431E+02  0.43400728874E+02  0.00000000000E+00 0. -1.
         11    1    3    3    0    0  0.64154107482E+01 -0.69946894670E+01  0.47762036088E+01  0.10625219856E+02  0.51100000000E-03 0. -1.
        -11    1    3    3    0    0  0.32004628959E+00 -0.57975618477E+01  0.88580818257E+01  0.10591495027E+02  0.51100000000E-03 0.  1.
         12    1    3    3    0    0  0.17022214675E+02  0.11337440974E+00  0.20401612997E+02  0.26570556243E+02  0.00000000000E+00 0. -1.
</event>
<event>
 7    1  0.1631716E-009  0.4778727E+02  0.7816164E-02  0.1312668E+00
        -11   -1    0    0    0    0  0.00000000000E+00  0.00000000000E+00  0.45593999997E+02  0.45594000000E+02  0.51100000000E-03 0.  1.
         11   -1    0    0    0    0 -0.00000000000E+00 -0.00000000000E+00 -0.45593999997E+02  0.45594000000E+02  0.51100000000E-03 0. -1.
    9900012    2    1    2    0    0  0.29085757648E+02 -0.11319411784E+02  0.30158135439E+02  0.47787268275E+02  0.19999987374E+02 0.  0.
         12    1    1    2    0    0 -0.29085757648E+02  0.11319411784E+02 -0.30158135439E+02  0.43400731725E+02  0.00000000000E+00 0. -1.
         11    1    3    3    0    0  0.18052573635E+01 -0.51016653693E+01  0.26604363867E+01  0.60302459086E+01  0.51100000000E-03 0. -1.
        -11    1    3    3    0    0  0.48272604185E+01 -0.74274325048E+01  0.91504508678E+01  0.12735774343E+02  0.51100000000E-03 0.  1.
        -12    1    3    3    0    0  0.22453239866E+02  0.12096860905E+01  0.18347248185E+02  0.29021248024E+02  0.00000000000E+00 0.  1.
</event>
<event>
 7    1  0.1631716E-009  0.4778727E+02  0.7816164E-02  0.1312668E+00
        -11   -1    0    0    0    0  0.00000000000E+00  0.00000000000E+00  0.45593999997E+02  0.45594000000E+02  0.51100000000E-03 0.  1.
         11   -1    0    0    0    0 -0.00000000000E+00 -0.00000000000E+00 -0.45593999997E+02  0.45594000000E+02  0.51100000000E-03 0. -1.
    9900012    2    1    2    0    0 -0.50188218041E+01  0.19705025541E+02  0.38342492361E+02  0.47787270463E+02  0.19999997350E+02 0.  0.
         12    1    1    2    0    0  0.50188218041E+01 -0.19705025541E+02 -0.38342492361E+02  0.43400729537E+02  0.00000000000E+00 0. -1.
         11    1    3    3    0    0  0.35389269778E+01  0.43440214068E+01  0.16392292077E+01  0.58379447405E+01  0.51100000000E-03 0. -1.
        -11    1    3    3    0    0 -0.25465582066E+00  0.59014677906E+00 -0.66126573429E+00  0.92216887841E+00  0.51100000000E-03 0.  1.
        -12    1    3    3    0    0 -0.83030929611E+01  0.14770857355E+02  0.37364528888E+02  0.41027156844E+02  0.00000000000E+00 0.  1.
</event>
<event>
 7    1  0.2029929E-009  0.4778727E+02  0.7816164E-02  0.1312668E+00
        -11   -1    0    0    0    0  0.00000000000E+00  0.00000000000E+00  0.45593999997E+02  0.45594000000E+02  0.51100000000E-03 0. -1.
         11   -1    0    0    0    0 -0.00000000000E+00 -0.00000000000E+00 -0.45593999997E+02  0.45594000000E+02  0.51100000000E-03 0.  1.
    9900012    2    1    2    0    0  0.51399874778E+01  0.41603206901E+00 -0.43093275743E+02  0.47787274565E+02  0.20000016053E+02 0.  0.
         12    1    1    2    0    0 -0.51399874778E+01 -0.41603206901E+00  0.43093275743E+02  0.43400725435E+02  0.00000000000E+00 0. -1.
         11    1    3    3    0    0 -0.16098173485E+00 -0.69745971818E+00  0.14309970101E+01  0.16000368375E+01  0.51100000000E-03 0. -1.
        -11    1    3    3    0    0  0.57108202475E+01  0.50594308513E+01 -0.21270042456E+02  0.22597035531E+02  0.51100000000E-03 0.  1.
         12    1    3    3    0    0 -0.40985103480E+00 -0.39459390641E+01 -0.23254230298E+02  0.23590202197E+02  0.00000000000E+00 0. -1.
</event>
<event>
 7    1  0.1631716E-009  0.4778727E+02  0.7816164E-02  0.1312668E+00
        -11   -1    0    0    0    0  0.00000000000E+00  0.00000000000E+00  0.45593999997E+02  0.45594000000E+02  0.51100000000E-03 0.  1.
         11   -1    0    0    0    0 -0.00000000000E+00 -0.00000000000E+00 -0.45593999997E+02  0.45594000000E+02  0.51100000000E-03 0. -1.
    9900012    2    1    2    0    0 -0.32768708829E+02  0.11332691954E+02  0.26103732533E+02  0.47787273769E+02  0.20000012421E+02 0.  0.
         12    1    1    2    0    0  0.32768708829E+02 -0.11332691954E+02 -0.26103732533E+02  0.43400726231E+02  0.00000000000E+00 0. -1.
         11    1    3    3    0    0 -0.45322122093E+01 -0.13369616930E+01 -0.56361706871E+00  0.47587896087E+01  0.51100000000E-03 0. -1.
        -11    1    3    3    0    0  0.12274963686E+01 -0.47923106200E+00  0.27939540663E+00  0.13470233109E+01  0.51100000000E-03 0.  1.
        -12    1    3    3    0    0 -0.29463992989E+02  0.13148884709E+02  0.26387954195E+02  0.41681460849E+02  0.00000000000E+00 0.  1.
</event>
<event>
 7    1  0.1631716E-009  0.4778727E+02  0.7816164E-02  0.1312668E+00
        -11   -1    0    0    0    0  0.00000000000E+00  0.00000000000E+00  0.45593999997E+02  0.45594000000E+02  0.51100000000E-03 0. -1.
         11   -1    0    0    0    0 -0.00000000000E+00 -0.00000000000E+00 -0.45593999997E+02  0.45594000000E+02  0.51100000000E-03 0.  1.
    9900012    2    1    2    0    0  0.39679891031E+02  0.16819848357E+02 -0.51207503910E+01  0.47787272638E+02  0.20000007266E+02 0.  0.
         12    1    1    2    0    0 -0.39679891031E+02 -0.16819848357E+02  0.51207503910E+01  0.43400727362E+02  0.00000000000E+00 0. -1.
         11    1    3    3    0    0  0.16333315910E+02  0.82702286772E+01  0.52081762386E+01  0.19034153277E+02  0.51100000000E-03 0. -1.
        -11    1    3    3    0    0  0.20788799665E+02  0.95741001425E+01 -0.60667657643E+01  0.23677905992E+02  0.51100000000E-03 0.  1.
        -12    1    3    3    0    0  0.25577754559E+01 -0.10244804624E+01 -0.42621608653E+01  0.50752133692E+01  0.00000000000E+00 0.  1.
</event>
<event>
 7    1  0.2473435E-009  0.4778728E+02  0.7816164E-02  0.1312668E+00
        -11   -1    0    0    0    0  0.00000000000E+00  0.00000000000E+00  0.45593999997E+02  0.45594000000E+02  0.51100000000E-03 0. -1.
         11   -1    0    0    0    0 -0.00000000000E+00 -0.00000000000E+00 -0.45593999997E+02  0.45594000000E+02  0.51100000000E-03 0.  1.
    9900012    2    1    2    0    0  0.26989720496E+02  0.29221071115E+02  0.17358178848E+02  0.47787281314E+02  0.20000046823E+02 0.  0.
         12    1    1    2    0    0 -0.26989720496E+02 -0.29221071115E+02 -0.17358178848E+02  0.43400718686E+02  0.00000000000E+00 0. -1.
         11    1    3    3    0    0  0.11729928200E+02  0.45818637488E+01  0.99098150697E+01  0.16024641212E+02  0.51100000000E-03 0. -1.
        -11    1    3    3    0    0  0.15312732981E+02  0.20114335910E+02  0.92120416194E+01  0.26905910345E+02  0.51100000000E-03 0.  1.
         12    1    3    3    0    0 -0.52940684695E-01  0.45248714557E+01 -0.17636778412E+01  0.48567297572E+01  0.00000000000E+00 0. -1.
</event>
<event>
 7    1  0.1631716E-009  0.4778727E+02  0.7816164E-02  0.1312668E+00
        -11   -1    0    0    0    0  0.00000000000E+00  0.00000000000E+00  0.45593999997E+02  0.45594000000E+02  0.51100000000E-03 0.  1.
         11   -1    0    0    0    0 -0.00000000000E+00 -0.00000000000E+00 -0.45593999997E+02  0.45594000000E+02  0.51100000000E-03 0. -1.
    9900012    2    1    2    0    0  0.17234782413E+01  0.19851995235E+02  0.38555815514E+02  0.47787274177E+02  0.20000014281E+02 0.  0.
         12    1    1    2    0    0 -0.17234782413E+01 -0.19851995235E+02 -0.38555815514E+02  0.43400725823E+02  0.00000000000E+00 0. -1.
         11    1    3    3    0    0  0.29204456216E+01  0.97179416953E+00  0.16402612269E+01  0.34876702382E+01  0.51100000000E-03 0. -1.
        -11    1    3    3    0    0 -0.19694038675E+01  0.20866024991E+02  0.36557027759E+02  0.42138887377E+02  0.51100000000E-03 0.  1.
        -12    1    3    3    0    0  0.77243648721E+00 -0.19858239251E+01  0.35852652752E+00  0.21607165615E+01  0.00000000000E+00 0.  1.
</event>
<event>
 7    1  0.1631716E-009  0.4778727E+02  0.7816164E-02  0.1312668E+00
        -11   -1    0    0    0    0  0.00000000000E+00  0.00000000000E+00  0.45593999997E+02  0.45594000000E+02  0.51100000000E-03 0.  1.
         11   -1    0    0    0    0 -0.00000000000E+00 -0.00000000000E+00 -0.45593999997E+02  0.45594000000E+02  0.51100000000E-03 0. -1.
    9900012    2    1    2    0    0 -0.22925845856E+02  0.23052189078E+02  0.28751093990E+02  0.47787271491E+02  0.20000002037E+02 0.  0.
         12    1    1    2    0    0  0.22925845856E+02 -0.23052189078E+02 -0.28751093990E+02  0.43400728509E+02  0.00000000000E+00 0. -1.
         11    1    3    3    0    0 -0.23784002141E+02  0.19718483594E+02  0.25382518156E+02  0.39984616808E+02  0.51100000000E-03 0. -1.
        -11    1    3    3    0    0 -0.13387702921E+00  0.50442867904E+01  0.21914279171E+01  0.55013733612E+01  0.51100000000E-03 0.  1.
         12    1    3    3    0    0  0.99203331440E+00 -0.17105813067E+01  0.11771479171E+01  0.23012813219E+01  0.00000000000E+00 0. -1.
</event>
<event>
 7    1  0.1631716E-009  0.4778727E+02  0.7816164E-02  0.1312668E+00
        -11   -1    0    0    0    0  0.00000000000E+00  0.00000000000E+00  0.45593999997E+02  0.45594000000E+02  0.51100000000E-03 0.  1.
         11   -1    0    0    0    0 -0.00000000000E+00 -0.00000000000E+00 -0.45593999997E+02  0.45594000000E+02  0.51100000000E-03 0. -1.
    9900012    2    1    2    0    0 -0.25253813210E+02 -0.10535494307E+02  0.33687856152E+02  0.47787269891E+02  0.19999994740E+02 0.  0.
         12    1    1    2    0    0  0.25253813210E+02  0.10535494307E+02 -0.33687856152E+02  0.43400730109E+02  0.00000000000E+00 0. -1.
         11    1    3    3    0    0 -0.34164928811E+00 -0.39048294070E+01  0.11434828105E+02  0.12087998634E+02  0.51100000000E-03 0. -1.
        -11    1    3    3    0    0 -0.89580618975E+01 -0.71132676652E+01  0.59902524067E+01  0.12912341925E+02  0.51100000000E-03 0.  1.
        -12    1    3    3    0    0 -0.15954102024E+02  0.48260276528E+00  0.16262775640E+02  0.22786929331E+02  0.00000000000E+00 0.  1.
</event>
<event>
 7    1  0.1631716E-009  0.4778728E+02  0.7816164E-02  0.1312668E+00
        -11   -1    0    0    0    0  0.00000000000E+00  0.00000000000E+00  0.45593999997E+02  0.45594000000E+02  0.51100000000E-03 0.  1.
         11   -1    0    0    0    0 -0.00000000000E+00 -0.00000000000E+00 -0.45593999997E+02  0.45594000000E+02  0.51100000000E-03 0. -1.
    9900012    2    1    2    0    0 -0.32626279276E+02 -0.59804630004E+01  0.27988970626E+02  0.47787279801E+02  0.20000039925E+02 0.  0.
         12    1    1    2    0    0  0.32626279276E+02  0.59804630004E+01 -0.27988970626E+02  0.43400720199E+02  0.00000000000E+00 0. -1.
         11    1    3    3    0    0 -0.19958680219E+02  0.32575193411E+01  0.16111690143E+02  0.25856274052E+02  0.51100000000E-03 0. -1.
        -11    1    3    3    0    0 -0.12667198514E+02 -0.78321650941E+01  0.13273540235E+02  0.19949626535E+02  0.51100000000E-03 0.  1.
        -12    1    3    3    0    0 -0.40054271008E-03 -0.14058172474E+01 -0.13962597522E+01  0.19813792138E+01  0.00000000000E+00 0.  1.
</event>
<event>
 7    1  0.1631716E-009  0.4778725E+02  0.7816164E-02  0.1312668E+00
        -11   -1    0    0    0    0  0.00000000000E+00  0.00000000000E+00  0.45593999997E+02  0.45594000000E+02  0.51100000000E-03 0. -1.
         11   -1    0    0    0    0 -0.00000000000E+00 -0.00000000000E+00 -0.45593999997E+02  0.45594000000E+02  0.51100000000E-03 0.  1.
    9900012    2    1    2    0    0  0.70658285870E+01 -0.42491802555E+02 -0.53052971755E+01  0.47787246595E+02  0.19999888526E+02 0.  0.
         12    1    1    2    0    0 -0.70658285870E+01  0.42491802555E+02  0.53052971755E+01  0.43400753405E+02  0.00000000000E+00 0. -1.
         11    1    3    3    0    0  0.36334420807E+01 -0.11883598003E+02  0.60220323381E+01  0.13808934665E+02  0.51100000000E-03 0. -1.
        -11    1    3    3    0    0  0.22515003799E+01 -0.22638221658E+02 -0.40223748485E+01  0.23102766793E+02  0.51100000000E-03 0.  1.
        -12    1    3    3    0    0  0.11808861264E+01 -0.79699828944E+01 -0.73049546651E+01  0.10875545138E+02  0.00000000000E+00 0.  1.
</event>
<event>
 7    1  0.1631716E-009  0.4778726E+02  0.7816164E-02  0.1312668E+00
        -11   -1    0    0    0    0  0.00000000000E+00  0.00000000000E+00  0.45593999997E+02  0.45594000000E+02  0.51100000000E-03 0. -1.
         11   -1    0    0    0    0 -0.00000000000E+00 -0.00000000000E+00 -0.45593999997E+02  0.45594000000E+02  0.51100000000E-03 0.  1.
    9900012    2    1    2    0    0 -0.14095771786E+02 -0.40112198792E+02 -0.87146203131E+01  0.47787264046E+02  0.19999968090E+02 0.  0.
         12    1    1    2    0    0  0.14095771786E+02  0.40112198792E+02  0.87146203131E+01  0.43400735954E+02  0.00000000000E+00 0. -1.
         11    1    3    3    0    0 -0.61017109522E+01 -0.53560423162E+01  0.79615311179E+00  0.81579363736E+01  0.51100000000E-03 0. -1.
        -11    1    3    3    0    0 -0.11136109121E+01 -0.99753018153E+01 -0.96312950989E+01  0.13910737619E+02  0.51100000000E-03 0.  1.
         12    1    3    3    0    0 -0.68804499220E+01 -0.24780854660E+02  0.12052167404E+00  0.25718590053E+02  0.00000000000E+00 0. -1.
</event>
<event>
 7    1  0.1631716E-009  0.4778727E+02  0.7816164E-02  0.1312668E+00
        -11   -1    0    0    0    0  0.00000000000E+00  0.00000000000E+00  0.45593999997E+02  0.45594000000E+02  0.51100000000E-03 0. -1.
         11   -1    0    0    0    0 -0.00000000000E+00 -0.00000000000E+00 -0.45593999997E+02  0.45594000000E+02  0.51100000000E-03 0.  1.
    9900012    2    1    2    0    0 -0.61648250837E+01 -0.17227410534E+02 -0.39355240296E+02  0.47787266357E+02  0.19999978626E+02 0.  0.
         12    1    1    2    0    0  0.61648250837E+01  0.17227410534E+02  0.39355240296E+02  0.43400733643E+02  0.00000000000E+00 0. -1.
         11    1    3    3    0    0 -0.10201622996E+01 -0.17688564813E+00 -0.20895029420E+02  0.20920666203E+02  0.51100000000E-03 0. -1.
        -11    1    3    3    0    0 -0.68152087835E+01 -0.89768604935E+01 -0.10371833200E+02  0.15316854092E+02  0.51100000000E-03 0.  1.
        -12    1    3    3    0    0  0.16705459994E+01 -0.80736643926E+01 -0.80883776763E+01  0.11549746062E+02  0.00000000000E+00 0.  1.
</event>
<event>
 7    1  0.1631716E-009  0.4778727E+02  0.7816164E-02  0.1312668E+00
        -11   -1    0    0    0    0  0.00000000000E+00  0.00000000000E+00  0.45593999997E+02  0.45594000000E+02  0.51100000000E-03 0.  1.
         11   -1    0    0    0    0 -0.00000000000E+00 -0.00000000000E+00 -0.45593999997E+02  0.45594000000E+02  0.51100000000E-03 0. -1.
    9900012    2    1    2    0    0 -0.23705837951E+02  0.33694247465E+02  0.13651162807E+02  0.47787270615E+02  0.19999998040E+02 0.  0.
         12    1    1    2    0    0  0.23705837951E+02 -0.33694247465E+02 -0.13651162807E+02  0.43400729385E+02  0.00000000000E+00 0. -1.
         11    1    3    3    0    0 -0.39257234685E+01  0.11184314869E+02  0.59339025489E+01  0.13255617811E+02  0.51100000000E-03 0. -1.
        -11    1    3    3    0    0 -0.37816806763E+01  0.14883555379E+02  0.67717359838E+01  0.16783257668E+02  0.51100000000E-03 0.  1.
        -12    1    3    3    0    0 -0.15998433807E+02  0.76263772169E+01  0.94552427426E+00  0.17748395135E+02  0.00000000000E+00 0.  1.
</event>
<event>
 7    1  0.1631716E-009  0.4778727E+02  0.7816164E-02  0.1312668E+00
        -11   -1    0    0    0    0  0.00000000000E+00  0.00000000000E+00  0.45593999997E+02  0.45594000000E+02  0.51100000000E-03 0.  1.
         11   -1    0    0    0    0 -0.00000000000E+00 -0.00000000000E+00 -0.45593999997E+02  0.45594000000E+02  0.51100000000E-03 0. -1.
    9900012    2    1    2    0    0 -0.43016207052E+02 -0.12498515593E+01  0.56273379136E+01  0.47787272701E+02  0.20000007553E+02 0.  0.
         12    1    1    2    0    0  0.43016207052E+02  0.12498515593E+01 -0.56273379136E+01  0.43400727299E+02  0.00000000000E+00 0. -1.
         11    1    3    3    0    0 -0.24777903634E+02  0.81164516735E+00 -0.12299879264E+01  0.24821687029E+02  0.51100000000E-03 0. -1.
        -11    1    3    3    0    0 -0.15499622864E+02 -0.48469629158E+01  0.14632274958E+01  0.16305593930E+02  0.51100000000E-03 0.  1.
         12    1    3    3    0    0 -0.27386805539E+01  0.27854661891E+01  0.53940983441E+01  0.66599917427E+01  0.00000000000E+00 0. -1.
</event>
<event>
 7    1  0.1631716E-009  0.4778727E+02  0.7816164E-02  0.1312668E+00
        -11   -1    0    0    0    0  0.00000000000E+00  0.00000000000E+00  0.45593999997E+02  0.45594000000E+02  0.51100000000E-03 0.  1.
         11   -1    0    0    0    0 -0.00000000000E+00 -0.00000000000E+00 -0.45593999997E+02  0.45594000000E+02  0.51100000000E-03 0. -1.
    9900012    2    1    2    0    0 -0.22935843217E+02 -0.25016098176E+02  0.27051162144E+02  0.47787269069E+02  0.19999990991E+02 0.  0.
         12    1    1    2    0    0  0.22935843217E+02  0.25016098176E+02 -0.27051162144E+02  0.43400730931E+02  0.00000000000E+00 0. -1.
         11    1    3    3    0    0 -0.13359961057E+02 -0.67319160690E+01  0.14683046544E+02  0.20961848904E+02  0.51100000000E-03 0. -1.
        -11    1    3    3    0    0 -0.82804987061E+01 -0.88419746096E+01  0.12451186348E+01  0.12177745871E+02  0.51100000000E-03 0.  1.
         12    1    3    3    0    0 -0.12953834538E+01 -0.94422074970E+01  0.11122996965E+02  0.14647674293E+02  0.00000000000E+00 0. -1.
</event>
<event>
 7    1  0.3681078E-009  0.4778727E+02  0.7816164E-02  0.1312668E+00
        -11   -1    0    0    0    0  0.00000000000E+00  0.00000000000E+00  0.45593999997E+02  0.45594000000E+02  0.51100000000E-03 0. -1.
         11   -1    0    0    0    0 -0.00000000000E+00 -0.00000000000E+00 -0.45593999997E+02  0.45594000000E+02  0.51100000000E-03 0.  1.
    9900012    2    1    2    0    0 -0.18515072749E+02 -0.26970264666E+02 -0.28520521761E+02  0.47787271244E+02  0.20000000908E+02 0.  0.
         12    1    1    2    0    0  0.18515072749E+02  0.26970264666E+02  0.28520521761E+02  0.43400728756E+02  0.00000000000E+00 0. -1.
         11    1    3    3    0    0  0.30996555912E+01 -0.47992181345E+01 -0.44040978411E+01  0.72136285974E+01  0.51100000000E-03 0. -1.
        -11    1    3    3    0    0 -0.91231132438E+01 -0.88570511540E+01 -0.16403650355E+02  0.20754717431E+02  0.51100000000E-03 0.  1.
         12    1    3    3    0    0 -0.12491615096E+02 -0.13313995377E+02 -0.77127735657E+01  0.19818925216E+02  0.00000000000E+00 0. -1.
</event>
<event>
 7    1  0.1631716E-009  0.4778727E+02  0.7816164E-02  0.1312668E+00
        -11   -1    0    0    0    0  0.00000000000E+00  0.00000000000E+00  0.45593999997E+02  0.45594000000E+02  0.51100000000E-03 0.  1.
         11   -1    0    0    0    0 -0.00000000000E+00 -0.00000000000E+00 -0.45593999997E+02  0.45594000000E+02  0.51100000000E-03 0. -1.
    9900012    2    1    2    0    0  0.28808809201E+02 -0.20069346549E+02  0.25512690915E+02  0.47787267792E+02  0.19999985171E+02 0.  0.
         12    1    1    2    0    0 -0.28808809201E+02  0.20069346549E+02 -0.25512690915E+02  0.43400732208E+02  0.00000000000E+00 0. -1.
         11    1    3    3    0    0  0.40628438250E+01 -0.65995599331E+01  0.12073133541E+02  0.14346478489E+02  0.51100000000E-03 0. -1.
        -11    1    3    3    0    0  0.24560251542E+02 -0.10203870536E+02  0.14102276112E+02  0.30103141390E+02  0.51100000000E-03 0.  1.
         12    1    3    3    0    0  0.18571383358E+00 -0.32659160801E+01 -0.66271873846E+00  0.33376479138E+01  0.00000000000E+00 0. -1.
</event>
<event>
 7    1  0.1631716E-009  0.4778727E+02  0.7816164E-02  0.1312668E+00
        -11   -1    0    0    0    0  0.00000000000E+00  0.00000000000E+00  0.45593999997E+02  0.45594000000E+02  0.51100000000E-03 0. -1.
         11   -1    0    0    0    0 -0.00000000000E+00 -0.00000000000E+00 -0.45593999997E+02  0.45594000000E+02  0.51100000000E-03 0.  1.
    9900012    2    1    2    0    0  0.85985463440E+01 -0.36989596186E+02 -0.21010898319E+02  0.47787273354E+02  0.20000010530E+02 0.  0.
         12    1    1    2    0    0 -0.85985463440E+01  0.36989596186E+02  0.21010898319E+02  0.43400726646E+02  0.00000000000E+00 0. -1.
         11    1    3    3    0    0  0.14071195789E+01 -0.17321009924E+02 -0.30343338365E+01  0.17640990686E+02  0.51100000000E-03 0. -1.
        -11    1    3    3    0    0  0.10454729082E+02 -0.13286115376E+02 -0.11183345311E+02  0.20270407855E+02  0.51100000000E-03 0.  1.
         12    1    3    3    0    0 -0.32633023173E+01 -0.63824708854E+01 -0.67932191710E+01  0.98758748130E+01  0.00000000000E+00 0. -1.
</event>
<event>
 7    1  0.1631716E-009  0.4778727E+02  0.7816164E-02  0.1312668E+00
        -11   -1    0    0    0    0  0.00000000000E+00  0.00000000000E+00  0.45593999997E+02  0.45594000000E+02  0.51100000000E-03 0. -1.
         11   -1    0    0    0    0 -0.00000000000E+00 -0.00000000000E+00 -0.45593999997E+02  0.45594000000E+02  0.51100000000E-03 0.  1.
    9900012    2    1    2    0    0  0.11325068903E+02 -0.38332018898E+02 -0.16912193798E+02  0.47787272385E+02  0.20000006111E+02 0.  0.
         12    1    1    2    0    0 -0.11325068903E+02  0.38332018898E+02  0.16912193798E+02  0.43400727615E+02  0.00000000000E+00 0. -1.
         11    1    3    3    0    0 -0.23503552297E+01  0.58177185499E-01 -0.17906486153E+01  0.29553302718E+01  0.51100000000E-03 0. -1.
        -11    1    3    3    0    0  0.35749424002E+01 -0.24970125814E+02 -0.11110935512E+02  0.27563386667E+02  0.51100000000E-03 0.  1.
        -12    1    3    3    0    0  0.10100481732E+02 -0.13420070270E+02 -0.40106096705E+01  0.17268555446E+02  0.00000000000E+00 0.  1.
</event>
<event>
 7    1  0.1631716E-009  0.4778727E+02  0.7816164E-02  0.1312668E+00
        -11   -1    0    0    0    0  0.00000000000E+00  0.00000000000E+00  0.45593999997E+02  0.45594000000E+02  0.51100000000E-03 0.  1.
         11   -1    0    0    0    0 -0.00000000000E+00 -0.00000000000E+00 -0.45593999997E+02  0.45594000000E+02  0.51100000000E-03 0. -1.
    9900012    2    1    2    0    0 -0.86170456878E+01 -0.13460004838E+02  0.40350939556E+02  0.47787268097E+02  0.19999986562E+02 0.  0.
         12    1    1    2    0    0  0.86170456878E+01  0.13460004838E+02 -0.40350939556E+02  0.43400731903E+02  0.00000000000E+00 0. -1.
         11    1    3    3    0    0 -0.26168759320E+00 -0.97411557686E+00 -0.73750476956E+00  0.12495179470E+01  0.51100000000E-03 0. -1.
        -11    1    3    3    0    0 -0.77710444797E+01  0.13805903138E+01  0.16853847649E+02  0.18610409527E+02  0.51100000000E-03 0.  1.
         12    1    3    3    0    0 -0.58431361487E+00 -0.13866479575E+02  0.24234596677E+02  0.27927340623E+02  0.00000000000E+00 0. -1.
</event>
<event>
 7    1  0.1631716E-009  0.4778727E+02  0.7816164E-02  0.1312668E+00
        -11   -1    0    0    0    0  0.00000000000E+00  0.00000000000E+00  0.45593999997E+02  0.45594000000E+02  0.51100000000E-03 0.  1.
         11   -1    0    0    0    0 -0.00000000000E+00 -0.00000000000E+00 -0.45593999997E+02  0.45594000000E+02  0.51100000000E-03 0. -1.
    9900012    2    1    2    0    0 -0.39238835488E+02 -0.12223019110E+02 -0.13947586155E+02  0.47787267677E+02  0.19999984648E+02 0.  0.
         12    1    1    2    0    0  0.39238835488E+02  0.12223019110E+02  0.13947586155E+02  0.43400732323E+02  0.00000000000E+00 0. -1.
         11    1    3    3    0    0 -0.22087857092E+01 -0.71120270284E+01 -0.56958746514E+01  0.93756413684E+01  0.51100000000E-03 0. -1.
        -11    1    3    3    0    0 -0.15900837173E+02 -0.62543948183E+00 -0.36761272103E+01  0.16332229146E+02  0.51100000000E-03 0.  1.
        -12    1    3    3    0    0 -0.21129212605E+02 -0.44855526000E+01 -0.45755842933E+01  0.22079397163E+02  0.00000000000E+00 0.  1.
</event>
<event>
 7    1  0.1631716E-009  0.4778727E+02  0.7816164E-02  0.1312668E+00
        -11   -1    0    0    0    0  0.00000000000E+00  0.00000000000E+00  0.45593999997E+02  0.45594000000E+02  0.51100000000E-03 0.  1.
         11   -1    0    0    0    0 -0.00000000000E+00 -0.00000000000E+00 -0.45593999997E+02  0.45594000000E+02  0.51100000000E-03 0. -1.
    9900012    2    1    2    0    0  0.88444019937E+01 -0.22102904400E+02  0.36288591139E+02  0.47787266407E+02  0.19999978856E+02 0.  0.
         12    1    1    2    0    0 -0.88444019937E+01  0.22102904400E+02 -0.36288591139E+02  0.43400733593E+02  0.00000000000E+00 0. -1.
         11    1    3    3    0    0  0.96978720617E+01 -0.17364440021E+02  0.25710395718E+02  0.32505337224E+02  0.51100000000E-03 0. -1.
        -11    1    3    3    0    0 -0.46384315737E+00 -0.15993627309E+01  0.11780748593E+02  0.11897863224E+02  0.51100000000E-03 0.  1.
         12    1    3    3    0    0 -0.38962691061E+00 -0.31391016480E+01 -0.12025531720E+01  0.33840659594E+01  0.00000000000E+00 0. -1.
</event>
<event>
 7    1  0.1631716E-009  0.4778727E+02  0.7816164E-02  0.1312668E+00
        -11   -1    0    0    0    0  0.00000000000E+00  0.00000000000E+00  0.45593999997E+02  0.45594000000E+02  0.51100000000E-03 0.  1.
         11   -1    0    0    0    0 -0.00000000000E+00 -0.00000000000E+00 -0.45593999997E+02  0.45594000000E+02  0.51100000000E-03 0. -1.
    9900012    2    1    2    0    0 -0.11670630973E+02  0.20990574619E+02  0.36149899862E+02  0.47787272931E+02  0.20000008601E+02 0.  0.
         12    1    1    2    0    0  0.11670630973E+02 -0.20990574619E+02 -0.36149899862E+02  0.43400727069E+02  0.00000000000E+00 0. -1.
         11    1    3    3    0    0 -0.52033560790E+01  0.37130158457E+00 -0.33647726009E-01  0.52166954849E+01  0.51100000000E-03 0. -1.
        -11    1    3    3    0    0  0.47322537351E+00  0.80887546793E+01  0.13258960086E+02  0.15538723157E+02  0.51100000000E-03 0.  1.
        -12    1    3    3    0    0 -0.69405002675E+01  0.12530518355E+02  0.22924587501E+02  0.27031854289E+02  0.00000000000E+00 0.  1.
</event>
<event>
 7    1  0.1631716E-009  0.4778727E+02  0.7816164E-02  0.1312668E+00
        -11   -1    0    0    0    0  0.00000000000E+00  0.00000000000E+00  0.45593999997E+02  0.45594000000E+02  0.51100000000E-03 0. -1.
         11   -1    0    0    0    0 -0.00000000000E+00 -0.00000000000E+00 -0.45593999997E+02  0.45594000000E+02  0.51100000000E-03 0.  1.
    9900012    2    1    2    0    0 -0.16498766219E+02 -0.38354208705E+02 -0.11847749820E+02  0.47787265122E+02  0.19999972998E+02 0.  0.
         12    1    1    2    0    0  0.16498766219E+02  0.38354208705E+02  0.11847749820E+02  0.43400734878E+02  0.00000000000E+00 0. -1.
         11    1    3    3    0    0 -0.15245520582E+01 -0.10944998294E+02 -0.50823698245E+01  0.12163376584E+02  0.51100000000E-03 0. -1.
        -11    1    3    3    0    0 -0.14336431204E+02 -0.10594773056E+02 -0.58911403278E+01  0.18774664056E+02  0.51100000000E-03 0.  1.
         12    1    3    3    0    0 -0.63778295664E+00 -0.16814437355E+02 -0.87423966720E+00  0.16849224483E+02  0.00000000000E+00 0. -1.
</event>
<event>
 7    1  0.1631716E-009  0.4778727E+02  0.7816164E-02  0.1312668E+00
        -11   -1    0    0    0    0  0.00000000000E+00  0.00000000000E+00  0.45593999997E+02  0.45594000000E+02  0.51100000000E-03 0.  1.
         11   -1    0    0    0    0 -0.00000000000E+00 -0.00000000000E+00 -0.45593999997E+02  0.45594000000E+02  0.51100000000E-03 0. -1.
    9900012    2    1    2    0    0 -0.44865999060E+01  0.16592204209E+00  0.43167886635E+02  0.47787267917E+02  0.19999985739E+02 0.  0.
         12    1    1    2    0    0  0.44865999060E+01 -0.16592204209E+00 -0.43167886635E+02  0.43400732083E+02  0.00000000000E+00 0. -1.
         11    1    3    3    0    0 -0.72059757607E+01  0.59265538531E+01  0.35431196607E+02  0.36639047756E+02  0.51100000000E-03 0.  1.
        -11    1    3    3    0    0 -0.98725534981E+00 -0.35863716323E+01  0.33190510819E+01  0.49852617741E+01  0.51100000000E-03 0. -1.
        -12    1    3    3    0    0  0.37066312046E+01 -0.21742601787E+01  0.44176389463E+01  0.61629583863E+01  0.00000000000E+00 0.  1.
</event>
<event>
 7    1  0.1631716E-009  0.4778727E+02  0.7816164E-02  0.1312668E+00
        -11   -1    0    0    0    0  0.00000000000E+00  0.00000000000E+00  0.45593999997E+02  0.45594000000E+02  0.51100000000E-03 0. -1.
         11   -1    0    0    0    0 -0.00000000000E+00 -0.00000000000E+00 -0.45593999997E+02  0.45594000000E+02  0.51100000000E-03 0.  1.
    9900012    2    1    2    0    0 -0.16896835789E+01  0.42881808759E+02 -0.64744540699E+01  0.47787272949E+02  0.20000008684E+02 0.  0.
         12    1    1    2    0    0  0.16896835789E+01 -0.42881808759E+02  0.64744540699E+01  0.43400727051E+02  0.00000000000E+00 0. -1.
         11    1    3    3    0    0 -0.83693122598E+01  0.14393059976E+02 -0.48440996786E+01  0.17339863469E+02  0.51100000000E-03 0. -1.
        -11    1    3    3    0    0  0.27653032545E+01  0.12692706818E+02 -0.48350228492E+01  0.13861066145E+02  0.51100000000E-03 0.  1.
        -12    1    3    3    0    0  0.39143254264E+01  0.15796041965E+02  0.32046684579E+01  0.16586343335E+02  0.00000000000E+00 0.  1.
</event>
<event>
 7    1  0.1631716E-009  0.4778727E+02  0.7816164E-02  0.1312668E+00
        -11   -1    0    0    0    0  0.00000000000E+00  0.00000000000E+00  0.45593999997E+02  0.45594000000E+02  0.51100000000E-03 0.  1.
         11   -1    0    0    0    0 -0.00000000000E+00 -0.00000000000E+00 -0.45593999997E+02  0.45594000000E+02  0.51100000000E-03 0. -1.
    9900012    2    1    2    0    0  0.46017682830E+01  0.20982541277E+02  0.37711802806E+02  0.47787269814E+02  0.19999994392E+02 0.  0.
         12    1    1    2    0    0 -0.46017682830E+01 -0.20982541277E+02 -0.37711802806E+02  0.43400730186E+02  0.00000000000E+00 0. -1.
         11    1    3    3    0    0  0.44822842189E+01  0.12674265735E+01  0.43962664163E+01  0.64050293209E+01  0.51100000000E-03 0. -1.
        -11    1    3    3    0    0  0.71400612496E+01  0.11493610038E+02  0.21141119726E+02  0.25100408162E+02  0.51100000000E-03 0.  1.
        -12    1    3    3    0    0 -0.70205771856E+01  0.82215046654E+01  0.12174416664E+02  0.16281832332E+02  0.00000000000E+00 0.  1.
</event>
<event>
 7    1  0.1631716E-009  0.4778727E+02  0.7816164E-02  0.1312668E+00
        -11   -1    0    0    0    0  0.00000000000E+00  0.00000000000E+00  0.45593999997E+02  0.45594000000E+02  0.51100000000E-03 0.  1.
         11   -1    0    0    0    0 -0.00000000000E+00 -0.00000000000E+00 -0.45593999997E+02  0.45594000000E+02  0.51100000000E-03 0. -1.
    9900012    2    1    2    0    0 -0.13164212609E+02 -0.30983912669E+02  0.27392041679E+02  0.47787270914E+02  0.19999999405E+02 0.  0.
         12    1    1    2    0    0  0.13164212609E+02  0.30983912669E+02 -0.27392041679E+02  0.43400729086E+02  0.00000000000E+00 0. -1.
         11    1    3    3    0    0  0.10469369379E+01 -0.32007567637E+01 -0.40583186881E+00  0.33919935996E+01  0.51100000000E-03 0. -1.
        -11    1    3    3    0    0 -0.13892854863E+02 -0.22639702922E+02  0.28763441262E+02  0.39152306677E+02  0.51100000000E-03 0.  1.
        -12    1    3    3    0    0 -0.31829468390E+00 -0.51434529828E+01 -0.96556771471E+00  0.52429706373E+01  0.00000000000E+00 0.  1.
</event>
<event>
 7    1  0.1631716E-009  0.4778727E+02  0.7816164E-02  0.1312668E+00
        -11   -1    0    0    0    0  0.00000000000E+00  0.00000000000E+00  0.45593999997E+02  0.45594000000E+02  0.51100000000E-03 0. -1.
         11   -1    0    0    0    0 -0.00000000000E+00 -0.00000000000E+00 -0.45593999997E+02  0.45594000000E+02  0.51100000000E-03 0.  1.
    9900012    2    1    2    0    0  0.16341642086E+01  0.13587848880E+02 -0.41186448512E+02  0.47787266470E+02  0.19999979146E+02 0.  0.
         12    1    1    2    0    0 -0.16341642086E+01 -0.13587848880E+02  0.41186448512E+02  0.43400733530E+02  0.00000000000E+00 0. -1.
         11    1    3    3    0    0 -0.48531361501E+01  0.73526112346E+01 -0.15815714645E+02  0.18103885010E+02  0.51100000000E-03 0.  1.
        -11    1    3    3    0    0  0.31922066836E+01  0.12257262011E+01  0.19394829530E+00  0.34249386028E+01  0.51100000000E-03 0. -1.
         12    1    3    3    0    0  0.32950936751E+01  0.50095114441E+01 -0.25564682163E+02  0.26258442858E+02  0.00000000000E+00 0. -1.
</event>
<event>
 7    1  0.1631716E-009  0.4778727E+02  0.7816164E-02  0.1312668E+00
        -11   -1    0    0    0    0  0.00000000000E+00  0.00000000000E+00  0.45593999997E+02  0.45594000000E+02  0.51100000000E-03 0.  1.
         11   -1    0    0    0    0 -0.00000000000E+00 -0.00000000000E+00 -0.45593999997E+02  0.45594000000E+02  0.51100000000E-03 0. -1.
    9900012    2    1    2    0    0 -0.37840989083E+02  0.20975587327E+02 -0.34216270908E+01  0.47787271314E+02  0.20000001231E+02 0.  0.
         12    1    1    2    0    0  0.37840989083E+02 -0.20975587327E+02  0.34216270908E+01  0.43400728686E+02  0.00000000000E+00 0. -1.
         11    1    3    3    0    0 -0.16435098784E+02  0.91214019764E+01 -0.36854911994E+01  0.19154511001E+02  0.51100000000E-03 0. -1.
        -11    1    3    3    0    0 -0.26347325563E+01  0.88432097915E+01  0.23092660381E+01  0.95119338179E+01  0.51100000000E-03 0.  1.
         12    1    3    3    0    0 -0.18771157742E+02  0.30109755594E+01 -0.20454019294E+01  0.19120826495E+02  0.00000000000E+00 0. -1.
</event>
<event>
 7    1  0.1631716E-009  0.4778727E+02  0.7816164E-02  0.1312668E+00
        -11   -1    0    0    0    0  0.00000000000E+00  0.00000000000E+00  0.45593999997E+02  0.45594000000E+02  0.51100000000E-03 0. -1.
         11   -1    0    0    0    0 -0.00000000000E+00 -0.00000000000E+00 -0.45593999997E+02  0.45594000000E+02  0.51100000000E-03 0.  1.
    9900012    2    1    2    0    0 -0.39147600105E+02  0.71661257873E+01  0.17312880140E+02  0.47787265312E+02  0.19999973862E+02 0.  0.
         12    1    1    2    0    0  0.39147600105E+02 -0.71661257873E+01 -0.17312880140E+02  0.43400734688E+02  0.00000000000E+00 0. -1.
         11    1    3    3    0    0 -0.92152566596E+01 -0.66441644560E+01  0.42004875815E+01  0.12112389228E+02  0.51100000000E-03 0. -1.
        -11    1    3    3    0    0 -0.93546214579E+01  0.42493651472E+01  0.59889522799E+01  0.11892585776E+02  0.51100000000E-03 0.  1.
         12    1    3    3    0    0 -0.20577721987E+02  0.95609250961E+01  0.71234402783E+01  0.23782290308E+02  0.00000000000E+00 0. -1.
</event>
<event>
 7    1  0.1631716E-009  0.4778729E+02  0.7816164E-02  0.1312668E+00
        -11   -1    0    0    0    0  0.00000000000E+00  0.00000000000E+00  0.45593999997E+02  0.45594000000E+02  0.51100000000E-03 0.  1.
         11   -1    0    0    0    0 -0.00000000000E+00 -0.00000000000E+00 -0.45593999997E+02  0.45594000000E+02  0.51100000000E-03 0. -1.
    9900012    2    1    2    0    0  0.29508714967E+02 -0.21010942164E+02  0.23903934155E+02  0.47787285516E+02  0.20000065983E+02 0.  0.
         12    1    1    2    0    0 -0.29508714967E+02  0.21010942164E+02 -0.23903934155E+02  0.43400714484E+02  0.00000000000E+00 0. -1.
         11    1    3    3    0    0  0.24984286502E+02 -0.11220467148E+02  0.18901563934E+02  0.33277358285E+02  0.51100000000E-03 0. -1.
        -11    1    3    3    0    0  0.52258133589E+01 -0.98168069490E+01  0.64820014201E+01  0.12872263461E+02  0.51100000000E-03 0.  1.
         12    1    3    3    0    0 -0.70138489395E+00  0.26331932809E-01 -0.14796311988E+01  0.16376637703E+01  0.00000000000E+00 0. -1.
</event>
<event>
 7    1  0.1631716E-009  0.4778727E+02  0.7816164E-02  0.1312668E+00
        -11   -1    0    0    0    0  0.00000000000E+00  0.00000000000E+00  0.45593999997E+02  0.45594000000E+02  0.51100000000E-03 0. -1.
         11   -1    0    0    0    0 -0.00000000000E+00 -0.00000000000E+00 -0.45593999997E+02  0.45594000000E+02  0.51100000000E-03 0.  1.
    9900012    2    1    2    0    0 -0.18408870786E+02  0.67498848671E+01 -0.38719188048E+02  0.47787274287E+02  0.20000014782E+02 0.  0.
         12    1    1    2    0    0  0.18408870786E+02 -0.67498848671E+01  0.38719188048E+02  0.43400725713E+02  0.00000000000E+00 0. -1.
         11    1    3    3    0    0 -0.16750404861E+02 -0.15461484966E+00 -0.33991589716E+02  0.37894961940E+02  0.51100000000E-03 0. -1.
        -11    1    3    3    0    0 -0.23959661533E+01  0.47651948340E+01 -0.53406643588E+01  0.75478759707E+01  0.51100000000E-03 0.  1.
         12    1    3    3    0    0  0.73750022769E+00  0.21393048828E+01  0.61306602674E+00  0.23444363759E+01  0.00000000000E+00 0. -1.
</event>
<event>
 7    1  0.1631716E-009  0.4778726E+02  0.7816164E-02  0.1312668E+00
        -11   -1    0    0    0    0  0.00000000000E+00  0.00000000000E+00  0.45593999997E+02  0.45594000000E+02  0.51100000000E-03 0.  1.
         11   -1    0    0    0    0 -0.00000000000E+00 -0.00000000000E+00 -0.45593999997E+02  0.45594000000E+02  0.51100000000E-03 0. -1.
    9900012    2    1    2    0    0 -0.28646093635E+01 -0.38934421243E+02  0.18961243259E+02  0.47787263943E+02  0.19999967621E+02 0.  0.
         12    1    1    2    0    0  0.28646093635E+01  0.38934421243E+02 -0.18961243259E+02  0.43400736057E+02  0.00000000000E+00 0. -1.
         11    1    3    3    0    0 -0.36943409502E+01 -0.14989020836E+00 -0.57513099652E+00  0.37418442051E+01  0.51100000000E-03 0. -1.
        -11    1    3    3    0    0 -0.31886012139E+01 -0.19054750370E+02  0.88458813953E+01  0.21248536591E+02  0.51100000000E-03 0.  1.
        -12    1    3    3    0    0  0.40183328006E+01 -0.19729780665E+02  0.10690492860E+02  0.22796883147E+02  0.00000000000E+00 0.  1.
</event>
<event>
 7    1  0.1631716E-009  0.4778733E+02  0.7816164E-02  0.1312668E+00
        -11   -1    0    0    0    0  0.00000000000E+00  0.00000000000E+00  0.45593999997E+02  0.45594000000E+02  0.51100000000E-03 0.  1.
         11   -1    0    0    0    0 -0.00000000000E+00 -0.00000000000E+00 -0.45593999997E+02  0.45594000000E+02  0.51100000000E-03 0. -1.
    9900012    2    1    2    0    0 -0.90809642401E+01  0.22067735544E+02  0.36251477093E+02  0.47787326561E+02  0.20000253120E+02 0.  0.
         12    1    1    2    0    0  0.90809642401E+01 -0.22067735544E+02 -0.36251477093E+02  0.43400673439E+02  0.00000000000E+00 0. -1.
         11    1    3    3    0    0  0.28390806287E+01  0.55402711987E+01  0.79065686874E+01  0.10063240653E+02  0.51100000000E-03 0. -1.
        -11    1    3    3    0    0 -0.11153423452E+02  0.15409245096E+02  0.14773866340E+02  0.24085489740E+02  0.51100000000E-03 0.  1.
        -12    1    3    3    0    0 -0.76662141628E+00  0.11182192493E+01  0.13571042065E+02  0.13638596168E+02  0.00000000000E+00 0.  1.
</event>
<event>
 7    1  0.1631716E-009  0.4778725E+02  0.7816164E-02  0.1312668E+00
        -11   -1    0    0    0    0  0.00000000000E+00  0.00000000000E+00  0.45593999997E+02  0.45594000000E+02  0.51100000000E-03 0. -1.
         11   -1    0    0    0    0 -0.00000000000E+00 -0.00000000000E+00 -0.45593999997E+02  0.45594000000E+02  0.51100000000E-03 0.  1.
    9900012    2    1    2    0    0 -0.15992186852E+02  0.40147331787E+02  0.40083030376E+01  0.47787253656E+02  0.19999920720E+02 0.  0.
         12    1    1    2    0    0  0.15992186852E+02 -0.40147331787E+02 -0.40083030376E+01  0.43400746344E+02  0.00000000000E+00 0. -1.
         11    1    3    3    0    0 -0.12967483723E+02  0.31266365747E+02  0.88928133450E+01  0.34997476917E+02  0.51100000000E-03 0. -1.
        -11    1    3    3    0    0 -0.46046306328E+01  0.26389105082E+01 -0.14977302870E+01  0.55144961881E+01  0.51100000000E-03 0.  1.
         12    1    3    3    0    0  0.15799275037E+01  0.62420555326E+01 -0.33867800205E+01  0.72752805510E+01  0.00000000000E+00 0. -1.
</event>
<event>
 7    1  0.1631716E-009  0.4778728E+02  0.7816164E-02  0.1312668E+00
        -11   -1    0    0    0    0  0.00000000000E+00  0.00000000000E+00  0.45593999997E+02  0.45594000000E+02  0.51100000000E-03 0. -1.
         11   -1    0    0    0    0 -0.00000000000E+00 -0.00000000000E+00 -0.45593999997E+02  0.45594000000E+02  0.51100000000E-03 0.  1.
    9900012    2    1    2    0    0 -0.30134450051E+02 -0.13057777720E+02  0.28373081621E+02  0.47787281117E+02  0.20000045926E+02 0.  0.
         12    1    1    2    0    0  0.30134450051E+02  0.13057777720E+02 -0.28373081621E+02  0.43400718883E+02  0.00000000000E+00 0. -1.
         11    1    3    3    0    0 -0.52697132740E+01  0.41730231749E+01  0.99453806907E+01  0.12003940926E+02  0.51100000000E-03 0. -1.
        -11    1    3    3    0    0  0.72281463284E-01 -0.13021151380E+00 -0.21461031204E+00  0.26122307597E+00  0.51100000000E-03 0.  1.
        -12    1    3    3    0    0 -0.24937018241E+02 -0.17100589381E+02  0.18642311242E+02  0.35522117115E+02  0.00000000000E+00 0.  1.
</event>
<event>
 7    1  0.1631716E-009  0.4778727E+02  0.7816164E-02  0.1312668E+00
        -11   -1    0    0    0    0  0.00000000000E+00  0.00000000000E+00  0.45593999997E+02  0.45594000000E+02  0.51100000000E-03 0. -1.
         11   -1    0    0    0    0 -0.00000000000E+00 -0.00000000000E+00 -0.45593999997E+02  0.45594000000E+02  0.51100000000E-03 0.  1.
    9900012    2    1    2    0    0  0.17011558373E+02 -0.38175494325E+02 -0.11698794647E+02  0.47787270957E+02  0.19999999603E+02 0.  0.
         12    1    1    2    0    0 -0.17011558373E+02  0.38175494325E+02  0.11698794647E+02  0.43400729043E+02  0.00000000000E+00 0. -1.
         11    1    3    3    0    0  0.47136882802E+01 -0.61378639268E+01  0.25317773511E+01  0.81426118416E+01  0.51100000000E-03 0. -1.
        -11    1    3    3    0    0  0.36209673533E+01 -0.17571714897E+01  0.16727069930E+01  0.43585553987E+01  0.51100000000E-03 0.  1.
        -12    1    3    3    0    0  0.86769027398E+01 -0.30280458909E+02 -0.15903278991E+02  0.35286103717E+02  0.00000000000E+00 0.  1.
</event>
<event>
 7    1  0.1631716E-009  0.4778727E+02  0.7816164E-02  0.1312668E+00
        -11   -1    0    0    0    0  0.00000000000E+00  0.00000000000E+00  0.45593999997E+02  0.45594000000E+02  0.51100000000E-03 0.  1.
         11   -1    0    0    0    0 -0.00000000000E+00 -0.00000000000E+00 -0.45593999997E+02  0.45594000000E+02  0.51100000000E-03 0. -1.
    9900012    2    1    2    0    0  0.29096560053E+02  0.91260218698E+01  0.30882505283E+02  0.47787271727E+02  0.20000003111E+02 0.  0.
         12    1    1    2    0    0 -0.29096560053E+02 -0.91260218698E+01 -0.30882505283E+02  0.43400728273E+02  0.00000000000E+00 0. -1.
         11    1    3    3    0    0  0.68996028332E+01 -0.92971531999E+00  0.70723687690E+01  0.99240762844E+01  0.51100000000E-03 0. -1.
        -11    1    3    3    0    0  0.89441632261E+01  0.48381603523E+01  0.21018713297E+02  0.23349350319E+02  0.51100000000E-03 0.  1.
         12    1    3    3    0    0  0.13252793993E+02  0.52175768375E+01  0.27914232175E+01  0.14513845123E+02  0.00000000000E+00 0. -1.
</event>
<event>
 7    1  0.1631716E-009  0.4778727E+02  0.7816164E-02  0.1312668E+00
        -11   -1    0    0    0    0  0.00000000000E+00  0.00000000000E+00  0.45593999997E+02  0.45594000000E+02  0.51100000000E-03 0.  1.
         11   -1    0    0    0    0 -0.00000000000E+00 -0.00000000000E+00 -0.45593999997E+02  0.45594000000E+02  0.51100000000E-03 0. -1.
    9900012    2    1    2    0    0 -0.15619934004E+02  0.32071062533E+02  0.24720186015E+02  0.47787274350E+02  0.20000015073E+02 0.  0.
         12    1    1    2    0    0  0.15619934004E+02 -0.32071062533E+02 -0.24720186015E+02  0.43400725650E+02  0.00000000000E+00 0. -1.
         11    1    3    3    0    0 -0.57234330272E+01  0.16235029755E+02  0.34353849374E+01  0.17553795792E+02  0.51100000000E-03 0.  1.
        -11    1    3    3    0    0 -0.51695510035E+01  0.67779284405E+00  0.29943201736E+01  0.60124549296E+01  0.51100000000E-03 0. -1.
        -12    1    3    3    0    0 -0.47269499737E+01  0.15158239934E+02  0.18290480904E+02  0.24221023629E+02  0.00000000000E+00 0.  1.
</event>
<event>
 7    1  0.1631716E-009  0.4778726E+02  0.7816164E-02  0.1312668E+00
        -11   -1    0    0    0    0  0.00000000000E+00  0.00000000000E+00  0.45593999997E+02  0.45594000000E+02  0.51100000000E-03 0.  1.
         11   -1    0    0    0    0 -0.00000000000E+00 -0.00000000000E+00 -0.45593999997E+02  0.45594000000E+02  0.51100000000E-03 0. -1.
    9900012    2    1    2    0    0  0.70258218045E+01 -0.27535731484E+02  0.32803127120E+02  0.47787264647E+02  0.19999970830E+02 0.  0.
         12    1    1    2    0    0 -0.70258218045E+01  0.27535731484E+02 -0.32803127120E+02  0.43400735353E+02  0.00000000000E+00 0. -1.
         11    1    3    3    0    0  0.23093093313E+00  0.96107539905E+00 -0.37545733306E+00  0.10573379255E+01  0.51100000000E-03 0. -1.
        -11    1    3    3    0    0  0.40491189518E+01 -0.77410958503E+01  0.16617328660E+01  0.88927659155E+01  0.51100000000E-03 0.  1.
        -12    1    3    3    0    0  0.27457719196E+01 -0.20755711033E+02  0.31516851587E+02  0.37837160806E+02  0.00000000000E+00 0.  1.
</event>
<event>
 7    1  0.1631716E-009  0.4778727E+02  0.7816164E-02  0.1312668E+00
        -11   -1    0    0    0    0  0.00000000000E+00  0.00000000000E+00  0.45593999997E+02  0.45594000000E+02  0.51100000000E-03 0. -1.
         11   -1    0    0    0    0 -0.00000000000E+00 -0.00000000000E+00 -0.45593999997E+02  0.45594000000E+02  0.51100000000E-03 0.  1.
    9900012    2    1    2    0    0 -0.20580856470E+02  0.38038910265E+02 -0.36184538739E+01  0.47787267799E+02  0.19999985201E+02 0.  0.
         12    1    1    2    0    0  0.20580856470E+02 -0.38038910265E+02  0.36184538739E+01  0.43400732201E+02  0.00000000000E+00 0. -1.
         11    1    3    3    0    0 -0.39955852122E+01  0.44962057944E+01 -0.61107735200E+01  0.85745041260E+01  0.51100000000E-03 0. -1.
        -11    1    3    3    0    0 -0.13849039031E+01  0.11989806672E+02  0.42109139763E+01  0.12783005110E+02  0.51100000000E-03 0.  1.
        -12    1    3    3    0    0 -0.15200367355E+02  0.21552897798E+02 -0.17185943302E+01  0.26429758563E+02  0.00000000000E+00 0.  1.
</event>
<event>
 7    1  0.1727970E-009  0.4778727E+02  0.7816164E-02  0.1312668E+00
        -11   -1    0    0    0    0  0.00000000000E+00  0.00000000000E+00  0.45593999997E+02  0.45594000000E+02  0.51100000000E-03 0. -1.
         11   -1    0    0    0    0 -0.00000000000E+00 -0.00000000000E+00 -0.45593999997E+02  0.45594000000E+02  0.51100000000E-03 0.  1.
    9900012    2    1    2    0    0 -0.64244816814E+01  0.42130836052E+02  0.82062146101E+01  0.47787271095E+02  0.20000000229E+02 0.  0.
         12    1    1    2    0    0  0.64244816814E+01 -0.42130836052E+02 -0.82062146101E+01  0.43400728905E+02  0.00000000000E+00 0. -1.
         11    1    3    3    0    0 -0.98922166345E+00  0.39411395000E+01  0.50867044827E+01  0.65104303094E+01  0.51100000000E-03 0. -1.
        -11    1    3    3    0    0 -0.75259275070E+01  0.35507437413E+02  0.60384829416E+01  0.36795121592E+02  0.51100000000E-03 0.  1.
         12    1    3    3    0    0  0.20906674890E+01  0.26822591387E+01 -0.29189728142E+01  0.44817191932E+01  0.00000000000E+00 0. -1.
</event>
<event>
 7    1  0.1631716E-009  0.4778727E+02  0.7816164E-02  0.1312668E+00
        -11   -1    0    0    0    0  0.00000000000E+00  0.00000000000E+00  0.45593999997E+02  0.45594000000E+02  0.51100000000E-03 0. -1.
         11   -1    0    0    0    0 -0.00000000000E+00 -0.00000000000E+00 -0.45593999997E+02  0.45594000000E+02  0.51100000000E-03 0.  1.
    9900012    2    1    2    0    0 -0.40081481668E+02  0.12783207337E+02  0.10662454891E+02  0.47787268361E+02  0.19999987763E+02 0.  0.
         12    1    1    2    0    0  0.40081481668E+02 -0.12783207337E+02 -0.10662454891E+02  0.43400731639E+02  0.00000000000E+00 0. -1.
         11    1    3    3    0    0  0.13444646765E+01  0.87349846346E+00  0.10809849348E+01  0.19336787537E+01  0.51100000000E-03 0. -1.
        -11    1    3    3    0    0 -0.16854277840E+02  0.19775922921E+01 -0.16887744631E+01  0.17053724292E+02  0.51100000000E-03 0.  1.
         12    1    3    3    0    0 -0.24571668505E+02  0.99321165811E+01  0.11270244419E+02  0.28799865315E+02  0.00000000000E+00 0. -1.
</event>
<event>
 7    1  0.1631716E-009  0.4778727E+02  0.7816164E-02  0.1312668E+00
        -11   -1    0    0    0    0  0.00000000000E+00  0.00000000000E+00  0.45593999997E+02  0.45594000000E+02  0.51100000000E-03 0. -1.
         11   -1    0    0    0    0 -0.00000000000E+00 -0.00000000000E+00 -0.45593999997E+02  0.45594000000E+02  0.51100000000E-03 0.  1.
    9900012    2    1    2    0    0  0.27420525120E+02 -0.33607059966E+02  0.15177771255E+01  0.47787270458E+02  0.19999997325E+02 0.  0.
         12    1    1    2    0    0 -0.27420525120E+02  0.33607059966E+02 -0.15177771255E+01  0.43400729542E+02  0.00000000000E+00 0. -1.
         11    1    3    3    0    0  0.56136394399E+01 -0.71558353904E+01  0.71972560616E+01  0.11598250858E+02  0.51100000000E-03 0. -1.
        -11    1    3    3    0    0  0.17440175516E+02 -0.19843288035E+02  0.42173354649E-01  0.26418129778E+02  0.51100000000E-03 0.  1.
         12    1    3    3    0    0  0.43667101636E+01 -0.66079365403E+01 -0.57216522907E+01  0.97708898218E+01  0.00000000000E+00 0. -1.
</event>
<event>
 7    1  0.1631716E-009  0.4778727E+02  0.7816164E-02  0.1312668E+00
        -11   -1    0    0    0    0  0.00000000000E+00  0.00000000000E+00  0.45593999997E+02  0.45594000000E+02  0.51100000000E-03 0. -1.
         11   -1    0    0    0    0 -0.00000000000E+00 -0.00000000000E+00 -0.45593999997E+02  0.45594000000E+02  0.51100000000E-03 0.  1.
    9900012    2    1    2    0    0  0.34737663885E+02  0.25237955801E+02  0.63216664998E+01  0.47787272213E+02  0.20000005326E+02 0.  0.
         12    1    1    2    0    0 -0.34737663885E+02 -0.25237955801E+02 -0.63216664998E+01  0.43400727787E+02  0.00000000000E+00 0. -1.
         11    1    3    3    0    0  0.61247108038E+01  0.12119903147E+01  0.32585473272E+01  0.70426652553E+01  0.51100000000E-03 0. -1.
        -11    1    3    3    0    0  0.98617265284E+01  0.18273637286E+02 -0.68418558625E+00  0.20776130053E+02  0.51100000000E-03 0.  1.
         12    1    3    3    0    0  0.18751226552E+02  0.57523281997E+01  0.37473047589E+01  0.19968476905E+02  0.00000000000E+00 0. -1.
</event>
<event>
 7    1  0.1631716E-009  0.4778727E+02  0.7816164E-02  0.1312668E+00
        -11   -1    0    0    0    0  0.00000000000E+00  0.00000000000E+00  0.45593999997E+02  0.45594000000E+02  0.51100000000E-03 0.  1.
         11   -1    0    0    0    0 -0.00000000000E+00 -0.00000000000E+00 -0.45593999997E+02  0.45594000000E+02  0.51100000000E-03 0. -1.
    9900012    2    1    2    0    0 -0.31475355782E+02 -0.29848859786E+02  0.14038943648E+01  0.47787269920E+02  0.19999994873E+02 0.  0.
         12    1    1    2    0    0  0.31475355782E+02  0.29848859786E+02 -0.14038943648E+01  0.43400730080E+02  0.00000000000E+00 0. -1.
         11    1    3    3    0    0 -0.14745007108E+02 -0.30774520418E+01  0.38967281986E+00  0.15067773254E+02  0.51100000000E-03 0. -1.
        -11    1    3    3    0    0 -0.20385182936E+01 -0.10848246512E+02  0.37802049408E+00  0.11044587316E+02  0.51100000000E-03 0.  1.
        -12    1    3    3    0    0 -0.14691830381E+02 -0.15923161232E+02  0.63620105090E+00  0.21674909350E+02  0.00000000000E+00 0.  1.
</event>
<event>
 7    1  0.1631716E-009  0.4778727E+02  0.7816164E-02  0.1312668E+00
        -11   -1    0    0    0    0  0.00000000000E+00  0.00000000000E+00  0.45593999997E+02  0.45594000000E+02  0.51100000000E-03 0.  1.
         11   -1    0    0    0    0 -0.00000000000E+00 -0.00000000000E+00 -0.45593999997E+02  0.45594000000E+02  0.51100000000E-03 0. -1.
    9900012    2    1    2    0    0 -0.11658265695E+02  0.40397888497E+02  0.10757274470E+02  0.47787268347E+02  0.19999987700E+02 0.  0.
         12    1    1    2    0    0  0.11658265695E+02 -0.40397888497E+02 -0.10757274470E+02  0.43400731653E+02  0.00000000000E+00 0. -1.
         11    1    3    3    0    0 -0.34090149439E+00 -0.81924117606E+00  0.18166577371E+01  0.20217852329E+01  0.51100000000E-03 0. -1.
        -11    1    3    3    0    0 -0.10030991787E+02  0.28088683050E+02  0.12123062198E+02  0.32195706997E+02  0.51100000000E-03 0.  1.
         12    1    3    3    0    0 -0.12863724129E+01  0.13128446623E+02 -0.31824454649E+01  0.13569776117E+02  0.00000000000E+00 0. -1.
</event>
<event>
 7    1  0.1729453E-009  0.4778727E+02  0.7816164E-02  0.1312668E+00
        -11   -1    0    0    0    0  0.00000000000E+00  0.00000000000E+00  0.45593999997E+02  0.45594000000E+02  0.51100000000E-03 0. -1.
         11   -1    0    0    0    0 -0.00000000000E+00 -0.00000000000E+00 -0.45593999997E+02  0.45594000000E+02  0.51100000000E-03 0.  1.
    9900012    2    1    2    0    0  0.17807875928E+02  0.39539317671E+02 -0.17734956758E+01  0.47787269893E+02  0.19999994749E+02 0.  0.
         12    1    1    2    0    0 -0.17807875928E+02 -0.39539317671E+02  0.17734956758E+01  0.43400730107E+02  0.00000000000E+00 0. -1.
         11    1    3    3    0    0  0.12518138498E+02  0.11873829188E+02  0.55758034862E+01  0.18132324611E+02  0.51100000000E-03 0. -1.
        -11    1    3    3    0    0  0.56325182317E+01  0.14700826737E+02 -0.35108808772E+01  0.16129657565E+02  0.51100000000E-03 0.  1.
         12    1    3    3    0    0 -0.34278080190E+00  0.12964661747E+02 -0.38384182847E+01  0.13525287716E+02  0.00000000000E+00 0. -1.
</event>
<event>
 7    1  0.1631716E-009  0.4778727E+02  0.7816164E-02  0.1312668E+00
        -11   -1    0    0    0    0  0.00000000000E+00  0.00000000000E+00  0.45593999997E+02  0.45594000000E+02  0.51100000000E-03 0.  1.
         11   -1    0    0    0    0 -0.00000000000E+00 -0.00000000000E+00 -0.45593999997E+02  0.45594000000E+02  0.51100000000E-03 0. -1.
    9900012    2    1    2    0    0 -0.42181728965E+02  0.10212548005E+02  0.16911560803E+00  0.47787274254E+02  0.20000014634E+02 0.  0.
         12    1    1    2    0    0  0.42181728965E+02 -0.10212548005E+02 -0.16911560803E+00  0.43400725746E+02  0.00000000000E+00 0. -1.
         11    1    3    3    0    0 -0.31372386122E+02  0.47921369707E+01 -0.34810211417E+01  0.31926614230E+02  0.51100000000E-03 0. -1.
        -11    1    3    3    0    0 -0.12293615692E+02  0.60723626807E+01  0.38116567260E+01  0.14231489823E+02  0.51100000000E-03 0.  1.
        -12    1    3    3    0    0  0.14842728498E+01 -0.65195164649E+00 -0.16151997620E+00  0.16291702013E+01  0.00000000000E+00 0.  1.
</event>
<event>
 7    1  0.1631716E-009  0.4778727E+02  0.7816164E-02  0.1312668E+00
        -11   -1    0    0    0    0  0.00000000000E+00  0.00000000000E+00  0.45593999997E+02  0.45594000000E+02  0.51100000000E-03 0.  1.
         11   -1    0    0    0    0 -0.00000000000E+00 -0.00000000000E+00 -0.45593999997E+02  0.45594000000E+02  0.51100000000E-03 0. -1.
    9900012    2    1    2    0    0 -0.32674309451E+02 -0.20151845395E+02  0.20246377704E+02  0.47787272114E+02  0.20000004875E+02 0.  0.
         12    1    1    2    0    0  0.32674309451E+02  0.20151845395E+02 -0.20246377704E+02  0.43400727886E+02  0.00000000000E+00 0. -1.
         11    1    3    3    0    0 -0.20295573029E+02 -0.19369692450E+02  0.15776694967E+02  0.32186944162E+02  0.51100000000E-03 0. -1.
        -11    1    3    3    0    0 -0.13570176082E+02 -0.12190266390E+01  0.44433224921E+01  0.14331043921E+02  0.51100000000E-03 0.  1.
        -12    1    3    3    0    0  0.11914396594E+01  0.43687369392E+00  0.26360244995E-01  0.12692840300E+01  0.00000000000E+00 0.  1.
</event>
<event>
 7    1  0.1631716E-009  0.4778729E+02  0.7816164E-02  0.1312668E+00
        -11   -1    0    0    0    0  0.00000000000E+00  0.00000000000E+00  0.45593999997E+02  0.45594000000E+02  0.51100000000E-03 0.  1.
         11   -1    0    0    0    0 -0.00000000000E+00 -0.00000000000E+00 -0.45593999997E+02  0.45594000000E+02  0.51100000000E-03 0. -1.
    9900012    2    1    2    0    0  0.15793346964E+02 -0.64686385869E+01  0.39904240631E+02  0.47787291321E+02  0.20000092450E+02 0.  0.
         12    1    1    2    0    0 -0.15793346964E+02  0.64686385869E+01 -0.39904240631E+02  0.43400708679E+02  0.00000000000E+00 0. -1.
         11    1    3    3    0    0 -0.37182834573E+01  0.99498719881E+00  0.25791681946E+01  0.46333292816E+01  0.51100000000E-03 0. -1.
        -11    1    3    3    0    0  0.66012090661E+01 -0.43349448419E+01  0.97597013031E+01  0.12554659601E+02  0.51100000000E-03 0.  1.
        -12    1    3    3    0    0  0.12910421355E+02 -0.31286809438E+01  0.27565371133E+02  0.30599302438E+02  0.00000000000E+00 0.  1.
</event>
<event>
 7    1  0.1631716E-009  0.4778727E+02  0.7816164E-02  0.1312668E+00
        -11   -1    0    0    0    0  0.00000000000E+00  0.00000000000E+00  0.45593999997E+02  0.45594000000E+02  0.51100000000E-03 0.  1.
         11   -1    0    0    0    0 -0.00000000000E+00 -0.00000000000E+00 -0.45593999997E+02  0.45594000000E+02  0.51100000000E-03 0. -1.
    9900012    2    1    2    0    0  0.27766948641E+02  0.17739232697E+02  0.28247818651E+02  0.47787273370E+02  0.20000010601E+02 0.  0.
         12    1    1    2    0    0 -0.27766948641E+02 -0.17739232697E+02 -0.28247818651E+02  0.43400726630E+02  0.00000000000E+00 0. -1.
         11    1    3    3    0    0  0.17169946564E+01  0.19562095072E+01  0.77125870738E+01  0.81399524519E+01  0.51100000000E-03 0. -1.
        -11    1    3    3    0    0  0.25451852052E+02  0.10917799831E+02  0.20952789126E+02  0.34727719454E+02  0.51100000000E-03 0.  1.
         12    1    3    3    0    0  0.59810193245E+00  0.48652233592E+01 -0.41755754927E+00  0.49196014639E+01  0.00000000000E+00 0. -1.
</event>
<event>
 7    1  0.1631716E-009  0.4778727E+02  0.7816164E-02  0.1312668E+00
        -11   -1    0    0    0    0  0.00000000000E+00  0.00000000000E+00  0.45593999997E+02  0.45594000000E+02  0.51100000000E-03 0.  1.
         11   -1    0    0    0    0 -0.00000000000E+00 -0.00000000000E+00 -0.45593999997E+02  0.45594000000E+02  0.51100000000E-03 0. -1.
    9900012    2    1    2    0    0  0.22847974788E+02 -0.12694772664E+02  0.34647309961E+02  0.47787270831E+02  0.19999999028E+02 0.  0.
         12    1    1    2    0    0 -0.22847974788E+02  0.12694772664E+02 -0.34647309961E+02  0.43400729169E+02  0.00000000000E+00 0. -1.
         11    1    3    3    0    0  0.10461655579E+02 -0.30940337051E+01  0.28417905494E+02  0.30440049852E+02  0.51100000000E-03 0. -1.
        -11    1    3    3    0    0  0.72713851887E+01 -0.36701207845E+01  0.45774929930E+01  0.93432473743E+01  0.51100000000E-03 0.  1.
         12    1    3    3    0    0  0.51149340202E+01 -0.59306181744E+01  0.16519114731E+01  0.80039736054E+01  0.00000000000E+00 0. -1.
</event>
<event>
 7    1  0.1631716E-009  0.4778727E+02  0.7816164E-02  0.1312668E+00
        -11   -1    0    0    0    0  0.00000000000E+00  0.00000000000E+00  0.45593999997E+02  0.45594000000E+02  0.51100000000E-03 0.  1.
         11   -1    0    0    0    0 -0.00000000000E+00 -0.00000000000E+00 -0.45593999997E+02  0.45594000000E+02  0.51100000000E-03 0. -1.
    9900012    2    1    2    0    0  0.26669168887E+01 -0.20521505933E+02  0.38149422461E+02  0.47787273214E+02  0.20000009893E+02 0.  0.
         12    1    1    2    0    0 -0.26669168887E+01  0.20521505933E+02 -0.38149422461E+02  0.43400726786E+02  0.00000000000E+00 0. -1.
         11    1    3    3    0    0  0.47937303873E+01 -0.11122002542E+01  0.51371286300E+01  0.71138548800E+01  0.51100000000E-03 0. -1.
        -11    1    3    3    0    0  0.39878760663E+01 -0.68708690130E+01  0.20303554926E+02  0.21802438841E+02  0.51100000000E-03 0.  1.
         12    1    3    3    0    0 -0.61146895649E+01 -0.12538436665E+02  0.12708738905E+02  0.18870979493E+02  0.00000000000E+00 0. -1.
</event>
<event>
 7    1  0.1631716E-009  0.4778727E+02  0.7816164E-02  0.1312668E+00
        -11   -1    0    0    0    0  0.00000000000E+00  0.00000000000E+00  0.45593999997E+02  0.45594000000E+02  0.51100000000E-03 0. -1.
         11   -1    0    0    0    0 -0.00000000000E+00 -0.00000000000E+00 -0.45593999997E+02  0.45594000000E+02  0.51100000000E-03 0.  1.
    9900012    2    1    2    0    0 -0.30821944389E+02  0.29724212274E+02  0.70782757724E+01  0.47787273749E+02  0.20000012332E+02 0.  0.
         12    1    1    2    0    0  0.30821944389E+02 -0.29724212274E+02 -0.70782757724E+01  0.43400726251E+02  0.00000000000E+00 0. -1.
         11    1    3    3    0    0 -0.10570594911E+02  0.21387494261E+01  0.29219899817E+01  0.11173618554E+02  0.51100000000E-03 0. -1.
        -11    1    3    3    0    0 -0.31983352831E+00  0.71873392976E+01  0.37013796881E+01  0.80907571661E+01  0.51100000000E-03 0.  1.
        -12    1    3    3    0    0 -0.19931515950E+02  0.20398123550E+02  0.45490610267E+00  0.28522898029E+02  0.00000000000E+00 0.  1.
</event>
<event>
 7    1  0.1631716E-009  0.4778727E+02  0.7816164E-02  0.1312668E+00
        -11   -1    0    0    0    0  0.00000000000E+00  0.00000000000E+00  0.45593999997E+02  0.45594000000E+02  0.51100000000E-03 0.  1.
         11   -1    0    0    0    0 -0.00000000000E+00 -0.00000000000E+00 -0.45593999997E+02  0.45594000000E+02  0.51100000000E-03 0. -1.
    9900012    2    1    2    0    0  0.17848343991E+01  0.14258001636E+02  0.40952987677E+02  0.47787269083E+02  0.19999991057E+02 0.  0.
         12    1    1    2    0    0 -0.17848343991E+01 -0.14258001636E+02 -0.40952987677E+02  0.43400730917E+02  0.00000000000E+00 0. -1.
         11    1    3    3    0    0 -0.47188116535E+01 -0.75068013123E+00  0.22815139250E+01  0.52949041665E+01  0.51100000000E-03 0. -1.
        -11    1    3    3    0    0  0.18474900386E+01  0.85139032384E+01  0.13362218129E+02  0.15951446373E+02  0.51100000000E-03 0.  1.
        -12    1    3    3    0    0  0.46561560140E+01  0.64947785290E+01  0.25309255623E+02  0.26540918544E+02  0.00000000000E+00 0.  1.
</event>
<event>
 7    1  0.1631716E-009  0.4778727E+02  0.7816164E-02  0.1312668E+00
        -11   -1    0    0    0    0  0.00000000000E+00  0.00000000000E+00  0.45593999997E+02  0.45594000000E+02  0.51100000000E-03 0.  1.
         11   -1    0    0    0    0 -0.00000000000E+00 -0.00000000000E+00 -0.45593999997E+02  0.45594000000E+02  0.51100000000E-03 0. -1.
    9900012    2    1    2    0    0  0.40943089999E+02 -0.16167122828E+01  0.14306402785E+02  0.47787268003E+02  0.19999986132E+02 0.  0.
         12    1    1    2    0    0 -0.40943089999E+02  0.16167122828E+01 -0.14306402785E+02  0.43400731997E+02  0.00000000000E+00 0. -1.
         11    1    3    3    0    0  0.12958745046E+02 -0.66404197195E+01  0.11845611445E+02  0.18770795348E+02  0.51100000000E-03 0. -1.
        -11    1    3    3    0    0  0.45398144161E+01  0.71367722440E+00  0.23879343600E+01  0.51789459239E+01  0.51100000000E-03 0.  1.
        -12    1    3    3    0    0  0.23444530536E+02  0.43100302123E+01  0.72856979807E-01  0.23837526731E+02  0.00000000000E+00 0.  1.
</event>
<event>
 7    1  0.1631716E-009  0.4778727E+02  0.7816164E-02  0.1312668E+00
        -11   -1    0    0    0    0  0.00000000000E+00  0.00000000000E+00  0.45593999997E+02  0.45594000000E+02  0.51100000000E-03 0.  1.
         11   -1    0    0    0    0 -0.00000000000E+00 -0.00000000000E+00 -0.45593999997E+02  0.45594000000E+02  0.51100000000E-03 0. -1.
    9900012    2    1    2    0    0  0.41718267717E+02 -0.11815366226E+02  0.18990837417E+01  0.47787271211E+02  0.20000000759E+02 0.  0.
         12    1    1    2    0    0 -0.41718267717E+02  0.11815366226E+02 -0.18990837417E+01  0.43400728789E+02  0.00000000000E+00 0. -1.
         11    1    3    3    0    0  0.21475575163E+02 -0.89267441025E+01 -0.19978883273E+01  0.23342635817E+02  0.51100000000E-03 0. -1.
        -11    1    3    3    0    0  0.17091708911E+02  0.60323521610E+00  0.73448841735E+01  0.18612837774E+02  0.51100000000E-03 0.  1.
         12    1    3    3    0    0  0.31509836430E+01 -0.34918573391E+01 -0.34479121046E+01  0.58317976196E+01  0.00000000000E+00 0. -1.
</event>
<event>
 7    1  0.1631716E-009  0.4778727E+02  0.7816164E-02  0.1312668E+00
        -11   -1    0    0    0    0  0.00000000000E+00  0.00000000000E+00  0.45593999997E+02  0.45594000000E+02  0.51100000000E-03 0. -1.
         11   -1    0    0    0    0 -0.00000000000E+00 -0.00000000000E+00 -0.45593999997E+02  0.45594000000E+02  0.51100000000E-03 0.  1.
    9900012    2    1    2    0    0  0.15556860359E+02  0.40240344349E+02 -0.47246208895E+01  0.47787271203E+02  0.20000000723E+02 0.  0.
         12    1    1    2    0    0 -0.15556860359E+02 -0.40240344349E+02  0.47246208895E+01  0.43400728797E+02  0.00000000000E+00 0. -1.
         11    1    3    3    0    0 -0.31599009348E+01  0.52455047799E+01 -0.63396609550E+00  0.61564768809E+01  0.51100000000E-03 0. -1.
        -11    1    3    3    0    0  0.77746239166E+01  0.44947358397E+01 -0.86274746746E-01  0.89808056936E+01  0.51100000000E-03 0.  1.
        -12    1    3    3    0    0  0.10942137377E+02  0.30500103729E+02 -0.40043800472E+01  0.32649988629E+02  0.00000000000E+00 0.  1.
</event>
<event>
 7    1  0.1631716E-009  0.4778727E+02  0.7816164E-02  0.1312668E+00
        -11   -1    0    0    0    0  0.00000000000E+00  0.00000000000E+00  0.45593999997E+02  0.45594000000E+02  0.51100000000E-03 0.  1.
         11   -1    0    0    0    0 -0.00000000000E+00 -0.00000000000E+00 -0.45593999997E+02  0.45594000000E+02  0.51100000000E-03 0. -1.
    9900012    2    1    2    0    0  0.10806090434E+02  0.31266626182E+02  0.28093584425E+02  0.47787274325E+02  0.20000014957E+02 0.  0.
         12    1    1    2    0    0 -0.10806090434E+02 -0.31266626182E+02 -0.28093584425E+02  0.43400725675E+02  0.00000000000E+00 0. -1.
         11    1    3    3    0    0  0.32918486126E+00 -0.69348698319E+00  0.10884044795E+01  0.13318826678E+01  0.51100000000E-03 0. -1.
        -11    1    3    3    0    0 -0.32453133225E+01  0.99747658842E+01  0.24894009895E+01  0.10780775972E+02  0.51100000000E-03 0.  1.
         12    1    3    3    0    0  0.13722218895E+02  0.21985347281E+02  0.24515778956E+02  0.35674615685E+02  0.00000000000E+00 0. -1.
</event>
<event>
 7    1  0.1631716E-009  0.4778727E+02  0.7816164E-02  0.1312668E+00
        -11   -1    0    0    0    0  0.00000000000E+00  0.00000000000E+00  0.45593999997E+02  0.45594000000E+02  0.51100000000E-03 0.  1.
         11   -1    0    0    0    0 -0.00000000000E+00 -0.00000000000E+00 -0.45593999997E+02  0.45594000000E+02  0.51100000000E-03 0. -1.
    9900012    2    1    2    0    0  0.41552230101E+02 -0.35080519362E+01  0.12030341842E+02  0.47787269827E+02  0.19999994449E+02 0.  0.
         12    1    1    2    0    0 -0.41552230101E+02  0.35080519362E+01 -0.12030341842E+02  0.43400730173E+02  0.00000000000E+00 0. -1.
         11    1    3    3    0    0  0.81905953639E+01 -0.95373590291E+00 -0.16965171489E+01  0.84186480675E+01  0.51100000000E-03 0. -1.
        -11    1    3    3    0    0  0.92772716066E+01  0.39161364813E+01  0.99307356895E+01  0.14142963091E+02  0.51100000000E-03 0.  1.
         12    1    3    3    0    0  0.24084363130E+02 -0.64704525146E+01  0.37961233016E+01  0.25225658668E+02  0.00000000000E+00 0. -1.
</event>
<event>
 7    1  0.1924879E-009  0.4778727E+02  0.7816164E-02  0.1312668E+00
        -11   -1    0    0    0    0  0.00000000000E+00  0.00000000000E+00  0.45593999997E+02  0.45594000000E+02  0.51100000000E-03 0.  1.
         11   -1    0    0    0    0 -0.00000000000E+00 -0.00000000000E+00 -0.45593999997E+02  0.45594000000E+02  0.51100000000E-03 0. -1.
    9900012    2    1    2    0    0 -0.41447160500E+02 -0.12871580819E+02 -0.28057185999E+00  0.47787269282E+02  0.19999991965E+02 0.  0.
         12    1    1    2    0    0  0.41447160500E+02  0.12871580819E+02  0.28057185999E+00  0.43400730718E+02  0.00000000000E+00 0. -1.
         11    1    3    3    0    0 -0.26393149735E+01 -0.13952573514E+01  0.38315364988E+01  0.48573036563E+01  0.51100000000E-03 0. -1.
        -11    1    3    3    0    0 -0.23310806683E+02 -0.13745112031E+02 -0.21824704139E+01  0.27149309205E+02  0.51100000000E-03 0.  1.
         12    1    3    3    0    0 -0.15497038843E+02  0.22687885639E+01 -0.19296379449E+01  0.15780656420E+02  0.00000000000E+00 0. -1.
</event>
<event>
 7    1  0.1631716E-009  0.4778727E+02  0.7816164E-02  0.1312668E+00
        -11   -1    0    0    0    0  0.00000000000E+00  0.00000000000E+00  0.45593999997E+02  0.45594000000E+02  0.51100000000E-03 0. -1.
         11   -1    0    0    0    0 -0.00000000000E+00 -0.00000000000E+00 -0.45593999997E+02  0.45594000000E+02  0.51100000000E-03 0.  1.
    9900012    2    1    2    0    0  0.36092954544E+02  0.18068317996E+02 -0.15951747423E+02  0.47787265804E+02  0.19999976107E+02 0.  0.
         12    1    1    2    0    0 -0.36092954544E+02 -0.18068317996E+02  0.15951747423E+02  0.43400734196E+02  0.00000000000E+00 0. -1.
         11    1    3    3    0    0  0.28408522165E+01 -0.30171328112E+01  0.13023763399E+01  0.43439286491E+01  0.51100000000E-03 0. -1.
        -11    1    3    3    0    0  0.15595531024E+02  0.63187412786E+01 -0.80548507361E+01  0.18655500527E+02  0.51100000000E-03 0.  1.
         12    1    3    3    0    0  0.17656571303E+02  0.14766709529E+02 -0.91992730269E+01  0.24787836628E+02  0.00000000000E+00 0. -1.
</event>
<event>
 7    1  0.1631716E-009  0.4778727E+02  0.7816164E-02  0.1312668E+00
        -11   -1    0    0    0    0  0.00000000000E+00  0.00000000000E+00  0.45593999997E+02  0.45594000000E+02  0.51100000000E-03 0.  1.
         11   -1    0    0    0    0 -0.00000000000E+00 -0.00000000000E+00 -0.45593999997E+02  0.45594000000E+02  0.51100000000E-03 0. -1.
    9900012    2    1    2    0    0  0.37557237249E+02 -0.18847306343E+02 -0.10856161210E+02  0.47787271177E+02  0.20000000604E+02 0.  0.
         12    1    1    2    0    0 -0.37557237249E+02  0.18847306343E+02  0.10856161210E+02  0.43400728823E+02  0.00000000000E+00 0. -1.
         11    1    3    3    0    0  0.99026697414E+00 -0.14108872851E+01 -0.51502561571E+01  0.54310560995E+01  0.51100000000E-03 0. -1.
        -11    1    3    3    0    0  0.10171625996E+02 -0.39063657863E+01  0.32539546158E+01  0.11371450654E+02  0.51100000000E-03 0.  1.
         12    1    3    3    0    0  0.26395344279E+02 -0.13530053272E+02 -0.89598596687E+01  0.30984764424E+02  0.00000000000E+00 0. -1.
</event>
<event>
 7    1  0.1631716E-009  0.4778727E+02  0.7816164E-02  0.1312668E+00
        -11   -1    0    0    0    0  0.00000000000E+00  0.00000000000E+00  0.45593999997E+02  0.45594000000E+02  0.51100000000E-03 0.  1.
         11   -1    0    0    0    0 -0.00000000000E+00 -0.00000000000E+00 -0.45593999997E+02  0.45594000000E+02  0.51100000000E-03 0. -1.
    9900012    2    1    2    0    0  0.37385793632E+02  0.19450230184E+02  0.10373731023E+02  0.47787270570E+02  0.19999997838E+02 0.  0.
         12    1    1    2    0    0 -0.37385793632E+02 -0.19450230184E+02 -0.10373731023E+02  0.43400729430E+02  0.00000000000E+00 0. -1.
         11    1    3    3    0    0  0.10149489120E+02  0.24585826638E+01 -0.10336903190E+01  0.10494058988E+02  0.51100000000E-03 0. -1.
        -11    1    3    3    0    0  0.18820582815E+01  0.85280984097E+01  0.20269705339E+01  0.89654456479E+01  0.51100000000E-03 0.  1.
        -12    1    3    3    0    0  0.25354246230E+02  0.84635491106E+01  0.93804508078E+01  0.28327765934E+02  0.00000000000E+00 0.  1.
</event>
<event>
 7    1  0.1631716E-009  0.4778727E+02  0.7816164E-02  0.1312668E+00
        -11   -1    0    0    0    0  0.00000000000E+00  0.00000000000E+00  0.45593999997E+02  0.45594000000E+02  0.51100000000E-03 0. -1.
         11   -1    0    0    0    0 -0.00000000000E+00 -0.00000000000E+00 -0.45593999997E+02  0.45594000000E+02  0.51100000000E-03 0.  1.
    9900012    2    1    2    0    0 -0.33702948945E+02 -0.27253082472E+02 -0.22370506745E+01  0.47787266509E+02  0.19999979322E+02 0.  0.
         12    1    1    2    0    0  0.33702948945E+02  0.27253082472E+02  0.22370506745E+01  0.43400733491E+02  0.00000000000E+00 0. -1.
         11    1    3    3    0    0  0.17305574641E+00 -0.97442357179E+00  0.31627743318E+01  0.33139992945E+01  0.51100000000E-03 0. -1.
        -11    1    3    3    0    0 -0.16013833069E+02 -0.19017439802E+02 -0.31770419129E+01  0.25063907552E+02  0.51100000000E-03 0.  1.
        -12    1    3    3    0    0 -0.17862171622E+02 -0.72612190986E+01 -0.22227830934E+01  0.19409359663E+02  0.00000000000E+00 0.  1.
</event>
<event>
 7    1  0.1631716E-009  0.4778728E+02  0.7816164E-02  0.1312668E+00
        -11   -1    0    0    0    0  0.00000000000E+00  0.00000000000E+00  0.45593999997E+02  0.45594000000E+02  0.51100000000E-03 0. -1.
         11   -1    0    0    0    0 -0.00000000000E+00 -0.00000000000E+00 -0.45593999997E+02  0.45594000000E+02  0.51100000000E-03 0.  1.
    9900012    2    1    2    0    0 -0.28898342416E+02 -0.13847970251E+02 -0.29270158930E+02  0.47787277906E+02  0.20000031285E+02 0.  0.
         12    1    1    2    0    0  0.28898342416E+02  0.13847970251E+02  0.29270158930E+02  0.43400722094E+02  0.00000000000E+00 0. -1.
         11    1    3    3    0    0  0.21485871685E+00 -0.96816045292E+00 -0.15339111568E+01  0.18265767515E+01  0.51100000000E-03 0. -1.
        -11    1    3    3    0    0 -0.97953375026E+01 -0.14020046878E+02 -0.15377042248E+02  0.22999212591E+02  0.51100000000E-03 0.  1.
         12    1    3    3    0    0 -0.19317863630E+02  0.11402370796E+01 -0.12359205525E+02  0.22961488563E+02  0.00000000000E+00 0. -1.
</event>
<event>
 7    1  0.1631716E-009  0.4778727E+02  0.7816164E-02  0.1312668E+00
        -11   -1    0    0    0    0  0.00000000000E+00  0.00000000000E+00  0.45593999997E+02  0.45594000000E+02  0.51100000000E-03 0. -1.
         11   -1    0    0    0    0 -0.00000000000E+00 -0.00000000000E+00 -0.45593999997E+02  0.45594000000E+02  0.51100000000E-03 0.  1.
    9900012    2    1    2    0    0 -0.16126325904E+02  0.40293442536E+02  0.58169245172E-01  0.47787270948E+02  0.19999999560E+02 0.  0.
         12    1    1    2    0    0  0.16126325904E+02 -0.40293442536E+02 -0.58169245172E-01  0.43400729052E+02  0.00000000000E+00 0. -1.
         11    1    3    3    0    0 -0.35952587395E+01  0.13476636070E+01 -0.67022781096E+00  0.38976003107E+01  0.51100000000E-03 0. -1.
        -11    1    3    3    0    0 -0.90098084373E+01  0.38907475425E+02 -0.10368899513E+01  0.39950512300E+02  0.51100000000E-03 0.  1.
        -12    1    3    3    0    0 -0.35212587276E+01  0.38303504254E-01  0.17652870074E+01  0.39391583369E+01  0.00000000000E+00 0.  1.
</event>
<event>
 7    1  0.1631716E-009  0.4778727E+02  0.7816164E-02  0.1312668E+00
        -11   -1    0    0    0    0  0.00000000000E+00  0.00000000000E+00  0.45593999997E+02  0.45594000000E+02  0.51100000000E-03 0.  1.
         11   -1    0    0    0    0 -0.00000000000E+00 -0.00000000000E+00 -0.45593999997E+02  0.45594000000E+02  0.51100000000E-03 0. -1.
    9900012    2    1    2    0    0 -0.19418005185E+02 -0.38714819138E+02  0.27797727714E+01  0.47787270940E+02  0.19999999524E+02 0.  0.
         12    1    1    2    0    0  0.19418005185E+02  0.38714819138E+02 -0.27797727714E+01  0.43400729060E+02  0.00000000000E+00 0. -1.
         11    1    3    3    0    0 -0.11206073095E+02 -0.13433805742E+02  0.61111066460E+01  0.18530753779E+02  0.51100000000E-03 0. -1.
        -11    1    3    3    0    0  0.26482930900E+01 -0.74458554160E+01  0.88948911760E+00  0.79526983042E+01  0.51100000000E-03 0.  1.
         12    1    3    3    0    0 -0.10860225180E+02 -0.17835157980E+02 -0.42208229922E+01  0.21303818856E+02  0.00000000000E+00 0. -1.
</event>
<event>
 7    1  0.1631716E-009  0.4778727E+02  0.7816164E-02  0.1312668E+00
        -11   -1    0    0    0    0  0.00000000000E+00  0.00000000000E+00  0.45593999997E+02  0.45594000000E+02  0.51100000000E-03 0.  1.
         11   -1    0    0    0    0 -0.00000000000E+00 -0.00000000000E+00 -0.45593999997E+02  0.45594000000E+02  0.51100000000E-03 0. -1.
    9900012    2    1    2    0    0 -0.30526472685E+02  0.19087914332E+01  0.30791469442E+02  0.47787267175E+02  0.19999982357E+02 0.  0.
         12    1    1    2    0    0  0.30526472685E+02 -0.19087914332E+01 -0.30791469442E+02  0.43400732825E+02  0.00000000000E+00 0. -1.
         11    1    3    3    0    0  0.60470138838E+00 -0.11793547910E+01  0.59321813356E+00  0.14520501049E+01  0.51100000000E-03 0. -1.
        -11    1    3    3    0    0 -0.28554906983E+02 -0.17659102598E+01  0.28946880055E+02  0.40699177105E+02  0.51100000000E-03 0.  1.
        -12    1    3    3    0    0 -0.25762670904E+01  0.48540564840E+01  0.12513712539E+01  0.56360399649E+01  0.00000000000E+00 0.  1.
</event>
<event>
 7    1  0.1631716E-009  0.4778728E+02  0.7816164E-02  0.1312668E+00
        -11   -1    0    0    0    0  0.00000000000E+00  0.00000000000E+00  0.45593999997E+02  0.45594000000E+02  0.51100000000E-03 0. -1.
         11   -1    0    0    0    0 -0.00000000000E+00 -0.00000000000E+00 -0.45593999997E+02  0.45594000000E+02  0.51100000000E-03 0.  1.
    9900012    2    1    2    0    0  0.14329855445E+02 -0.38694871219E+02 -0.13453070365E+02  0.47787275145E+02  0.20000018696E+02 0.  0.
         12    1    1    2    0    0 -0.14329855445E+02  0.38694871219E+02  0.13453070365E+02  0.43400724855E+02  0.00000000000E+00 0. -1.
         11    1    3    3    0    0  0.71234179983E+01 -0.25237870202E+02 -0.12983895289E+02  0.29262172056E+02  0.51100000000E-03 0. -1.
        -11    1    3    3    0    0  0.73192675209E+01 -0.12740128662E+02 -0.37508477923E+01  0.15164148996E+02  0.51100000000E-03 0.  1.
        -12    1    3    3    0    0 -0.11283007421E+00 -0.71687235518E+00  0.32816727159E+01  0.33609540928E+01  0.00000000000E+00 0.  1.
</event>
<event>
 7    1  0.1631716E-009  0.4778727E+02  0.7816164E-02  0.1312668E+00
        -11   -1    0    0    0    0  0.00000000000E+00  0.00000000000E+00  0.45593999997E+02  0.45594000000E+02  0.51100000000E-03 0.  1.
         11   -1    0    0    0    0 -0.00000000000E+00 -0.00000000000E+00 -0.45593999997E+02  0.45594000000E+02  0.51100000000E-03 0. -1.
    9900012    2    1    2    0    0 -0.36199550478E+02  0.18405715629E+01  0.23871075626E+02  0.47787269475E+02  0.19999992846E+02 0.  0.
         12    1    1    2    0    0  0.36199550478E+02 -0.18405715629E+01 -0.23871075626E+02  0.43400730525E+02  0.00000000000E+00 0. -1.
         11    1    3    3    0    0 -0.46394409672E+01 -0.26820781210E+01  0.58684865716E+01  0.79471435395E+01  0.51100000000E-03 0. -1.
        -11    1    3    3    0    0 -0.26326451683E+02  0.41993731117E+01  0.68635983770E+01  0.27528635558E+02  0.51100000000E-03 0.  1.
        -12    1    3    3    0    0 -0.52336578279E+01  0.32327657218E+00  0.11138990678E+02  0.12311490378E+02  0.00000000000E+00 0.  1.
</event>
<event>
 7    1  0.1631716E-009  0.4778727E+02  0.7816164E-02  0.1312668E+00
        -11   -1    0    0    0    0  0.00000000000E+00  0.00000000000E+00  0.45593999997E+02  0.45594000000E+02  0.51100000000E-03 0. -1.
         11   -1    0    0    0    0 -0.00000000000E+00 -0.00000000000E+00 -0.45593999997E+02  0.45594000000E+02  0.51100000000E-03 0.  1.
    9900012    2    1    2    0    0 -0.35493509890E+02  0.21506210958E+02 -0.12701059355E+02  0.47787271172E+02  0.20000000582E+02 0.  0.
         12    1    1    2    0    0  0.35493509890E+02 -0.21506210958E+02  0.12701059355E+02  0.43400728828E+02  0.00000000000E+00 0. -1.
         11    1    3    3    0    0 -0.24140509344E+01  0.22573722191E+01  0.22696019677E+01  0.40092972704E+01  0.51100000000E-03 0. -1.
        -11    1    3    3    0    0 -0.33490505335E+02  0.15392761167E+02 -0.11602475056E+02  0.38641538163E+02  0.51100000000E-03 0.  1.
        -12    1    3    3    0    0  0.41104637973E+00  0.38560775722E+01 -0.33681862665E+01  0.51364357384E+01  0.00000000000E+00 0.  1.
</event>
<event>
 7    1  0.1631716E-009  0.4778727E+02  0.7816164E-02  0.1312668E+00
        -11   -1    0    0    0    0  0.00000000000E+00  0.00000000000E+00  0.45593999997E+02  0.45594000000E+02  0.51100000000E-03 0. -1.
         11   -1    0    0    0    0 -0.00000000000E+00 -0.00000000000E+00 -0.45593999997E+02  0.45594000000E+02  0.51100000000E-03 0.  1.
    9900012    2    1    2    0    0  0.34751423946E+02 -0.12945470914E+02 -0.22547205584E+02  0.47787272320E+02  0.20000005817E+02 0.  0.
         12    1    1    2    0    0 -0.34751423946E+02  0.12945470914E+02  0.22547205584E+02  0.43400727680E+02  0.00000000000E+00 0. -1.
         11    1    3    3    0    0  0.60524876639E+00  0.15452571050E+01  0.99524600716E-01  0.16625435324E+01  0.51100000000E-03 0. -1.
        -11    1    3    3    0    0  0.38507704570E+01  0.32095077532E+01 -0.38435409751E+01  0.63168172856E+01  0.51100000000E-03 0.  1.
        -12    1    3    3    0    0  0.30295404723E+02 -0.17700235773E+02 -0.18803189209E+02  0.39807911502E+02  0.00000000000E+00 0.  1.
</event>
<event>
 7    1  0.1631716E-009  0.4778727E+02  0.7816164E-02  0.1312668E+00
        -11   -1    0    0    0    0  0.00000000000E+00  0.00000000000E+00  0.45593999997E+02  0.45594000000E+02  0.51100000000E-03 0.  1.
         11   -1    0    0    0    0 -0.00000000000E+00 -0.00000000000E+00 -0.45593999997E+02  0.45594000000E+02  0.51100000000E-03 0. -1.
    9900012    2    1    2    0    0 -0.67596346075E+01  0.17792946815E+02  0.39004377759E+02  0.47787273039E+02  0.20000009093E+02 0.  0.
         12    1    1    2    0    0  0.67596346075E+01 -0.17792946815E+02 -0.39004377759E+02  0.43400726961E+02  0.00000000000E+00 0. -1.
         11    1    3    3    0    0 -0.47169191420E+01 -0.10579411965E+00  0.40867494213E+01  0.62419580006E+01  0.51100000000E-03 0. -1.
        -11    1    3    3    0    0 -0.48599937321E+01  0.14395366648E+02  0.33576130131E+02  0.36853800820E+02  0.51100000000E-03 0.  1.
         12    1    3    3    0    0  0.28172782666E+01  0.35033742866E+01  0.13414982068E+01  0.46915142184E+01  0.00000000000E+00 0. -1.
</event>
<event>
 7    1  0.1631716E-009  0.4778726E+02  0.7816164E-02  0.1312668E+00
        -11   -1    0    0    0    0  0.00000000000E+00  0.00000000000E+00  0.45593999997E+02  0.45594000000E+02  0.51100000000E-03 0.  1.
         11   -1    0    0    0    0 -0.00000000000E+00 -0.00000000000E+00 -0.45593999997E+02  0.45594000000E+02  0.51100000000E-03 0. -1.
    9900012    2    1    2    0    0 -0.16047354870E+02 -0.82750900327E+00  0.40316525308E+02  0.47787255969E+02  0.19999931266E+02 0.  0.
         12    1    1    2    0    0  0.16047354870E+02  0.82750900327E+00 -0.40316525308E+02  0.43400744031E+02  0.00000000000E+00 0. -1.
         11    1    3    3    0    0 -0.84813301427E+01 -0.83821291514E+01  0.27899798452E+02  0.30341255809E+02  0.51100000000E-03 0. -1.
        -11    1    3    3    0    0 -0.36012422359E+01  0.28508655690E+01  0.13550911571E+01  0.47888049072E+01  0.51100000000E-03 0.  1.
        -12    1    3    3    0    0 -0.39647824916E+01  0.47037545791E+01  0.11061635699E+02  0.12657195253E+02  0.00000000000E+00 0.  1.
</event>
<event>
 7    1  0.1631716E-009  0.4778726E+02  0.7816164E-02  0.1312668E+00
        -11   -1    0    0    0    0  0.00000000000E+00  0.00000000000E+00  0.45593999997E+02  0.45594000000E+02  0.51100000000E-03 0.  1.
         11   -1    0    0    0    0 -0.00000000000E+00 -0.00000000000E+00 -0.45593999997E+02  0.45594000000E+02  0.51100000000E-03 0. -1.
    9900012    2    1    2    0    0  0.36940233901E+02  0.96623710793E+01  0.20632051525E+02  0.47787264457E+02  0.19999969965E+02 0.  0.
         12    1    1    2    0    0 -0.36940233901E+02 -0.96623710793E+01 -0.20632051525E+02  0.43400735543E+02  0.00000000000E+00 0. -1.
         11    1    3    3    0    0  0.18864545271E+02  0.38348764076E+01  0.94672834928E+01  0.21452431152E+02  0.51100000000E-03 0.  1.
        -11    1    3    3    0    0  0.25533694685E+01  0.70531380646E+01  0.68969136625E+01  0.10189890604E+02  0.51100000000E-03 0. -1.
         12    1    3    3    0    0  0.15522319162E+02 -0.12256433929E+01  0.42678543696E+01  0.16144942701E+02  0.00000000000E+00 0. -1.
</event>
<event>
 7    1  0.1631716E-009  0.4778727E+02  0.7816164E-02  0.1312668E+00
        -11   -1    0    0    0    0  0.00000000000E+00  0.00000000000E+00  0.45593999997E+02  0.45594000000E+02  0.51100000000E-03 0.  1.
         11   -1    0    0    0    0 -0.00000000000E+00 -0.00000000000E+00 -0.45593999997E+02  0.45594000000E+02  0.51100000000E-03 0. -1.
    9900012    2    1    2    0    0  0.21582276548E+02  0.25888181611E+02  0.27342836394E+02  0.47787270626E+02  0.19999998093E+02 0.  0.
         12    1    1    2    0    0 -0.21582276548E+02 -0.25888181611E+02 -0.27342836394E+02  0.43400729374E+02  0.00000000000E+00 0. -1.
         11    1    3    3    0    0  0.50409157614E+01 -0.33507063212E+00  0.41609549385E-01  0.50522109672E+01  0.51100000000E-03 0. -1.
        -11    1    3    3    0    0  0.14029225673E+02  0.23144535517E+02  0.17685254016E+02  0.32330433143E+02  0.51100000000E-03 0.  1.
         12    1    3    3    0    0  0.25121351128E+01  0.30787167256E+01  0.96159728287E+01  0.10404626516E+02  0.00000000000E+00 0. -1.
</event>
<event>
 7    1  0.1631716E-009  0.4778731E+02  0.7816164E-02  0.1312668E+00
        -11   -1    0    0    0    0  0.00000000000E+00  0.00000000000E+00  0.45593999997E+02  0.45594000000E+02  0.51100000000E-03 0. -1.
         11   -1    0    0    0    0 -0.00000000000E+00 -0.00000000000E+00 -0.45593999997E+02  0.45594000000E+02  0.51100000000E-03 0.  1.
    9900012    2    1    2    0    0  0.87447143051E+01  0.42244082777E+02  0.47525982508E+01  0.47787311664E+02  0.20000185199E+02 0.  0.
         12    1    1    2    0    0 -0.87447143051E+01 -0.42244082777E+02 -0.47525982508E+01  0.43400688336E+02  0.00000000000E+00 0. -1.
         11    1    3    3    0    0 -0.14096213616E+00  0.17287773712E+02  0.19095699105E+01  0.17393488660E+02  0.51100000000E-03 0.  1.
        -11    1    3    3    0    0 -0.96759756568E-01 -0.12709233390E+01  0.23421736628E+01  0.26665307633E+01  0.51100000000E-03 0. -1.
         12    1    3    3    0    0  0.89824361979E+01  0.26227232403E+02  0.50085467755E+00  0.27727292241E+02  0.00000000000E+00 0. -1.
</event>
<event>
 7    1  0.1631716E-009  0.4778728E+02  0.7816164E-02  0.1312668E+00
        -11   -1    0    0    0    0  0.00000000000E+00  0.00000000000E+00  0.45593999997E+02  0.45594000000E+02  0.51100000000E-03 0.  1.
         11   -1    0    0    0    0 -0.00000000000E+00 -0.00000000000E+00 -0.45593999997E+02  0.45594000000E+02  0.51100000000E-03 0. -1.
    9900012    2    1    2    0    0 -0.13693770047E+02 -0.28144331122E+02  0.30066590784E+02  0.47787278880E+02  0.20000035723E+02 0.  0.
         12    1    1    2    0    0  0.13693770047E+02  0.28144331122E+02 -0.30066590784E+02  0.43400721120E+02  0.00000000000E+00 0. -1.
         11    1    3    3    0    0 -0.15100448595E+02 -0.96945902295E+01  0.17998667450E+02  0.25415756092E+02  0.51100000000E-03 0. -1.
        -11    1    3    3    0    0 -0.58434701963E+00 -0.91079181732E+01  0.73497205113E+01  0.11718106790E+02  0.51100000000E-03 0.  1.
         12    1    3    3    0    0  0.19910255683E+01 -0.93418227195E+01  0.47182028226E+01  0.10653415997E+02  0.00000000000E+00 0. -1.
</event>
<event>
 7    1  0.1631716E-009  0.4778723E+02  0.7816164E-02  0.1312668E+00
        -11   -1    0    0    0    0  0.00000000000E+00  0.00000000000E+00  0.45593999997E+02  0.45594000000E+02  0.51100000000E-03 0.  1.
         11   -1    0    0    0    0 -0.00000000000E+00 -0.00000000000E+00 -0.45593999997E+02  0.45594000000E+02  0.51100000000E-03 0. -1.
    9900012    2    1    2    0    0  0.22823250861E+02  0.36334906994E+02 -0.65192615283E+01  0.47787227922E+02  0.19999803385E+02 0.  0.
         12    1    1    2    0    0 -0.22823250861E+02 -0.36334906994E+02  0.65192615283E+01  0.43400772078E+02  0.00000000000E+00 0. -1.
         11    1    3    3    0    0  0.19369505712E+01  0.70454022215E+01  0.19879237384E+01  0.75724045738E+01  0.51100000000E-03 0. -1.
        -11    1    3    3    0    0  0.22944315377E+02  0.29073509763E+02 -0.89409292201E+01  0.38100535345E+02  0.51100000000E-03 0.  1.
         12    1    3    3    0    0 -0.20580150864E+01  0.21599500955E+00  0.43374395340E+00  0.21142880024E+01  0.00000000000E+00 0. -1.
</event>
<event>
 7    1  0.1631716E-009  0.4778727E+02  0.7816164E-02  0.1312668E+00
        -11   -1    0    0    0    0  0.00000000000E+00  0.00000000000E+00  0.45593999997E+02  0.45594000000E+02  0.51100000000E-03 0.  1.
         11   -1    0    0    0    0 -0.00000000000E+00 -0.00000000000E+00 -0.45593999997E+02  0.45594000000E+02  0.51100000000E-03 0. -1.
    9900012    2    1    2    0    0 -0.34295707846E+02  0.46704705866E+01  0.26184243563E+02  0.47787268633E+02  0.19999989006E+02 0.  0.
         12    1    1    2    0    0  0.34295707846E+02 -0.46704705866E+01 -0.26184243563E+02  0.43400731367E+02  0.00000000000E+00 0. -1.
         11    1    3    3    0    0 -0.10225707582E+01  0.17247178120E+01 -0.49433657857E+00  0.20651080845E+01  0.51100000000E-03 0. -1.
        -11    1    3    3    0    0 -0.13728462497E+02 -0.38062062252E+01  0.35187714042E+01  0.14674455384E+02  0.51100000000E-03 0.  1.
         12    1    3    3    0    0 -0.19544674591E+02  0.67519589998E+01  0.23159808738E+02  0.31047705164E+02  0.00000000000E+00 0. -1.
</event>
<event>
 7    1  0.1631716E-009  0.4778727E+02  0.7816164E-02  0.1312668E+00
        -11   -1    0    0    0    0  0.00000000000E+00  0.00000000000E+00  0.45593999997E+02  0.45594000000E+02  0.51100000000E-03 0.  1.
         11   -1    0    0    0    0 -0.00000000000E+00 -0.00000000000E+00 -0.45593999997E+02  0.45594000000E+02  0.51100000000E-03 0. -1.
    9900012    2    1    2    0    0  0.64533900721E+01  0.20116721561E+02  0.37911670153E+02  0.47787268858E+02  0.19999990033E+02 0.  0.
         12    1    1    2    0    0 -0.64533900721E+01 -0.20116721561E+02 -0.37911670153E+02  0.43400731142E+02  0.00000000000E+00 0. -1.
         11    1    3    3    0    0 -0.12458663074E+01  0.25936824321E+01  0.34277494968E+01  0.44753590122E+01  0.51100000000E-03 0. -1.
        -11    1    3    3    0    0  0.36128408137E+00  0.18757687065E+02  0.24337988282E+02  0.30729774228E+02  0.51100000000E-03 0.  1.
         12    1    3    3    0    0  0.73379722981E+01 -0.12346479355E+01  0.10145932375E+02  0.12582135619E+02  0.00000000000E+00 0. -1.
</event>
<event>
 7    1  0.1631716E-009  0.4778726E+02  0.7816164E-02  0.1312668E+00
        -11   -1    0    0    0    0  0.00000000000E+00  0.00000000000E+00  0.45593999997E+02  0.45594000000E+02  0.51100000000E-03 0. -1.
         11   -1    0    0    0    0 -0.00000000000E+00 -0.00000000000E+00 -0.45593999997E+02  0.45594000000E+02  0.51100000000E-03 0.  1.
    9900012    2    1    2    0    0 -0.10887686130E+02  0.26632860867E+02 -0.32492666663E+02  0.47787258370E+02  0.19999942211E+02 0.  0.
         12    1    1    2    0    0  0.10887686130E+02 -0.26632860867E+02  0.32492666663E+02  0.43400741630E+02  0.00000000000E+00 0. -1.
         11    1    3    3    0    0 -0.39144251257E+01 -0.16446729680E+01 -0.83636454592E+00  0.43274910919E+01  0.51100000000E-03 0. -1.
        -11    1    3    3    0    0 -0.24832558706E+01  0.85741249246E+01 -0.14111323074E+02  0.16697653042E+02  0.51100000000E-03 0.  1.
        -12    1    3    3    0    0 -0.44900051340E+01  0.19703408910E+02 -0.17544979043E+02  0.26762114236E+02  0.00000000000E+00 0.  1.
</event>
<event>
 7    1  0.1631716E-009  0.4778728E+02  0.7816164E-02  0.1312668E+00
        -11   -1    0    0    0    0  0.00000000000E+00  0.00000000000E+00  0.45593999997E+02  0.45594000000E+02  0.51100000000E-03 0. -1.
         11   -1    0    0    0    0 -0.00000000000E+00 -0.00000000000E+00 -0.45593999997E+02  0.45594000000E+02  0.51100000000E-03 0.  1.
    9900012    2    1    2    0    0 -0.26291260599E+02  0.33887989077E+02 -0.66330012224E+01  0.47787275434E+02  0.20000020016E+02 0.  0.
         12    1    1    2    0    0  0.26291260599E+02 -0.33887989077E+02  0.66330012224E+01  0.43400724566E+02  0.00000000000E+00 0. -1.
         11    1    3    3    0    0 -0.85166455796E+01  0.27001187860E+01  0.79845413924E+00  0.89700291338E+01  0.51100000000E-03 0. -1.
        -11    1    3    3    0    0 -0.96417619173E+00  0.10607960351E+02  0.15577360050E+01  0.10764989562E+02  0.51100000000E-03 0.  1.
        -12    1    3    3    0    0 -0.16810438828E+02  0.20579909940E+02 -0.89891913666E+01  0.28052256739E+02  0.00000000000E+00 0.  1.
</event>
<event>
 7    1  0.1631716E-009  0.4778727E+02  0.7816164E-02  0.1312668E+00
        -11   -1    0    0    0    0  0.00000000000E+00  0.00000000000E+00  0.45593999997E+02  0.45594000000E+02  0.51100000000E-03 0. -1.
         11   -1    0    0    0    0 -0.00000000000E+00 -0.00000000000E+00 -0.45593999997E+02  0.45594000000E+02  0.51100000000E-03 0.  1.
    9900012    2    1    2    0    0  0.15014809745E+02 -0.34975383184E+02 -0.20854288969E+02  0.47787270641E+02  0.19999998158E+02 0.  0.
         12    1    1    2    0    0 -0.15014809745E+02  0.34975383184E+02  0.20854288969E+02  0.43400729359E+02  0.00000000000E+00 0. -1.
         11    1    3    3    0    0  0.12130597839E+02 -0.21796100141E+02 -0.11820904578E+02  0.27603535473E+02  0.51100000000E-03 0. -1.
        -11    1    3    3    0    0  0.31693942437E+01 -0.14811229771E+02 -0.10107507501E+02  0.18209318914E+02  0.51100000000E-03 0.  1.
         12    1    3    3    0    0 -0.28518233805E+00  0.16319467274E+01  0.10741231098E+01  0.19744162535E+01  0.00000000000E+00 0. -1.
</event>
<event>
 7    1  0.1631716E-009  0.4778728E+02  0.7816164E-02  0.1312668E+00
        -11   -1    0    0    0    0  0.00000000000E+00  0.00000000000E+00  0.45593999997E+02  0.45594000000E+02  0.51100000000E-03 0.  1.
         11   -1    0    0    0    0 -0.00000000000E+00 -0.00000000000E+00 -0.45593999997E+02  0.45594000000E+02  0.51100000000E-03 0. -1.
    9900012    2    1    2    0    0  0.82834117455E+01  0.86429776049E+01  0.41716984462E+02  0.47787276912E+02  0.20000026751E+02 0.  0.
         12    1    1    2    0    0 -0.82834117455E+01 -0.86429776049E+01 -0.41716984462E+02  0.43400723088E+02  0.00000000000E+00 0. -1.
         11    1    3    3    0    0  0.36727105991E+01 -0.18343208051E+01  0.53166609146E+01  0.67171734757E+01  0.51100000000E-03 0. -1.
        -11    1    3    3    0    0  0.83076581665E+00 -0.39719161222E+01  0.69102383926E+01  0.80135937274E+01  0.51100000000E-03 0.  1.
         12    1    3    3    0    0  0.37799353298E+01  0.14449214532E+02  0.29490085154E+02  0.33056509709E+02  0.00000000000E+00 0. -1.
</event>
<event>
 7    1  0.1631716E-009  0.4778732E+02  0.7816164E-02  0.1312668E+00
        -11   -1    0    0    0    0  0.00000000000E+00  0.00000000000E+00  0.45593999997E+02  0.45594000000E+02  0.51100000000E-03 0.  1.
         11   -1    0    0    0    0 -0.00000000000E+00 -0.00000000000E+00 -0.45593999997E+02  0.45594000000E+02  0.51100000000E-03 0. -1.
    9900012    2    1    2    0    0 -0.10739073449E+02  0.40622319265E+02 -0.10868224619E+02  0.47787322271E+02  0.20000233559E+02 0.  0.
         12    1    1    2    0    0  0.10739073449E+02 -0.40622319265E+02  0.10868224619E+02  0.43400677729E+02  0.00000000000E+00 0. -1.
         11    1    3    3    0    0 -0.28522754583E+01  0.93307285180E+01  0.11527339741E+01  0.98248036033E+01  0.51100000000E-03 0.  1.
        -11    1    3    3    0    0 -0.61539257008E+01  0.30352260190E+02 -0.14983628277E+02  0.34404063957E+02  0.51100000000E-03 0. -1.
         12    1    3    3    0    0 -0.17328722899E+01  0.93933055695E+00  0.29626696837E+01  0.35584547100E+01  0.00000000000E+00 0. -1.
</event>
<event>
 7    1  0.2888483E-009  0.4778727E+02  0.7816164E-02  0.1312668E+00
        -11   -1    0    0    0    0  0.00000000000E+00  0.00000000000E+00  0.45593999997E+02  0.45594000000E+02  0.51100000000E-03 0. -1.
         11   -1    0    0    0    0 -0.00000000000E+00 -0.00000000000E+00 -0.45593999997E+02  0.45594000000E+02  0.51100000000E-03 0.  1.
    9900012    2    1    2    0    0  0.11383005810E+02  0.34518211379E+02 -0.23718004403E+02  0.47787268774E+02  0.19999989648E+02 0.  0.
         12    1    1    2    0    0 -0.11383005810E+02 -0.34518211379E+02  0.23718004403E+02  0.43400731226E+02  0.00000000000E+00 0. -1.
         11    1    3    3    0    0  0.39361789321E+01  0.20896619264E+01  0.51323412093E+00  0.44859336905E+01  0.51100000000E-03 0. -1.
        -11    1    3    3    0    0  0.35190182868E+01  0.12900695412E+02 -0.18013894074E+02  0.22434611916E+02  0.51100000000E-03 0.  1.
         12    1    3    3    0    0  0.39278085913E+01  0.19527854041E+02 -0.62173444492E+01  0.20866723168E+02  0.00000000000E+00 0. -1.
</event>
<event>
 7    1  0.1631716E-009  0.4778727E+02  0.7816164E-02  0.1312668E+00
        -11   -1    0    0    0    0  0.00000000000E+00  0.00000000000E+00  0.45593999997E+02  0.45594000000E+02  0.51100000000E-03 0.  1.
         11   -1    0    0    0    0 -0.00000000000E+00 -0.00000000000E+00 -0.45593999997E+02  0.45594000000E+02  0.51100000000E-03 0. -1.
    9900012    2    1    2    0    0 -0.32605782181E+02  0.85686350755E+01  0.27332483321E+02  0.47787272089E+02  0.20000004764E+02 0.  0.
         12    1    1    2    0    0  0.32605782181E+02 -0.85686350755E+01 -0.27332483321E+02  0.43400727911E+02  0.00000000000E+00 0. -1.
         11    1    3    3    0    0 -0.18357312936E+02  0.66438713346E+01  0.13353010403E+02  0.23652375179E+02  0.51100000000E-03 0.  1.
        -11    1    3    3    0    0 -0.89876943247E+01 -0.52818658535E+01  0.53309668768E+01  0.11708798584E+02  0.51100000000E-03 0. -1.
         12    1    3    3    0    0 -0.52607749202E+01  0.72066295943E+01  0.86485060412E+01  0.12426098326E+02  0.00000000000E+00 0. -1.
</event>
<event>
 7    1  0.1631716E-009  0.4778727E+02  0.7816164E-02  0.1312668E+00
        -11   -1    0    0    0    0  0.00000000000E+00  0.00000000000E+00  0.45593999997E+02  0.45594000000E+02  0.51100000000E-03 0. -1.
         11   -1    0    0    0    0 -0.00000000000E+00 -0.00000000000E+00 -0.45593999997E+02  0.45594000000E+02  0.51100000000E-03 0.  1.
    9900012    2    1    2    0    0 -0.33436550217E+02 -0.32501862436E+01 -0.27478295656E+02  0.47787270361E+02  0.19999996883E+02 0.  0.
         12    1    1    2    0    0  0.33436550217E+02  0.32501862436E+01  0.27478295656E+02  0.43400729639E+02  0.00000000000E+00 0. -1.
         11    1    3    3    0    0 -0.79023202850E+01  0.58506556986E+01 -0.66729766434E+01  0.11882990176E+02  0.51100000000E-03 0. -1.
        -11    1    3    3    0    0 -0.84901037015E+01 -0.41097294440E+01 -0.12945803661E+01  0.95209072861E+01  0.51100000000E-03 0.  1.
         12    1    3    3    0    0 -0.17044126231E+02 -0.49911124982E+01 -0.19510738647E+02  0.26383372898E+02  0.00000000000E+00 0. -1.
</event>
<event>
 7    1  0.1631716E-009  0.4778727E+02  0.7816164E-02  0.1312668E+00
        -11   -1    0    0    0    0  0.00000000000E+00  0.00000000000E+00  0.45593999997E+02  0.45594000000E+02  0.51100000000E-03 0.  1.
         11   -1    0    0    0    0 -0.00000000000E+00 -0.00000000000E+00 -0.45593999997E+02  0.45594000000E+02  0.51100000000E-03 0. -1.
    9900012    2    1    2    0    0 -0.10348236553E+02  0.32710715011E+02  0.26580935183E+02  0.47787274297E+02  0.20000014831E+02 0.  0.
         12    1    1    2    0    0  0.10348236553E+02 -0.32710715011E+02 -0.26580935183E+02  0.43400725703E+02  0.00000000000E+00 0. -1.
         11    1    3    3    0    0 -0.55780281629E+01  0.19263972172E+02  0.23006729907E+02  0.30520888639E+02  0.51100000000E-03 0. -1.
        -11    1    3    3    0    0 -0.51279501832E+01  0.22816195303E+01  0.21271319516E+01  0.60021955452E+01  0.51100000000E-03 0.  1.
         12    1    3    3    0    0  0.35774179279E+00  0.11165123309E+02  0.14470733242E+01  0.11264190113E+02  0.00000000000E+00 0. -1.
</event>
<event>
 7    1  0.2017675E-009  0.4778727E+02  0.7816164E-02  0.1312668E+00
        -11   -1    0    0    0    0  0.00000000000E+00  0.00000000000E+00  0.45593999997E+02  0.45594000000E+02  0.51100000000E-03 0. -1.
         11   -1    0    0    0    0 -0.00000000000E+00 -0.00000000000E+00 -0.45593999997E+02  0.45594000000E+02  0.51100000000E-03 0.  1.
    9900012    2    1    2    0    0  0.37713303596E+02 -0.55606126556E+01 -0.20746315044E+02  0.47787271099E+02  0.20000000250E+02 0.  0.
         12    1    1    2    0    0 -0.37713303596E+02  0.55606126556E+01  0.20746315044E+02  0.43400728901E+02  0.00000000000E+00 0. -1.
         11    1    3    3    0    0  0.50574828457E+01  0.10881742750E+01  0.25285364803E+01  0.57581032451E+01  0.51100000000E-03 0. -1.
        -11    1    3    3    0    0  0.62770220192E+01 -0.54974470107E+01 -0.78145956052E+01  0.11432009176E+02  0.51100000000E-03 0.  1.
         12    1    3    3    0    0  0.26378798731E+02 -0.11513399200E+01 -0.15460255919E+02  0.30597158678E+02  0.00000000000E+00 0. -1.
</event>
<event>
 7    1  0.1631716E-009  0.4778727E+02  0.7816164E-02  0.1312668E+00
        -11   -1    0    0    0    0  0.00000000000E+00  0.00000000000E+00  0.45593999997E+02  0.45594000000E+02  0.51100000000E-03 0.  1.
         11   -1    0    0    0    0 -0.00000000000E+00 -0.00000000000E+00 -0.45593999997E+02  0.45594000000E+02  0.51100000000E-03 0. -1.
    9900012    2    1    2    0    0  0.78740144463E+01  0.10753515074E+02  0.41303570832E+02  0.47787272432E+02  0.20000006327E+02 0.  0.
         12    1    1    2    0    0 -0.78740144463E+01 -0.10753515074E+02 -0.41303570832E+02  0.43400727568E+02  0.00000000000E+00 0. -1.
         11    1    3    3    0    0  0.60510781118E+01  0.10843806876E+01  0.83647858873E+01  0.10380803003E+02  0.51100000000E-03 0. -1.
        -11    1    3    3    0    0 -0.55999532443E+01  0.64311732276E+01  0.10353830064E+02  0.13413473177E+02  0.51100000000E-03 0.  1.
        -12    1    3    3    0    0  0.74228895788E+01  0.32379611586E+01  0.22584954881E+02  0.23992996252E+02  0.00000000000E+00 0.  1.
</event>
<event>
 7    1  0.1631716E-009  0.4778726E+02  0.7816164E-02  0.1312668E+00
        -11   -1    0    0    0    0  0.00000000000E+00  0.00000000000E+00  0.45593999997E+02  0.45594000000E+02  0.51100000000E-03 0.  1.
         11   -1    0    0    0    0 -0.00000000000E+00 -0.00000000000E+00 -0.45593999997E+02  0.45594000000E+02  0.51100000000E-03 0. -1.
    9900012    2    1    2    0    0  0.33341408129E+02  0.15805690979E+02  0.22850716181E+02  0.47787255844E+02  0.19999930696E+02 0.  0.
         12    1    1    2    0    0 -0.33341408129E+02 -0.15805690979E+02 -0.22850716181E+02  0.43400744156E+02  0.00000000000E+00 0. -1.
         11    1    3    3    0    0  0.96144237409E+01  0.47512719714E+01 -0.95088665196E+00  0.10766425354E+02  0.51100000000E-03 0. -1.
        -11    1    3    3    0    0 -0.85670345616E+00 -0.11393085913E+00  0.24478841284E+01  0.25959695721E+01  0.51100000000E-03 0.  1.
        -12    1    3    3    0    0  0.24583687844E+02  0.11168349866E+02  0.21353718704E+02  0.34424860918E+02  0.00000000000E+00 0.  1.
</event>
<event>
 7    1  0.1631716E-009  0.4778727E+02  0.7816164E-02  0.1312668E+00
        -11   -1    0    0    0    0  0.00000000000E+00  0.00000000000E+00  0.45593999997E+02  0.45594000000E+02  0.51100000000E-03 0.  1.
         11   -1    0    0    0    0 -0.00000000000E+00 -0.00000000000E+00 -0.45593999997E+02  0.45594000000E+02  0.51100000000E-03 0. -1.
    9900012    2    1    2    0    0  0.29666769861E+02 -0.99429782945E+01  0.30077285192E+02  0.47787272634E+02  0.20000007248E+02 0.  0.
         12    1    1    2    0    0 -0.29666769861E+02  0.99429782945E+01 -0.30077285192E+02  0.43400727366E+02  0.00000000000E+00 0. -1.
         11    1    3    3    0    0  0.22210116349E+01 -0.35304182931E+01 -0.63173120154E+00  0.42185104692E+01  0.51100000000E-03 0. -1.
        -11    1    3    3    0    0  0.19772229007E+02  0.70305491564E+00  0.15627918511E+02  0.25212440647E+02  0.51100000000E-03 0.  1.
         12    1    3    3    0    0  0.76735292189E+01 -0.71156149170E+01  0.15081097883E+02  0.18356321518E+02  0.00000000000E+00 0. -1.
</event>
<event>
 7    1  0.1631716E-009  0.4778727E+02  0.7816164E-02  0.1312668E+00
        -11   -1    0    0    0    0  0.00000000000E+00  0.00000000000E+00  0.45593999997E+02  0.45594000000E+02  0.51100000000E-03 0.  1.
         11   -1    0    0    0    0 -0.00000000000E+00 -0.00000000000E+00 -0.45593999997E+02  0.45594000000E+02  0.51100000000E-03 0. -1.
    9900012    2    1    2    0    0 -0.27146806564E+02 -0.22806094507E+02  0.25031111346E+02  0.47787267420E+02  0.19999983475E+02 0.  0.
         12    1    1    2    0    0  0.27146806564E+02  0.22806094507E+02 -0.25031111346E+02  0.43400732580E+02  0.00000000000E+00 0. -1.
         11    1    3    3    0    0 -0.68574129834E+01 -0.13783037942E+02  0.13752576413E+02  0.20642906917E+02  0.51100000000E-03 0. -1.
        -11    1    3    3    0    0 -0.69319955822E+01 -0.63474611395E+01 -0.92468407766E-01  0.93995412833E+01  0.51100000000E-03 0.  1.
         12    1    3    3    0    0 -0.13357397998E+02 -0.26755954253E+01  0.11371003340E+02  0.17744819219E+02  0.00000000000E+00 0. -1.
</event>
<event>
 7    1  0.1631716E-009  0.4778727E+02  0.7816164E-02  0.1312668E+00
        -11   -1    0    0    0    0  0.00000000000E+00  0.00000000000E+00  0.45593999997E+02  0.45594000000E+02  0.51100000000E-03 0.  1.
         11   -1    0    0    0    0 -0.00000000000E+00 -0.00000000000E+00 -0.45593999997E+02  0.45594000000E+02  0.51100000000E-03 0. -1.
    9900012    2    1    2    0    0 -0.28820831957E+02 -0.27047479162E+02  0.17928101450E+02  0.47787270683E+02  0.19999998351E+02 0.  0.
         12    1    1    2    0    0  0.28820831957E+02  0.27047479162E+02 -0.17928101450E+02  0.43400729317E+02  0.00000000000E+00 0. -1.
         11    1    3    3    0    0  0.17080108579E+01  0.59330921367E+00  0.33597710474E+01  0.38154133021E+01  0.51100000000E-03 0. -1.
        -11    1    3    3    0    0 -0.95251694678E+01 -0.11179381446E+02  0.67535522691E+01  0.16165329920E+02  0.51100000000E-03 0.  1.
         12    1    3    3    0    0 -0.21003673347E+02 -0.16461406929E+02  0.78147781331E+01  0.27806527461E+02  0.00000000000E+00 0. -1.
</event>
<event>
 7    1  0.1631716E-009  0.4778727E+02  0.7816164E-02  0.1312668E+00
        -11   -1    0    0    0    0  0.00000000000E+00  0.00000000000E+00  0.45593999997E+02  0.45594000000E+02  0.51100000000E-03 0. -1.
         11   -1    0    0    0    0 -0.00000000000E+00 -0.00000000000E+00 -0.45593999997E+02  0.45594000000E+02  0.51100000000E-03 0.  1.
    9900012    2    1    2    0    0 -0.29574099227E+02  0.14048143880E+01 -0.31733622760E+02  0.47787266573E+02  0.19999979613E+02 0.  0.
         12    1    1    2    0    0  0.29574099227E+02 -0.14048143880E+01  0.31733622760E+02  0.43400733427E+02  0.00000000000E+00 0. -1.
         11    1    3    3    0    0 -0.90786828439E+01 -0.42431035111E+01 -0.16675295496E+02  0.19454868021E+02  0.51100000000E-03 0. -1.
        -11    1    3    3    0    0 -0.11759558149E+02 -0.19013161622E+01 -0.46501152936E+01  0.12787720028E+02  0.51100000000E-03 0.  1.
        -12    1    3    3    0    0 -0.87358582336E+01  0.75492340613E+01 -0.10408211971E+02  0.15544678524E+02  0.00000000000E+00 0.  1.
</event>
<event>
 7    1  0.1631716E-009  0.4778728E+02  0.7816164E-02  0.1312668E+00
        -11   -1    0    0    0    0  0.00000000000E+00  0.00000000000E+00  0.45593999997E+02  0.45594000000E+02  0.51100000000E-03 0. -1.
         11   -1    0    0    0    0 -0.00000000000E+00 -0.00000000000E+00 -0.45593999997E+02  0.45594000000E+02  0.51100000000E-03 0.  1.
    9900012    2    1    2    0    0  0.10213569426E+02 -0.42087846924E+02  0.28140489484E+01  0.47787277304E+02  0.20000028538E+02 0.  0.
         12    1    1    2    0    0 -0.10213569426E+02  0.42087846924E+02 -0.28140489484E+01  0.43400722696E+02  0.00000000000E+00 0. -1.
         11    1    3    3    0    0  0.38781941514E+01 -0.10743930438E+02  0.66629919070E+01  0.13223762420E+02  0.51100000000E-03 0. -1.
        -11    1    3    3    0    0  0.76730215840E+01 -0.98188729748E+01  0.85235235438E+00  0.12490477634E+02  0.51100000000E-03 0.  1.
         12    1    3    3    0    0 -0.13376463098E+01 -0.21525043511E+02 -0.47012953130E+01  0.22073037249E+02  0.00000000000E+00 0. -1.
</event>
<event>
 7    1  0.1631716E-009  0.4778727E+02  0.7816164E-02  0.1312668E+00
        -11   -1    0    0    0    0  0.00000000000E+00  0.00000000000E+00  0.45593999997E+02  0.45594000000E+02  0.51100000000E-03 0. -1.
         11   -1    0    0    0    0 -0.00000000000E+00 -0.00000000000E+00 -0.45593999997E+02  0.45594000000E+02  0.51100000000E-03 0.  1.
    9900012    2    1    2    0    0  0.17459526801E+02 -0.18550179706E+02 -0.35137997269E+02  0.47787273102E+02  0.20000009381E+02 0.  0.
         12    1    1    2    0    0 -0.17459526801E+02  0.18550179706E+02  0.35137997269E+02  0.43400726898E+02  0.00000000000E+00 0. -1.
         11    1    3    3    0    0  0.11468451453E+02 -0.10572420121E+01 -0.97743068135E+01  0.15105635152E+02  0.51100000000E-03 0. -1.
        -11    1    3    3    0    0  0.56370446895E+00 -0.34939564457E+01 -0.12236210590E+02  0.12737752715E+02  0.51100000000E-03 0.  1.
        -12    1    3    3    0    0  0.54273708792E+01 -0.13998981248E+02 -0.13127479866E+02  0.19943885235E+02  0.00000000000E+00 0.  1.
</event>
<event>
 7    1  0.1631716E-009  0.4778727E+02  0.7816164E-02  0.1312668E+00
        -11   -1    0    0    0    0  0.00000000000E+00  0.00000000000E+00  0.45593999997E+02  0.45594000000E+02  0.51100000000E-03 0. -1.
         11   -1    0    0    0    0 -0.00000000000E+00 -0.00000000000E+00 -0.45593999997E+02  0.45594000000E+02  0.51100000000E-03 0.  1.
    9900012    2    1    2    0    0  0.13343553546E+02  0.37664450817E+02 -0.16939951811E+02  0.47787271390E+02  0.20000001575E+02 0.  0.
         12    1    1    2    0    0 -0.13343553546E+02 -0.37664450817E+02  0.16939951811E+02  0.43400728610E+02  0.00000000000E+00 0. -1.
         11    1    3    3    0    0 -0.12311225570E+01  0.25313013897E+01  0.31204951786E+01  0.42024564122E+01  0.51100000000E-03 0. -1.
        -11    1    3    3    0    0  0.90172818049E+01  0.14106827541E+02 -0.10949633957E+02  0.20005210283E+02  0.51100000000E-03 0.  1.
        -12    1    3    3    0    0  0.55573942981E+01  0.21026321886E+02 -0.91108130324E+01  0.23579604695E+02  0.00000000000E+00 0.  1.
</event>
<event>
 7    1  0.1631716E-009  0.4778727E+02  0.7816164E-02  0.1312668E+00
        -11   -1    0    0    0    0  0.00000000000E+00  0.00000000000E+00  0.45593999997E+02  0.45594000000E+02  0.51100000000E-03 0. -1.
         11   -1    0    0    0    0 -0.00000000000E+00 -0.00000000000E+00 -0.45593999997E+02  0.45594000000E+02  0.51100000000E-03 0.  1.
    9900012    2    1    2    0    0  0.19167765862E+02 -0.24694849841E+02 -0.30106223811E+02  0.47787267645E+02  0.19999984499E+02 0.  0.
         12    1    1    2    0    0 -0.19167765862E+02  0.24694849841E+02  0.30106223811E+02  0.43400732355E+02  0.00000000000E+00 0. -1.
         11    1    3    3    0    0  0.10428096507E+02 -0.13567302087E+02 -0.17460024752E+02  0.24447276889E+02  0.51100000000E-03 0. -1.
        -11    1    3    3    0    0  0.64271093658E+01 -0.82012067702E+01 -0.15477014163E+02  0.18657585454E+02  0.51100000000E-03 0.  1.
         12    1    3    3    0    0  0.23125599896E+01 -0.29263409840E+01  0.28308151044E+01  0.46824053024E+01  0.00000000000E+00 0. -1.
</event>
<event>
 7    1  0.1631716E-009  0.4778727E+02  0.7816164E-02  0.1312668E+00
        -11   -1    0    0    0    0  0.00000000000E+00  0.00000000000E+00  0.45593999997E+02  0.45594000000E+02  0.51100000000E-03 0.  1.
         11   -1    0    0    0    0 -0.00000000000E+00 -0.00000000000E+00 -0.45593999997E+02  0.45594000000E+02  0.51100000000E-03 0. -1.
    9900012    2    1    2    0    0  0.42477194609E+02  0.87263767618E+01 -0.17781385613E+01  0.47787268555E+02  0.19999988648E+02 0.  0.
         12    1    1    2    0    0 -0.42477194609E+02 -0.87263767618E+01  0.17781385613E+01  0.43400731445E+02  0.00000000000E+00 0. -1.
         11    1    3    3    0    0  0.37741915702E+02  0.42943350716E+01 -0.52801773900E+01  0.38350668679E+02  0.51100000000E-03 0.  1.
        -11    1    3    3    0    0  0.20041930523E+00  0.16195126133E+01 -0.14303384272E+01  0.21699901566E+01  0.51100000000E-03 0. -1.
        -12    1    3    3    0    0  0.45348596017E+01  0.28125290769E+01  0.49323772559E+01  0.72666097192E+01  0.00000000000E+00 0.  1.
</event>
<event>
 7    1  0.1631716E-009  0.4778726E+02  0.7816164E-02  0.1312668E+00
        -11   -1    0    0    0    0  0.00000000000E+00  0.00000000000E+00  0.45593999997E+02  0.45594000000E+02  0.51100000000E-03 0.  1.
         11   -1    0    0    0    0 -0.00000000000E+00 -0.00000000000E+00 -0.45593999997E+02  0.45594000000E+02  0.51100000000E-03 0. -1.
    9900012    2    1    2    0    0 -0.13654935640E+02  0.91507755273E+00  0.41186521561E+02  0.47787260461E+02  0.19999951745E+02 0.  0.
         12    1    1    2    0    0  0.13654935640E+02 -0.91507755273E+00 -0.41186521561E+02  0.43400739539E+02  0.00000000000E+00 0. -1.
         11    1    3    3    0    0 -0.19079038942E+01  0.87165578470E+01  0.16737410103E+02  0.18967323881E+02  0.51100000000E-03 0. -1.
        -11    1    3    3    0    0 -0.57834713588E+01 -0.19499721174E+01  0.59597200619E+01  0.85304862519E+01  0.51100000000E-03 0.  1.
         12    1    3    3    0    0 -0.59635603871E+01 -0.58515081769E+01  0.18489391396E+02  0.20289450328E+02  0.00000000000E+00 0. -1.
</event>
<event>
 7    1  0.1631716E-009  0.4778727E+02  0.7816164E-02  0.1312668E+00
        -11   -1    0    0    0    0  0.00000000000E+00  0.00000000000E+00  0.45593999997E+02  0.45594000000E+02  0.51100000000E-03 0.  1.
         11   -1    0    0    0    0 -0.00000000000E+00 -0.00000000000E+00 -0.45593999997E+02  0.45594000000E+02  0.51100000000E-03 0. -1.
    9900012    2    1    2    0    0  0.10549995799E+02  0.15180294392E+02  0.39266774461E+02  0.47787270447E+02  0.19999997276E+02 0.  0.
         12    1    1    2    0    0 -0.10549995799E+02 -0.15180294392E+02 -0.39266774461E+02  0.43400729553E+02  0.00000000000E+00 0. -1.
         11    1    3    3    0    0  0.77200849521E+01  0.46479755984E+00  0.13841843925E+02  0.15855989150E+02  0.51100000000E-03 0. -1.
        -11    1    3    3    0    0  0.66505780875E+01  0.11801793592E+02  0.13730928710E+02  0.19288621631E+02  0.51100000000E-03 0.  1.
         12    1    3    3    0    0 -0.38206672407E+01  0.29137032394E+01  0.11694001826E+02  0.12642659666E+02  0.00000000000E+00 0. -1.
</event>
<event>
 7    1  0.1631716E-009  0.4778727E+02  0.7816164E-02  0.1312668E+00
        -11   -1    0    0    0    0  0.00000000000E+00  0.00000000000E+00  0.45593999997E+02  0.45594000000E+02  0.51100000000E-03 0. -1.
         11   -1    0    0    0    0 -0.00000000000E+00 -0.00000000000E+00 -0.45593999997E+02  0.45594000000E+02  0.51100000000E-03 0.  1.
    9900012    2    1    2    0    0  0.42523766583E+02  0.50949520505E+01  0.70280785191E+01  0.47787272489E+02  0.20000006587E+02 0.  0.
         12    1    1    2    0    0 -0.42523766583E+02 -0.50949520505E+01 -0.70280785191E+01  0.43400727511E+02  0.00000000000E+00 0. -1.
         11    1    3    3    0    0 -0.11378930720E+00 -0.14958294927E+01  0.68642810127E+00  0.16497386693E+01  0.51100000000E-03 0. -1.
        -11    1    3    3    0    0  0.34708720465E+02  0.19424552177E+01 -0.35643533129E+00  0.34764859484E+02  0.51100000000E-03 0.  1.
        -12    1    3    3    0    0  0.79288354255E+01  0.46483263255E+01  0.66980857491E+01  0.11372674335E+02  0.00000000000E+00 0.  1.
</event>
<event>
 7    1  0.1631716E-009  0.4778727E+02  0.7816164E-02  0.1312668E+00
        -11   -1    0    0    0    0  0.00000000000E+00  0.00000000000E+00  0.45593999997E+02  0.45594000000E+02  0.51100000000E-03 0. -1.
         11   -1    0    0    0    0 -0.00000000000E+00 -0.00000000000E+00 -0.45593999997E+02  0.45594000000E+02  0.51100000000E-03 0.  1.
    9900012    2    1    2    0    0 -0.17716913350E+02 -0.35715323349E+02 -0.17150799349E+02  0.47787271217E+02  0.20000000785E+02 0.  0.
         12    1    1    2    0    0  0.17716913350E+02  0.35715323349E+02  0.17150799349E+02  0.43400728783E+02  0.00000000000E+00 0. -1.
         11    1    3    3    0    0 -0.86903586501E+01 -0.22867554160E+02 -0.13479210308E+02  0.27930923320E+02  0.51100000000E-03 0. -1.
        -11    1    3    3    0    0 -0.50387091936E+01 -0.12097221916E+02  0.16020713023E+01  0.13202196831E+02  0.51100000000E-03 0.  1.
         12    1    3    3    0    0 -0.39878455063E+01 -0.75054727303E+00 -0.52736603435E+01  0.66541510661E+01  0.00000000000E+00 0. -1.
</event>
<event>
 7    1  0.1631716E-009  0.4778727E+02  0.7816164E-02  0.1312668E+00
        -11   -1    0    0    0    0  0.00000000000E+00  0.00000000000E+00  0.45593999997E+02  0.45594000000E+02  0.51100000000E-03 0.  1.
         11   -1    0    0    0    0 -0.00000000000E+00 -0.00000000000E+00 -0.45593999997E+02  0.45594000000E+02  0.51100000000E-03 0. -1.
    9900012    2    1    2    0    0 -0.14147378280E+02  0.29636159042E+02  0.28375575022E+02  0.47787268523E+02  0.19999988502E+02 0.  0.
         12    1    1    2    0    0  0.14147378280E+02 -0.29636159042E+02 -0.28375575022E+02  0.43400731477E+02  0.00000000000E+00 0. -1.
         11    1    3    3    0    0 -0.65358363665E+01  0.79453045628E+01  0.13288158055E+02  0.16805361239E+02  0.51100000000E-03 0. -1.
        -11    1    3    3    0    0 -0.22310628301E+01  0.76765760328E+01  0.13757437131E+02  0.15911459318E+02  0.51100000000E-03 0.  1.
         12    1    3    3    0    0 -0.53804790835E+01  0.14014278446E+02  0.13299798354E+01  0.15070447966E+02  0.00000000000E+00 0. -1.
</event>
<event>
 7    1  0.1631716E-009  0.4778727E+02  0.7816164E-02  0.1312668E+00
        -11   -1    0    0    0    0  0.00000000000E+00  0.00000000000E+00  0.45593999997E+02  0.45594000000E+02  0.51100000000E-03 0. -1.
         11   -1    0    0    0    0 -0.00000000000E+00 -0.00000000000E+00 -0.45593999997E+02  0.45594000000E+02  0.51100000000E-03 0.  1.
    9900012    2    1    2    0    0 -0.17224435882E+02 -0.39107448407E+02  0.75861290632E+01  0.47787273433E+02  0.20000010892E+02 0.  0.
         12    1    1    2    0    0  0.17224435882E+02  0.39107448407E+02 -0.75861290632E+01  0.43400726567E+02  0.00000000000E+00 0. -1.
         11    1    3    3    0    0 -0.20148321170E+01 -0.12296563921E+02  0.10813825144E+01  0.12507374669E+02  0.51100000000E-03 0. -1.
        -11    1    3    3    0    0 -0.87842276815E-01 -0.95653520367E+01 -0.35941631922E+01  0.10218692928E+02  0.51100000000E-03 0.  1.
         12    1    3    3    0    0 -0.15121761488E+02 -0.17245532450E+02  0.10098909741E+02  0.25061205835E+02  0.00000000000E+00 0. -1.
</event>
<event>
 7    1  0.1631716E-009  0.4778727E+02  0.7816164E-02  0.1312668E+00
        -11   -1    0    0    0    0  0.00000000000E+00  0.00000000000E+00  0.45593999997E+02  0.45594000000E+02  0.51100000000E-03 0.  1.
         11   -1    0    0    0    0 -0.00000000000E+00 -0.00000000000E+00 -0.45593999997E+02  0.45594000000E+02  0.51100000000E-03 0. -1.
    9900012    2    1    2    0    0 -0.23896672951E+02 -0.26554595284E+02  0.24646014228E+02  0.47787268138E+02  0.19999986749E+02 0.  0.
         12    1    1    2    0    0  0.23896672951E+02  0.26554595284E+02 -0.24646014228E+02  0.43400731862E+02  0.00000000000E+00 0. -1.
         11    1    3    3    0    0 -0.14927208051E+02 -0.15337287873E+02  0.10287786367E+02  0.23746420532E+02  0.51100000000E-03 0. -1.
        -11    1    3    3    0    0 -0.29746467730E+00 -0.22979197691E+01 -0.22902246588E+01  0.32579210777E+01  0.51100000000E-03 0.  1.
        -12    1    3    3    0    0 -0.86720002228E+01 -0.89193876412E+01  0.16648452520E+02  0.20782926528E+02  0.00000000000E+00 0.  1.
</event>
<event>
 7    1  0.1631716E-009  0.4778728E+02  0.7816164E-02  0.1312668E+00
        -11   -1    0    0    0    0  0.00000000000E+00  0.00000000000E+00  0.45593999997E+02  0.45594000000E+02  0.51100000000E-03 0.  1.
         11   -1    0    0    0    0 -0.00000000000E+00 -0.00000000000E+00 -0.45593999997E+02  0.45594000000E+02  0.51100000000E-03 0. -1.
    9900012    2    1    2    0    0 -0.41699249228E+02  0.67223848081E+01 -0.99802252430E+01  0.47787277199E+02  0.20000028063E+02 0.  0.
         12    1    1    2    0    0  0.41699249228E+02 -0.67223848081E+01  0.99802252430E+01  0.43400722801E+02  0.00000000000E+00 0. -1.
         11    1    3    3    0    0 -0.90486955996E+01 -0.39168647501E+01 -0.66886336623E+01  0.11914635624E+02  0.51100000000E-03 0. -1.
        -11    1    3    3    0    0 -0.10541426104E+02  0.83021909833E+01 -0.23343671982E+01  0.13619739715E+02  0.51100000000E-03 0.  1.
        -12    1    3    3    0    0 -0.22109127524E+02  0.23370585750E+01 -0.95722438248E+00  0.22252901860E+02  0.00000000000E+00 0.  1.
</event>
<event>
 7    1  0.1631716E-009  0.4778728E+02  0.7816164E-02  0.1312668E+00
        -11   -1    0    0    0    0  0.00000000000E+00  0.00000000000E+00  0.45593999997E+02  0.45594000000E+02  0.51100000000E-03 0.  1.
         11   -1    0    0    0    0 -0.00000000000E+00 -0.00000000000E+00 -0.45593999997E+02  0.45594000000E+02  0.51100000000E-03 0. -1.
    9900012    2    1    2    0    0 -0.42705325416E+02  0.56521494202E+01  0.52850066931E+01  0.47787275263E+02  0.20000019232E+02 0.  0.
         12    1    1    2    0    0  0.42705325416E+02 -0.56521494202E+01 -0.52850066931E+01  0.43400724737E+02  0.00000000000E+00 0. -1.
         11    1    3    3    0    0 -0.27498329470E+02  0.32540696859E+01  0.73600582470E+00  0.27699978303E+02  0.51100000000E-03 0. -1.
        -11    1    3    3    0    0 -0.11061197455E+02 -0.27575259013E+00  0.83481844657E+01  0.13860675048E+02  0.51100000000E-03 0.  1.
        -12    1    3    3    0    0 -0.41457984912E+01  0.26738323245E+01 -0.37991835973E+01  0.62266219120E+01  0.00000000000E+00 0.  1.
</event>
<event>
 7    1  0.1631716E-009  0.4778728E+02  0.7816164E-02  0.1312668E+00
        -11   -1    0    0    0    0  0.00000000000E+00  0.00000000000E+00  0.45593999997E+02  0.45594000000E+02  0.51100000000E-03 0.  1.
         11   -1    0    0    0    0 -0.00000000000E+00 -0.00000000000E+00 -0.45593999997E+02  0.45594000000E+02  0.51100000000E-03 0. -1.
    9900012    2    1    2    0    0 -0.19018199915E+02 -0.28442712279E+02  0.26700991359E+02  0.47787277087E+02  0.20000027549E+02 0.  0.
         12    1    1    2    0    0  0.19018199915E+02  0.28442712279E+02 -0.26700991359E+02  0.43400722913E+02  0.00000000000E+00 0. -1.
         11    1    3    3    0    0 -0.13375607613E+02 -0.12812646555E+02  0.11455618498E+02  0.21778475295E+02  0.51100000000E-03 0.  1.
        -11    1    3    3    0    0  0.14912880809E+00  0.22581546482E+01  0.14393396069E+01  0.26820142769E+01  0.51100000000E-03 0. -1.
         12    1    3    3    0    0 -0.57917211103E+01 -0.17888220372E+02  0.13806033255E+02  0.23326787514E+02  0.00000000000E+00 0. -1.
</event>
<event>
 7    1  0.1631716E-009  0.4778727E+02  0.7816164E-02  0.1312668E+00
        -11   -1    0    0    0    0  0.00000000000E+00  0.00000000000E+00  0.45593999997E+02  0.45594000000E+02  0.51100000000E-03 0.  1.
         11   -1    0    0    0    0 -0.00000000000E+00 -0.00000000000E+00 -0.45593999997E+02  0.45594000000E+02  0.51100000000E-03 0. -1.
    9900012    2    1    2    0    0 -0.23740223667E+02  0.29581101186E+02  0.21094634827E+02  0.47787269757E+02  0.19999994130E+02 0.  0.
         12    1    1    2    0    0  0.23740223667E+02 -0.29581101186E+02 -0.21094634827E+02  0.43400730243E+02  0.00000000000E+00 0. -1.
         11    1    3    3    0    0 -0.12163652134E+02  0.36679388331E+01  0.54791889993E+01  0.13835812982E+02  0.51100000000E-03 0. -1.
        -11    1    3    3    0    0  0.14156437001E+01  0.34479720130E+01  0.41556577308E+01  0.55822978713E+01  0.51100000000E-03 0.  1.
        -12    1    3    3    0    0 -0.12992215233E+02  0.22465190340E+02  0.11459788097E+02  0.28369158904E+02  0.00000000000E+00 0.  1.
</event>
<event>
 7    1  0.1631716E-009  0.4778727E+02  0.7816164E-02  0.1312668E+00
        -11   -1    0    0    0    0  0.00000000000E+00  0.00000000000E+00  0.45593999997E+02  0.45594000000E+02  0.51100000000E-03 0.  1.
         11   -1    0    0    0    0 -0.00000000000E+00 -0.00000000000E+00 -0.45593999997E+02  0.45594000000E+02  0.51100000000E-03 0. -1.
    9900012    2    1    2    0    0 -0.26349283132E+02  0.15114094587E+02  0.30998429996E+02  0.47787271447E+02  0.20000001835E+02 0.  0.
         12    1    1    2    0    0  0.26349283132E+02 -0.15114094587E+02 -0.30998429996E+02  0.43400728553E+02  0.00000000000E+00 0. -1.
         11    1    3    3    0    0 -0.99353138555E+00  0.29659719413E+01 -0.52742126239E+00  0.31721077566E+01  0.51100000000E-03 0. -1.
        -11    1    3    3    0    0 -0.15929030950E+02  0.42042965957E+01  0.26706505201E+02  0.31379094270E+02  0.51100000000E-03 0.  1.
        -12    1    3    3    0    0 -0.94267207958E+01  0.79438260502E+01  0.48193460569E+01  0.13236069420E+02  0.00000000000E+00 0.  1.
</event>
<event>
 7    1  0.1631716E-009  0.4778727E+02  0.7816164E-02  0.1312668E+00
        -11   -1    0    0    0    0  0.00000000000E+00  0.00000000000E+00  0.45593999997E+02  0.45594000000E+02  0.51100000000E-03 0. -1.
         11   -1    0    0    0    0 -0.00000000000E+00 -0.00000000000E+00 -0.45593999997E+02  0.45594000000E+02  0.51100000000E-03 0.  1.
    9900012    2    1    2    0    0  0.40001041068E+02  0.10581632707E+02 -0.13098435976E+02  0.47787271178E+02  0.20000000609E+02 0.  0.
         12    1    1    2    0    0 -0.40001041068E+02 -0.10581632707E+02  0.13098435976E+02  0.43400728822E+02  0.00000000000E+00 0. -1.
         11    1    3    3    0    0 -0.57016898580E+00  0.89365408099E+00 -0.23656047328E+01  0.25922569899E+01  0.51100000000E-03 0. -1.
        -11    1    3    3    0    0  0.96989413030E+01  0.72952349478E+01 -0.69884668262E+01  0.14004591539E+02  0.51100000000E-03 0.  1.
        -12    1    3    3    0    0  0.30872268751E+02  0.23927436782E+01 -0.37443644166E+01  0.31190422649E+02  0.00000000000E+00 0.  1.
</event>
<event>
 7    1  0.1631716E-009  0.4778727E+02  0.7816164E-02  0.1312668E+00
        -11   -1    0    0    0    0  0.00000000000E+00  0.00000000000E+00  0.45593999997E+02  0.45594000000E+02  0.51100000000E-03 0. -1.
         11   -1    0    0    0    0 -0.00000000000E+00 -0.00000000000E+00 -0.45593999997E+02  0.45594000000E+02  0.51100000000E-03 0.  1.
    9900012    2    1    2    0    0 -0.56696113497E+01  0.40194500321E+02 -0.15358425267E+02  0.47787267569E+02  0.19999984153E+02 0.  0.
         12    1    1    2    0    0  0.56696113497E+01 -0.40194500321E+02  0.15358425267E+02  0.43400732431E+02  0.00000000000E+00 0. -1.
         11    1    3    3    0    0 -0.30016798777E+01  0.55143499511E+01  0.92798276723E+00  0.63465967060E+01  0.51100000000E-03 0. -1.
        -11    1    3    3    0    0 -0.19122800702E+01  0.33531005455E+02 -0.18862922574E+02  0.38520059582E+02  0.51100000000E-03 0.  1.
        -12    1    3    3    0    0 -0.75565140174E+00  0.11491449143E+01  0.25765145404E+01  0.29206112805E+01  0.00000000000E+00 0.  1.
</event>
<event>
 7    1  0.1631716E-009  0.4778726E+02  0.7816164E-02  0.1312668E+00
        -11   -1    0    0    0    0  0.00000000000E+00  0.00000000000E+00  0.45593999997E+02  0.45594000000E+02  0.51100000000E-03 0.  1.
         11   -1    0    0    0    0 -0.00000000000E+00 -0.00000000000E+00 -0.45593999997E+02  0.45594000000E+02  0.51100000000E-03 0. -1.
    9900012    2    1    2    0    0  0.29722313017E+02  0.24000997717E+02  0.20595149724E+02  0.47787262971E+02  0.19999963191E+02 0.  0.
         12    1    1    2    0    0 -0.29722313017E+02 -0.24000997717E+02 -0.20595149724E+02  0.43400737029E+02  0.00000000000E+00 0. -1.
         11    1    3    3    0    0  0.17426304904E+00 -0.13756142240E-01  0.94159539007E+00  0.95768417625E+00  0.51100000000E-03 0. -1.
        -11    1    3    3    0    0  0.51273118203E+01  0.15297592607E+02  0.10862612889E+02  0.19449987792E+02  0.51100000000E-03 0.  1.
         12    1    3    3    0    0  0.24420738148E+02  0.87171612516E+01  0.87909414447E+01  0.27379591002E+02  0.00000000000E+00 0. -1.
</event>
<event>
 7    1  0.1631716E-009  0.4778727E+02  0.7816164E-02  0.1312668E+00
        -11   -1    0    0    0    0  0.00000000000E+00  0.00000000000E+00  0.45593999997E+02  0.45594000000E+02  0.51100000000E-03 0.  1.
         11   -1    0    0    0    0 -0.00000000000E+00 -0.00000000000E+00 -0.45593999997E+02  0.45594000000E+02  0.51100000000E-03 0. -1.
    9900012    2    1    2    0    0  0.18225344806E+02  0.79124061308E+01  0.38585671249E+02  0.47787269709E+02  0.19999993912E+02 0.  0.
         12    1    1    2    0    0 -0.18225344806E+02 -0.79124061308E+01 -0.38585671249E+02  0.43400730291E+02  0.00000000000E+00 0. -1.
         11    1    3    3    0    0  0.64470356136E+00  0.29557223687E+01 -0.67868600634E-01  0.30259781577E+01  0.51100000000E-03 0. -1.
        -11    1    3    3    0    0  0.46050027033E+01  0.91942829769E+00  0.25218389574E+02  0.25651872666E+02  0.51100000000E-03 0.  1.
         12    1    3    3    0    0  0.12975638541E+02  0.40372554644E+01  0.13435150275E+02  0.19109418886E+02  0.00000000000E+00 0. -1.
</event>
<event>
 7    1  0.1631716E-009  0.4778727E+02  0.7816164E-02  0.1312668E+00
        -11   -1    0    0    0    0  0.00000000000E+00  0.00000000000E+00  0.45593999997E+02  0.45594000000E+02  0.51100000000E-03 0. -1.
         11   -1    0    0    0    0 -0.00000000000E+00 -0.00000000000E+00 -0.45593999997E+02  0.45594000000E+02  0.51100000000E-03 0.  1.
    9900012    2    1    2    0    0 -0.25686772210E+02 -0.31747109942E+02  0.14694683093E+02  0.47787274575E+02  0.20000016096E+02 0.  0.
         12    1    1    2    0    0  0.25686772210E+02  0.31747109942E+02 -0.14694683093E+02  0.43400725425E+02  0.00000000000E+00 0. -1.
         11    1    3    3    0    0 -0.26032000476E+01  0.24288258633E+00  0.48676505524E+01  0.55253655626E+01  0.51100000000E-03 0. -1.
        -11    1    3    3    0    0 -0.45713693517E+01 -0.36193717115E+01 -0.23178433424E+01  0.62745252694E+01  0.51100000000E-03 0.  1.
        -12    1    3    3    0    0 -0.18512202811E+02 -0.28370620817E+02  0.12144875883E+02  0.35987383743E+02  0.00000000000E+00 0.  1.
</event>
<event>
 7    1  0.1631716E-009  0.4778727E+02  0.7816164E-02  0.1312668E+00
        -11   -1    0    0    0    0  0.00000000000E+00  0.00000000000E+00  0.45593999997E+02  0.45594000000E+02  0.51100000000E-03 0. -1.
         11   -1    0    0    0    0 -0.00000000000E+00 -0.00000000000E+00 -0.45593999997E+02  0.45594000000E+02  0.51100000000E-03 0.  1.
    9900012    2    1    2    0    0  0.33638279512E+02 -0.25323148021E+02  0.10527467231E+02  0.47787271428E+02  0.20000001751E+02 0.  0.
         12    1    1    2    0    0 -0.33638279512E+02  0.25323148021E+02 -0.10527467231E+02  0.43400728572E+02  0.00000000000E+00 0. -1.
         11    1    3    3    0    0  0.86774471115E+01 -0.10006426678E+02  0.33774292072E+01  0.13668712139E+02  0.51100000000E-03 0. -1.
        -11    1    3    3    0    0  0.23990646227E+02 -0.16543440236E+02  0.25419808918E+01  0.29252319367E+02  0.51100000000E-03 0.  1.
         12    1    3    3    0    0  0.97018617377E+00  0.12267188928E+01  0.46080571315E+01  0.48662399223E+01  0.00000000000E+00 0. -1.
</event>
<event>
 7    1  0.1631716E-009  0.4778727E+02  0.7816164E-02  0.1312668E+00
        -11   -1    0    0    0    0  0.00000000000E+00  0.00000000000E+00  0.45593999997E+02  0.45594000000E+02  0.51100000000E-03 0. -1.
         11   -1    0    0    0    0 -0.00000000000E+00 -0.00000000000E+00 -0.45593999997E+02  0.45594000000E+02  0.51100000000E-03 0.  1.
    9900012    2    1    2    0    0  0.12013057582E+02 -0.17092966113E+02 -0.38041297790E+02  0.47787269815E+02  0.19999994396E+02 0.  0.
         12    1    1    2    0    0 -0.12013057582E+02  0.17092966113E+02  0.38041297790E+02  0.43400730185E+02  0.00000000000E+00 0. -1.
         11    1    3    3    0    0  0.23090479607E+01 -0.89525524946E+01 -0.93537897699E+01  0.13151930732E+02  0.51100000000E-03 0. -1.
        -11    1    3    3    0    0  0.23547803660E+01 -0.31013136393E+01 -0.24468019726E+02  0.24775938457E+02  0.51100000000E-03 0.  1.
        -12    1    3    3    0    0  0.73492292554E+01 -0.50390999793E+01 -0.42194882944E+01  0.98594006267E+01  0.00000000000E+00 0.  1.
</event>
<event>
 7    1  0.1631716E-009  0.4778727E+02  0.7816164E-02  0.1312668E+00
        -11   -1    0    0    0    0  0.00000000000E+00  0.00000000000E+00  0.45593999997E+02  0.45594000000E+02  0.51100000000E-03 0. -1.
         11   -1    0    0    0    0 -0.00000000000E+00 -0.00000000000E+00 -0.45593999997E+02  0.45594000000E+02  0.51100000000E-03 0.  1.
    9900012    2    1    2    0    0  0.32349994723E+02  0.16119902790E+02 -0.24026021466E+02  0.47787272679E+02  0.20000007451E+02 0.  0.
         12    1    1    2    0    0 -0.32349994723E+02 -0.16119902790E+02  0.24026021466E+02  0.43400727321E+02  0.00000000000E+00 0. -1.
         11    1    3    3    0    0  0.51143699355E+01  0.72732205443E+01 -0.54160487298E-01  0.88915381427E+01  0.51100000000E-03 0. -1.
        -11    1    3    3    0    0  0.17124304232E+02  0.23203387644E+01 -0.83965789609E+01  0.19212712092E+02  0.51100000000E-03 0.  1.
         12    1    3    3    0    0  0.10111320556E+02  0.65263434812E+01 -0.15575282018E+02  0.19683022444E+02  0.00000000000E+00 0. -1.
</event>
<event>
 7    1  0.1937355E-009  0.4778728E+02  0.7816164E-02  0.1312668E+00
        -11   -1    0    0    0    0  0.00000000000E+00  0.00000000000E+00  0.45593999997E+02  0.45594000000E+02  0.51100000000E-03 0. -1.
         11   -1    0    0    0    0 -0.00000000000E+00 -0.00000000000E+00 -0.45593999997E+02  0.45594000000E+02  0.51100000000E-03 0.  1.
    9900012    2    1    2    0    0  0.31720044827E+02  0.23681521762E+02 -0.17794577936E+02  0.47787277417E+02  0.20000029054E+02 0.  0.
         12    1    1    2    0    0 -0.31720044827E+02 -0.23681521762E+02  0.17794577936E+02  0.43400722583E+02  0.00000000000E+00 0. -1.
         11    1    3    3    0    0  0.68883141314E+01  0.75461821481E+01  0.14527754373E+01  0.10320091730E+02  0.51100000000E-03 0. -1.
        -11    1    3    3    0    0  0.26251205909E+02  0.15557817453E+02 -0.17642198456E+02  0.35247959688E+02  0.51100000000E-03 0.  1.
         12    1    3    3    0    0 -0.14194752125E+01  0.57752216065E+00 -0.16051549168E+01  0.22192259983E+01  0.00000000000E+00 0. -1.
</event>
<event>
 7    1  0.1631716E-009  0.4778727E+02  0.7816164E-02  0.1312668E+00
        -11   -1    0    0    0    0  0.00000000000E+00  0.00000000000E+00  0.45593999997E+02  0.45594000000E+02  0.51100000000E-03 0. -1.
         11   -1    0    0    0    0 -0.00000000000E+00 -0.00000000000E+00 -0.45593999997E+02  0.45594000000E+02  0.51100000000E-03 0.  1.
    9900012    2    1    2    0    0  0.25026859170E+02 -0.95121342808E+01 -0.34158434348E+02  0.47787274020E+02  0.20000013566E+02 0.  0.
         12    1    1    2    0    0 -0.25026859170E+02  0.95121342808E+01  0.34158434348E+02  0.43400725980E+02  0.00000000000E+00 0. -1.
         11    1    3    3    0    0  0.74260553242E+00  0.42143670095E+01 -0.94778463251E+01  0.10399130901E+02  0.51100000000E-03 0. -1.
        -11    1    3    3    0    0  0.79487068718E+01 -0.30420538768E+01 -0.85804582586E+01  0.12085540820E+02  0.51100000000E-03 0.  1.
         12    1    3    3    0    0  0.16335546766E+02 -0.10684447413E+02 -0.16100129764E+02  0.25302602299E+02  0.00000000000E+00 0. -1.
</event>
<event>
 7    1  0.1631716E-009  0.4778728E+02  0.7816164E-02  0.1312668E+00
        -11   -1    0    0    0    0  0.00000000000E+00  0.00000000000E+00  0.45593999997E+02  0.45594000000E+02  0.51100000000E-03 0. -1.
         11   -1    0    0    0    0 -0.00000000000E+00 -0.00000000000E+00 -0.45593999997E+02  0.45594000000E+02  0.51100000000E-03 0.  1.
    9900012    2    1    2    0    0  0.27308802975E+02  0.40759647908E+00 -0.33729599516E+02  0.47787277214E+02  0.20000028129E+02 0.  0.
         12    1    1    2    0    0 -0.27308802975E+02 -0.40759647908E+00  0.33729599516E+02  0.43400722786E+02  0.00000000000E+00 0. -1.
         11    1    3    3    0    0  0.47368862166E+01 -0.81760593512E+01 -0.12219768657E+02  0.15446966817E+02  0.51100000000E-03 0. -1.
        -11    1    3    3    0    0  0.87095785392E+01  0.33472211453E+01 -0.84535611445E+01  0.12590605387E+02  0.51100000000E-03 0.  1.
         12    1    3    3    0    0  0.13862338220E+02  0.52364346850E+01 -0.13056269715E+02  0.19749705010E+02  0.00000000000E+00 0. -1.
</event>
<event>
 7    1  0.1631716E-009  0.4778727E+02  0.7816164E-02  0.1312668E+00
        -11   -1    0    0    0    0  0.00000000000E+00  0.00000000000E+00  0.45593999997E+02  0.45594000000E+02  0.51100000000E-03 0.  1.
         11   -1    0    0    0    0 -0.00000000000E+00 -0.00000000000E+00 -0.45593999997E+02  0.45594000000E+02  0.51100000000E-03 0. -1.
    9900012    2    1    2    0    0  0.31369204564E+02  0.24195570652E+02  0.17724862256E+02  0.47787269866E+02  0.19999994626E+02 0.  0.
         12    1    1    2    0    0 -0.31369204564E+02 -0.24195570652E+02 -0.17724862256E+02  0.43400730134E+02  0.00000000000E+00 0. -1.
         11    1    3    3    0    0 -0.11383220707E+00  0.58956389120E+01  0.68719336533E+01  0.90551084118E+01  0.51100000000E-03 0. -1.
        -11    1    3    3    0    0  0.98148889905E+01  0.20296942821E+01  0.19508579034E+01  0.10210658725E+02  0.51100000000E-03 0.  1.
        -12    1    3    3    0    0  0.21668147781E+02  0.16270237458E+02  0.89020706995E+01  0.28521502729E+02  0.00000000000E+00 0.  1.
</event>
<event>
 7    1  0.1631716E-009  0.4778727E+02  0.7816164E-02  0.1312668E+00
        -11   -1    0    0    0    0  0.00000000000E+00  0.00000000000E+00  0.45593999997E+02  0.45594000000E+02  0.51100000000E-03 0.  1.
         11   -1    0    0    0    0 -0.00000000000E+00 -0.00000000000E+00 -0.45593999997E+02  0.45594000000E+02  0.51100000000E-03 0. -1.
    9900012    2    1    2    0    0  0.39694733964E+02  0.10058930583E+02 -0.14379476192E+02  0.47787270461E+02  0.19999997339E+02 0.  0.
         12    1    1    2    0    0 -0.39694733964E+02 -0.10058930583E+02  0.14379476192E+02  0.43400729539E+02  0.00000000000E+00 0. -1.
         11    1    3    3    0    0  0.18455323996E+02 -0.49382749390E+00 -0.12549330625E+02  0.22323273702E+02  0.51100000000E-03 0. -1.
        -11    1    3    3    0    0  0.13114116263E+02  0.95194059245E+01 -0.45532663617E+01  0.16832449891E+02  0.51100000000E-03 0.  1.
        -12    1    3    3    0    0  0.81252937047E+01  0.10333521521E+01  0.27231207942E+01  0.86315468670E+01  0.00000000000E+00 0.  1.
</event>
<event>
 7    1  0.1631716E-009  0.4778729E+02  0.7816164E-02  0.1312668E+00
        -11   -1    0    0    0    0  0.00000000000E+00  0.00000000000E+00  0.45593999997E+02  0.45594000000E+02  0.51100000000E-03 0.  1.
         11   -1    0    0    0    0 -0.00000000000E+00 -0.00000000000E+00 -0.45593999997E+02  0.45594000000E+02  0.51100000000E-03 0. -1.
    9900012    2    1    2    0    0 -0.14666580316E+02 -0.60624593401E+01  0.40395043231E+02  0.47787291376E+02  0.20000092701E+02 0.  0.
         12    1    1    2    0    0  0.14666580316E+02  0.60624593401E+01 -0.40395043231E+02  0.43400708624E+02  0.00000000000E+00 0. -1.
         11    1    3    3    0    0 -0.95706290374E+01 -0.17348594063E+01  0.25860660580E+02  0.27629340260E+02  0.51100000000E-03 0.  1.
        -11    1    3    3    0    0 -0.80845424494E+01 -0.62295207155E+01  0.91176031373E+01  0.13685665574E+02  0.51100000000E-03 0. -1.
         12    1    3    3    0    0  0.29885911706E+01  0.19019207817E+01  0.54167795139E+01  0.64722855427E+01  0.00000000000E+00 0. -1.
</event>
<event>
 7    1  0.1631716E-009  0.4778727E+02  0.7816164E-02  0.1312668E+00
        -11   -1    0    0    0    0  0.00000000000E+00  0.00000000000E+00  0.45593999997E+02  0.45594000000E+02  0.51100000000E-03 0. -1.
         11   -1    0    0    0    0 -0.00000000000E+00 -0.00000000000E+00 -0.45593999997E+02  0.45594000000E+02  0.51100000000E-03 0.  1.
    9900012    2    1    2    0    0  0.33777274887E+02  0.10914100605E+02 -0.24972005362E+02  0.47787274861E+02  0.20000017401E+02 0.  0.
         12    1    1    2    0    0 -0.33777274887E+02 -0.10914100605E+02  0.24972005362E+02  0.43400725139E+02  0.00000000000E+00 0. -1.
         11    1    3    3    0    0  0.85694136981E+01 -0.15415272631E+00 -0.10124023260E+02  0.13264782751E+02  0.51100000000E-03 0.  1.
        -11    1    3    3    0    0  0.75341811156E+01  0.65134793933E+01  0.14366146939E+01  0.10062462965E+02  0.51100000000E-03 0. -1.
         12    1    3    3    0    0  0.17673680073E+02  0.45547739377E+01 -0.16284596796E+02  0.24460029145E+02  0.00000000000E+00 0. -1.
</event>
<event>
 7    1  0.1631716E-009  0.4778727E+02  0.7816164E-02  0.1312668E+00
        -11   -1    0    0    0    0  0.00000000000E+00  0.00000000000E+00  0.45593999997E+02  0.45594000000E+02  0.51100000000E-03 0.  1.
         11   -1    0    0    0    0 -0.00000000000E+00 -0.00000000000E+00 -0.45593999997E+02  0.45594000000E+02  0.51100000000E-03 0. -1.
    9900012    2    1    2    0    0 -0.10977603805E+02  0.22965753936E+02  0.35152376025E+02  0.47787272134E+02  0.20000004966E+02 0.  0.
         12    1    1    2    0    0  0.10977603805E+02 -0.22965753936E+02 -0.35152376025E+02  0.43400727866E+02  0.00000000000E+00 0. -1.
         11    1    3    3    0    0  0.19504429194E+01  0.40780547495E+01  0.12877273585E+01  0.47003191523E+01  0.51100000000E-03 0. -1.
        -11    1    3    3    0    0 -0.10344544102E+02  0.41550529527E+01  0.10310216535E+02  0.15184683828E+02  0.51100000000E-03 0.  1.
        -12    1    3    3    0    0 -0.25835026226E+01  0.14732646233E+02  0.23554432132E+02  0.27902269153E+02  0.00000000000E+00 0.  1.
</event>
<event>
 7    1  0.1631716E-009  0.4778726E+02  0.7816164E-02  0.1312668E+00
        -11   -1    0    0    0    0  0.00000000000E+00  0.00000000000E+00  0.45593999997E+02  0.45594000000E+02  0.51100000000E-03 0.  1.
         11   -1    0    0    0    0 -0.00000000000E+00 -0.00000000000E+00 -0.45593999997E+02  0.45594000000E+02  0.51100000000E-03 0. -1.
    9900012    2    1    2    0    0 -0.18901040871E+02  0.34413060657E+02  0.18496372116E+02  0.47787264162E+02  0.19999968621E+02 0.  0.
         12    1    1    2    0    0  0.18901040871E+02 -0.34413060657E+02 -0.18496372116E+02  0.43400735838E+02  0.00000000000E+00 0. -1.
         11    1    3    3    0    0 -0.11152784814E+02  0.36494684290E+01  0.23315439944E+01  0.11964084862E+02  0.51100000000E-03 0. -1.
        -11    1    3    3    0    0 -0.68184591568E+00  0.80278690412E+01  0.28603997104E+01  0.85494726129E+01  0.51100000000E-03 0.  1.
         12    1    3    3    0    0 -0.70664101412E+01  0.22735723187E+02  0.13304428411E+02  0.27273706688E+02  0.00000000000E+00 0. -1.
</event>
<event>
 7    1  0.1631716E-009  0.4778727E+02  0.7816164E-02  0.1312668E+00
        -11   -1    0    0    0    0  0.00000000000E+00  0.00000000000E+00  0.45593999997E+02  0.45594000000E+02  0.51100000000E-03 0.  1.
         11   -1    0    0    0    0 -0.00000000000E+00 -0.00000000000E+00 -0.45593999997E+02  0.45594000000E+02  0.51100000000E-03 0. -1.
    9900012    2    1    2    0    0  0.27137673909E+02  0.51785835775E+01  0.33471664524E+02  0.47787269602E+02  0.19999993423E+02 0.  0.
         12    1    1    2    0    0 -0.27137673909E+02 -0.51785835775E+01 -0.33471664524E+02  0.43400730398E+02  0.00000000000E+00 0. -1.
         11    1    3    3    0    0  0.13619143310E+01  0.72432475790E+00 -0.60545528298E+00  0.16571159768E+01  0.51100000000E-03 0. -1.
        -11    1    3    3    0    0  0.46069052210E+01  0.58822889011E+01  0.21118885650E+01  0.77643397661E+01  0.51100000000E-03 0.  1.
        -12    1    3    3    0    0  0.21168854357E+02 -0.14280300815E+01  0.31965231242E+02  0.38365813859E+02  0.00000000000E+00 0.  1.
</event>
<event>
 7    1  0.1631716E-009  0.4778728E+02  0.7816164E-02  0.1312668E+00
        -11   -1    0    0    0    0  0.00000000000E+00  0.00000000000E+00  0.45593999997E+02  0.45594000000E+02  0.51100000000E-03 0. -1.
         11   -1    0    0    0    0 -0.00000000000E+00 -0.00000000000E+00 -0.45593999997E+02  0.45594000000E+02  0.51100000000E-03 0.  1.
    9900012    2    1    2    0    0  0.25782502208E+02  0.13539302152E+02 -0.32180312683E+02  0.47787278264E+02  0.20000032915E+02 0.  0.
         12    1    1    2    0    0 -0.25782502208E+02 -0.13539302152E+02  0.32180312683E+02  0.43400721736E+02  0.00000000000E+00 0. -1.
         11    1    3    3    0    0 -0.39118177325E+00 -0.12780734603E+01 -0.10860876659E+01  0.17222315839E+01  0.51100000000E-03 0. -1.
        -11    1    3    3    0    0  0.22197823935E+02  0.18136909638E+02 -0.24721175424E+02  0.37852706552E+02  0.51100000000E-03 0.  1.
        -12    1    3    3    0    0  0.39758600466E+01 -0.33195340265E+01 -0.63730495927E+01  0.82123401278E+01  0.00000000000E+00 0.  1.
</event>
<event>
 7    1  0.1631716E-009  0.4778727E+02  0.7816164E-02  0.1312668E+00
        -11   -1    0    0    0    0  0.00000000000E+00  0.00000000000E+00  0.45593999997E+02  0.45594000000E+02  0.51100000000E-03 0.  1.
         11   -1    0    0    0    0 -0.00000000000E+00 -0.00000000000E+00 -0.45593999997E+02  0.45594000000E+02  0.51100000000E-03 0. -1.
    9900012    2    1    2    0    0  0.30069897018E+02 -0.29618290321E+02  0.10108507668E+02  0.47787265496E+02  0.19999974702E+02 0.  0.
         12    1    1    2    0    0 -0.30069897018E+02  0.29618290321E+02 -0.10108507668E+02  0.43400734504E+02  0.00000000000E+00 0. -1.
         11    1    3    3    0    0  0.80855410627E+01 -0.77975451442E+00  0.32643244439E+01  0.87544163550E+01  0.51100000000E-03 0. -1.
        -11    1    3    3    0    0  0.15210114184E+02 -0.10955619726E+02  0.67089468708E+01  0.19909373306E+02  0.51100000000E-03 0.  1.
        -12    1    3    3    0    0  0.67742417715E+01 -0.17882916081E+02  0.13523635351E+00  0.19123475835E+02  0.00000000000E+00 0.  1.
</event>
<event>
 7    1  0.1631716E-009  0.4778727E+02  0.7816164E-02  0.1312668E+00
        -11   -1    0    0    0    0  0.00000000000E+00  0.00000000000E+00  0.45593999997E+02  0.45594000000E+02  0.51100000000E-03 0. -1.
         11   -1    0    0    0    0 -0.00000000000E+00 -0.00000000000E+00 -0.45593999997E+02  0.45594000000E+02  0.51100000000E-03 0.  1.
    9900012    2    1    2    0    0  0.30607869946E+02 -0.29419749935E+02 -0.90144200157E+01  0.47787272390E+02  0.20000006134E+02 0.  0.
         12    1    1    2    0    0 -0.30607869946E+02  0.29419749935E+02  0.90144200157E+01  0.43400727610E+02  0.00000000000E+00 0. -1.
         11    1    3    3    0    0  0.23008988224E+02 -0.17653248498E+02 -0.76345435114E+01  0.29988947573E+02  0.51100000000E-03 0. -1.
        -11    1    3    3    0    0  0.67310092072E+01 -0.54934489969E+01  0.39283916877E+01  0.95350263943E+01  0.51100000000E-03 0.  1.
         12    1    3    3    0    0  0.86787251446E+00 -0.62730524408E+01 -0.53082681920E+01  0.82632984229E+01  0.00000000000E+00 0. -1.
</event>
<event>
 7    1  0.1631716E-009  0.4778727E+02  0.7816164E-02  0.1312668E+00
        -11   -1    0    0    0    0  0.00000000000E+00  0.00000000000E+00  0.45593999997E+02  0.45594000000E+02  0.51100000000E-03 0.  1.
         11   -1    0    0    0    0 -0.00000000000E+00 -0.00000000000E+00 -0.45593999997E+02  0.45594000000E+02  0.51100000000E-03 0. -1.
    9900012    2    1    2    0    0  0.13691962144E+02 -0.16456438552E+02  0.37753660170E+02  0.47787273584E+02  0.20000011581E+02 0.  0.
         12    1    1    2    0    0 -0.13691962144E+02  0.16456438552E+02 -0.37753660170E+02  0.43400726416E+02  0.00000000000E+00 0. -1.
         11    1    3    3    0    0 -0.29550292014E+01 -0.10145802633E+01  0.36860726103E+01  0.48320494867E+01  0.51100000000E-03 0. -1.
        -11    1    3    3    0    0  0.90136706590E+01 -0.54244651163E+01  0.58093207880E+01  0.12017457669E+02  0.51100000000E-03 0.  1.
         12    1    3    3    0    0  0.76333206869E+01 -0.10017393172E+02  0.28258266771E+02  0.30937766429E+02  0.00000000000E+00 0. -1.
</event>
<event>
 7    1  0.1631716E-009  0.4778729E+02  0.7816164E-02  0.1312668E+00
        -11   -1    0    0    0    0  0.00000000000E+00  0.00000000000E+00  0.45593999997E+02  0.45594000000E+02  0.51100000000E-03 0.  1.
         11   -1    0    0    0    0 -0.00000000000E+00 -0.00000000000E+00 -0.45593999997E+02  0.45594000000E+02  0.51100000000E-03 0. -1.
    9900012    2    1    2    0    0 -0.24821883141E+02  0.17464272539E+02  0.31024107617E+02  0.47787286280E+02  0.20000069463E+02 0.  0.
         12    1    1    2    0    0  0.24821883141E+02 -0.17464272539E+02 -0.31024107617E+02  0.43400713720E+02  0.00000000000E+00 0. -1.
         11    1    3    3    0    0 -0.47412990055E+00 -0.15848148052E+01  0.98082696466E+00  0.19231377811E+01  0.51100000000E-03 0. -1.
        -11    1    3    3    0    0 -0.14421641096E+02  0.16346997682E+02  0.11471181541E+02  0.24633231037E+02  0.51100000000E-03 0.  1.
        -12    1    3    3    0    0 -0.99261121443E+01  0.27020896621E+01  0.18572099111E+02  0.21230917461E+02  0.00000000000E+00 0.  1.
</event>
<event>
 7    1  0.1631716E-009  0.4778727E+02  0.7816164E-02  0.1312668E+00
        -11   -1    0    0    0    0  0.00000000000E+00  0.00000000000E+00  0.45593999997E+02  0.45594000000E+02  0.51100000000E-03 0. -1.
         11   -1    0    0    0    0 -0.00000000000E+00 -0.00000000000E+00 -0.45593999997E+02  0.45594000000E+02  0.51100000000E-03 0.  1.
    9900012    2    1    2    0    0  0.13707135208E+02  0.39090005422E+02 -0.12950266761E+02  0.47787268569E+02  0.19999988716E+02 0.  0.
         12    1    1    2    0    0 -0.13707135208E+02 -0.39090005422E+02  0.12950266761E+02  0.43400731431E+02  0.00000000000E+00 0. -1.
         11    1    3    3    0    0 -0.26154955773E+01  0.38958347424E+01  0.70783221410E-01  0.46929048553E+01  0.51100000000E-03 0. -1.
        -11    1    3    3    0    0  0.36533506145E+01  0.22345172781E+02 -0.42749660804E+01  0.23041897764E+02  0.51100000000E-03 0.  1.
        -12    1    3    3    0    0  0.12669280171E+02  0.12848997899E+02 -0.87460839023E+01  0.20052465950E+02  0.00000000000E+00 0.  1.
</event>
<event>
 7    1  0.1631716E-009  0.4778728E+02  0.7816164E-02  0.1312668E+00
        -11   -1    0    0    0    0  0.00000000000E+00  0.00000000000E+00  0.45593999997E+02  0.45594000000E+02  0.51100000000E-03 0. -1.
         11   -1    0    0    0    0 -0.00000000000E+00 -0.00000000000E+00 -0.45593999997E+02  0.45594000000E+02  0.51100000000E-03 0.  1.
    9900012    2    1    2    0    0 -0.31409774474E+01  0.43199455219E+02  0.27503110199E+01  0.47787275568E+02  0.20000020624E+02 0.  0.
         12    1    1    2    0    0  0.31409774474E+01 -0.43199455219E+02 -0.27503110199E+01  0.43400724432E+02  0.00000000000E+00 0. -1.
         11    1    3    3    0    0 -0.45646221601E+01  0.16430154174E+02  0.52182365021E+01  0.17832995657E+02  0.51100000000E-03 0. -1.
        -11    1    3    3    0    0 -0.28521821867E+01  0.22077431336E+02 -0.54837158815E+01  0.22926383442E+02  0.51100000000E-03 0.  1.
        -12    1    3    3    0    0  0.42758268994E+01  0.46918697088E+01  0.30157903993E+01  0.70278964684E+01  0.00000000000E+00 0.  1.
</event>
<event>
 7    1  0.1631716E-009  0.4778727E+02  0.7816164E-02  0.1312668E+00
        -11   -1    0    0    0    0  0.00000000000E+00  0.00000000000E+00  0.45593999997E+02  0.45594000000E+02  0.51100000000E-03 0.  1.
         11   -1    0    0    0    0 -0.00000000000E+00 -0.00000000000E+00 -0.45593999997E+02  0.45594000000E+02  0.51100000000E-03 0. -1.
    9900012    2    1    2    0    0 -0.34860866309E+02 -0.24025638070E+02 -0.95452813860E+01  0.47787266351E+02  0.19999978602E+02 0.  0.
         12    1    1    2    0    0  0.34860866309E+02  0.24025638070E+02  0.95452813860E+01  0.43400733649E+02  0.00000000000E+00 0. -1.
         11    1    3    3    0    0 -0.18701804469E+02 -0.60753605806E+01 -0.42008371984E+00  0.19668349376E+02  0.51100000000E-03 0. -1.
        -11    1    3    3    0    0 -0.43753976728E+01  0.79475951256E+00 -0.18000253117E+01  0.47974825546E+01  0.51100000000E-03 0.  1.
         12    1    3    3    0    0 -0.11783664168E+02 -0.18745037002E+02 -0.73251723545E+01  0.23321434421E+02  0.00000000000E+00 0. -1.
</event>
<event>
 7    1  0.1631716E-009  0.4778727E+02  0.7816164E-02  0.1312668E+00
        -11   -1    0    0    0    0  0.00000000000E+00  0.00000000000E+00  0.45593999997E+02  0.45594000000E+02  0.51100000000E-03 0.  1.
         11   -1    0    0    0    0 -0.00000000000E+00 -0.00000000000E+00 -0.45593999997E+02  0.45594000000E+02  0.51100000000E-03 0. -1.
    9900012    2    1    2    0    0  0.25260684935E+02  0.31694370742E+02  0.15523783883E+02  0.47787271824E+02  0.20000003556E+02 0.  0.
         12    1    1    2    0    0 -0.25260684935E+02 -0.31694370742E+02 -0.15523783883E+02  0.43400728176E+02  0.00000000000E+00 0. -1.
         11    1    3    3    0    0  0.56919603883E+01  0.11647802367E+02  0.57981010164E+01  0.14201679080E+02  0.51100000000E-03 0. -1.
        -11    1    3    3    0    0  0.17863062820E+02  0.14020386591E+02  0.13357865154E+02  0.26345641294E+02  0.51100000000E-03 0.  1.
        -12    1    3    3    0    0  0.17056617263E+01  0.60261817842E+01 -0.36321822873E+01  0.72399514493E+01  0.00000000000E+00 0.  1.
</event>
<event>
 7    1  0.1631716E-009  0.4778727E+02  0.7816164E-02  0.1312668E+00
        -11   -1    0    0    0    0  0.00000000000E+00  0.00000000000E+00  0.45593999997E+02  0.45594000000E+02  0.51100000000E-03 0.  1.
         11   -1    0    0    0    0 -0.00000000000E+00 -0.00000000000E+00 -0.45593999997E+02  0.45594000000E+02  0.51100000000E-03 0. -1.
    9900012    2    1    2    0    0 -0.35411084877E+02  0.24689761857E+02  0.44826318018E+01  0.47787271197E+02  0.20000000697E+02 0.  0.
         12    1    1    2    0    0  0.35411084877E+02 -0.24689761857E+02 -0.44826318018E+01  0.43400728803E+02  0.00000000000E+00 0. -1.
         11    1    3    3    0    0 -0.69980959315E+01  0.33386212831E+01  0.42483869395E+01  0.88412968837E+01  0.51100000000E-03 0. -1.
        -11    1    3    3    0    0 -0.34787888450E+01  0.10716474904E+02 -0.29646498029E+01  0.11650491617E+02  0.51100000000E-03 0.  1.
        -12    1    3    3    0    0 -0.24934200101E+02  0.10634665670E+02  0.31988946652E+01  0.27295482697E+02  0.00000000000E+00 0.  1.
</event>
<event>
 7    1  0.1665469E-009  0.4778728E+02  0.7816164E-02  0.1312668E+00
        -11   -1    0    0    0    0  0.00000000000E+00  0.00000000000E+00  0.45593999997E+02  0.45594000000E+02  0.51100000000E-03 0. -1.
         11   -1    0    0    0    0 -0.00000000000E+00 -0.00000000000E+00 -0.45593999997E+02  0.45594000000E+02  0.51100000000E-03 0.  1.
    9900012    2    1    2    0    0 -0.86246470332E+01 -0.35447801052E+02 -0.23509394642E+02  0.47787276823E+02  0.20000026345E+02 0.  0.
         12    1    1    2    0    0  0.86246470332E+01  0.35447801052E+02  0.23509394642E+02  0.43400723177E+02  0.00000000000E+00 0. -1.
         11    1    3    3    0    0 -0.19722652988E+01  0.11740748844E+01 -0.10554689082E+01  0.25263208665E+01  0.51100000000E-03 0. -1.
        -11    1    3    3    0    0  0.24710618795E+01 -0.15017959448E+02 -0.49749574213E+01  0.16012353181E+02  0.51100000000E-03 0.  1.
         12    1    3    3    0    0 -0.91234436139E+01 -0.21603916488E+02 -0.17478968313E+02  0.29248602775E+02  0.00000000000E+00 0. -1.
</event>
<event>
 7    1  0.1631716E-009  0.4778727E+02  0.7816164E-02  0.1312668E+00
        -11   -1    0    0    0    0  0.00000000000E+00  0.00000000000E+00  0.45593999997E+02  0.45594000000E+02  0.51100000000E-03 0. -1.
         11   -1    0    0    0    0 -0.00000000000E+00 -0.00000000000E+00 -0.45593999997E+02  0.45594000000E+02  0.51100000000E-03 0.  1.
    9900012    2    1    2    0    0  0.28018941802E+02  0.28234983046E+02 -0.17359379321E+02  0.47787269387E+02  0.19999992444E+02 0.  0.
         12    1    1    2    0    0 -0.28018941802E+02 -0.28234983046E+02  0.17359379321E+02  0.43400730613E+02  0.00000000000E+00 0. -1.
         11    1    3    3    0    0  0.23199690961E+01 -0.20106474497E+01  0.23859997451E+00  0.30792677673E+01  0.51100000000E-03 0. -1.
        -11    1    3    3    0    0  0.64359501959E+00  0.44914532515E+01  0.33618246742E+00  0.45497676614E+01  0.51100000000E-03 0.  1.
        -12    1    3    3    0    0  0.25055377686E+02  0.25754177244E+02 -0.17934161763E+02  0.40158233959E+02  0.00000000000E+00 0.  1.
</event>
<event>
 7    1  0.1631716E-009  0.4778727E+02  0.7816164E-02  0.1312668E+00
        -11   -1    0    0    0    0  0.00000000000E+00  0.00000000000E+00  0.45593999997E+02  0.45594000000E+02  0.51100000000E-03 0. -1.
         11   -1    0    0    0    0 -0.00000000000E+00 -0.00000000000E+00 -0.45593999997E+02  0.45594000000E+02  0.51100000000E-03 0.  1.
    9900012    2    1    2    0    0  0.12132124604E+02 -0.40422998125E+02 -0.10120085832E+02  0.47787270028E+02  0.19999995367E+02 0.  0.
         12    1    1    2    0    0 -0.12132124604E+02  0.40422998125E+02  0.10120085832E+02  0.43400729972E+02  0.00000000000E+00 0. -1.
         11    1    3    3    0    0  0.80672716986E+01 -0.27098372164E+02 -0.28477393858E+01  0.28416760309E+02  0.51100000000E-03 0.  1.
        -11    1    3    3    0    0  0.55085474294E+01 -0.17582771182E+01 -0.30412393995E+00  0.57903475576E+01  0.51100000000E-03 0. -1.
        -12    1    3    3    0    0 -0.14436945236E+01 -0.11566348843E+02 -0.69682225065E+01  0.13580162162E+02  0.00000000000E+00 0.  1.
</event>
<event>
 7    1  0.1631716E-009  0.4778727E+02  0.7816164E-02  0.1312668E+00
        -11   -1    0    0    0    0  0.00000000000E+00  0.00000000000E+00  0.45593999997E+02  0.45594000000E+02  0.51100000000E-03 0. -1.
         11   -1    0    0    0    0 -0.00000000000E+00 -0.00000000000E+00 -0.45593999997E+02  0.45594000000E+02  0.51100000000E-03 0.  1.
    9900012    2    1    2    0    0  0.40592187794E+02  0.54414330745E+01 -0.14362737305E+02  0.47787272740E+02  0.20000007732E+02 0.  0.
         12    1    1    2    0    0 -0.40592187794E+02 -0.54414330745E+01  0.14362737305E+02  0.43400727260E+02  0.00000000000E+00 0. -1.
         11    1    3    3    0    0  0.54095937882E+01 -0.83142654119E+00  0.26194561811E+01  0.60676623169E+01  0.51100000000E-03 0. -1.
        -11    1    3    3    0    0  0.30342351857E+02  0.19569073920E+01 -0.95809287240E+01  0.31879178129E+02  0.51100000000E-03 0.  1.
         12    1    3    3    0    0  0.48402421492E+01  0.43159522237E+01 -0.74012647617E+01  0.98404322940E+01  0.00000000000E+00 0. -1.
</event>
<event>
 7    1  0.1631716E-009  0.4778727E+02  0.7816164E-02  0.1312668E+00
        -11   -1    0    0    0    0  0.00000000000E+00  0.00000000000E+00  0.45593999997E+02  0.45594000000E+02  0.51100000000E-03 0.  1.
         11   -1    0    0    0    0 -0.00000000000E+00 -0.00000000000E+00 -0.45593999997E+02  0.45594000000E+02  0.51100000000E-03 0. -1.
    9900012    2    1    2    0    0 -0.11542848911E+02  0.32567612363E+02  0.26262838609E+02  0.47787269271E+02  0.19999991916E+02 0.  0.
         12    1    1    2    0    0  0.11542848911E+02 -0.32567612363E+02 -0.26262838609E+02  0.43400730729E+02  0.00000000000E+00 0. -1.
         11    1    3    3    0    0 -0.73485041704E+01  0.17838652949E+02  0.20284992795E+02  0.27994624226E+02  0.51100000000E-03 0.  1.
        -11    1    3    3    0    0 -0.13387889195E+01  0.98038091589E+01  0.89750046537E+01  0.13358807529E+02  0.51100000000E-03 0. -1.
         12    1    3    3    0    0 -0.28555558207E+01  0.49251502550E+01 -0.29971588403E+01  0.64338375168E+01  0.00000000000E+00 0. -1.
</event>
<event>
 7    1  0.1631716E-009  0.4778727E+02  0.7816164E-02  0.1312668E+00
        -11   -1    0    0    0    0  0.00000000000E+00  0.00000000000E+00  0.45593999997E+02  0.45594000000E+02  0.51100000000E-03 0.  1.
         11   -1    0    0    0    0 -0.00000000000E+00 -0.00000000000E+00 -0.45593999997E+02  0.45594000000E+02  0.51100000000E-03 0. -1.
    9900012    2    1    2    0    0 -0.14231880115E+01  0.43347412018E+02  0.16124064173E+01  0.47787269048E+02  0.19999990895E+02 0.  0.
         12    1    1    2    0    0  0.14231880115E+01 -0.43347412018E+02 -0.16124064173E+01  0.43400730952E+02  0.00000000000E+00 0. -1.
         11    1    3    3    0    0  0.34788950949E+01  0.24400599471E+01  0.27984925774E+01  0.50880413318E+01  0.51100000000E-03 0. -1.
        -11    1    3    3    0    0  0.19642386203E+01  0.10745771231E+01  0.25408390433E+00  0.22533326968E+01  0.51100000000E-03 0.  1.
        -12    1    3    3    0    0 -0.68663217267E+01  0.39832774947E+02 -0.14401700644E+01  0.40445895019E+02  0.00000000000E+00 0.  1.
</event>
<event>
 7    1  0.1631716E-009  0.4778727E+02  0.7816164E-02  0.1312668E+00
        -11   -1    0    0    0    0  0.00000000000E+00  0.00000000000E+00  0.45593999997E+02  0.45594000000E+02  0.51100000000E-03 0.  1.
         11   -1    0    0    0    0 -0.00000000000E+00 -0.00000000000E+00 -0.45593999997E+02  0.45594000000E+02  0.51100000000E-03 0. -1.
    9900012    2    1    2    0    0 -0.22732610213E+01  0.35943566020E+02  0.24218080761E+02  0.47787273166E+02  0.20000009675E+02 0.  0.
         12    1    1    2    0    0  0.22732610213E+01 -0.35943566020E+02 -0.24218080761E+02  0.43400726834E+02  0.00000000000E+00 0. -1.
         11    1    3    3    0    0 -0.51031576039E+01  0.72497482984E+01  0.51359159448E+00  0.88805880722E+01  0.51100000000E-03 0. -1.
        -11    1    3    3    0    0 -0.18225747853E+01  0.12414813209E+02  0.15924031534E+02  0.20273730452E+02  0.51100000000E-03 0.  1.
         12    1    3    3    0    0  0.46524713679E+01  0.16279004512E+02  0.77804576332E+01  0.18632954643E+02  0.00000000000E+00 0. -1.
</event>
<event>
 7    1  0.1631716E-009  0.4778727E+02  0.7816164E-02  0.1312668E+00
        -11   -1    0    0    0    0  0.00000000000E+00  0.00000000000E+00  0.45593999997E+02  0.45594000000E+02  0.51100000000E-03 0. -1.
         11   -1    0    0    0    0 -0.00000000000E+00 -0.00000000000E+00 -0.45593999997E+02  0.45594000000E+02  0.51100000000E-03 0.  1.
    9900012    2    1    2    0    0  0.42997067665E+02 -0.47974135058E+01  0.34438939146E+01  0.47787269483E+02  0.19999992881E+02 0.  0.
         12    1    1    2    0    0 -0.42997067665E+02  0.47974135058E+01 -0.34438939146E+01  0.43400730517E+02  0.00000000000E+00 0. -1.
         11    1    3    3    0    0  0.13115375482E+02 -0.20303373827E+01 -0.43631895068E+01  0.13970424720E+02  0.51100000000E-03 0. -1.
        -11    1    3    3    0    0  0.97912750436E+01  0.10699641256E+01 -0.34914821893E+01  0.10450087959E+02  0.51100000000E-03 0.  1.
         12    1    3    3    0    0  0.20090417139E+02 -0.38370402488E+01  0.11298565611E+02  0.23366756804E+02  0.00000000000E+00 0. -1.
</event>
<event>
 7    1  0.1631716E-009  0.4778727E+02  0.7816164E-02  0.1312668E+00
        -11   -1    0    0    0    0  0.00000000000E+00  0.00000000000E+00  0.45593999997E+02  0.45594000000E+02  0.51100000000E-03 0. -1.
         11   -1    0    0    0    0 -0.00000000000E+00 -0.00000000000E+00 -0.45593999997E+02  0.45594000000E+02  0.51100000000E-03 0.  1.
    9900012    2    1    2    0    0 -0.25945579414E+02  0.14570025366E+02 -0.31593740431E+02  0.47787272302E+02  0.20000005733E+02 0.  0.
         12    1    1    2    0    0  0.25945579414E+02 -0.14570025366E+02  0.31593740431E+02  0.43400727698E+02  0.00000000000E+00 0. -1.
         11    1    3    3    0    0 -0.43589118948E+01  0.46850801277E+01 -0.11119702048E+02  0.12829569852E+02  0.51100000000E-03 0. -1.
        -11    1    3    3    0    0 -0.22162514625E+02  0.74611632135E+01 -0.12319987307E+02  0.26431573894E+02  0.51100000000E-03 0.  1.
        -12    1    3    3    0    0  0.57584710546E+00  0.24237820251E+01 -0.81540510762E+01  0.85261285556E+01  0.00000000000E+00 0.  1.
</event>
<event>
 7    1  0.1631716E-009  0.4778728E+02  0.7816164E-02  0.1312668E+00
        -11   -1    0    0    0    0  0.00000000000E+00  0.00000000000E+00  0.45593999997E+02  0.45594000000E+02  0.51100000000E-03 0.  1.
         11   -1    0    0    0    0 -0.00000000000E+00 -0.00000000000E+00 -0.45593999997E+02  0.45594000000E+02  0.51100000000E-03 0. -1.
    9900012    2    1    2    0    0  0.25063638544E+02 -0.33752633645E+02 -0.10779453321E+02  0.47787275709E+02  0.20000021269E+02 0.  0.
         12    1    1    2    0    0 -0.25063638544E+02  0.33752633645E+02  0.10779453321E+02  0.43400724291E+02  0.00000000000E+00 0. -1.
         11    1    3    3    0    0  0.35864441119E+01 -0.16662064488E+01 -0.59858923899E+01  0.71742409537E+01  0.51100000000E-03 0. -1.
        -11    1    3    3    0    0  0.74297967307E+01 -0.20206790178E+02 -0.54344727139E+01  0.22204723432E+02  0.51100000000E-03 0.  1.
        -12    1    3    3    0    0  0.14047397701E+02 -0.11879637019E+02  0.64091178303E+00  0.18408311324E+02  0.00000000000E+00 0.  1.
</event>
<event>
 7    1  0.1631716E-009  0.4778727E+02  0.7816164E-02  0.1312668E+00
        -11   -1    0    0    0    0  0.00000000000E+00  0.00000000000E+00  0.45593999997E+02  0.45594000000E+02  0.51100000000E-03 0.  1.
         11   -1    0    0    0    0 -0.00000000000E+00 -0.00000000000E+00 -0.45593999997E+02  0.45594000000E+02  0.51100000000E-03 0. -1.
    9900012    2    1    2    0    0  0.16153911731E+02  0.35918706037E+02  0.18235164308E+02  0.47787268152E+02  0.19999986813E+02 0.  0.
         12    1    1    2    0    0 -0.16153911731E+02 -0.35918706037E+02 -0.18235164308E+02  0.43400731848E+02  0.00000000000E+00 0. -1.
         11    1    3    3    0    0 -0.25413499597E+01  0.13550225281E+02  0.42783320842E+01  0.14435068080E+02  0.51100000000E-03 0. -1.
        -11    1    3    3    0    0  0.66394314021E+01  0.47217065164E+01  0.64270453283E+00  0.81724923462E+01  0.51100000000E-03 0.  1.
        -12    1    3    3    0    0  0.12055830288E+02  0.17646774240E+02  0.13314127691E+02  0.25179707726E+02  0.00000000000E+00 0.  1.
</event>
<event>
 7    1  0.2168084E-009  0.4778727E+02  0.7816164E-02  0.1312668E+00
        -11   -1    0    0    0    0  0.00000000000E+00  0.00000000000E+00  0.45593999997E+02  0.45594000000E+02  0.51100000000E-03 0.  1.
         11   -1    0    0    0    0 -0.00000000000E+00 -0.00000000000E+00 -0.45593999997E+02  0.45594000000E+02  0.51100000000E-03 0. -1.
    9900012    2    1    2    0    0  0.15544222663E+02  0.26618391758E+02  0.30552602118E+02  0.47787272654E+02  0.20000007338E+02 0.  0.
         12    1    1    2    0    0 -0.15544222663E+02 -0.26618391758E+02 -0.30552602118E+02  0.43400727346E+02  0.00000000000E+00 0. -1.
         11    1    3    3    0    0  0.10568870432E+01  0.72515185519E+01  0.19185883149E+02  0.20537761417E+02  0.51100000000E-03 0. -1.
        -11    1    3    3    0    0  0.55224965817E+01  0.10593309470E+02  0.75738695248E+01  0.14144952240E+02  0.51100000000E-03 0.  1.
         12    1    3    3    0    0  0.89648390385E+01  0.87735637359E+01  0.37928494439E+01  0.13104558997E+02  0.00000000000E+00 0. -1.
</event>
<event>
 7    1  0.1631716E-009  0.4778727E+02  0.7816164E-02  0.1312668E+00
        -11   -1    0    0    0    0  0.00000000000E+00  0.00000000000E+00  0.45593999997E+02  0.45594000000E+02  0.51100000000E-03 0.  1.
         11   -1    0    0    0    0 -0.00000000000E+00 -0.00000000000E+00 -0.45593999997E+02  0.45594000000E+02  0.51100000000E-03 0. -1.
    9900012    2    1    2    0    0  0.38548438724E+02 -0.19835770240E+02 -0.20452951888E+01  0.47787272569E+02  0.20000006953E+02 0.  0.
         12    1    1    2    0    0 -0.38548438724E+02  0.19835770240E+02  0.20452951888E+01  0.43400727431E+02  0.00000000000E+00 0. -1.
         11    1    3    3    0    0 -0.11557241587E+01 -0.34332048224E+01 -0.86945654094E+00  0.37253924117E+01  0.51100000000E-03 0. -1.
        -11    1    3    3    0    0  0.62371002243E+00 -0.22032622416E+01  0.82441220425E+00  0.24337285060E+01  0.51100000000E-03 0.  1.
        -12    1    3    3    0    0  0.39080452860E+02 -0.14199303176E+02 -0.20002508521E+01  0.41628151652E+02  0.00000000000E+00 0.  1.
</event>
<event>
 7    1  0.1631716E-009  0.4778727E+02  0.7816164E-02  0.1312668E+00
        -11   -1    0    0    0    0  0.00000000000E+00  0.00000000000E+00  0.45593999997E+02  0.45594000000E+02  0.51100000000E-03 0.  1.
         11   -1    0    0    0    0 -0.00000000000E+00 -0.00000000000E+00 -0.45593999997E+02  0.45594000000E+02  0.51100000000E-03 0. -1.
    9900012    2    1    2    0    0 -0.72620513877E+01  0.12959816574E+02  0.40779024185E+02  0.47787273630E+02  0.20000011787E+02 0.  0.
         12    1    1    2    0    0  0.72620513877E+01 -0.12959816574E+02 -0.40779024185E+02  0.43400726370E+02  0.00000000000E+00 0. -1.
         11    1    3    3    0    0 -0.26289749173E+01  0.52284819112E+01  0.15472830412E+02  0.16542581825E+02  0.51100000000E-03 0. -1.
        -11    1    3    3    0    0  0.20224742896E+01  0.94296073149E+01  0.21076220255E+02  0.23177898025E+02  0.51100000000E-03 0.  1.
         12    1    3    3    0    0 -0.66555507600E+01 -0.16982726517E+01  0.42299735176E+01  0.80667937794E+01  0.00000000000E+00 0. -1.
</event>
<event>
 7    1  0.1631716E-009  0.4778726E+02  0.7816164E-02  0.1312668E+00
        -11   -1    0    0    0    0  0.00000000000E+00  0.00000000000E+00  0.45593999997E+02  0.45594000000E+02  0.51100000000E-03 0.  1.
         11   -1    0    0    0    0 -0.00000000000E+00 -0.00000000000E+00 -0.45593999997E+02  0.45594000000E+02  0.51100000000E-03 0. -1.
    9900012    2    1    2    0    0  0.64763053612E+01  0.41579770666E+02  0.10620926910E+02  0.47787263275E+02  0.19999964578E+02 0.  0.
         12    1    1    2    0    0 -0.64763053612E+01 -0.41579770666E+02 -0.10620926910E+02  0.43400736725E+02  0.00000000000E+00 0. -1.
         11    1    3    3    0    0  0.82292032142E+01  0.98492414221E+01  0.22819568492E+01  0.13035899258E+02  0.51100000000E-03 0. -1.
        -11    1    3    3    0    0  0.55172695534E+00  0.23805825654E+02  0.10788971838E+02  0.26142372717E+02  0.51100000000E-03 0.  1.
         12    1    3    3    0    0 -0.23046248083E+01  0.79247035907E+01 -0.24500017771E+01  0.86089913007E+01  0.00000000000E+00 0. -1.
</event>
<event>
 7    1  0.1631716E-009  0.4778728E+02  0.7816164E-02  0.1312668E+00
        -11   -1    0    0    0    0  0.00000000000E+00  0.00000000000E+00  0.45593999997E+02  0.45594000000E+02  0.51100000000E-03 0.  1.
         11   -1    0    0    0    0 -0.00000000000E+00 -0.00000000000E+00 -0.45593999997E+02  0.45594000000E+02  0.51100000000E-03 0. -1.
    9900012    2    1    2    0    0 -0.31529171459E+02  0.78388019477E+01  0.28776507329E+02  0.47787276009E+02  0.20000022637E+02 0.  0.
         12    1    1    2    0    0  0.31529171459E+02 -0.78388019477E+01 -0.28776507329E+02  0.43400723991E+02  0.00000000000E+00 0. -1.
         11    1    3    3    0    0  0.17167254039E+01  0.41019581427E+00  0.70147109693E+00  0.18993337462E+01  0.51100000000E-03 0. -1.
        -11    1    3    3    0    0 -0.17344577039E+02  0.17143810095E+01  0.21689840754E+02  0.27824856641E+02  0.51100000000E-03 0.  1.
        -12    1    3    3    0    0 -0.15901319823E+02  0.57142251239E+01  0.63851954783E+01  0.18063085622E+02  0.00000000000E+00 0.  1.
</event>
<event>
 7    1  0.1631716E-009  0.4778727E+02  0.7816164E-02  0.1312668E+00
        -11   -1    0    0    0    0  0.00000000000E+00  0.00000000000E+00  0.45593999997E+02  0.45594000000E+02  0.51100000000E-03 0.  1.
         11   -1    0    0    0    0 -0.00000000000E+00 -0.00000000000E+00 -0.45593999997E+02  0.45594000000E+02  0.51100000000E-03 0. -1.
    9900012    2    1    2    0    0 -0.19358638334E+02  0.35133197037E+02  0.16568788791E+02  0.47787272193E+02  0.20000005235E+02 0.  0.
         12    1    1    2    0    0  0.19358638334E+02 -0.35133197037E+02 -0.16568788791E+02  0.43400727807E+02  0.00000000000E+00 0. -1.
         11    1    3    3    0    0 -0.39191910094E+01  0.10115785899E+02 -0.28307006911E+01  0.11211692521E+02  0.51100000000E-03 0. -1.
        -11    1    3    3    0    0 -0.10853293030E+02  0.90023576676E+01  0.66088613227E+01  0.15572843717E+02  0.51100000000E-03 0.  1.
        -12    1    3    3    0    0 -0.45861542943E+01  0.16015053470E+02  0.12790628160E+02  0.21002735955E+02  0.00000000000E+00 0.  1.
</event>
<event>
 7    1  0.1631716E-009  0.4778727E+02  0.7816164E-02  0.1312668E+00
        -11   -1    0    0    0    0  0.00000000000E+00  0.00000000000E+00  0.45593999997E+02  0.45594000000E+02  0.51100000000E-03 0. -1.
         11   -1    0    0    0    0 -0.00000000000E+00 -0.00000000000E+00 -0.45593999997E+02  0.45594000000E+02  0.51100000000E-03 0.  1.
    9900012    2    1    2    0    0 -0.23726893732E+02  0.29953866446E+02 -0.20577262992E+02  0.47787270128E+02  0.19999995820E+02 0.  0.
         12    1    1    2    0    0  0.23726893732E+02 -0.29953866446E+02  0.20577262992E+02  0.43400729872E+02  0.00000000000E+00 0. -1.
         11    1    3    3    0    0 -0.32374283406E+00 -0.24385479422E+00 -0.51916747200E+01  0.52074716747E+01  0.51100000000E-03 0. -1.
        -11    1    3    3    0    0 -0.98145505867E+00  0.26178856288E+01  0.15615294534E+01  0.32023356621E+01  0.51100000000E-03 0.  1.
        -12    1    3    3    0    0 -0.22421695839E+02  0.27579835611E+02 -0.16947117725E+02  0.39377462791E+02  0.00000000000E+00 0.  1.
</event>
<event>
 7    1  0.1631716E-009  0.4778727E+02  0.7816164E-02  0.1312668E+00
        -11   -1    0    0    0    0  0.00000000000E+00  0.00000000000E+00  0.45593999997E+02  0.45594000000E+02  0.51100000000E-03 0.  1.
         11   -1    0    0    0    0 -0.00000000000E+00 -0.00000000000E+00 -0.45593999997E+02  0.45594000000E+02  0.51100000000E-03 0. -1.
    9900012    2    1    2    0    0  0.10203085784E+00 -0.38495703308E+02  0.20042301194E+02  0.47787269354E+02  0.19999992293E+02 0.  0.
         12    1    1    2    0    0 -0.10203085784E+00  0.38495703308E+02 -0.20042301194E+02  0.43400730646E+02  0.00000000000E+00 0. -1.
         11    1    3    3    0    0 -0.50346809376E+01 -0.26488206414E+02  0.20490072451E+02  0.33864674226E+02  0.51100000000E-03 0. -1.
        -11    1    3    3    0    0  0.13238567951E+01 -0.88945693895E+01 -0.35268460762E+00  0.89994637692E+01  0.51100000000E-03 0.  1.
        -12    1    3    3    0    0  0.38128550003E+01 -0.31129275046E+01 -0.95086649265E-01  0.49231313585E+01  0.00000000000E+00 0.  1.
</event>
<event>
 7    1  0.1631716E-009  0.4778727E+02  0.7816164E-02  0.1312668E+00
        -11   -1    0    0    0    0  0.00000000000E+00  0.00000000000E+00  0.45593999997E+02  0.45594000000E+02  0.51100000000E-03 0.  1.
         11   -1    0    0    0    0 -0.00000000000E+00 -0.00000000000E+00 -0.45593999997E+02  0.45594000000E+02  0.51100000000E-03 0. -1.
    9900012    2    1    2    0    0  0.34633634751E+02  0.75883981342E+01  0.25031004830E+02  0.47787266767E+02  0.19999980500E+02 0.  0.
         12    1    1    2    0    0 -0.34633634751E+02 -0.75883981342E+01 -0.25031004830E+02  0.43400733233E+02  0.00000000000E+00 0. -1.
         11    1    3    3    0    0  0.25015415592E+01  0.46550560099E+01  0.18920989672E+01  0.56131359676E+01  0.51100000000E-03 0. -1.
        -11    1    3    3    0    0  0.28716458082E+02 -0.22536597263E+01  0.17029019625E+02  0.33461940419E+02  0.51100000000E-03 0.  1.
        -12    1    3    3    0    0  0.34156351104E+01  0.51870018506E+01  0.61098862373E+01  0.87121903812E+01  0.00000000000E+00 0.  1.
</event>
<event>
 7    1  0.1631716E-009  0.4778728E+02  0.7816164E-02  0.1312668E+00
        -11   -1    0    0    0    0  0.00000000000E+00  0.00000000000E+00  0.45593999997E+02  0.45594000000E+02  0.51100000000E-03 0. -1.
         11   -1    0    0    0    0 -0.00000000000E+00 -0.00000000000E+00 -0.45593999997E+02  0.45594000000E+02  0.51100000000E-03 0.  1.
    9900012    2    1    2    0    0 -0.39317161712E+02 -0.18248190497E+02 -0.21879747861E+01  0.47787275407E+02  0.20000019892E+02 0.  0.
         12    1    1    2    0    0  0.39317161712E+02  0.18248190497E+02  0.21879747861E+01  0.43400724593E+02  0.00000000000E+00 0. -1.
         11    1    3    3    0    0 -0.18689600344E+02 -0.11565258325E+02  0.10664702265E+01  0.22004402290E+02  0.51100000000E-03 0. -1.
        -11    1    3    3    0    0 -0.21785389453E+02 -0.71100447702E+01 -0.67822025368E+00  0.22926314864E+02  0.51100000000E-03 0.  1.
         12    1    3    3    0    0  0.11578280850E+01  0.42711259854E+00 -0.25762247589E+01  0.28565582533E+01  0.00000000000E+00 0. -1.
</event>
<event>
 7    1  0.1631716E-009  0.4778727E+02  0.7816164E-02  0.1312668E+00
        -11   -1    0    0    0    0  0.00000000000E+00  0.00000000000E+00  0.45593999997E+02  0.45594000000E+02  0.51100000000E-03 0. -1.
         11   -1    0    0    0    0 -0.00000000000E+00 -0.00000000000E+00 -0.45593999997E+02  0.45594000000E+02  0.51100000000E-03 0.  1.
    9900012    2    1    2    0    0  0.14489810485E+02 -0.39184585132E+02  0.11757424661E+02  0.47787270116E+02  0.19999995766E+02 0.  0.
         12    1    1    2    0    0 -0.14489810485E+02  0.39184585132E+02 -0.11757424661E+02  0.43400729884E+02  0.00000000000E+00 0. -1.
         11    1    3    3    0    0  0.10001293036E+01 -0.32381597720E+01 -0.43002766609E+01  0.54752458350E+01  0.51100000000E-03 0. -1.
        -11    1    3    3    0    0  0.19608514243E+01 -0.14664693092E+02  0.78878566077E+01  0.16766527486E+02  0.51100000000E-03 0.  1.
         12    1    3    3    0    0  0.11528829757E+02 -0.21281732267E+02  0.81698447143E+01  0.25545496795E+02  0.00000000000E+00 0. -1.
</event>
<event>
 7    1  0.1631716E-009  0.4778727E+02  0.7816164E-02  0.1312668E+00
        -11   -1    0    0    0    0  0.00000000000E+00  0.00000000000E+00  0.45593999997E+02  0.45594000000E+02  0.51100000000E-03 0.  1.
         11   -1    0    0    0    0 -0.00000000000E+00 -0.00000000000E+00 -0.45593999997E+02  0.45594000000E+02  0.51100000000E-03 0. -1.
    9900012    2    1    2    0    0  0.16006922024E+02 -0.32022511797E+02  0.24534879201E+02  0.47787272911E+02  0.20000008509E+02 0.  0.
         12    1    1    2    0    0 -0.16006922024E+02  0.32022511797E+02 -0.24534879201E+02  0.43400727089E+02  0.00000000000E+00 0. -1.
         11    1    3    3    0    0  0.37352936609E+00 -0.39854154522E+01 -0.29298420935E+01  0.49605478999E+01  0.51100000000E-03 0. -1.
        -11    1    3    3    0    0  0.83160236658E+01 -0.13876804212E+02  0.93004437936E+01  0.18660659146E+02  0.51100000000E-03 0.  1.
         12    1    3    3    0    0  0.73173689917E+01 -0.14160292133E+02  0.18164277501E+02  0.24166065865E+02  0.00000000000E+00 0. -1.
</event>
<event>
 7    1  0.1631716E-009  0.4778728E+02  0.7816164E-02  0.1312668E+00
        -11   -1    0    0    0    0  0.00000000000E+00  0.00000000000E+00  0.45593999997E+02  0.45594000000E+02  0.51100000000E-03 0.  1.
         11   -1    0    0    0    0 -0.00000000000E+00 -0.00000000000E+00 -0.45593999997E+02  0.45594000000E+02  0.51100000000E-03 0. -1.
    9900012    2    1    2    0    0  0.90748627959E+01  0.15309127490E+02  0.39584090803E+02  0.47787276919E+02  0.20000026786E+02 0.  0.
         12    1    1    2    0    0 -0.90748627959E+01 -0.15309127490E+02 -0.39584090803E+02  0.43400723081E+02  0.00000000000E+00 0. -1.
         11    1    3    3    0    0 -0.11818088345E+01  0.11480878502E+02  0.13099387599E+02  0.17458556614E+02  0.51100000000E-03 0. -1.
        -11    1    3    3    0    0  0.52442583861E+01  0.43457808477E+01  0.23511005312E+02  0.24477651608E+02  0.51100000000E-03 0.  1.
         12    1    3    3    0    0  0.50124132443E+01 -0.51753185940E+00  0.29736978912E+01  0.58510686977E+01  0.00000000000E+00 0. -1.
</event>
<event>
 7    1  0.1949639E-009  0.4778727E+02  0.7816164E-02  0.1312668E+00
        -11   -1    0    0    0    0  0.00000000000E+00  0.00000000000E+00  0.45593999997E+02  0.45594000000E+02  0.51100000000E-03 0.  1.
         11   -1    0    0    0    0 -0.00000000000E+00 -0.00000000000E+00 -0.45593999997E+02  0.45594000000E+02  0.51100000000E-03 0. -1.
    9900012    2    1    2    0    0  0.10050158790E+02  0.41977639562E+02 -0.45271833238E+01  0.47787270700E+02  0.19999998429E+02 0.  0.
         12    1    1    2    0    0 -0.10050158790E+02 -0.41977639562E+02  0.45271833238E+01  0.43400729300E+02  0.00000000000E+00 0. -1.
         11    1    3    3    0    0  0.24734336888E+01  0.21492142642E+01  0.33156436368E+01  0.46615972749E+01  0.51100000000E-03 0. -1.
        -11    1    3    3    0    0  0.96700704565E+01  0.33792976018E+02 -0.33350762454E+01  0.35307197915E+02  0.51100000000E-03 0.  1.
         12    1    3    3    0    0 -0.20933453554E+01  0.60354492806E+01 -0.45077507152E+01  0.78184755103E+01  0.00000000000E+00 0. -1.
</event>
<event>
 7    1  0.1631716E-009  0.4778724E+02  0.7816164E-02  0.1312668E+00
        -11   -1    0    0    0    0  0.00000000000E+00  0.00000000000E+00  0.45593999997E+02  0.45594000000E+02  0.51100000000E-03 0.  1.
         11   -1    0    0    0    0 -0.00000000000E+00 -0.00000000000E+00 -0.45593999997E+02  0.45594000000E+02  0.51100000000E-03 0. -1.
    9900012    2    1    2    0    0  0.40163987957E+02 -0.12293910182E+02  0.10924259786E+02  0.47787244153E+02  0.19999877393E+02 0.  0.
         12    1    1    2    0    0 -0.40163987957E+02  0.12293910182E+02 -0.10924259786E+02  0.43400755847E+02  0.00000000000E+00 0. -1.
         11    1    3    3    0    0  0.43062045694E+01  0.16552630648E+01 -0.10361103508E+01  0.47282997501E+01  0.51100000000E-03 0. -1.
        -11    1    3    3    0    0  0.33921468467E+02 -0.10895586575E+02  0.14680393040E+02  0.38534319377E+02  0.51100000000E-03 0.  1.
        -12    1    3    3    0    0  0.19363149202E+01 -0.30535866722E+01 -0.27200229030E+01  0.45246250262E+01  0.00000000000E+00 0.  1.
</event>
<event>
 7    1  0.1631716E-009  0.4778727E+02  0.7816164E-02  0.1312668E+00
        -11   -1    0    0    0    0  0.00000000000E+00  0.00000000000E+00  0.45593999997E+02  0.45594000000E+02  0.51100000000E-03 0.  1.
         11   -1    0    0    0    0 -0.00000000000E+00 -0.00000000000E+00 -0.45593999997E+02  0.45594000000E+02  0.51100000000E-03 0. -1.
    9900012    2    1    2    0    0  0.42903037457E+00  0.24882899224E+02  0.35556722419E+02  0.47787271320E+02  0.20000001254E+02 0.  0.
         12    1    1    2    0    0 -0.42903037457E+00 -0.24882899224E+02 -0.35556722419E+02  0.43400728680E+02  0.00000000000E+00 0. -1.
         11    1    3    3    0    0 -0.53091327546E+01  0.29403594740E+01  0.42596198491E+01  0.74146453700E+01  0.51100000000E-03 0. -1.
        -11    1    3    3    0    0  0.60957051262E+01  0.36143668720E+01  0.10253226463E+02  0.12463944882E+02  0.51100000000E-03 0.  1.
        -12    1    3    3    0    0 -0.35754199699E+00  0.18328172878E+02  0.21043876107E+02  0.27908681067E+02  0.00000000000E+00 0.  1.
</event>
<event>
 7    1  0.1631716E-009  0.4778728E+02  0.7816164E-02  0.1312668E+00
        -11   -1    0    0    0    0  0.00000000000E+00  0.00000000000E+00  0.45593999997E+02  0.45594000000E+02  0.51100000000E-03 0.  1.
         11   -1    0    0    0    0 -0.00000000000E+00 -0.00000000000E+00 -0.45593999997E+02  0.45594000000E+02  0.51100000000E-03 0. -1.
    9900012    2    1    2    0    0  0.18254973301E+02 -0.29774041332E+02  0.25765962777E+02  0.47787280820E+02  0.20000044571E+02 0.  0.
         12    1    1    2    0    0 -0.18254973301E+02  0.29774041332E+02 -0.25765962777E+02  0.43400719180E+02  0.00000000000E+00 0. -1.
         11    1    3    3    0    0  0.63617709887E+01 -0.11775675650E+01  0.16461938673E+01  0.66759830731E+01  0.51100000000E-03 0. -1.
        -11    1    3    3    0    0  0.59898523563E+01 -0.30890289804E+01  0.75802479024E+01  0.10143006942E+02  0.51100000000E-03 0.  1.
        -12    1    3    3    0    0  0.59033499564E+01 -0.25507444787E+02  0.16539521008E+02  0.30968290806E+02  0.00000000000E+00 0.  1.
</event>
<event>
 7    1  0.1631716E-009  0.4778727E+02  0.7816164E-02  0.1312668E+00
        -11   -1    0    0    0    0  0.00000000000E+00  0.00000000000E+00  0.45593999997E+02  0.45594000000E+02  0.51100000000E-03 0.  1.
         11   -1    0    0    0    0 -0.00000000000E+00 -0.00000000000E+00 -0.45593999997E+02  0.45594000000E+02  0.51100000000E-03 0. -1.
    9900012    2    1    2    0    0 -0.22351855330E+02  0.17880071792E+02  0.32623927452E+02  0.47787273665E+02  0.20000011948E+02 0.  0.
         12    1    1    2    0    0  0.22351855330E+02 -0.17880071792E+02 -0.32623927452E+02  0.43400726335E+02  0.00000000000E+00 0. -1.
         11    1    3    3    0    0 -0.31682954238E+01  0.29755683634E+01  0.40601920795E+01  0.59478788624E+01  0.51100000000E-03 0.  1.
        -11    1    3    3    0    0 -0.51377936352E+01 -0.23159428038E+01 -0.17414066792E-01  0.56356736970E+01  0.51100000000E-03 0. -1.
         12    1    3    3    0    0 -0.14045766271E+02  0.17220446233E+02  0.28581149440E+02  0.36203721106E+02  0.00000000000E+00 0. -1.
</event>
<event>
 7    1  0.1631716E-009  0.4778727E+02  0.7816164E-02  0.1312668E+00
        -11   -1    0    0    0    0  0.00000000000E+00  0.00000000000E+00  0.45593999997E+02  0.45594000000E+02  0.51100000000E-03 0. -1.
         11   -1    0    0    0    0 -0.00000000000E+00 -0.00000000000E+00 -0.45593999997E+02  0.45594000000E+02  0.51100000000E-03 0.  1.
    9900012    2    1    2    0    0  0.30655041253E+02 -0.10287163494E+02 -0.28949374412E+02  0.47787267681E+02  0.19999984663E+02 0.  0.
         12    1    1    2    0    0 -0.30655041253E+02  0.10287163494E+02  0.28949374412E+02  0.43400732319E+02  0.00000000000E+00 0. -1.
         11    1    3    3    0    0  0.11160712135E+02 -0.12121207566E+02 -0.78312309145E+01  0.18243172589E+02  0.51100000000E-03 0. -1.
        -11    1    3    3    0    0  0.43999700387E+01 -0.16227485845E-02 -0.92916406717E+01  0.10280774563E+02  0.51100000000E-03 0.  1.
         12    1    3    3    0    0  0.15094359080E+02  0.18356668207E+01 -0.11826502826E+02  0.19263320529E+02  0.00000000000E+00 0. -1.
</event>
<event>
 7    1  0.1631716E-009  0.4778727E+02  0.7816164E-02  0.1312668E+00
        -11   -1    0    0    0    0  0.00000000000E+00  0.00000000000E+00  0.45593999997E+02  0.45594000000E+02  0.51100000000E-03 0.  1.
         11   -1    0    0    0    0 -0.00000000000E+00 -0.00000000000E+00 -0.45593999997E+02  0.45594000000E+02  0.51100000000E-03 0. -1.
    9900012    2    1    2    0    0 -0.38749740942E+01  0.20703838059E+02  0.37946790502E+02  0.47787271388E+02  0.20000001567E+02 0.  0.
         12    1    1    2    0    0  0.38749740942E+01 -0.20703838059E+02 -0.37946790502E+02  0.43400728612E+02  0.00000000000E+00 0. -1.
         11    1    3    3    0    0  0.22976058201E+01  0.11826300034E+01 -0.53416394545E-01  0.25846585464E+01  0.51100000000E-03 0. -1.
        -11    1    3    3    0    0 -0.76889630278E+01  0.14297852012E+02  0.16987201788E+02  0.23497100873E+02  0.51100000000E-03 0.  1.
        -12    1    3    3    0    0  0.15163831136E+01  0.52233560436E+01  0.21013005109E+02  0.21705511968E+02  0.00000000000E+00 0.  1.
</event>
<event>
 7    1  0.1631716E-009  0.4778728E+02  0.7816164E-02  0.1312668E+00
        -11   -1    0    0    0    0  0.00000000000E+00  0.00000000000E+00  0.45593999997E+02  0.45594000000E+02  0.51100000000E-03 0. -1.
         11   -1    0    0    0    0 -0.00000000000E+00 -0.00000000000E+00 -0.45593999997E+02  0.45594000000E+02  0.51100000000E-03 0.  1.
    9900012    2    1    2    0    0 -0.34895054579E+02  0.12853100017E+01 -0.25774126450E+02  0.47787280535E+02  0.20000043270E+02 0.  0.
         12    1    1    2    0    0  0.34895054579E+02 -0.12853100017E+01  0.25774126450E+02  0.43400719465E+02  0.00000000000E+00 0. -1.
         11    1    3    3    0    0 -0.86639207513E+01 -0.35709169573E+01 -0.27158663636E+01  0.97565824481E+01  0.51100000000E-03 0. -1.
        -11    1    3    3    0    0 -0.15107318097E+02 -0.82682243881E+00 -0.20162563356E+02  0.25208007791E+02  0.51100000000E-03 0.  1.
        -12    1    3    3    0    0 -0.11123815731E+02  0.56830493978E+01 -0.28956967296E+01  0.12822690295E+02  0.00000000000E+00 0.  1.
</event>
<event>
 7    1  0.1631716E-009  0.4778727E+02  0.7816164E-02  0.1312668E+00
        -11   -1    0    0    0    0  0.00000000000E+00  0.00000000000E+00  0.45593999997E+02  0.45594000000E+02  0.51100000000E-03 0.  1.
         11   -1    0    0    0    0 -0.00000000000E+00 -0.00000000000E+00 -0.45593999997E+02  0.45594000000E+02  0.51100000000E-03 0. -1.
    9900012    2    1    2    0    0 -0.11671756879E+02 -0.41218011296E+02  0.69619689250E+01  0.47787269877E+02  0.19999994678E+02 0.  0.
         12    1    1    2    0    0  0.11671756879E+02  0.41218011296E+02 -0.69619689250E+01  0.43400730123E+02  0.00000000000E+00 0. -1.
         11    1    3    3    0    0 -0.32419916716E+01 -0.53234879012E+01 -0.25610536966E+01  0.67386222428E+01  0.51100000000E-03 0. -1.
        -11    1    3    3    0    0 -0.60614358040E+01 -0.26671946140E+02 -0.31979845675E+00  0.27353902578E+02  0.51100000000E-03 0.  1.
         12    1    3    3    0    0 -0.23683294035E+01 -0.92225772548E+01  0.98428210784E+01  0.13694745057E+02  0.00000000000E+00 0. -1.
</event>
<event>
 7    1  0.1631716E-009  0.4778725E+02  0.7816164E-02  0.1312668E+00
        -11   -1    0    0    0    0  0.00000000000E+00  0.00000000000E+00  0.45593999997E+02  0.45594000000E+02  0.51100000000E-03 0.  1.
         11   -1    0    0    0    0 -0.00000000000E+00 -0.00000000000E+00 -0.45593999997E+02  0.45594000000E+02  0.51100000000E-03 0. -1.
    9900012    2    1    2    0    0  0.20660081545E+02  0.23701678690E+02  0.29916831310E+02  0.47787247266E+02  0.19999891585E+02 0.  0.
         12    1    1    2    0    0 -0.20660081545E+02 -0.23701678690E+02 -0.29916831310E+02  0.43400752734E+02  0.00000000000E+00 0. -1.
         11    1    3    3    0    0  0.20756388036E+01  0.43215350488E+01  0.10054037024E+02  0.11138563747E+02  0.51100000000E-03 0.  1.
        -11    1    3    3    0    0 -0.20802039413E+01 -0.11077312661E+00  0.28744692609E+01  0.35499426637E+01  0.51100000000E-03 0. -1.
        -12    1    3    3    0    0  0.20664646683E+02  0.19490916768E+02  0.16988325026E+02  0.33098740855E+02  0.00000000000E+00 0.  1.
</event>
<event>
 7    1  0.1631716E-009  0.4778727E+02  0.7816164E-02  0.1312668E+00
        -11   -1    0    0    0    0  0.00000000000E+00  0.00000000000E+00  0.45593999997E+02  0.45594000000E+02  0.51100000000E-03 0.  1.
         11   -1    0    0    0    0 -0.00000000000E+00 -0.00000000000E+00 -0.45593999997E+02  0.45594000000E+02  0.51100000000E-03 0. -1.
    9900012    2    1    2    0    0  0.50793177451E+01  0.42921312926E+02 -0.39477233287E+01  0.47787273145E+02  0.20000009579E+02 0.  0.
         12    1    1    2    0    0 -0.50793177451E+01 -0.42921312926E+02  0.39477233287E+01  0.43400726855E+02  0.00000000000E+00 0. -1.
         11    1    3    3    0    0  0.61083064200E+01  0.31827326181E+02 -0.88173143303E+01  0.33586234255E+02  0.51100000000E-03 0. -1.
        -11    1    3    3    0    0 -0.21582299119E+01  0.10862544244E+02  0.21973207667E+01  0.11290750312E+02  0.51100000000E-03 0.  1.
         12    1    3    3    0    0  0.11292412369E+01  0.23144250102E+00  0.26722702349E+01  0.29102885786E+01  0.00000000000E+00 0. -1.
</event>
<event>
 7    1  0.1631716E-009  0.4778727E+02  0.7816164E-02  0.1312668E+00
        -11   -1    0    0    0    0  0.00000000000E+00  0.00000000000E+00  0.45593999997E+02  0.45594000000E+02  0.51100000000E-03 0.  1.
         11   -1    0    0    0    0 -0.00000000000E+00 -0.00000000000E+00 -0.45593999997E+02  0.45594000000E+02  0.51100000000E-03 0. -1.
    9900012    2    1    2    0    0  0.12361425481E+02 -0.16895976151E+02  0.38017685161E+02  0.47787271493E+02  0.20000002044E+02 0.  0.
         12    1    1    2    0    0 -0.12361425481E+02  0.16895976151E+02 -0.38017685161E+02  0.43400728507E+02  0.00000000000E+00 0. -1.
         11    1    3    3    0    0  0.10092770500E+01 -0.12064303954E+02  0.70247003494E+01  0.13996874126E+02  0.51100000000E-03 0. -1.
        -11    1    3    3    0    0  0.65648288310E+01 -0.41996596390E+01  0.12965673135E+02  0.15127550984E+02  0.51100000000E-03 0.  1.
         12    1    3    3    0    0  0.47873195997E+01 -0.63201255803E+00  0.18027311676E+02  0.18662846382E+02  0.00000000000E+00 0. -1.
</event>
<event>
 7    1  0.1631716E-009  0.4778727E+02  0.7816164E-02  0.1312668E+00
        -11   -1    0    0    0    0  0.00000000000E+00  0.00000000000E+00  0.45593999997E+02  0.45594000000E+02  0.51100000000E-03 0.  1.
         11   -1    0    0    0    0 -0.00000000000E+00 -0.00000000000E+00 -0.45593999997E+02  0.45594000000E+02  0.51100000000E-03 0. -1.
    9900012    2    1    2    0    0  0.36408888313E+01  0.38509917864E+02  0.19681293348E+02  0.47787272434E+02  0.20000006336E+02 0.  0.
         12    1    1    2    0    0 -0.36408888313E+01 -0.38509917864E+02 -0.19681293348E+02  0.43400727566E+02  0.00000000000E+00 0. -1.
         11    1    3    3    0    0  0.27185745776E+01  0.57530543564E+01  0.77294540200E+01  0.10011630330E+02  0.51100000000E-03 0.  1.
        -11    1    3    3    0    0 -0.40226069685E+01  0.76910128436E+01  0.82226475389E+01  0.11955959944E+02  0.51100000000E-03 0. -1.
        -12    1    3    3    0    0  0.49449212222E+01  0.25065850664E+02  0.37291917889E+01  0.25819682159E+02  0.00000000000E+00 0.  1.
</event>
<event>
 7    1  0.1631716E-009  0.4778721E+02  0.7816164E-02  0.1312668E+00
        -11   -1    0    0    0    0  0.00000000000E+00  0.00000000000E+00  0.45593999997E+02  0.45594000000E+02  0.51100000000E-03 0. -1.
         11   -1    0    0    0    0 -0.00000000000E+00 -0.00000000000E+00 -0.45593999997E+02  0.45594000000E+02  0.51100000000E-03 0.  1.
    9900012    2    1    2    0    0  0.73324092531E+01  0.77784150240E-01 -0.42776842241E+02  0.47787210745E+02  0.19999725069E+02 0.  0.
         12    1    1    2    0    0 -0.73324092531E+01 -0.77784150240E-01  0.42776842241E+02  0.43400789255E+02  0.00000000000E+00 0. -1.
         11    1    3    3    0    0 -0.30062928219E+01  0.34039924410E+01 -0.78963694424E+01  0.91092047787E+01  0.51100000000E-03 0. -1.
        -11    1    3    3    0    0  0.76121992125E+01  0.42046850452E+01 -0.17559959344E+02  0.19595334282E+02  0.51100000000E-03 0.  1.
        -12    1    3    3    0    0  0.27265028624E+01 -0.75308933359E+01 -0.17320513455E+02  0.19082671685E+02  0.00000000000E+00 0.  1.
</event>
<event>
 7    1  0.1631716E-009  0.4778727E+02  0.7816164E-02  0.1312668E+00
        -11   -1    0    0    0    0  0.00000000000E+00  0.00000000000E+00  0.45593999997E+02  0.45594000000E+02  0.51100000000E-03 0. -1.
         11   -1    0    0    0    0 -0.00000000000E+00 -0.00000000000E+00 -0.45593999997E+02  0.45594000000E+02  0.51100000000E-03 0.  1.
    9900012    2    1    2    0    0  0.40372356714E+02  0.14624542002E+02 -0.63102338659E+01  0.47787268822E+02  0.19999989865E+02 0.  0.
         12    1    1    2    0    0 -0.40372356714E+02 -0.14624542002E+02  0.63102338659E+01  0.43400731178E+02  0.00000000000E+00 0. -1.
         11    1    3    3    0    0  0.19053883302E+02  0.12147525017E+02 -0.10755406283E+02  0.25025818618E+02  0.51100000000E-03 0. -1.
        -11    1    3    3    0    0  0.12376302228E+02  0.51713654986E+00 -0.42057546389E+00  0.12394239430E+02  0.51100000000E-03 0.  1.
        -12    1    3    3    0    0  0.89421711833E+01  0.19598804346E+01  0.48657478809E+01  0.10367210774E+02  0.00000000000E+00 0.  1.
</event>
<event>
 7    1  0.1631716E-009  0.4778728E+02  0.7816164E-02  0.1312668E+00
        -11   -1    0    0    0    0  0.00000000000E+00  0.00000000000E+00  0.45593999997E+02  0.45594000000E+02  0.51100000000E-03 0.  1.
         11   -1    0    0    0    0 -0.00000000000E+00 -0.00000000000E+00 -0.45593999997E+02  0.45594000000E+02  0.51100000000E-03 0. -1.
    9900012    2    1    2    0    0 -0.24991467555E+02  0.32230746580E+02  0.14840091462E+02  0.47787276616E+02  0.20000025401E+02 0.  0.
         12    1    1    2    0    0  0.24991467555E+02 -0.32230746580E+02 -0.14840091462E+02  0.43400723384E+02  0.00000000000E+00 0. -1.
         11    1    3    3    0    0 -0.92507803927E+01  0.21074263175E+01  0.87915436648E+00  0.95284361896E+01  0.51100000000E-03 0. -1.
        -11    1    3    3    0    0 -0.48685669545E+01  0.11782961950E+02  0.10792784366E+02  0.16704051339E+02  0.51100000000E-03 0.  1.
        -12    1    3    3    0    0 -0.10872120208E+02  0.18340358313E+02  0.31681527293E+01  0.21554789087E+02  0.00000000000E+00 0.  1.
</event>
<event>
 7    1  0.1631716E-009  0.4778726E+02  0.7816164E-02  0.1312668E+00
        -11   -1    0    0    0    0  0.00000000000E+00  0.00000000000E+00  0.45593999997E+02  0.45594000000E+02  0.51100000000E-03 0. -1.
         11   -1    0    0    0    0 -0.00000000000E+00 -0.00000000000E+00 -0.45593999997E+02  0.45594000000E+02  0.51100000000E-03 0.  1.
    9900012    2    1    2    0    0  0.42734653548E+02 -0.23639960254E+00  0.75708307352E+01  0.47787262948E+02  0.19999963086E+02 0.  0.
         12    1    1    2    0    0 -0.42734653548E+02  0.23639960254E+00 -0.75708307352E+01  0.43400737052E+02  0.00000000000E+00 0. -1.
         11    1    3    3    0    0  0.56513187682E+00 -0.23451522121E+01 -0.18796302372E+01  0.30581241024E+01  0.51100000000E-03 0. -1.
        -11    1    3    3    0    0  0.16703004917E+02 -0.19906508775E+01  0.86673629153E+01  0.18922902640E+02  0.51100000000E-03 0.  1.
         12    1    3    3    0    0  0.25466516754E+02  0.40994034870E+01  0.78309805711E+00  0.25806236206E+02  0.00000000000E+00 0. -1.
</event>
<event>
 7    1  0.1631716E-009  0.4778727E+02  0.7816164E-02  0.1312668E+00
        -11   -1    0    0    0    0  0.00000000000E+00  0.00000000000E+00  0.45593999997E+02  0.45594000000E+02  0.51100000000E-03 0.  1.
         11   -1    0    0    0    0 -0.00000000000E+00 -0.00000000000E+00 -0.45593999997E+02  0.45594000000E+02  0.51100000000E-03 0. -1.
    9900012    2    1    2    0    0 -0.30907878817E+02 -0.76777324701E+01  0.29485230879E+02  0.47787269720E+02  0.19999993962E+02 0.  0.
         12    1    1    2    0    0  0.30907878817E+02  0.76777324701E+01 -0.29485230879E+02  0.43400730280E+02  0.00000000000E+00 0. -1.
         11    1    3    3    0    0 -0.58843312295E+01 -0.52344931825E+01  0.70260142580E+01  0.10554153188E+02  0.51100000000E-03 0. -1.
        -11    1    3    3    0    0 -0.20702641821E+02  0.21782382640E+01  0.22829534728E+02  0.30895497350E+02  0.51100000000E-03 0.  1.
        -12    1    3    3    0    0 -0.43209057665E+01 -0.46214775517E+01 -0.37031810754E+00  0.63376191826E+01  0.00000000000E+00 0.  1.
</event>
<event>
 7    1  0.1631716E-009  0.4778727E+02  0.7816164E-02  0.1312668E+00
        -11   -1    0    0    0    0  0.00000000000E+00  0.00000000000E+00  0.45593999997E+02  0.45594000000E+02  0.51100000000E-03 0. -1.
         11   -1    0    0    0    0 -0.00000000000E+00 -0.00000000000E+00 -0.45593999997E+02  0.45594000000E+02  0.51100000000E-03 0.  1.
    9900012    2    1    2    0    0  0.20391571902E+02  0.20515042518E+02 -0.32356449572E+02  0.47787274164E+02  0.20000014226E+02 0.  0.
         12    1    1    2    0    0 -0.20391571902E+02 -0.20515042518E+02  0.32356449572E+02  0.43400725836E+02  0.00000000000E+00 0. -1.
         11    1    3    3    0    0  0.29998215033E+01 -0.30181124180E+01 -0.50176368541E+01  0.65791041549E+01  0.51100000000E-03 0. -1.
        -11    1    3    3    0    0  0.37619377957E+01  0.79944720183E+01 -0.31239881993E+01  0.93713959132E+01  0.51100000000E-03 0.  1.
        -12    1    3    3    0    0  0.13629812603E+02  0.15538682918E+02 -0.24214824518E+02  0.31836774096E+02  0.00000000000E+00 0.  1.
</event>
<event>
 7    1  0.1631716E-009  0.4778727E+02  0.7816164E-02  0.1312668E+00
        -11   -1    0    0    0    0  0.00000000000E+00  0.00000000000E+00  0.45593999997E+02  0.45594000000E+02  0.51100000000E-03 0. -1.
         11   -1    0    0    0    0 -0.00000000000E+00 -0.00000000000E+00 -0.45593999997E+02  0.45594000000E+02  0.51100000000E-03 0.  1.
    9900012    2    1    2    0    0 -0.37193277301E+01  0.26571990642E+02 -0.34113325548E+02  0.47787273447E+02  0.20000010953E+02 0.  0.
         12    1    1    2    0    0  0.37193277301E+01 -0.26571990642E+02  0.34113325548E+02  0.43400726553E+02  0.00000000000E+00 0. -1.
         11    1    3    3    0    0 -0.50034698485E+01  0.63065420124E+01 -0.70143014859E+00  0.80807912480E+01  0.51100000000E-03 0. -1.
        -11    1    3    3    0    0 -0.18266797367E+00 -0.52070502535E+00 -0.14537658527E+01  0.15549716163E+01  0.51100000000E-03 0.  1.
        -12    1    3    3    0    0  0.14668100921E+01  0.20786153655E+02 -0.31958129547E+02  0.38151510582E+02  0.00000000000E+00 0.  1.
</event>
<event>
 7    1  0.1631716E-009  0.4778727E+02  0.7816164E-02  0.1312668E+00
        -11   -1    0    0    0    0  0.00000000000E+00  0.00000000000E+00  0.45593999997E+02  0.45594000000E+02  0.51100000000E-03 0.  1.
         11   -1    0    0    0    0 -0.00000000000E+00 -0.00000000000E+00 -0.45593999997E+02  0.45594000000E+02  0.51100000000E-03 0. -1.
    9900012    2    1    2    0    0  0.91554820157E+01  0.29634788847E+02  0.30357530101E+02  0.47787271955E+02  0.20000004153E+02 0.  0.
         12    1    1    2    0    0 -0.91554820157E+01 -0.29634788847E+02 -0.30357530101E+02  0.43400728045E+02  0.00000000000E+00 0. -1.
         11    1    3    3    0    0 -0.12332369169E+01  0.20724060799E+01  0.98747755540E+01  0.10164985625E+02  0.51100000000E-03 0. -1.
        -11    1    3    3    0    0  0.92637251624E+00  0.76617299315E+01  0.27301045104E+00  0.77223575772E+01  0.51100000000E-03 0.  1.
        -12    1    3    3    0    0  0.94623464164E+01  0.19900652836E+02  0.20209744096E+02  0.29899928753E+02  0.00000000000E+00 0.  1.
</event>
<event>
 7    1  0.1631716E-009  0.4778727E+02  0.7816164E-02  0.1312668E+00
        -11   -1    0    0    0    0  0.00000000000E+00  0.00000000000E+00  0.45593999997E+02  0.45594000000E+02  0.51100000000E-03 0. -1.
         11   -1    0    0    0    0 -0.00000000000E+00 -0.00000000000E+00 -0.45593999997E+02  0.45594000000E+02  0.51100000000E-03 0.  1.
    9900012    2    1    2    0    0 -0.36316667607E+02 -0.23722460909E+02  0.14028673537E+01  0.47787268042E+02  0.19999986311E+02 0.  0.
         12    1    1    2    0    0  0.36316667607E+02  0.23722460909E+02 -0.14028673537E+01  0.43400731958E+02  0.00000000000E+00 0. -1.
         11    1    3    3    0    0 -0.11303622101E+02 -0.46075277686E+00  0.65485032364E+01  0.13071612778E+02  0.51100000000E-03 0.  1.
        -11    1    3    3    0    0 -0.57424439797E+01 -0.74367259688E+01 -0.15122962475E+01  0.95167009093E+01  0.51100000000E-03 0. -1.
        -12    1    3    3    0    0 -0.19270601526E+02 -0.15824982164E+02 -0.36333396352E+01  0.25198954355E+02  0.00000000000E+00 0.  1.
</event>
<event>
 7    1  0.1631716E-009  0.4778727E+02  0.7816164E-02  0.1312668E+00
        -11   -1    0    0    0    0  0.00000000000E+00  0.00000000000E+00  0.45593999997E+02  0.45594000000E+02  0.51100000000E-03 0.  1.
         11   -1    0    0    0    0 -0.00000000000E+00 -0.00000000000E+00 -0.45593999997E+02  0.45594000000E+02  0.51100000000E-03 0. -1.
    9900012    2    1    2    0    0  0.12427258427E+02 -0.22762428825E+02  0.34800264790E+02  0.47787270197E+02  0.19999996135E+02 0.  0.
         12    1    1    2    0    0 -0.12427258427E+02  0.22762428825E+02 -0.34800264790E+02  0.43400729803E+02  0.00000000000E+00 0. -1.
         11    1    3    3    0    0 -0.25150954405E+01 -0.39367127250E+01  0.18433051238E+01  0.50220699114E+01  0.51100000000E-03 0. -1.
        -11    1    3    3    0    0  0.12149586814E+02 -0.12576149331E+02  0.13356480754E+02  0.22003808083E+02  0.51100000000E-03 0.  1.
        -12    1    3    3    0    0  0.27927670535E+01 -0.62495667690E+01  0.19600478912E+02  0.20761392203E+02  0.00000000000E+00 0.  1.
</event>
<event>
 7    1  0.1631716E-009  0.4778727E+02  0.7816164E-02  0.1312668E+00
        -11   -1    0    0    0    0  0.00000000000E+00  0.00000000000E+00  0.45593999997E+02  0.45594000000E+02  0.51100000000E-03 0.  1.
         11   -1    0    0    0    0 -0.00000000000E+00 -0.00000000000E+00 -0.45593999997E+02  0.45594000000E+02  0.51100000000E-03 0. -1.
    9900012    2    1    2    0    0  0.13996361060E+02 -0.10406827651E+02  0.39741955682E+02  0.47787271594E+02  0.20000002507E+02 0.  0.
         12    1    1    2    0    0 -0.13996361060E+02  0.10406827651E+02 -0.39741955682E+02  0.43400728406E+02  0.00000000000E+00 0. -1.
         11    1    3    3    0    0 -0.18903493879E+01 -0.28342346710E+01  0.57493371136E+01  0.66829023998E+01  0.51100000000E-03 0. -1.
        -11    1    3    3    0    0  0.12303033964E+02  0.27606625283E+00  0.28041449175E+02  0.30622928165E+02  0.51100000000E-03 0.  1.
         12    1    3    3    0    0  0.35836764847E+01 -0.78486592333E+01  0.59511693932E+01  0.10481441029E+02  0.00000000000E+00 0. -1.
</event>
<event>
 7    1  0.1747577E-009  0.4778727E+02  0.7816164E-02  0.1312668E+00
        -11   -1    0    0    0    0  0.00000000000E+00  0.00000000000E+00  0.45593999997E+02  0.45594000000E+02  0.51100000000E-03 0. -1.
         11   -1    0    0    0    0 -0.00000000000E+00 -0.00000000000E+00 -0.45593999997E+02  0.45594000000E+02  0.51100000000E-03 0.  1.
    9900012    2    1    2    0    0 -0.20967347134E+02  0.71304175076E+01 -0.37324941555E+02  0.47787265424E+02  0.19999974374E+02 0.  0.
         12    1    1    2    0    0  0.20967347134E+02 -0.71304175076E+01  0.37324941555E+02  0.43400734576E+02  0.00000000000E+00 0. -1.
         11    1    3    3    0    0  0.98683897507E+00  0.26080333929E+01  0.57975336369E-01  0.27890949683E+01  0.51100000000E-03 0. -1.
        -11    1    3    3    0    0 -0.78777128452E+01 -0.35053854721E+01 -0.15918044789E+02  0.18103321163E+02  0.51100000000E-03 0.  1.
        -12    1    3    3    0    0 -0.14076473263E+02  0.80277695868E+01 -0.21464872102E+02  0.26894849292E+02  0.00000000000E+00 0.  1.
</event>
<event>
 7    1  0.1631716E-009  0.4778727E+02  0.7816164E-02  0.1312668E+00
        -11   -1    0    0    0    0  0.00000000000E+00  0.00000000000E+00  0.45593999997E+02  0.45594000000E+02  0.51100000000E-03 0. -1.
         11   -1    0    0    0    0 -0.00000000000E+00 -0.00000000000E+00 -0.45593999997E+02  0.45594000000E+02  0.51100000000E-03 0.  1.
    9900012    2    1    2    0    0 -0.17989826853E+02 -0.14837352204E+02 -0.36603861591E+02  0.47787267587E+02  0.19999984236E+02 0.  0.
         12    1    1    2    0    0  0.17989826853E+02  0.14837352204E+02  0.36603861591E+02  0.43400732413E+02  0.00000000000E+00 0. -1.
         11    1    3    3    0    0 -0.37426631418E+01  0.11080605086E+01 -0.36038012050E+01  0.53125049525E+01  0.51100000000E-03 0. -1.
        -11    1    3    3    0    0 -0.13150999845E+02 -0.15307281097E+02 -0.34826532538E+02  0.40251074773E+02  0.51100000000E-03 0.  1.
        -12    1    3    3    0    0 -0.10961638665E+01 -0.63813161543E+00  0.18264721524E+01  0.22236878613E+01  0.00000000000E+00 0.  1.
</event>
<event>
 7    1  0.1631716E-009  0.4778727E+02  0.7816164E-02  0.1312668E+00
        -11   -1    0    0    0    0  0.00000000000E+00  0.00000000000E+00  0.45593999997E+02  0.45594000000E+02  0.51100000000E-03 0.  1.
         11   -1    0    0    0    0 -0.00000000000E+00 -0.00000000000E+00 -0.45593999997E+02  0.45594000000E+02  0.51100000000E-03 0. -1.
    9900012    2    1    2    0    0  0.20006322843E+02  0.10682838106E+02  0.37003340126E+02  0.47787272308E+02  0.20000005763E+02 0.  0.
         12    1    1    2    0    0 -0.20006322843E+02 -0.10682838106E+02 -0.37003340126E+02  0.43400727692E+02  0.00000000000E+00 0. -1.
         11    1    3    3    0    0  0.14261382667E+01  0.21104626737E+01  0.12864505479E+02  0.13114245099E+02  0.51100000000E-03 0. -1.
        -11    1    3    3    0    0  0.11937628386E+02  0.12322290497E+02  0.15193468634E+02  0.22916965418E+02  0.51100000000E-03 0.  1.
         12    1    3    3    0    0  0.66425561898E+01 -0.37499150647E+01  0.89453660126E+01  0.11756061791E+02  0.00000000000E+00 0. -1.
</event>
<event>
 7    1  0.1631716E-009  0.4778728E+02  0.7816164E-02  0.1312668E+00
        -11   -1    0    0    0    0  0.00000000000E+00  0.00000000000E+00  0.45593999997E+02  0.45594000000E+02  0.51100000000E-03 0.  1.
         11   -1    0    0    0    0 -0.00000000000E+00 -0.00000000000E+00 -0.45593999997E+02  0.45594000000E+02  0.51100000000E-03 0. -1.
    9900012    2    1    2    0    0 -0.18562746238E+02  0.21217077920E+02  0.32998217899E+02  0.47787281943E+02  0.20000049691E+02 0.  0.
         12    1    1    2    0    0  0.18562746238E+02 -0.21217077920E+02 -0.32998217899E+02  0.43400718057E+02  0.00000000000E+00 0. -1.
         11    1    3    3    0    0 -0.18824821179E+02  0.97355490787E+01  0.23486672532E+02  0.31635084877E+02  0.51100000000E-03 0. -1.
        -11    1    3    3    0    0 -0.15405191853E+01  0.70367980052E+01  0.86876312415E+01  0.11285595349E+02  0.51100000000E-03 0.  1.
         12    1    3    3    0    0  0.18025941265E+01  0.44447308360E+01  0.82391412561E+00  0.48666017174E+01  0.00000000000E+00 0. -1.
</event>
<event>
 7    1  0.1631716E-009  0.4778727E+02  0.7816164E-02  0.1312668E+00
        -11   -1    0    0    0    0  0.00000000000E+00  0.00000000000E+00  0.45593999997E+02  0.45594000000E+02  0.51100000000E-03 0.  1.
         11   -1    0    0    0    0 -0.00000000000E+00 -0.00000000000E+00 -0.45593999997E+02  0.45594000000E+02  0.51100000000E-03 0. -1.
    9900012    2    1    2    0    0  0.30564608434E+02 -0.13299688818E+02  0.27794712520E+02  0.47787273561E+02  0.20000011473E+02 0.  0.
         12    1    1    2    0    0 -0.30564608434E+02  0.13299688818E+02 -0.27794712520E+02  0.43400726439E+02  0.00000000000E+00 0. -1.
         11    1    3    3    0    0  0.28096550072E+01 -0.21874326140E+00  0.10194365230E+02  0.10576724095E+02  0.51100000000E-03 0. -1.
        -11    1    3    3    0    0  0.19663443560E+02 -0.59984041973E+01  0.16576475401E+02  0.26408547907E+02  0.51100000000E-03 0.  1.
         12    1    3    3    0    0  0.80915098672E+01 -0.70825413596E+01  0.10238718880E+01  0.10802001559E+02  0.00000000000E+00 0. -1.
</event>
<event>
 7    1  0.1631716E-009  0.4778727E+02  0.7816164E-02  0.1312668E+00
        -11   -1    0    0    0    0  0.00000000000E+00  0.00000000000E+00  0.45593999997E+02  0.45594000000E+02  0.51100000000E-03 0.  1.
         11   -1    0    0    0    0 -0.00000000000E+00 -0.00000000000E+00 -0.45593999997E+02  0.45594000000E+02  0.51100000000E-03 0. -1.
    9900012    2    1    2    0    0  0.14436525600E+02 -0.33284562643E+02  0.23819063316E+02  0.47787272368E+02  0.20000006034E+02 0.  0.
         12    1    1    2    0    0 -0.14436525600E+02  0.33284562643E+02 -0.23819063316E+02  0.43400727632E+02  0.00000000000E+00 0. -1.
         11    1    3    3    0    0  0.21696383093E+01 -0.29344181575E+01  0.88491214187E+01  0.95720995848E+01  0.51100000000E-03 0. -1.
        -11    1    3    3    0    0 -0.10319700250E+01 -0.23163221803E+01  0.50309846378E+01  0.56339255641E+01  0.51100000000E-03 0.  1.
        -12    1    3    3    0    0  0.13298857316E+02 -0.28033822305E+02  0.99389572600E+01  0.32581247219E+02  0.00000000000E+00 0.  1.
</event>
<event>
 7    1  0.1631716E-009  0.4778727E+02  0.7816164E-02  0.1312668E+00
        -11   -1    0    0    0    0  0.00000000000E+00  0.00000000000E+00  0.45593999997E+02  0.45594000000E+02  0.51100000000E-03 0.  1.
         11   -1    0    0    0    0 -0.00000000000E+00 -0.00000000000E+00 -0.45593999997E+02  0.45594000000E+02  0.51100000000E-03 0. -1.
    9900012    2    1    2    0    0  0.29503177790E+02  0.20629675857E+02  0.24240509798E+02  0.47787270272E+02  0.19999996477E+02 0.  0.
         12    1    1    2    0    0 -0.29503177790E+02 -0.20629675857E+02 -0.24240509798E+02  0.43400729728E+02  0.00000000000E+00 0. -1.
         11    1    3    3    0    0  0.17276758439E+01 -0.16684044597E+01 -0.15661570232E+01  0.28672783864E+01  0.51100000000E-03 0. -1.
        -11    1    3    3    0    0  0.13950759911E+02  0.58885636750E+01  0.12808207853E+02  0.19833029847E+02  0.51100000000E-03 0.  1.
         12    1    3    3    0    0  0.13824742036E+02  0.16409516642E+02  0.12998458968E+02  0.25086962039E+02  0.00000000000E+00 0. -1.
</event>
<event>
 7    1  0.1631716E-009  0.4778727E+02  0.7816164E-02  0.1312668E+00
        -11   -1    0    0    0    0  0.00000000000E+00  0.00000000000E+00  0.45593999997E+02  0.45594000000E+02  0.51100000000E-03 0.  1.
         11   -1    0    0    0    0 -0.00000000000E+00 -0.00000000000E+00 -0.45593999997E+02  0.45594000000E+02  0.51100000000E-03 0. -1.
    9900012    2    1    2    0    0  0.26088609938E+02  0.22013025022E+02  0.26803629651E+02  0.47787269573E+02  0.19999993291E+02 0.  0.
         12    1    1    2    0    0 -0.26088609938E+02 -0.22013025022E+02 -0.26803629651E+02  0.43400730427E+02  0.00000000000E+00 0. -1.
         11    1    3    3    0    0  0.16808524272E+02  0.20755473612E+02  0.10055480843E+02  0.28538200159E+02  0.51100000000E-03 0. -1.
        -11    1    3    3    0    0  0.29356296428E+01  0.95484477238E-01  0.40055231560E+01  0.49670166800E+01  0.51100000000E-03 0.  1.
         12    1    3    3    0    0  0.63444560229E+01  0.11620669327E+01  0.12742625652E+02  0.14282052734E+02  0.00000000000E+00 0. -1.
</event>
<event>
 7    1  0.1631716E-009  0.4778727E+02  0.7816164E-02  0.1312668E+00
        -11   -1    0    0    0    0  0.00000000000E+00  0.00000000000E+00  0.45593999997E+02  0.45594000000E+02  0.51100000000E-03 0. -1.
         11   -1    0    0    0    0 -0.00000000000E+00 -0.00000000000E+00 -0.45593999997E+02  0.45594000000E+02  0.51100000000E-03 0.  1.
    9900012    2    1    2    0    0  0.30147334704E+02 -0.23365614483E+02 -0.20707726286E+02  0.47787266621E+02  0.19999979830E+02 0.  0.
         12    1    1    2    0    0 -0.30147334704E+02  0.23365614483E+02  0.20707726286E+02  0.43400733379E+02  0.00000000000E+00 0. -1.
         11    1    3    3    0    0  0.93684054287E+01 -0.69415800805E+01 -0.73328962791E+01  0.13774030724E+02  0.51100000000E-03 0. -1.
        -11    1    3    3    0    0  0.30444773752E+01 -0.99205379804E+01 -0.10751582989E+02  0.14942638768E+02  0.51100000000E-03 0.  1.
         12    1    3    3    0    0  0.17734451900E+02 -0.65034964222E+01 -0.26232470171E+01  0.19070597128E+02  0.00000000000E+00 0. -1.
</event>
<event>
 7    1  0.1631716E-009  0.4778726E+02  0.7816164E-02  0.1312668E+00
        -11   -1    0    0    0    0  0.00000000000E+00  0.00000000000E+00  0.45593999997E+02  0.45594000000E+02  0.51100000000E-03 0.  1.
         11   -1    0    0    0    0 -0.00000000000E+00 -0.00000000000E+00 -0.45593999997E+02  0.45594000000E+02  0.51100000000E-03 0. -1.
    9900012    2    1    2    0    0 -0.21289715985E+02 -0.74115188998E+01  0.37086942513E+02  0.47787263554E+02  0.19999965849E+02 0.  0.
         12    1    1    2    0    0  0.21289715985E+02  0.74115188998E+01 -0.37086942513E+02  0.43400736446E+02  0.00000000000E+00 0. -1.
         11    1    3    3    0    0 -0.27539956959E+01  0.16777094286E+00  0.21245441582E+02  0.21423851840E+02  0.51100000000E-03 0. -1.
        -11    1    3    3    0    0 -0.79539593891E+01 -0.66807138842E+01  0.88752851286E+01  0.13662653269E+02  0.51100000000E-03 0.  1.
        -12    1    3    3    0    0 -0.10581760900E+02 -0.89857595842E+00  0.69662158017E+01  0.12700758445E+02  0.00000000000E+00 0.  1.
</event>
<event>
 7    1  0.1631716E-009  0.4778727E+02  0.7816164E-02  0.1312668E+00
        -11   -1    0    0    0    0  0.00000000000E+00  0.00000000000E+00  0.45593999997E+02  0.45594000000E+02  0.51100000000E-03 0. -1.
         11   -1    0    0    0    0 -0.00000000000E+00 -0.00000000000E+00 -0.45593999997E+02  0.45594000000E+02  0.51100000000E-03 0.  1.
    9900012    2    1    2    0    0  0.32467927481E+01 -0.37235828443E+02 -0.22058431345E+02  0.47787274472E+02  0.20000015627E+02 0.  0.
         12    1    1    2    0    0 -0.32467927481E+01  0.37235828443E+02  0.22058431345E+02  0.43400725528E+02  0.00000000000E+00 0. -1.
         11    1    3    3    0    0  0.14528689522E+01 -0.91755978394E+01 -0.99186441302E+01  0.13589772829E+02  0.51100000000E-03 0. -1.
        -11    1    3    3    0    0  0.34051179546E+01 -0.29862671851E+01  0.24436166892E+01  0.51462493887E+01  0.51100000000E-03 0.  1.
        -12    1    3    3    0    0 -0.16111941587E+01 -0.25073963418E+02 -0.14583403904E+02  0.29051252254E+02  0.00000000000E+00 0.  1.
</event>
<event>
 7    1  0.1631716E-009  0.4778723E+02  0.7816164E-02  0.1312668E+00
        -11   -1    0    0    0    0  0.00000000000E+00  0.00000000000E+00  0.45593999997E+02  0.45594000000E+02  0.51100000000E-03 0.  1.
         11   -1    0    0    0    0 -0.00000000000E+00 -0.00000000000E+00 -0.45593999997E+02  0.45594000000E+02  0.51100000000E-03 0. -1.
    9900012    2    1    2    0    0 -0.20996964087E+02 -0.20326864229E+02  0.32086954415E+02  0.47787233257E+02  0.19999827712E+02 0.  0.
         12    1    1    2    0    0  0.20996964087E+02  0.20326864229E+02 -0.32086954415E+02  0.43400766743E+02  0.00000000000E+00 0. -1.
         11    1    3    3    0    0 -0.41127720828E+01 -0.81473693061E+01 -0.40853149975E+00  0.91357221423E+01  0.51100000000E-03 0. -1.
        -11    1    3    3    0    0 -0.70074726455E+01 -0.56685855916E+01  0.12344188247E+02  0.15284518940E+02  0.51100000000E-03 0.  1.
         12    1    3    3    0    0 -0.98767193587E+01 -0.65109093309E+01  0.20151297668E+02  0.23366992175E+02  0.00000000000E+00 0. -1.
</event>
<event>
 7    1  0.1631716E-009  0.4778726E+02  0.7816164E-02  0.1312668E+00
        -11   -1    0    0    0    0  0.00000000000E+00  0.00000000000E+00  0.45593999997E+02  0.45594000000E+02  0.51100000000E-03 0. -1.
         11   -1    0    0    0    0 -0.00000000000E+00 -0.00000000000E+00 -0.45593999997E+02  0.45594000000E+02  0.51100000000E-03 0.  1.
    9900012    2    1    2    0    0  0.36300630768E+02  0.11733429867E+02 -0.20693354218E+02  0.47787261765E+02  0.19999957690E+02 0.  0.
         12    1    1    2    0    0 -0.36300630768E+02 -0.11733429867E+02  0.20693354218E+02  0.43400738235E+02  0.00000000000E+00 0. -1.
         11    1    3    3    0    0 -0.90853957964E+00 -0.33966829834E+00  0.15596263565E+01  0.18366418686E+01  0.51100000000E-03 0. -1.
        -11    1    3    3    0    0  0.19399427566E+00 -0.51220099268E+00 -0.16900095641E+01  0.17765461502E+01  0.51100000000E-03 0.  1.
        -12    1    3    3    0    0  0.37015176072E+02  0.12585299158E+02 -0.20562971010E+02  0.44174073746E+02  0.00000000000E+00 0.  1.
</event>
<event>
 7    1  0.1631716E-009  0.4778727E+02  0.7816164E-02  0.1312668E+00
        -11   -1    0    0    0    0  0.00000000000E+00  0.00000000000E+00  0.45593999997E+02  0.45594000000E+02  0.51100000000E-03 0.  1.
         11   -1    0    0    0    0 -0.00000000000E+00 -0.00000000000E+00 -0.45593999997E+02  0.45594000000E+02  0.51100000000E-03 0. -1.
    9900012    2    1    2    0    0 -0.25934962912E+01  0.37736567075E+02  0.21280240057E+02  0.47787270346E+02  0.19999996814E+02 0.  0.
         12    1    1    2    0    0  0.25934962912E+01 -0.37736567075E+02 -0.21280240057E+02  0.43400729654E+02  0.00000000000E+00 0. -1.
         11    1    3    3    0    0 -0.85271258492E+01  0.21680711907E+02  0.86155882911E+01  0.24839353975E+02  0.51100000000E-03 0. -1.
        -11    1    3    3    0    0  0.22182245117E+01  0.14955872114E+02  0.88949467008E+01  0.17541912888E+02  0.51100000000E-03 0.  1.
        -12    1    3    3    0    0  0.37154050463E+01  0.10999830536E+01  0.37697050653E+01  0.54060034827E+01  0.00000000000E+00 0.  1.
</event>
<event>
 7    1  0.1631716E-009  0.4778727E+02  0.7816164E-02  0.1312668E+00
        -11   -1    0    0    0    0  0.00000000000E+00  0.00000000000E+00  0.45593999997E+02  0.45594000000E+02  0.51100000000E-03 0.  1.
         11   -1    0    0    0    0 -0.00000000000E+00 -0.00000000000E+00 -0.45593999997E+02  0.45594000000E+02  0.51100000000E-03 0. -1.
    9900012    2    1    2    0    0 -0.32334393471E+02 -0.28058041939E+02  0.71313804121E+01  0.47787270684E+02  0.19999998355E+02 0.  0.
         12    1    1    2    0    0  0.32334393471E+02  0.28058041939E+02 -0.71313804121E+01  0.43400729316E+02  0.00000000000E+00 0. -1.
         11    1    3    3    0    0  0.96650415642E+00 -0.15428065420E+01  0.11591471015E+01  0.21582410835E+01  0.51100000000E-03 0. -1.
        -11    1    3    3    0    0 -0.33111345865E+02 -0.27871354185E+02  0.70955031268E+01  0.43857949952E+02  0.51100000000E-03 0.  1.
        -12    1    3    3    0    0 -0.18955176208E+00  0.13561187880E+01 -0.11232698163E+01  0.17710796475E+01  0.00000000000E+00 0.  1.
</event>
<event>
 7    1  0.1631716E-009  0.4778728E+02  0.7816164E-02  0.1312668E+00
        -11   -1    0    0    0    0  0.00000000000E+00  0.00000000000E+00  0.45593999997E+02  0.45594000000E+02  0.51100000000E-03 0.  1.
         11   -1    0    0    0    0 -0.00000000000E+00 -0.00000000000E+00 -0.45593999997E+02  0.45594000000E+02  0.51100000000E-03 0. -1.
    9900012    2    1    2    0    0  0.17972756694E+02  0.38200071744E+02  0.10067632939E+02  0.47787277685E+02  0.20000030279E+02 0.  0.
         12    1    1    2    0    0 -0.17972756694E+02 -0.38200071744E+02 -0.10067632939E+02  0.43400722315E+02  0.00000000000E+00 0. -1.
         11    1    3    3    0    0  0.10044246658E+02  0.17403038836E+02  0.35999287439E+01  0.20413528330E+02  0.51100000000E-03 0. -1.
        -11    1    3    3    0    0 -0.15822558262E+01 -0.10113678045E+01 -0.13694312802E+01  0.23241645010E+01  0.51100000000E-03 0.  1.
        -12    1    3    3    0    0  0.95107658617E+01  0.21808400713E+02  0.78371354750E+01  0.25049584855E+02  0.00000000000E+00 0.  1.
</event>
<event>
 7    1  0.1631716E-009  0.4778726E+02  0.7816164E-02  0.1312668E+00
        -11   -1    0    0    0    0  0.00000000000E+00  0.00000000000E+00  0.45593999997E+02  0.45594000000E+02  0.51100000000E-03 0.  1.
         11   -1    0    0    0    0 -0.00000000000E+00 -0.00000000000E+00 -0.45593999997E+02  0.45594000000E+02  0.51100000000E-03 0. -1.
    9900012    2    1    2    0    0 -0.16112302874E+02  0.13184652447E+02  0.38081269589E+02  0.47787257407E+02  0.19999937823E+02 0.  0.
         12    1    1    2    0    0  0.16112302874E+02 -0.13184652447E+02 -0.38081269589E+02  0.43400742593E+02  0.00000000000E+00 0. -1.
         11    1    3    3    0    0 -0.14846603644E+01 -0.11377415264E+01  0.50923108867E+00  0.19385532599E+01  0.51100000000E-03 0.  1.
        -11    1    3    3    0    0 -0.45412415027E+01  0.15150704721E+02  0.26390817527E+02  0.30767547480E+02  0.51100000000E-03 0. -1.
         12    1    3    3    0    0 -0.10086401007E+02 -0.82831074753E+00  0.11181220974E+02  0.15081156668E+02  0.00000000000E+00 0. -1.
</event>
<event>
 7    1  0.1984530E-009  0.4778727E+02  0.7816164E-02  0.1312668E+00
        -11   -1    0    0    0    0  0.00000000000E+00  0.00000000000E+00  0.45593999997E+02  0.45594000000E+02  0.51100000000E-03 0. -1.
         11   -1    0    0    0    0 -0.00000000000E+00 -0.00000000000E+00 -0.45593999997E+02  0.45594000000E+02  0.51100000000E-03 0.  1.
    9900012    2    1    2    0    0  0.48492839314E+01 -0.17988976540E+00 -0.43128591754E+02  0.47787270263E+02  0.19999996438E+02 0.  0.
         12    1    1    2    0    0 -0.48492839314E+01  0.17988976540E+00  0.43128591754E+02  0.43400729737E+02  0.00000000000E+00 0. -1.
         11    1    3    3    0    0 -0.84323264437E+00  0.35410749381E+01 -0.37116708634E+01  0.51987261775E+01  0.51100000000E-03 0. -1.
        -11    1    3    3    0    0  0.46624498886E+01  0.23303198497E+00 -0.37967042901E+02  0.38252961844E+02  0.51100000000E-03 0.  1.
         12    1    3    3    0    0  0.10300666872E+01 -0.39539966884E+01 -0.14498779896E+01  0.43355822420E+01  0.00000000000E+00 0. -1.
</event>
<event>
 7    1  0.1631716E-009  0.4778727E+02  0.7816164E-02  0.1312668E+00
        -11   -1    0    0    0    0  0.00000000000E+00  0.00000000000E+00  0.45593999997E+02  0.45594000000E+02  0.51100000000E-03 0.  1.
         11   -1    0    0    0    0 -0.00000000000E+00 -0.00000000000E+00 -0.45593999997E+02  0.45594000000E+02  0.51100000000E-03 0. -1.
    9900012    2    1    2    0    0  0.61690414268E-01  0.24793791086E+02  0.35621451498E+02  0.47787266263E+02  0.19999978200E+02 0.  0.
         12    1    1    2    0    0 -0.61690414268E-01 -0.24793791086E+02 -0.35621451498E+02  0.43400733737E+02  0.00000000000E+00 0. -1.
         11    1    3    3    0    0  0.74858810220E+00  0.76425926225E+00 -0.16391436036E+01  0.19573626084E+01  0.51100000000E-03 0. -1.
        -11    1    3    3    0    0 -0.52289520142E+01  0.18049934216E+02  0.22890516758E+02  0.29616175008E+02  0.51100000000E-03 0.  1.
         12    1    3    3    0    0  0.45420543263E+01  0.59795976072E+01  0.14370078343E+02  0.16213728647E+02  0.00000000000E+00 0. -1.
</event>
<event>
 7    1  0.1631716E-009  0.4778727E+02  0.7816164E-02  0.1312668E+00
        -11   -1    0    0    0    0  0.00000000000E+00  0.00000000000E+00  0.45593999997E+02  0.45594000000E+02  0.51100000000E-03 0.  1.
         11   -1    0    0    0    0 -0.00000000000E+00 -0.00000000000E+00 -0.45593999997E+02  0.45594000000E+02  0.51100000000E-03 0. -1.
    9900012    2    1    2    0    0  0.30760773087E+02  0.30372615937E+02 -0.38603135035E+01  0.47787274428E+02  0.20000015429E+02 0.  0.
         12    1    1    2    0    0 -0.30760773087E+02 -0.30372615937E+02  0.38603135035E+01  0.43400725572E+02  0.00000000000E+00 0. -1.
         11    1    3    3    0    0  0.11040210566E+02  0.13509909536E+02 -0.56264688449E+01  0.18331968169E+02  0.51100000000E-03 0. -1.
        -11    1    3    3    0    0  0.10498663542E+02  0.11046712581E+01 -0.21709013894E+01  0.10777525127E+02  0.51100000000E-03 0.  1.
         12    1    3    3    0    0  0.92218989797E+01  0.15758035143E+02  0.39370567307E+01  0.18677781133E+02  0.00000000000E+00 0. -1.
</event>
<event>
 7    1  0.1631716E-009  0.4778727E+02  0.7816164E-02  0.1312668E+00
        -11   -1    0    0    0    0  0.00000000000E+00  0.00000000000E+00  0.45593999997E+02  0.45594000000E+02  0.51100000000E-03 0.  1.
         11   -1    0    0    0    0 -0.00000000000E+00 -0.00000000000E+00 -0.45593999997E+02  0.45594000000E+02  0.51100000000E-03 0. -1.
    9900012    2    1    2    0    0 -0.80632991115E+00  0.35621961852E+02  0.24780012789E+02  0.47787269961E+02  0.19999995059E+02 0.  0.
         12    1    1    2    0    0  0.80632991115E+00 -0.35621961852E+02 -0.24780012789E+02  0.43400730039E+02  0.00000000000E+00 0. -1.
         11    1    3    3    0    0 -0.48362526510E+01  0.92034191922E+01  0.83537835217E+01  0.13337089785E+02  0.51100000000E-03 0. -1.
        -11    1    3    3    0    0  0.38733994620E+01  0.27474328550E+02  0.12591083755E+02  0.30469285240E+02  0.51100000000E-03 0.  1.
        -12    1    3    3    0    0  0.15652327786E+00 -0.10557858907E+01  0.38351455131E+01  0.39808949358E+01  0.00000000000E+00 0.  1.
</event>
<event>
 7    1  0.1631716E-009  0.4778731E+02  0.7816164E-02  0.1312668E+00
        -11   -1    0    0    0    0  0.00000000000E+00  0.00000000000E+00  0.45593999997E+02  0.45594000000E+02  0.51100000000E-03 0. -1.
         11   -1    0    0    0    0 -0.00000000000E+00 -0.00000000000E+00 -0.45593999997E+02  0.45594000000E+02  0.51100000000E-03 0.  1.
    9900012    2    1    2    0    0  0.36818248797E+02 -0.18214312746E+02  0.14009813165E+02  0.47787314543E+02  0.20000198324E+02 0.  0.
         12    1    1    2    0    0 -0.36818248797E+02  0.18214312746E+02 -0.14009813165E+02  0.43400685457E+02  0.00000000000E+00 0. -1.
         11    1    3    3    0    0  0.91259600562E+00  0.20812449332E+01  0.15654117832E+01  0.27595155831E+01  0.51100000000E-03 0. -1.
        -11    1    3    3    0    0  0.28858190122E+02 -0.10183305840E+02  0.62534531184E+01  0.31234604705E+02  0.51100000000E-03 0.  1.
         12    1    3    3    0    0  0.70474626693E+01 -0.10112251839E+02  0.61909482635E+01  0.13793194254E+02  0.00000000000E+00 0. -1.
</event>
<event>
 7    1  0.1631716E-009  0.4778727E+02  0.7816164E-02  0.1312668E+00
        -11   -1    0    0    0    0  0.00000000000E+00  0.00000000000E+00  0.45593999997E+02  0.45594000000E+02  0.51100000000E-03 0.  1.
         11   -1    0    0    0    0 -0.00000000000E+00 -0.00000000000E+00 -0.45593999997E+02  0.45594000000E+02  0.51100000000E-03 0. -1.
    9900012    2    1    2    0    0  0.28784898926E+02 -0.39329446320E+01  0.32242594166E+02  0.47787270303E+02  0.19999996621E+02 0.  0.
         12    1    1    2    0    0 -0.28784898926E+02  0.39329446320E+01 -0.32242594166E+02  0.43400729697E+02  0.00000000000E+00 0. -1.
         11    1    3    3    0    0  0.12508061581E+02  0.41246818210E+01  0.61386038045E+01  0.14530900233E+02  0.51100000000E-03 0.  1.
        -11    1    3    3    0    0 -0.11300932940E+01 -0.13471657750E+01  0.37407586392E+01  0.41334298029E+01  0.51100000000E-03 0. -1.
        -12    1    3    3    0    0  0.17406930639E+02 -0.67104606780E+01  0.22363231722E+02  0.29122940268E+02  0.00000000000E+00 0.  1.
</event>
<event>
 7    1  0.1631716E-009  0.4778725E+02  0.7816164E-02  0.1312668E+00
        -11   -1    0    0    0    0  0.00000000000E+00  0.00000000000E+00  0.45593999997E+02  0.45594000000E+02  0.51100000000E-03 0.  1.
         11   -1    0    0    0    0 -0.00000000000E+00 -0.00000000000E+00 -0.45593999997E+02  0.45594000000E+02  0.51100000000E-03 0. -1.
    9900012    2    1    2    0    0  0.30792188478E+02  0.14030487733E+01  0.30553198229E+02  0.47787247251E+02  0.19999891518E+02 0.  0.
         12    1    1    2    0    0 -0.30792188478E+02 -0.14030487733E+01 -0.30553198229E+02  0.43400752749E+02  0.00000000000E+00 0. -1.
         11    1    3    3    0    0  0.43056358861E+01  0.51779721767E+01  0.20077474745E+01  0.70271577774E+01  0.51100000000E-03 0. -1.
        -11    1    3    3    0    0  0.22184858726E+02  0.11049008843E+01  0.19121971641E+02  0.29309359637E+02  0.51100000000E-03 0.  1.
        -12    1    3    3    0    0  0.43016938662E+01 -0.48798242876E+01  0.94234791133E+01  0.11450729837E+02  0.00000000000E+00 0.  1.
</event>
<event>
 7    1  0.1631716E-009  0.4778727E+02  0.7816164E-02  0.1312668E+00
        -11   -1    0    0    0    0  0.00000000000E+00  0.00000000000E+00  0.45593999997E+02  0.45594000000E+02  0.51100000000E-03 0.  1.
         11   -1    0    0    0    0 -0.00000000000E+00 -0.00000000000E+00 -0.45593999997E+02  0.45594000000E+02  0.51100000000E-03 0. -1.
    9900012    2    1    2    0    0  0.38752159235E+02  0.18483554353E+02  0.63444338671E+01  0.47787268808E+02  0.19999989804E+02 0.  0.
         12    1    1    2    0    0 -0.38752159235E+02 -0.18483554353E+02 -0.63444338671E+01  0.43400731192E+02  0.00000000000E+00 0. -1.
         11    1    3    3    0    0  0.10873162164E+02  0.87688964502E+01  0.48701183526E+01  0.14793148868E+02  0.51100000000E-03 0. -1.
        -11    1    3    3    0    0  0.27691110644E+02  0.71146353849E+01 -0.19887645202E+01  0.28659567861E+02  0.51100000000E-03 0.  1.
         12    1    3    3    0    0  0.18788642609E+00  0.26000225179E+01  0.34630800348E+01  0.43345520795E+01  0.00000000000E+00 0. -1.
</event>
<event>
 7    1  0.1631716E-009  0.4778727E+02  0.7816164E-02  0.1312668E+00
        -11   -1    0    0    0    0  0.00000000000E+00  0.00000000000E+00  0.45593999997E+02  0.45594000000E+02  0.51100000000E-03 0.  1.
         11   -1    0    0    0    0 -0.00000000000E+00 -0.00000000000E+00 -0.45593999997E+02  0.45594000000E+02  0.51100000000E-03 0. -1.
    9900012    2    1    2    0    0  0.28796034992E+02  0.79714947607E+01  0.31478043768E+02  0.47787267294E+02  0.19999982899E+02 0.  0.
         12    1    1    2    0    0 -0.28796034992E+02 -0.79714947607E+01 -0.31478043768E+02  0.43400732706E+02  0.00000000000E+00 0. -1.
         11    1    3    3    0    0 -0.23822744128E-01  0.21279527535E+01 -0.30169225879E+00  0.21493647723E+01  0.51100000000E-03 0. -1.
        -11    1    3    3    0    0  0.12593261004E+02  0.82351638284E+01  0.88851788382E+01  0.17474396964E+02  0.51100000000E-03 0.  1.
        -12    1    3    3    0    0  0.16226596732E+02 -0.23916218213E+01  0.22894557189E+02  0.28163505558E+02  0.00000000000E+00 0.  1.
</event>
<event>
 7    1  0.1631716E-009  0.4778727E+02  0.7816164E-02  0.1312668E+00
        -11   -1    0    0    0    0  0.00000000000E+00  0.00000000000E+00  0.45593999997E+02  0.45594000000E+02  0.51100000000E-03 0.  1.
         11   -1    0    0    0    0 -0.00000000000E+00 -0.00000000000E+00 -0.45593999997E+02  0.45594000000E+02  0.51100000000E-03 0. -1.
    9900012    2    1    2    0    0  0.77637688362E+00  0.39579069249E+02  0.17790949886E+02  0.47787269805E+02  0.19999994348E+02 0.  0.
         12    1    1    2    0    0 -0.77637688362E+00 -0.39579069249E+02 -0.17790949886E+02  0.43400730195E+02  0.00000000000E+00 0. -1.
         11    1    3    3    0    0  0.15166677005E+01 -0.98198634624E+00  0.78440956282E+00  0.19697402675E+01  0.51100000000E-03 0. -1.
        -11    1    3    3    0    0  0.22369190742E+01  0.30682212495E+02  0.72261384466E+01  0.31600934285E+02  0.51100000000E-03 0.  1.
         12    1    3    3    0    0 -0.29772098911E+01  0.98788430994E+01  0.97804018762E+01  0.14216595253E+02  0.00000000000E+00 0. -1.
</event>
<event>
 7    1  0.1631716E-009  0.4778730E+02  0.7816164E-02  0.1312668E+00
        -11   -1    0    0    0    0  0.00000000000E+00  0.00000000000E+00  0.45593999997E+02  0.45594000000E+02  0.51100000000E-03 0.  1.
         11   -1    0    0    0    0 -0.00000000000E+00 -0.00000000000E+00 -0.45593999997E+02  0.45594000000E+02  0.51100000000E-03 0. -1.
    9900012    2    1    2    0    0  0.84385507675E+01 -0.42536935569E+02  0.17381059699E+01  0.47787296791E+02  0.20000117388E+02 0.  0.
         12    1    1    2    0    0 -0.84385507675E+01  0.42536935569E+02 -0.17381059699E+01  0.43400703209E+02  0.00000000000E+00 0. -1.
         11    1    3    3    0    0  0.23863640282E+01 -0.16274487389E+02 -0.53027216822E+01  0.17282144848E+02  0.51100000000E-03 0. -1.
        -11    1    3    3    0    0  0.41448465818E+01 -0.59399231688E+01 -0.28990881927E+01  0.78017403859E+01  0.51100000000E-03 0.  1.
        -12    1    3    3    0    0  0.19073401574E+01 -0.20322525011E+02  0.99399158448E+01  0.22703411557E+02  0.00000000000E+00 0.  1.
</event>
<event>
 7    1  0.1631716E-009  0.4778724E+02  0.7816164E-02  0.1312668E+00
        -11   -1    0    0    0    0  0.00000000000E+00  0.00000000000E+00  0.45593999997E+02  0.45594000000E+02  0.51100000000E-03 0.  1.
         11   -1    0    0    0    0 -0.00000000000E+00 -0.00000000000E+00 -0.45593999997E+02  0.45594000000E+02  0.51100000000E-03 0. -1.
    9900012    2    1    2    0    0  0.37038170769E+02  0.27378888782E+01 -0.22456710979E+02  0.47787239668E+02  0.19999856941E+02 0.  0.
         12    1    1    2    0    0 -0.37038170769E+02 -0.27378888782E+01  0.22456710979E+02  0.43400760332E+02  0.00000000000E+00 0. -1.
         11    1    3    3    0    0  0.64604687758E+01 -0.50588739775E+01 -0.40637267883E+01  0.91566226522E+01  0.51100000000E-03 0. -1.
        -11    1    3    3    0    0  0.49287648985E+01  0.52530181980E+01 -0.43417708511E+00  0.72163310356E+01  0.51100000000E-03 0.  1.
        -12    1    3    3    0    0  0.25648937095E+02  0.25437446577E+01 -0.17958807106E+02  0.31414285980E+02  0.00000000000E+00 0.  1.
</event>
<event>
 7    1  0.1631716E-009  0.4778727E+02  0.7816164E-02  0.1312668E+00
        -11   -1    0    0    0    0  0.00000000000E+00  0.00000000000E+00  0.45593999997E+02  0.45594000000E+02  0.51100000000E-03 0. -1.
         11   -1    0    0    0    0 -0.00000000000E+00 -0.00000000000E+00 -0.45593999997E+02  0.45594000000E+02  0.51100000000E-03 0.  1.
    9900012    2    1    2    0    0  0.40975338712E+02  0.15682203922E+01  0.14219191905E+02  0.47787272861E+02  0.20000008283E+02 0.  0.
         12    1    1    2    0    0 -0.40975338712E+02 -0.15682203922E+01 -0.14219191905E+02  0.43400727139E+02  0.00000000000E+00 0. -1.
         11    1    3    3    0    0  0.14064064651E+02  0.67027044972E+01  0.11817821472E+02  0.19554668667E+02  0.51100000000E-03 0. -1.
        -11    1    3    3    0    0  0.26069725951E+00  0.10025635755E+00 -0.83515457278E+00  0.88062354039E+00  0.51100000000E-03 0.  1.
         12    1    3    3    0    0  0.26650576801E+02 -0.52347404625E+01  0.32365250067E+01  0.27351980654E+02  0.00000000000E+00 0. -1.
</event>
<event>
 7    1  0.1631716E-009  0.4778727E+02  0.7816164E-02  0.1312668E+00
        -11   -1    0    0    0    0  0.00000000000E+00  0.00000000000E+00  0.45593999997E+02  0.45594000000E+02  0.51100000000E-03 0.  1.
         11   -1    0    0    0    0 -0.00000000000E+00 -0.00000000000E+00 -0.45593999997E+02  0.45594000000E+02  0.51100000000E-03 0. -1.
    9900012    2    1    2    0    0 -0.26873345186E+02 -0.18069099795E+02  0.28895572345E+02  0.47787272471E+02  0.20000006505E+02 0.  0.
         12    1    1    2    0    0  0.26873345186E+02  0.18069099795E+02 -0.28895572345E+02  0.43400727529E+02  0.00000000000E+00 0. -1.
         11    1    3    3    0    0 -0.12594646082E+02 -0.55340368833E+01  0.61204339111E+01  0.15056904917E+02  0.51100000000E-03 0. -1.
        -11    1    3    3    0    0 -0.16739538270E+02 -0.88432638451E+01  0.19762996253E+02  0.27367708674E+02  0.51100000000E-03 0.  1.
        -12    1    3    3    0    0  0.24608391654E+01 -0.36917990669E+01  0.30121421811E+01  0.53626588804E+01  0.00000000000E+00 0.  1.
</event>
<event>
 7    1  0.1631716E-009  0.4778721E+02  0.7816164E-02  0.1312668E+00
        -11   -1    0    0    0    0  0.00000000000E+00  0.00000000000E+00  0.45593999997E+02  0.45594000000E+02  0.51100000000E-03 0.  1.
         11   -1    0    0    0    0 -0.00000000000E+00 -0.00000000000E+00 -0.45593999997E+02  0.45594000000E+02  0.51100000000E-03 0. -1.
    9900012    2    1    2    0    0  0.12067744485E+01  0.38844333337E+02  0.19320704496E+02  0.47787214763E+02  0.19999743388E+02 0.  0.
         12    1    1    2    0    0 -0.12067744485E+01 -0.38844333337E+02 -0.19320704496E+02  0.43400785237E+02  0.00000000000E+00 0. -1.
         11    1    3    3    0    0 -0.29952694135E+00 -0.89444729370E+00  0.12443485699E+01  0.15614595654E+01  0.51100000000E-03 0. -1.
        -11    1    3    3    0    0  0.37166031524E+01  0.30341998650E+02  0.19798378043E+02  0.36420128974E+02  0.51100000000E-03 0.  1.
        -12    1    3    3    0    0 -0.22103017625E+01  0.93967819804E+01 -0.17220221161E+01  0.98056262236E+01  0.00000000000E+00 0.  1.
</event>
<event>
 7    1  0.1631716E-009  0.4778727E+02  0.7816164E-02  0.1312668E+00
        -11   -1    0    0    0    0  0.00000000000E+00  0.00000000000E+00  0.45593999997E+02  0.45594000000E+02  0.51100000000E-03 0.  1.
         11   -1    0    0    0    0 -0.00000000000E+00 -0.00000000000E+00 -0.45593999997E+02  0.45594000000E+02  0.51100000000E-03 0. -1.
    9900012    2    1    2    0    0  0.23885618674E+02 -0.33148540783E+02  0.14638134546E+02  0.47787268226E+02  0.19999987152E+02 0.  0.
         12    1    1    2    0    0 -0.23885618674E+02  0.33148540783E+02 -0.14638134546E+02  0.43400731774E+02  0.00000000000E+00 0. -1.
         11    1    3    3    0    0  0.14981288389E+02 -0.20697791219E+02  0.21783642520E+01  0.25643377979E+02  0.51100000000E-03 0.  1.
        -11    1    3    3    0    0  0.72127292421E+00 -0.95833236425E+01  0.59765002945E+01  0.11317194118E+02  0.51100000000E-03 0. -1.
         12    1    3    3    0    0  0.81830573607E+01 -0.28674259222E+01  0.64832699995E+01  0.10826696129E+02  0.00000000000E+00 0. -1.
</event>
<event>
 7    1  0.1631716E-009  0.4778727E+02  0.7816164E-02  0.1312668E+00
        -11   -1    0    0    0    0  0.00000000000E+00  0.00000000000E+00  0.45593999997E+02  0.45594000000E+02  0.51100000000E-03 0.  1.
         11   -1    0    0    0    0 -0.00000000000E+00 -0.00000000000E+00 -0.45593999997E+02  0.45594000000E+02  0.51100000000E-03 0. -1.
    9900012    2    1    2    0    0 -0.54620700674E+01 -0.57470085877E+01  0.42670375972E+02  0.47787270712E+02  0.19999998485E+02 0.  0.
         12    1    1    2    0    0  0.54620700674E+01  0.57470085877E+01 -0.42670375972E+02  0.43400729288E+02  0.00000000000E+00 0. -1.
         11    1    3    3    0    0 -0.22580077618E+01 -0.66287620034E+01  0.19104184632E+02  0.20347210017E+02  0.51100000000E-03 0.  1.
        -11    1    3    3    0    0 -0.53213359511E+01  0.62263065799E+01  0.15556996747E+02  0.17581344032E+02  0.51100000000E-03 0. -1.
         12    1    3    3    0    0  0.21172736455E+01 -0.53445531642E+01  0.80091945926E+01  0.98587166628E+01  0.00000000000E+00 0. -1.
</event>
<event>
 7    1  0.1631716E-009  0.4778726E+02  0.7816164E-02  0.1312668E+00
        -11   -1    0    0    0    0  0.00000000000E+00  0.00000000000E+00  0.45593999997E+02  0.45594000000E+02  0.51100000000E-03 0.  1.
         11   -1    0    0    0    0 -0.00000000000E+00 -0.00000000000E+00 -0.45593999997E+02  0.45594000000E+02  0.51100000000E-03 0. -1.
    9900012    2    1    2    0    0 -0.59671009988E+01  0.26758447183E+02  0.33645254770E+02  0.47787263157E+02  0.19999964040E+02 0.  0.
         12    1    1    2    0    0  0.59671009988E+01 -0.26758447183E+02 -0.33645254770E+02  0.43400736843E+02  0.00000000000E+00 0. -1.
         11    1    3    3    0    0 -0.27432019838E+01  0.22467976334E-01 -0.32938537122E+00  0.27629978136E+01  0.51100000000E-03 0. -1.
        -11    1    3    3    0    0 -0.92409003044E+00  0.17890756743E+02  0.30246667514E+02  0.35153862024E+02  0.51100000000E-03 0.  1.
         12    1    3    3    0    0 -0.22998089845E+01  0.88452224637E+01  0.37279726266E+01  0.98704033201E+01  0.00000000000E+00 0. -1.
</event>
<event>
 7    1  0.1631716E-009  0.4778726E+02  0.7816164E-02  0.1312668E+00
        -11   -1    0    0    0    0  0.00000000000E+00  0.00000000000E+00  0.45593999997E+02  0.45594000000E+02  0.51100000000E-03 0.  1.
         11   -1    0    0    0    0 -0.00000000000E+00 -0.00000000000E+00 -0.45593999997E+02  0.45594000000E+02  0.51100000000E-03 0. -1.
    9900012    2    1    2    0    0  0.41462145780E+02 -0.11161892088E+02  0.63187448978E+01  0.47787263776E+02  0.19999966860E+02 0.  0.
         12    1    1    2    0    0 -0.41462145780E+02  0.11161892088E+02 -0.63187448978E+01  0.43400736224E+02  0.00000000000E+00 0. -1.
         11    1    3    3    0    0  0.27105203537E+02 -0.44842079581E+01  0.11127155723E+01  0.27496150930E+02  0.51100000000E-03 0. -1.
        -11    1    3    3    0    0  0.13129689488E+02 -0.50354524277E+01  0.84851637321E+01  0.16423840325E+02  0.51100000000E-03 0.  1.
         12    1    3    3    0    0  0.12272527555E+01 -0.16422317026E+01 -0.32791344065E+01  0.38672725204E+01  0.00000000000E+00 0. -1.
</event>
<event>
 7    1  0.1631716E-009  0.4778729E+02  0.7816164E-02  0.1312668E+00
        -11   -1    0    0    0    0  0.00000000000E+00  0.00000000000E+00  0.45593999997E+02  0.45594000000E+02  0.51100000000E-03 0.  1.
         11   -1    0    0    0    0 -0.00000000000E+00 -0.00000000000E+00 -0.45593999997E+02  0.45594000000E+02  0.51100000000E-03 0. -1.
    9900012    2    1    2    0    0  0.17881076598E+02 -0.87933240543E+01  0.38556015097E+02  0.47787288619E+02  0.20000080128E+02 0.  0.
         12    1    1    2    0    0 -0.17881076598E+02  0.87933240543E+01 -0.38556015097E+02  0.43400711381E+02  0.00000000000E+00 0. -1.
         11    1    3    3    0    0  0.88508860492E+01  0.17733607604E+01  0.18730661245E+02  0.20792322217E+02  0.51100000000E-03 0.  1.
        -11    1    3    3    0    0  0.74907700844E+01 -0.25043454615E+01  0.33325339274E+01  0.85725821831E+01  0.51100000000E-03 0. -1.
         12    1    3    3    0    0  0.15394204641E+01 -0.80623393532E+01  0.16492819925E+02  0.18422384218E+02  0.00000000000E+00 0. -1.
</event>
<event>
 7    1  0.1631716E-009  0.4778727E+02  0.7816164E-02  0.1312668E+00
        -11   -1    0    0    0    0  0.00000000000E+00  0.00000000000E+00  0.45593999997E+02  0.45594000000E+02  0.51100000000E-03 0.  1.
         11   -1    0    0    0    0 -0.00000000000E+00 -0.00000000000E+00 -0.45593999997E+02  0.45594000000E+02  0.51100000000E-03 0. -1.
    9900012    2    1    2    0    0 -0.42352436336E+02  0.78118337257E+01 -0.53730469932E+01  0.47787271392E+02  0.20000001584E+02 0.  0.
         12    1    1    2    0    0  0.42352436336E+02 -0.78118337257E+01  0.53730469932E+01  0.43400728608E+02  0.00000000000E+00 0. -1.
         11    1    3    3    0    0 -0.23478317554E+02  0.25954117312E+01 -0.66424549049E+01  0.24537517492E+02  0.51100000000E-03 0. -1.
        -11    1    3    3    0    0 -0.15277350320E+02  0.39547905816E+01  0.62538653193E+01  0.16974941327E+02  0.51100000000E-03 0.  1.
         12    1    3    3    0    0 -0.35967684611E+01  0.12616314129E+01 -0.49844574076E+01  0.62748125735E+01  0.00000000000E+00 0. -1.
</event>
<event>
 7    1  0.1631716E-009  0.4778727E+02  0.7816164E-02  0.1312668E+00
        -11   -1    0    0    0    0  0.00000000000E+00  0.00000000000E+00  0.45593999997E+02  0.45594000000E+02  0.51100000000E-03 0. -1.
         11   -1    0    0    0    0 -0.00000000000E+00 -0.00000000000E+00 -0.45593999997E+02  0.45594000000E+02  0.51100000000E-03 0.  1.
    9900012    2    1    2    0    0  0.16530225796E+02 -0.32414786531E+02 -0.23657056388E+02  0.47787273420E+02  0.20000010832E+02 0.  0.
         12    1    1    2    0    0 -0.16530225796E+02  0.32414786531E+02  0.23657056388E+02  0.43400726580E+02  0.00000000000E+00 0. -1.
         11    1    3    3    0    0  0.80387817406E+01 -0.21207787815E+01 -0.29602442504E+01  0.88251210074E+01  0.51100000000E-03 0. -1.
        -11    1    3    3    0    0  0.10307192755E+02 -0.19906582734E+02 -0.13076516464E+02  0.25951985314E+02  0.51100000000E-03 0.  1.
        -12    1    3    3    0    0 -0.18157486998E+01 -0.10387425015E+02 -0.76202956733E+01  0.13010167098E+02  0.00000000000E+00 0.  1.
</event>
<event>
 7    1  0.1631716E-009  0.4778727E+02  0.7816164E-02  0.1312668E+00
        -11   -1    0    0    0    0  0.00000000000E+00  0.00000000000E+00  0.45593999997E+02  0.45594000000E+02  0.51100000000E-03 0. -1.
         11   -1    0    0    0    0 -0.00000000000E+00 -0.00000000000E+00 -0.45593999997E+02  0.45594000000E+02  0.51100000000E-03 0.  1.
    9900012    2    1    2    0    0 -0.97511413517E+01  0.10017656169E+02 -0.41087531988E+02  0.47787268697E+02  0.19999989299E+02 0.  0.
         12    1    1    2    0    0  0.97511413517E+01 -0.10017656169E+02  0.41087531988E+02  0.43400731303E+02  0.00000000000E+00 0. -1.
         11    1    3    3    0    0  0.34234094358E+01  0.22394099157E+01 -0.49209441919E+01  0.63992484666E+01  0.51100000000E-03 0. -1.
        -11    1    3    3    0    0  0.25017395417E+01  0.22898695387E+01 -0.79968498867E+01  0.86863002257E+01  0.51100000000E-03 0.  1.
         12    1    3    3    0    0 -0.15676290329E+02  0.54883767141E+01 -0.28169737909E+02  0.32701720005E+02  0.00000000000E+00 0. -1.
</event>
<event>
 7    1  0.1631716E-009  0.4778727E+02  0.7816164E-02  0.1312668E+00
        -11   -1    0    0    0    0  0.00000000000E+00  0.00000000000E+00  0.45593999997E+02  0.45594000000E+02  0.51100000000E-03 0.  1.
         11   -1    0    0    0    0 -0.00000000000E+00 -0.00000000000E+00 -0.45593999997E+02  0.45594000000E+02  0.51100000000E-03 0. -1.
    9900012    2    1    2    0    0 -0.26868856357E+02 -0.15983173163E+02  0.30103588150E+02  0.47787270907E+02  0.19999999374E+02 0.  0.
         12    1    1    2    0    0  0.26868856357E+02  0.15983173163E+02 -0.30103588150E+02  0.43400729093E+02  0.00000000000E+00 0. -1.
         11    1    3    3    0    0 -0.55328791971E+01 -0.85030641993E+01  0.82609161423E+01  0.13082721000E+02  0.51100000000E-03 0. -1.
        -11    1    3    3    0    0 -0.22432084208E+01  0.24305530909E+01  0.91452275655E+01  0.97249555183E+01  0.51100000000E-03 0.  1.
        -12    1    3    3    0    0 -0.19092768739E+02 -0.99106620549E+01  0.12697444443E+02  0.24979594389E+02  0.00000000000E+00 0.  1.
</event>
<event>
 7    1  0.1631716E-009  0.4778727E+02  0.7816164E-02  0.1312668E+00
        -11   -1    0    0    0    0  0.00000000000E+00  0.00000000000E+00  0.45593999997E+02  0.45594000000E+02  0.51100000000E-03 0.  1.
         11   -1    0    0    0    0 -0.00000000000E+00 -0.00000000000E+00 -0.45593999997E+02  0.45594000000E+02  0.51100000000E-03 0. -1.
    9900012    2    1    2    0    0 -0.34319223553E+02 -0.18370099118E+01  0.26503573774E+02  0.47787272662E+02  0.20000007376E+02 0.  0.
         12    1    1    2    0    0  0.34319223553E+02  0.18370099118E+01 -0.26503573774E+02  0.43400727338E+02  0.00000000000E+00 0. -1.
         11    1    3    3    0    0 -0.24514872060E+01  0.70970739170E+00 -0.13662132702E+01  0.28948252216E+01  0.51100000000E-03 0.  1.
        -11    1    3    3    0    0 -0.25251431402E+02 -0.75976422944E+01  0.17740736031E+02  0.31781955123E+02  0.51100000000E-03 0. -1.
        -12    1    3    3    0    0 -0.66163049452E+01  0.50509249909E+01  0.10129051012E+02  0.13110492317E+02  0.00000000000E+00 0.  1.
</event>
<event>
 7    1  0.1631716E-009  0.4778727E+02  0.7816164E-02  0.1312668E+00
        -11   -1    0    0    0    0  0.00000000000E+00  0.00000000000E+00  0.45593999997E+02  0.45594000000E+02  0.51100000000E-03 0.  1.
         11   -1    0    0    0    0 -0.00000000000E+00 -0.00000000000E+00 -0.45593999997E+02  0.45594000000E+02  0.51100000000E-03 0. -1.
    9900012    2    1    2    0    0 -0.17719419960E+02 -0.39471099452E+02 -0.34172378007E+01  0.47787273625E+02  0.20000011765E+02 0.  0.
         12    1    1    2    0    0  0.17719419960E+02  0.39471099452E+02  0.34172378007E+01  0.43400726375E+02  0.00000000000E+00 0. -1.
         11    1    3    3    0    0 -0.37203847468E+01 -0.21867187004E+01 -0.33793622248E+01  0.54811577835E+01  0.51100000000E-03 0. -1.
        -11    1    3    3    0    0 -0.15872410069E+02 -0.31868180461E+02  0.31619487503E+01  0.35742303332E+02  0.51100000000E-03 0.  1.
        -12    1    3    3    0    0  0.18733748560E+01 -0.54162002905E+01 -0.31998243262E+01  0.65638125092E+01  0.00000000000E+00 0.  1.
</event>
<event>
 7    1  0.1631716E-009  0.4778725E+02  0.7816164E-02  0.1312668E+00
        -11   -1    0    0    0    0  0.00000000000E+00  0.00000000000E+00  0.45593999997E+02  0.45594000000E+02  0.51100000000E-03 0. -1.
         11   -1    0    0    0    0 -0.00000000000E+00 -0.00000000000E+00 -0.45593999997E+02  0.45594000000E+02  0.51100000000E-03 0.  1.
    9900012    2    1    2    0    0 -0.28864039795E+02 -0.49006694771E+01 -0.32038653866E+02  0.47787254659E+02  0.19999925291E+02 0.  0.
         12    1    1    2    0    0  0.28864039795E+02  0.49006694771E+01  0.32038653866E+02  0.43400745341E+02  0.00000000000E+00 0. -1.
         11    1    3    3    0    0 -0.15489548172E+01 -0.33184494993E+01 -0.20145419348E+01  0.41796827120E+01  0.51100000000E-03 0. -1.
        -11    1    3    3    0    0 -0.28977114669E+02 -0.23075791962E+01 -0.25262128807E+02  0.38511988373E+02  0.51100000000E-03 0.  1.
        -12    1    3    3    0    0  0.16620296906E+01  0.72535921847E+00 -0.47619831240E+01  0.50955835741E+01  0.00000000000E+00 0.  1.
</event>
<event>
 7    1  0.1631716E-009  0.4778727E+02  0.7816164E-02  0.1312668E+00
        -11   -1    0    0    0    0  0.00000000000E+00  0.00000000000E+00  0.45593999997E+02  0.45594000000E+02  0.51100000000E-03 0.  1.
         11   -1    0    0    0    0 -0.00000000000E+00 -0.00000000000E+00 -0.45593999997E+02  0.45594000000E+02  0.51100000000E-03 0. -1.
    9900012    2    1    2    0    0  0.16648598688E+02 -0.12666745553E+02  0.38026317829E+02  0.47787272716E+02  0.20000007621E+02 0.  0.
         12    1    1    2    0    0 -0.16648598688E+02  0.12666745553E+02 -0.38026317829E+02  0.43400727284E+02  0.00000000000E+00 0. -1.
         11    1    3    3    0    0 -0.10790733227E+01  0.76425179859E+00 -0.34107363949E+00  0.13655810251E+01  0.51100000000E-03 0. -1.
        -11    1    3    3    0    0  0.15726497552E+02 -0.57476743236E+01  0.18112162864E+02  0.24665946754E+02  0.51100000000E-03 0.  1.
         12    1    3    3    0    0  0.20011744585E+01 -0.76833230278E+01  0.20255228604E+02  0.21755744937E+02  0.00000000000E+00 0. -1.
</event>
<event>
 7    1  0.1631716E-009  0.4778727E+02  0.7816164E-02  0.1312668E+00
        -11   -1    0    0    0    0  0.00000000000E+00  0.00000000000E+00  0.45593999997E+02  0.45594000000E+02  0.51100000000E-03 0.  1.
         11   -1    0    0    0    0 -0.00000000000E+00 -0.00000000000E+00 -0.45593999997E+02  0.45594000000E+02  0.51100000000E-03 0. -1.
    9900012    2    1    2    0    0  0.79718359931E+01 -0.38582016762E+02  0.18207167455E+02  0.47787272665E+02  0.20000007387E+02 0.  0.
         12    1    1    2    0    0 -0.79718359931E+01  0.38582016762E+02 -0.18207167455E+02  0.43400727335E+02  0.00000000000E+00 0. -1.
         11    1    3    3    0    0 -0.26737457725E+00 -0.12495715987E+02  0.14999158537E+02  0.19524066285E+02  0.51100000000E-03 0. -1.
        -11    1    3    3    0    0  0.23563110733E+01 -0.15435712553E+02  0.38390337394E+01  0.16079539926E+02  0.51100000000E-03 0.  1.
        -12    1    3    3    0    0  0.58828994970E+01 -0.10650588221E+02 -0.63102482207E+00  0.12183666454E+02  0.00000000000E+00 0.  1.
</event>
<event>
 7    1  0.1631716E-009  0.4778727E+02  0.7816164E-02  0.1312668E+00
        -11   -1    0    0    0    0  0.00000000000E+00  0.00000000000E+00  0.45593999997E+02  0.45594000000E+02  0.51100000000E-03 0. -1.
         11   -1    0    0    0    0 -0.00000000000E+00 -0.00000000000E+00 -0.45593999997E+02  0.45594000000E+02  0.51100000000E-03 0.  1.
    9900012    2    1    2    0    0  0.37624606538E+02 -0.11671077007E+02 -0.18215326878E+02  0.47787272023E+02  0.20000004463E+02 0.  0.
         12    1    1    2    0    0 -0.37624606538E+02  0.11671077007E+02  0.18215326878E+02  0.43400727977E+02  0.00000000000E+00 0. -1.
         11    1    3    3    0    0  0.12339719821E+02  0.20986658269E+01 -0.87536156291E+01  0.15274124210E+02  0.51100000000E-03 0. -1.
        -11    1    3    3    0    0  0.20295231453E+02 -0.96699813392E+01 -0.12107541761E+02  0.25534242236E+02  0.51100000000E-03 0.  1.
        -12    1    3    3    0    0  0.49896552637E+01 -0.40997614948E+01  0.26458305119E+01  0.69789055778E+01  0.00000000000E+00 0.  1.
</event>
<event>
 7    1  0.1631716E-009  0.4778727E+02  0.7816164E-02  0.1312668E+00
        -11   -1    0    0    0    0  0.00000000000E+00  0.00000000000E+00  0.45593999997E+02  0.45594000000E+02  0.51100000000E-03 0.  1.
         11   -1    0    0    0    0 -0.00000000000E+00 -0.00000000000E+00 -0.45593999997E+02  0.45594000000E+02  0.51100000000E-03 0. -1.
    9900012    2    1    2    0    0  0.15629787181E+02  0.98090668103E+01  0.39282507203E+02  0.47787269462E+02  0.19999992787E+02 0.  0.
         12    1    1    2    0    0 -0.15629787181E+02 -0.98090668103E+01 -0.39282507203E+02  0.43400730538E+02  0.00000000000E+00 0. -1.
         11    1    3    3    0    0  0.84476803404E+00  0.82554530395E+01  0.69594996821E+01  0.10830548186E+02  0.51100000000E-03 0. -1.
        -11    1    3    3    0    0  0.51547138137E+01  0.28719171841E+01  0.22000346993E+02  0.22777933420E+02  0.51100000000E-03 0.  1.
         12    1    3    3    0    0  0.96303053331E+01 -0.13183034133E+01  0.10322660529E+02  0.14178787857E+02  0.00000000000E+00 0. -1.
</event>
<event>
 7    1  0.1631716E-009  0.4778728E+02  0.7816164E-02  0.1312668E+00
        -11   -1    0    0    0    0  0.00000000000E+00  0.00000000000E+00  0.45593999997E+02  0.45594000000E+02  0.51100000000E-03 0.  1.
         11   -1    0    0    0    0 -0.00000000000E+00 -0.00000000000E+00 -0.45593999997E+02  0.45594000000E+02  0.51100000000E-03 0. -1.
    9900012    2    1    2    0    0 -0.34268187779E+02  0.20024244982E+02  0.17559718247E+02  0.47787276669E+02  0.20000025644E+02 0.  0.
         12    1    1    2    0    0  0.34268187779E+02 -0.20024244982E+02 -0.17559718247E+02  0.43400723331E+02  0.00000000000E+00 0. -1.
         11    1    3    3    0    0 -0.61621590110E+01 -0.20865470947E+01  0.13945032895E+01  0.66536097075E+01  0.51100000000E-03 0. -1.
        -11    1    3    3    0    0 -0.58076937851E+01  0.77990136354E+01  0.99621667198E+01  0.13921159679E+02  0.51100000000E-03 0.  1.
        -12    1    3    3    0    0 -0.22298334983E+02  0.14311778441E+02  0.62030482376E+01  0.27212507283E+02  0.00000000000E+00 0.  1.
</event>
<event>
 7    1  0.1631716E-009  0.4778727E+02  0.7816164E-02  0.1312668E+00
        -11   -1    0    0    0    0  0.00000000000E+00  0.00000000000E+00  0.45593999997E+02  0.45594000000E+02  0.51100000000E-03 0. -1.
         11   -1    0    0    0    0 -0.00000000000E+00 -0.00000000000E+00 -0.45593999997E+02  0.45594000000E+02  0.51100000000E-03 0.  1.
    9900012    2    1    2    0    0  0.41583456508E+02 -0.77676614148E+01  0.97006668268E+01  0.47787270100E+02  0.19999995693E+02 0.  0.
         12    1    1    2    0    0 -0.41583456508E+02  0.77676614148E+01 -0.97006668268E+01  0.43400729900E+02  0.00000000000E+00 0. -1.
         11    1    3    3    0    0  0.26109716579E+02 -0.84535861901E+01 -0.16769382515E+01  0.27495318538E+02  0.51100000000E-03 0. -1.
        -11    1    3    3    0    0  0.14462969481E+02 -0.10915753579E+01  0.86661160899E+01  0.16895874980E+02  0.51100000000E-03 0.  1.
         12    1    3    3    0    0  0.10107704472E+01  0.17775001332E+01  0.27114889883E+01  0.33960765825E+01  0.00000000000E+00 0. -1.
</event>
<event>
 7    1  0.1631716E-009  0.4778728E+02  0.7816164E-02  0.1312668E+00
        -11   -1    0    0    0    0  0.00000000000E+00  0.00000000000E+00  0.45593999997E+02  0.45594000000E+02  0.51100000000E-03 0. -1.
         11   -1    0    0    0    0 -0.00000000000E+00 -0.00000000000E+00 -0.45593999997E+02  0.45594000000E+02  0.51100000000E-03 0.  1.
    9900012    2    1    2    0    0 -0.30793516467E+02 -0.25806870815E+02 -0.16413029501E+02  0.47787276791E+02  0.20000026203E+02 0.  0.
         12    1    1    2    0    0  0.30793516467E+02  0.25806870815E+02  0.16413029501E+02  0.43400723209E+02  0.00000000000E+00 0. -1.
         11    1    3    3    0    0 -0.19376310906E+02 -0.65136219991E+01 -0.79710306215E+01  0.21940966827E+02  0.51100000000E-03 0. -1.
        -11    1    3    3    0    0 -0.26313434710E+01  0.55562651715E+00 -0.13607580613E+01  0.30140258877E+01  0.51100000000E-03 0.  1.
        -12    1    3    3    0    0 -0.87858620897E+01 -0.19848875333E+02 -0.70812408180E+01  0.22832284077E+02  0.00000000000E+00 0.  1.
</event>
<event>
 7    1  0.1631716E-009  0.4778727E+02  0.7816164E-02  0.1312668E+00
        -11   -1    0    0    0    0  0.00000000000E+00  0.00000000000E+00  0.45593999997E+02  0.45594000000E+02  0.51100000000E-03 0.  1.
         11   -1    0    0    0    0 -0.00000000000E+00 -0.00000000000E+00 -0.45593999997E+02  0.45594000000E+02  0.51100000000E-03 0. -1.
    9900012    2    1    2    0    0 -0.13138323996E+02  0.17351871427E+01  0.41327917520E+02  0.47787271914E+02  0.20000003965E+02 0.  0.
         12    1    1    2    0    0  0.13138323996E+02 -0.17351871427E+01 -0.41327917520E+02  0.43400728086E+02  0.00000000000E+00 0. -1.
         11    1    3    3    0    0 -0.60476064870E+01  0.20157503143E+01  0.59972298365E+01  0.87523459440E+01  0.51100000000E-03 0. -1.
        -11    1    3    3    0    0 -0.58313885293E+01 -0.66094027070E+01  0.27555070100E+02  0.28930454279E+02  0.51100000000E-03 0.  1.
        -12    1    3    3    0    0 -0.12593289800E+01  0.63288395354E+01  0.77756175837E+01  0.10104471691E+02  0.00000000000E+00 0.  1.
</event>
<event>
 7    1  0.1631716E-009  0.4778727E+02  0.7816164E-02  0.1312668E+00
        -11   -1    0    0    0    0  0.00000000000E+00  0.00000000000E+00  0.45593999997E+02  0.45594000000E+02  0.51100000000E-03 0. -1.
         11   -1    0    0    0    0 -0.00000000000E+00 -0.00000000000E+00 -0.45593999997E+02  0.45594000000E+02  0.51100000000E-03 0.  1.
    9900012    2    1    2    0    0  0.38781021695E+02  0.88212913716E+01 -0.17373551348E+02  0.47787272913E+02  0.20000008521E+02 0.  0.
         12    1    1    2    0    0 -0.38781021695E+02 -0.88212913716E+01  0.17373551348E+02  0.43400727087E+02  0.00000000000E+00 0. -1.
         11    1    3    3    0    0  0.20290010359E+02 -0.42372320298E+01 -0.83792526203E+01  0.22357337283E+02  0.51100000000E-03 0.  1.
        -11    1    3    3    0    0  0.11694354083E+02  0.64880751699E+01 -0.16827779062E+01  0.13479049616E+02  0.51100000000E-03 0. -1.
        -12    1    3    3    0    0  0.67966572534E+01  0.65704482315E+01 -0.73115208218E+01  0.11950886014E+02  0.00000000000E+00 0.  1.
</event>
<event>
 7    1  0.1631716E-009  0.4778722E+02  0.7816164E-02  0.1312668E+00
        -11   -1    0    0    0    0  0.00000000000E+00  0.00000000000E+00  0.45593999997E+02  0.45594000000E+02  0.51100000000E-03 0. -1.
         11   -1    0    0    0    0 -0.00000000000E+00 -0.00000000000E+00 -0.45593999997E+02  0.45594000000E+02  0.51100000000E-03 0.  1.
    9900012    2    1    2    0    0 -0.32546062513E+02  0.19693738905E+02  0.20893497768E+02  0.47787219061E+02  0.19999762983E+02 0.  0.
         12    1    1    2    0    0  0.32546062513E+02 -0.19693738905E+02 -0.20893497768E+02  0.43400780939E+02  0.00000000000E+00 0. -1.
         11    1    3    3    0    0 -0.81626291004E+00  0.59785299536E+01  0.40457055430E+01  0.72647669712E+01  0.51100000000E-03 0. -1.
        -11    1    3    3    0    0 -0.12586968385E+02 -0.88167193649E+00  0.76267460273E+01  0.14743689286E+02  0.51100000000E-03 0.  1.
         12    1    3    3    0    0 -0.19142831218E+02  0.14596880888E+02  0.92210461974E+01  0.25778762804E+02  0.00000000000E+00 0. -1.
</event>
<event>
 7    1  0.1631716E-009  0.4778727E+02  0.7816164E-02  0.1312668E+00
        -11   -1    0    0    0    0  0.00000000000E+00  0.00000000000E+00  0.45593999997E+02  0.45594000000E+02  0.51100000000E-03 0. -1.
         11   -1    0    0    0    0 -0.00000000000E+00 -0.00000000000E+00 -0.45593999997E+02  0.45594000000E+02  0.51100000000E-03 0.  1.
    9900012    2    1    2    0    0 -0.28838611293E+02 -0.22403599829E+02 -0.23452854590E+02  0.47787272183E+02  0.20000005193E+02 0.  0.
         12    1    1    2    0    0  0.28838611293E+02  0.22403599829E+02  0.23452854590E+02  0.43400727817E+02  0.00000000000E+00 0. -1.
         11    1    3    3    0    0  0.16602802165E+00  0.91526739926E+00 -0.19151566568E+01  0.21291089679E+01  0.51100000000E-03 0. -1.
        -11    1    3    3    0    0 -0.14357557999E+02 -0.21830493277E+01 -0.84941436823E+01  0.16824257880E+02  0.51100000000E-03 0.  1.
        -12    1    3    3    0    0 -0.14647081316E+02 -0.21135817901E+02 -0.13043554251E+02  0.28833905336E+02  0.00000000000E+00 0.  1.
</event>
<event>
 7    1  0.1631716E-009  0.4778727E+02  0.7816164E-02  0.1312668E+00
        -11   -1    0    0    0    0  0.00000000000E+00  0.00000000000E+00  0.45593999997E+02  0.45594000000E+02  0.51100000000E-03 0. -1.
         11   -1    0    0    0    0 -0.00000000000E+00 -0.00000000000E+00 -0.45593999997E+02  0.45594000000E+02  0.51100000000E-03 0.  1.
    9900012    2    1    2    0    0 -0.42693934088E+02 -0.75365465950E+01  0.20128899885E+01  0.47787271105E+02  0.20000000277E+02 0.  0.
         12    1    1    2    0    0  0.42693934088E+02  0.75365465950E+01 -0.20128899885E+01  0.43400728895E+02  0.00000000000E+00 0. -1.
         11    1    3    3    0    0 -0.13923199594E+01  0.32258049342E+01  0.20776783499E+01  0.40818035143E+01  0.51100000000E-03 0. -1.
        -11    1    3    3    0    0 -0.15024273513E+02 -0.29041489611E+01 -0.44354426329E+01  0.15932232342E+02  0.51100000000E-03 0.  1.
         12    1    3    3    0    0 -0.26277340615E+02 -0.78582025681E+01  0.43706542714E+01  0.27773235249E+02  0.00000000000E+00 0. -1.
</event>
<event>
 7    1  0.1631716E-009  0.4778727E+02  0.7816164E-02  0.1312668E+00
        -11   -1    0    0    0    0  0.00000000000E+00  0.00000000000E+00  0.45593999997E+02  0.45594000000E+02  0.51100000000E-03 0. -1.
         11   -1    0    0    0    0 -0.00000000000E+00 -0.00000000000E+00 -0.45593999997E+02  0.45594000000E+02  0.51100000000E-03 0.  1.
    9900012    2    1    2    0    0  0.39655372595E+02 -0.61436896871E+01 -0.16532686640E+02  0.47787271594E+02  0.20000002505E+02 0.  0.
         12    1    1    2    0    0 -0.39655372595E+02  0.61436896871E+01  0.16532686640E+02  0.43400728406E+02  0.00000000000E+00 0. -1.
         11    1    3    3    0    0  0.77930776066E+01 -0.55582998089E+01 -0.78536590969E+01  0.12381708962E+02  0.51100000000E-03 0. -1.
        -11    1    3    3    0    0  0.12762403377E+02  0.25035505112E+00 -0.10038318703E+02  0.16239133605E+02  0.51100000000E-03 0.  1.
         12    1    3    3    0    0  0.19099891612E+02 -0.83574492924E+00  0.13592911595E+01  0.19166429026E+02  0.00000000000E+00 0. -1.
</event>
<event>
 7    1  0.1631716E-009  0.4778728E+02  0.7816164E-02  0.1312668E+00
        -11   -1    0    0    0    0  0.00000000000E+00  0.00000000000E+00  0.45593999997E+02  0.45594000000E+02  0.51100000000E-03 0.  1.
         11   -1    0    0    0    0 -0.00000000000E+00 -0.00000000000E+00 -0.45593999997E+02  0.45594000000E+02  0.51100000000E-03 0. -1.
    9900012    2    1    2    0    0  0.15392703496E+02 -0.26490830675E+02  0.30739606302E+02  0.47787276200E+02  0.20000023507E+02 0.  0.
         12    1    1    2    0    0 -0.15392703496E+02  0.26490830675E+02 -0.30739606302E+02  0.43400723800E+02  0.00000000000E+00 0. -1.
         11    1    3    3    0    0  0.49488429857E+01 -0.41646766675E+01  0.18417024392E+01  0.67251354468E+01  0.51100000000E-03 0. -1.
        -11    1    3    3    0    0  0.26196391057E+01 -0.11946055971E+02  0.24424419038E+02  0.27315252294E+02  0.51100000000E-03 0.  1.
        -12    1    3    3    0    0  0.78242214048E+01 -0.10380098036E+02  0.44734848250E+01  0.13746888459E+02  0.00000000000E+00 0.  1.
</event>
<event>
 7    1  0.2074207E-009  0.4778727E+02  0.7816164E-02  0.1312668E+00
        -11   -1    0    0    0    0  0.00000000000E+00  0.00000000000E+00  0.45593999997E+02  0.45594000000E+02  0.51100000000E-03 0. -1.
         11   -1    0    0    0    0 -0.00000000000E+00 -0.00000000000E+00 -0.45593999997E+02  0.45594000000E+02  0.51100000000E-03 0.  1.
    9900012    2    1    2    0    0 -0.34175931858E+02  0.19803802119E+02 -0.17984399818E+02  0.47787268053E+02  0.19999986360E+02 0.  0.
         12    1    1    2    0    0  0.34175931858E+02 -0.19803802119E+02  0.17984399818E+02  0.43400731947E+02  0.00000000000E+00 0. -1.
         11    1    3    3    0    0 -0.10224939298E+02  0.12898296935E+02 -0.85118264835E+01  0.18530154824E+02  0.51100000000E-03 0. -1.
        -11    1    3    3    0    0 -0.12659899601E+02  0.17951626474E+01 -0.10873091064E+02  0.16784510013E+02  0.51100000000E-03 0.  1.
         12    1    3    3    0    0 -0.11291092960E+02  0.51103425368E+01  0.14005177289E+01  0.12472603216E+02  0.00000000000E+00 0. -1.
</event>
<event>
 7    1  0.1631716E-009  0.4778727E+02  0.7816164E-02  0.1312668E+00
        -11   -1    0    0    0    0  0.00000000000E+00  0.00000000000E+00  0.45593999997E+02  0.45594000000E+02  0.51100000000E-03 0.  1.
         11   -1    0    0    0    0 -0.00000000000E+00 -0.00000000000E+00 -0.45593999997E+02  0.45594000000E+02  0.51100000000E-03 0. -1.
    9900012    2    1    2    0    0 -0.19471050491E+02 -0.22762966813E+02  0.31406188415E+02  0.47787272632E+02  0.20000007236E+02 0.  0.
         12    1    1    2    0    0  0.19471050491E+02  0.22762966813E+02 -0.31406188415E+02  0.43400727368E+02  0.00000000000E+00 0. -1.
         11    1    3    3    0    0 -0.12497736011E+02 -0.14673816264E+02  0.16427896127E+02  0.25325679864E+02  0.51100000000E-03 0. -1.
        -11    1    3    3    0    0 -0.55032064807E+01  0.69258305867E+00  0.11744886858E+02  0.12988738215E+02  0.51100000000E-03 0.  1.
         12    1    3    3    0    0 -0.14701079989E+01 -0.87817336078E+01  0.32334054298E+01  0.94728545519E+01  0.00000000000E+00 0. -1.
</event>
<event>
 7    1  0.1631716E-009  0.4778727E+02  0.7816164E-02  0.1312668E+00
        -11   -1    0    0    0    0  0.00000000000E+00  0.00000000000E+00  0.45593999997E+02  0.45594000000E+02  0.51100000000E-03 0.  1.
         11   -1    0    0    0    0 -0.00000000000E+00 -0.00000000000E+00 -0.45593999997E+02  0.45594000000E+02  0.51100000000E-03 0. -1.
    9900012    2    1    2    0    0  0.29846260404E+02  0.25705904756E+02  0.18221707738E+02  0.47787269219E+02  0.19999991678E+02 0.  0.
         12    1    1    2    0    0 -0.29846260404E+02 -0.25705904756E+02 -0.18221707738E+02  0.43400730781E+02  0.00000000000E+00 0. -1.
         11    1    3    3    0    0  0.55544439801E+01  0.11833274662E+02  0.24349514776E+01  0.13296887836E+02  0.51100000000E-03 0. -1.
        -11    1    3    3    0    0  0.23439558596E+02  0.15301902018E+02  0.12197725815E+02  0.30534335229E+02  0.51100000000E-03 0.  1.
         12    1    3    3    0    0  0.85225782725E+00 -0.14292719240E+01  0.35890304453E+01  0.39560461542E+01  0.00000000000E+00 0. -1.
</event>
<event>
 7    1  0.1631716E-009  0.4778728E+02  0.7816164E-02  0.1312668E+00
        -11   -1    0    0    0    0  0.00000000000E+00  0.00000000000E+00  0.45593999997E+02  0.45594000000E+02  0.51100000000E-03 0. -1.
         11   -1    0    0    0    0 -0.00000000000E+00 -0.00000000000E+00 -0.45593999997E+02  0.45594000000E+02  0.51100000000E-03 0.  1.
    9900012    2    1    2    0    0  0.38153264952E+02  0.14471093719E+02 -0.14783052686E+02  0.47787276197E+02  0.20000023493E+02 0.  0.
         12    1    1    2    0    0 -0.38153264952E+02 -0.14471093719E+02  0.14783052686E+02  0.43400723803E+02  0.00000000000E+00 0. -1.
         11    1    3    3    0    0  0.13082904087E+02  0.30312938277E+01 -0.32222158672E+01  0.13810640716E+02  0.51100000000E-03 0. -1.
        -11    1    3    3    0    0  0.42751191106E+01  0.70777770407E+01 -0.95524578523E+01  0.12634121360E+02  0.51100000000E-03 0.  1.
        -12    1    3    3    0    0  0.20795241754E+02  0.43620228506E+01 -0.20083789665E+01  0.21342514122E+02  0.00000000000E+00 0.  1.
</event>
<event>
 7    1  0.1631716E-009  0.4778727E+02  0.7816164E-02  0.1312668E+00
        -11   -1    0    0    0    0  0.00000000000E+00  0.00000000000E+00  0.45593999997E+02  0.45594000000E+02  0.51100000000E-03 0. -1.
         11   -1    0    0    0    0 -0.00000000000E+00 -0.00000000000E+00 -0.45593999997E+02  0.45594000000E+02  0.51100000000E-03 0.  1.
    9900012    2    1    2    0    0 -0.53842229557E+01  0.64115223923E+01 -0.42585517703E+02  0.47787265050E+02  0.19999972667E+02 0.  0.
         12    1    1    2    0    0  0.53842229557E+01 -0.64115223923E+01  0.42585517703E+02  0.43400734950E+02  0.00000000000E+00 0. -1.
         11    1    3    3    0    0  0.26421048468E+01  0.14760029735E+01 -0.84366410763E+00  0.31418262502E+01  0.51100000000E-03 0. -1.
        -11    1    3    3    0    0 -0.84571049210E+00  0.45426589591E+01 -0.36713409011E+01  0.59016710285E+01  0.51100000000E-03 0.  1.
        -12    1    3    3    0    0 -0.71806173104E+01  0.39286045969E+00 -0.38070512694E+02  0.38743767771E+02  0.00000000000E+00 0.  1.
</event>
<event>
 7    1  0.1631716E-009  0.4778727E+02  0.7816164E-02  0.1312668E+00
        -11   -1    0    0    0    0  0.00000000000E+00  0.00000000000E+00  0.45593999997E+02  0.45594000000E+02  0.51100000000E-03 0. -1.
         11   -1    0    0    0    0 -0.00000000000E+00 -0.00000000000E+00 -0.45593999997E+02  0.45594000000E+02  0.51100000000E-03 0.  1.
    9900012    2    1    2    0    0  0.34828520370E+02 -0.56506412415E+01 -0.25271870383E+02  0.47787274082E+02  0.20000013848E+02 0.  0.
         12    1    1    2    0    0 -0.34828520370E+02  0.56506412415E+01  0.25271870383E+02  0.43400725918E+02  0.00000000000E+00 0. -1.
         11    1    3    3    0    0  0.64518070292E+01 -0.69041691726E+01 -0.79372820328E-01  0.94498500629E+01  0.51100000000E-03 0. -1.
        -11    1    3    3    0    0  0.77801960934E+01  0.24333104623E+01 -0.87259048350E+01  0.11941267374E+02  0.51100000000E-03 0.  1.
        -12    1    3    3    0    0  0.20596517247E+02 -0.11797825312E+01 -0.16466592728E+02  0.26396156644E+02  0.00000000000E+00 0.  1.
</event>
<event>
 7    1  0.1631716E-009  0.4778728E+02  0.7816164E-02  0.1312668E+00
        -11   -1    0    0    0    0  0.00000000000E+00  0.00000000000E+00  0.45593999997E+02  0.45594000000E+02  0.51100000000E-03 0.  1.
         11   -1    0    0    0    0 -0.00000000000E+00 -0.00000000000E+00 -0.45593999997E+02  0.45594000000E+02  0.51100000000E-03 0. -1.
    9900012    2    1    2    0    0 -0.18568468735E+02  0.32366724474E+02  0.22163696716E+02  0.47787281844E+02  0.20000049239E+02 0.  0.
         12    1    1    2    0    0  0.18568468735E+02 -0.32366724474E+02 -0.22163696716E+02  0.43400718156E+02  0.00000000000E+00 0. -1.
         11    1    3    3    0    0 -0.69931299915E+01  0.12858364839E+02  0.37606229800E+01  0.15112369069E+02  0.51100000000E-03 0. -1.
        -11    1    3    3    0    0 -0.10967772168E+02  0.17624422013E+02  0.82615513386E+01  0.22342012183E+02  0.51100000000E-03 0.  1.
         12    1    3    3    0    0 -0.60756657521E+00  0.18839376227E+01  0.10141522397E+02  0.10332900592E+02  0.00000000000E+00 0. -1.
</event>
<event>
 7    1  0.1631716E-009  0.4778727E+02  0.7816164E-02  0.1312668E+00
        -11   -1    0    0    0    0  0.00000000000E+00  0.00000000000E+00  0.45593999997E+02  0.45594000000E+02  0.51100000000E-03 0. -1.
         11   -1    0    0    0    0 -0.00000000000E+00 -0.00000000000E+00 -0.45593999997E+02  0.45594000000E+02  0.51100000000E-03 0.  1.
    9900012    2    1    2    0    0  0.13573733013E+02  0.24306946706E+02  0.33294882580E+02  0.47787273139E+02  0.20000009548E+02 0.  0.
         12    1    1    2    0    0 -0.13573733013E+02 -0.24306946706E+02 -0.33294882580E+02  0.43400726861E+02  0.00000000000E+00 0. -1.
         11    1    3    3    0    0  0.22122632978E+01  0.81972509860E+01  0.19276375176E+01  0.87065963090E+01  0.51100000000E-03 0. -1.
        -11    1    3    3    0    0  0.99654891700E+01  0.17004338066E+02  0.21873820902E+02  0.29443548165E+02  0.51100000000E-03 0.  1.
         12    1    3    3    0    0  0.13959805454E+01 -0.89464234519E+00  0.94934241605E+01  0.96371286647E+01  0.00000000000E+00 0. -1.
</event>
<event>
 7    1  0.1631716E-009  0.4778727E+02  0.7816164E-02  0.1312668E+00
        -11   -1    0    0    0    0  0.00000000000E+00  0.00000000000E+00  0.45593999997E+02  0.45594000000E+02  0.51100000000E-03 0. -1.
         11   -1    0    0    0    0 -0.00000000000E+00 -0.00000000000E+00 -0.45593999997E+02  0.45594000000E+02  0.51100000000E-03 0.  1.
    9900012    2    1    2    0    0  0.13459646190E+01 -0.24113303406E+02 -0.36060507802E+02  0.47787271379E+02  0.20000001523E+02 0.  0.
         12    1    1    2    0    0 -0.13459646190E+01  0.24113303406E+02  0.36060507802E+02  0.43400728621E+02  0.00000000000E+00 0. -1.
         11    1    3    3    0    0  0.38165334109E+01 -0.10367531159E+01 -0.10646602960E+02  0.11357417803E+02  0.51100000000E-03 0. -1.
        -11    1    3    3    0    0  0.32189451089E+01 -0.11587424148E+02 -0.67629184397E+01  0.13797357431E+02  0.51100000000E-03 0.  1.
        -12    1    3    3    0    0 -0.56895139008E+01 -0.11489126143E+02 -0.18650986402E+02  0.22632496144E+02  0.00000000000E+00 0.  1.
</event>
<event>
 7    1  0.1631716E-009  0.4778727E+02  0.7816164E-02  0.1312668E+00
        -11   -1    0    0    0    0  0.00000000000E+00  0.00000000000E+00  0.45593999997E+02  0.45594000000E+02  0.51100000000E-03 0.  1.
         11   -1    0    0    0    0 -0.00000000000E+00 -0.00000000000E+00 -0.45593999997E+02  0.45594000000E+02  0.51100000000E-03 0. -1.
    9900012    2    1    2    0    0  0.19503195180E+01  0.33366137085E+02  0.27686102827E+02  0.47787272587E+02  0.20000007033E+02 0.  0.
         12    1    1    2    0    0 -0.19503195180E+01 -0.33366137085E+02 -0.27686102827E+02  0.43400727413E+02  0.00000000000E+00 0. -1.
         11    1    3    3    0    0  0.49021360625E+01  0.28516250154E+01  0.13031813924E+01  0.58190192650E+01  0.51100000000E-03 0. -1.
        -11    1    3    3    0    0  0.27941005788E+01  0.20830716109E+02  0.14120819245E+02  0.25320412083E+02  0.51100000000E-03 0.  1.
         12    1    3    3    0    0 -0.57459171232E+01  0.96837959614E+01  0.12262102190E+02  0.16647841239E+02  0.00000000000E+00 0. -1.
</event>
<event>
 7    1  0.1631716E-009  0.4778727E+02  0.7816164E-02  0.1312668E+00
        -11   -1    0    0    0    0  0.00000000000E+00  0.00000000000E+00  0.45593999997E+02  0.45594000000E+02  0.51100000000E-03 0. -1.
         11   -1    0    0    0    0 -0.00000000000E+00 -0.00000000000E+00 -0.45593999997E+02  0.45594000000E+02  0.51100000000E-03 0.  1.
    9900012    2    1    2    0    0 -0.28363472658E+00  0.29773737870E+02 -0.31576369978E+02  0.47787273551E+02  0.20000011426E+02 0.  0.
         12    1    1    2    0    0  0.28363472658E+00 -0.29773737870E+02  0.31576369978E+02  0.43400726449E+02  0.00000000000E+00 0. -1.
         11    1    3    3    0    0  0.82537616851E+00  0.66974280105E+01 -0.39743059031E+01  0.78314682818E+01  0.51100000000E-03 0. -1.
        -11    1    3    3    0    0  0.18801241045E+01  0.23955937773E+02 -0.27904799801E+02  0.36825258634E+02  0.51100000000E-03 0.  1.
         12    1    3    3    0    0 -0.29891349996E+01 -0.87962791396E+00  0.30273572704E+00  0.31305466349E+01  0.00000000000E+00 0. -1.
</event>
<event>
 7    1  0.1631716E-009  0.4778727E+02  0.7816164E-02  0.1312668E+00
        -11   -1    0    0    0    0  0.00000000000E+00  0.00000000000E+00  0.45593999997E+02  0.45594000000E+02  0.51100000000E-03 0.  1.
         11   -1    0    0    0    0 -0.00000000000E+00 -0.00000000000E+00 -0.45593999997E+02  0.45594000000E+02  0.51100000000E-03 0. -1.
    9900012    2    1    2    0    0  0.18422349666E+02 -0.78948711273E+01  0.38495601135E+02  0.47787271157E+02  0.20000000515E+02 0.  0.
         12    1    1    2    0    0 -0.18422349666E+02  0.78948711273E+01 -0.38495601135E+02  0.43400728843E+02  0.00000000000E+00 0. -1.
         11    1    3    3    0    0  0.76029770680E+01  0.48223974338E+01  0.99082531275E+01  0.13387839916E+02  0.51100000000E-03 0. -1.
        -11    1    3    3    0    0  0.89236520215E+01 -0.47514354678E+01  0.20667454429E+02  0.23007637368E+02  0.51100000000E-03 0.  1.
        -12    1    3    3    0    0  0.18957205761E+01 -0.79658330933E+01  0.79198935782E+01  0.11391793874E+02  0.00000000000E+00 0.  1.
</event>
<event>
 7    1  0.1631716E-009  0.4778727E+02  0.7816164E-02  0.1312668E+00
        -11   -1    0    0    0    0  0.00000000000E+00  0.00000000000E+00  0.45593999997E+02  0.45594000000E+02  0.51100000000E-03 0.  1.
         11   -1    0    0    0    0 -0.00000000000E+00 -0.00000000000E+00 -0.45593999997E+02  0.45594000000E+02  0.51100000000E-03 0. -1.
    9900012    2    1    2    0    0  0.22870432942E+01 -0.14980941211E+02  0.40668957755E+02  0.47787270841E+02  0.19999999073E+02 0.  0.
         12    1    1    2    0    0 -0.22870432942E+01  0.14980941211E+02 -0.40668957755E+02  0.43400729159E+02  0.00000000000E+00 0. -1.
         11    1    3    3    0    0  0.66497480064E+01 -0.74722984966E+00  0.10940903431E+02  0.12825009518E+02  0.51100000000E-03 0. -1.
        -11    1    3    3    0    0 -0.10224010111E+01 -0.87025461619E+01  0.26143925622E+02  0.27573256259E+02  0.51100000000E-03 0.  1.
         12    1    3    3    0    0 -0.33403037010E+01 -0.55311651997E+01  0.35841287026E+01  0.73890050642E+01  0.00000000000E+00 0. -1.
</event>
<event>
 7    1  0.1631716E-009  0.4778727E+02  0.7816164E-02  0.1312668E+00
        -11   -1    0    0    0    0  0.00000000000E+00  0.00000000000E+00  0.45593999997E+02  0.45594000000E+02  0.51100000000E-03 0. -1.
         11   -1    0    0    0    0 -0.00000000000E+00 -0.00000000000E+00 -0.45593999997E+02  0.45594000000E+02  0.51100000000E-03 0.  1.
    9900012    2    1    2    0    0  0.79751902699E+01 -0.30406905600E+02  0.29923895664E+02  0.47787273051E+02  0.20000009148E+02 0.  0.
         12    1    1    2    0    0 -0.79751902699E+01  0.30406905600E+02 -0.29923895664E+02  0.43400726949E+02  0.00000000000E+00 0. -1.
         11    1    3    3    0    0  0.70429107863E+01 -0.10184467169E+02  0.18152531829E+02  0.21973629102E+02  0.51100000000E-03 0. -1.
        -11    1    3    3    0    0 -0.24903202320E+01 -0.13312736281E+01 -0.71341832683E+00  0.29125504804E+01  0.51100000000E-03 0.  1.
        -12    1    3    3    0    0  0.34225997156E+01 -0.18891164802E+02  0.12484782162E+02  0.22901093468E+02  0.00000000000E+00 0.  1.
</event>
<event>
 7    1  0.1631716E-009  0.4778727E+02  0.7816164E-02  0.1312668E+00
        -11   -1    0    0    0    0  0.00000000000E+00  0.00000000000E+00  0.45593999997E+02  0.45594000000E+02  0.51100000000E-03 0.  1.
         11   -1    0    0    0    0 -0.00000000000E+00 -0.00000000000E+00 -0.45593999997E+02  0.45594000000E+02  0.51100000000E-03 0. -1.
    9900012    2    1    2    0    0  0.22404959410E+02  0.14446435501E+02  0.34248233855E+02  0.47787271585E+02  0.20000002464E+02 0.  0.
         12    1    1    2    0    0 -0.22404959410E+02 -0.14446435501E+02 -0.34248233855E+02  0.43400728415E+02  0.00000000000E+00 0. -1.
         11    1    3    3    0    0  0.15155979435E+02  0.11405303132E+02  0.96981501619E+01  0.21303491944E+02  0.51100000000E-03 0. -1.
        -11    1    3    3    0    0  0.64580240558E+01 -0.24465481567E+00  0.14343205811E+02  0.15731925625E+02  0.51100000000E-03 0.  1.
        -12    1    3    3    0    0  0.79095591864E+00  0.32857871845E+01  0.10206877882E+02  0.10751854016E+02  0.00000000000E+00 0.  1.
</event>
<event>
 7    1  0.1631716E-009  0.4778727E+02  0.7816164E-02  0.1312668E+00
        -11   -1    0    0    0    0  0.00000000000E+00  0.00000000000E+00  0.45593999997E+02  0.45594000000E+02  0.51100000000E-03 0.  1.
         11   -1    0    0    0    0 -0.00000000000E+00 -0.00000000000E+00 -0.45593999997E+02  0.45594000000E+02  0.51100000000E-03 0. -1.
    9900012    2    1    2    0    0 -0.21455047162E+02  0.10892947640E+02  0.36119909768E+02  0.47787271450E+02  0.20000001848E+02 0.  0.
         12    1    1    2    0    0  0.21455047162E+02 -0.10892947640E+02 -0.36119909768E+02  0.43400728550E+02  0.00000000000E+00 0. -1.
         11    1    3    3    0    0 -0.78331507176E+01 -0.51779015325E+01  0.87882484110E+01  0.12860879629E+02  0.51100000000E-03 0. -1.
        -11    1    3    3    0    0 -0.12843437611E+01  0.48809372813E+01  0.54727147099E+01  0.74447091412E+01  0.51100000000E-03 0.  1.
        -12    1    3    3    0    0 -0.12337552683E+02  0.11189911891E+02  0.21858946648E+02  0.27481682679E+02  0.00000000000E+00 0.  1.
</event>
<event>
 7    1  0.1631716E-009  0.4778727E+02  0.7816164E-02  0.1312668E+00
        -11   -1    0    0    0    0  0.00000000000E+00  0.00000000000E+00  0.45593999997E+02  0.45594000000E+02  0.51100000000E-03 0.  1.
         11   -1    0    0    0    0 -0.00000000000E+00 -0.00000000000E+00 -0.45593999997E+02  0.45594000000E+02  0.51100000000E-03 0. -1.
    9900012    2    1    2    0    0 -0.40353630751E+02 -0.14741108492E+02 -0.61569174449E+01  0.47787269283E+02  0.19999991969E+02 0.  0.
         12    1    1    2    0    0  0.40353630751E+02  0.14741108492E+02  0.61569174449E+01  0.43400730717E+02  0.00000000000E+00 0. -1.
         11    1    3    3    0    0 -0.21107422762E+02 -0.12166108818E+02 -0.93824207980E+01  0.26106844308E+02  0.51100000000E-03 0. -1.
        -11    1    3    3    0    0 -0.58690343565E+01  0.31246743685E+01 -0.50672346875E+00  0.66682773729E+01  0.51100000000E-03 0.  1.
        -12    1    3    3    0    0 -0.13377173632E+02 -0.56996740428E+01  0.37322268218E+01  0.15012147602E+02  0.00000000000E+00 0.  1.
</event>
<event>
 7    1  0.1631716E-009  0.4778727E+02  0.7816164E-02  0.1312668E+00
        -11   -1    0    0    0    0  0.00000000000E+00  0.00000000000E+00  0.45593999997E+02  0.45594000000E+02  0.51100000000E-03 0.  1.
         11   -1    0    0    0    0 -0.00000000000E+00 -0.00000000000E+00 -0.45593999997E+02  0.45594000000E+02  0.51100000000E-03 0. -1.
    9900012    2    1    2    0    0  0.16703395334E+02 -0.28384307770E+01  0.39957014715E+02  0.47787272703E+02  0.20000007563E+02 0.  0.
         12    1    1    2    0    0 -0.16703395334E+02  0.28384307770E+01 -0.39957014715E+02  0.43400727297E+02  0.00000000000E+00 0. -1.
         11    1    3    3    0    0  0.89984302034E+01  0.17985747324E+01  0.23121346697E+02  0.24875757084E+02  0.51100000000E-03 0. -1.
        -11    1    3    3    0    0  0.53491109286E+01 -0.18131892510E+00  0.17046468421E+02  0.17866951339E+02  0.51100000000E-03 0.  1.
         12    1    3    3    0    0  0.23558542023E+01 -0.44556865843E+01 -0.21080040259E+00  0.50445642795E+01  0.00000000000E+00 0. -1.
</event>
<event>
 7    1  0.1631716E-009  0.4778728E+02  0.7816164E-02  0.1312668E+00
        -11   -1    0    0    0    0  0.00000000000E+00  0.00000000000E+00  0.45593999997E+02  0.45594000000E+02  0.51100000000E-03 0. -1.
         11   -1    0    0    0    0 -0.00000000000E+00 -0.00000000000E+00 -0.45593999997E+02  0.45594000000E+02  0.51100000000E-03 0.  1.
    9900012    2    1    2    0    0  0.38226168613E+02 -0.19922667770E+02 -0.50467612732E+01  0.47787280452E+02  0.20000042892E+02 0.  0.
         12    1    1    2    0    0 -0.38226168613E+02  0.19922667770E+02  0.50467612732E+01  0.43400719548E+02  0.00000000000E+00 0. -1.
         11    1    3    3    0    0 -0.15467237059E+00  0.16700051601E+01 -0.24918155651E+00  0.16955625870E+01  0.51100000000E-03 0. -1.
        -11    1    3    3    0    0  0.24961985355E+02 -0.68290240435E+01 -0.21998816735E+01  0.25972596364E+02  0.51100000000E-03 0.  1.
        -12    1    3    3    0    0  0.13418855629E+02 -0.14763648887E+02 -0.25976980433E+01  0.20119121501E+02  0.00000000000E+00 0.  1.
</event>
<event>
 7    1  0.1631716E-009  0.4778727E+02  0.7816164E-02  0.1312668E+00
        -11   -1    0    0    0    0  0.00000000000E+00  0.00000000000E+00  0.45593999997E+02  0.45594000000E+02  0.51100000000E-03 0. -1.
         11   -1    0    0    0    0 -0.00000000000E+00 -0.00000000000E+00 -0.45593999997E+02  0.45594000000E+02  0.51100000000E-03 0.  1.
    9900012    2    1    2    0    0  0.14060576242E+02  0.26891513970E+02 -0.31028534202E+02  0.47787271175E+02  0.20000000595E+02 0.  0.
         12    1    1    2    0    0 -0.14060576242E+02 -0.26891513970E+02  0.31028534202E+02  0.43400728825E+02  0.00000000000E+00 0. -1.
         11    1    3    3    0    0  0.11522474859E+02  0.25744467824E+02 -0.22184755506E+02  0.35884654486E+02  0.51100000000E-03 0. -1.
        -11    1    3    3    0    0  0.20931446525E+01  0.27495033170E+01 -0.95044256900E+01  0.10113116779E+02  0.51100000000E-03 0.  1.
         12    1    3    3    0    0  0.44495672982E+00 -0.16024571713E+01  0.66064699444E+00  0.17894999102E+01  0.00000000000E+00 0. -1.
</event>
<event>
 7    1  0.1631716E-009  0.4778730E+02  0.7816164E-02  0.1312668E+00
        -11   -1    0    0    0    0  0.00000000000E+00  0.00000000000E+00  0.45593999997E+02  0.45594000000E+02  0.51100000000E-03 0. -1.
         11   -1    0    0    0    0 -0.00000000000E+00 -0.00000000000E+00 -0.45593999997E+02  0.45594000000E+02  0.51100000000E-03 0.  1.
    9900012    2    1    2    0    0  0.27478856242E+02 -0.31166395811E+02  0.12537500114E+02  0.47787300958E+02  0.20000136389E+02 0.  0.
         12    1    1    2    0    0 -0.27478856242E+02  0.31166395811E+02 -0.12537500114E+02  0.43400699042E+02  0.00000000000E+00 0. -1.
         11    1    3    3    0    0  0.13028466770E+00 -0.48898026862E+01 -0.14364173913E+01  0.50980819519E+01  0.51100000000E-03 0. -1.
        -11    1    3    3    0    0  0.32030151337E+01 -0.82111239738E+01 -0.12611066685E+01  0.89034966811E+01  0.51100000000E-03 0.  1.
        -12    1    3    3    0    0  0.24145556440E+02 -0.18065469151E+02  0.15235024174E+02  0.33785722325E+02  0.00000000000E+00 0.  1.
</event>
<event>
 7    1  0.1631716E-009  0.4778727E+02  0.7816164E-02  0.1312668E+00
        -11   -1    0    0    0    0  0.00000000000E+00  0.00000000000E+00  0.45593999997E+02  0.45594000000E+02  0.51100000000E-03 0. -1.
         11   -1    0    0    0    0 -0.00000000000E+00 -0.00000000000E+00 -0.45593999997E+02  0.45594000000E+02  0.51100000000E-03 0.  1.
    9900012    2    1    2    0    0 -0.17264862563E+02  0.37048358237E+02  0.14593389305E+02  0.47787270297E+02  0.19999996591E+02 0.  0.
         12    1    1    2    0    0  0.17264862563E+02 -0.37048358237E+02 -0.14593389305E+02  0.43400729703E+02  0.00000000000E+00 0. -1.
         11    1    3    3    0    0 -0.70690137087E+01  0.20942408269E+02  0.16873548854E+02  0.27807769959E+02  0.51100000000E-03 0. -1.
        -11    1    3    3    0    0 -0.51926924484E+01  0.11428750025E+02  0.55871086776E+00  0.12565529838E+02  0.51100000000E-03 0.  1.
         12    1    3    3    0    0 -0.50031564063E+01  0.46771999425E+01 -0.28388704170E+01  0.74139704998E+01  0.00000000000E+00 0. -1.
</event>
<event>
 7    1  0.1631716E-009  0.4778727E+02  0.7816164E-02  0.1312668E+00
        -11   -1    0    0    0    0  0.00000000000E+00  0.00000000000E+00  0.45593999997E+02  0.45594000000E+02  0.51100000000E-03 0.  1.
         11   -1    0    0    0    0 -0.00000000000E+00 -0.00000000000E+00 -0.45593999997E+02  0.45594000000E+02  0.51100000000E-03 0. -1.
    9900012    2    1    2    0    0 -0.28139469166E+01  0.44566891482E+01  0.43079496428E+02  0.47787269731E+02  0.19999994011E+02 0.  0.
         12    1    1    2    0    0  0.28139469166E+01 -0.44566891482E+01 -0.43079496428E+02  0.43400730269E+02  0.00000000000E+00 0. -1.
         11    1    3    3    0    0 -0.11517223273E+01 -0.31039859470E+01  0.70346391246E+01  0.77747888044E+01  0.51100000000E-03 0. -1.
        -11    1    3    3    0    0 -0.41138613565E+01 -0.31537437102E+01  0.19288605819E+02  0.19972988493E+02  0.51100000000E-03 0.  1.
         12    1    3    3    0    0  0.24516367672E+01  0.10714418805E+02  0.16756251485E+02  0.20039492433E+02  0.00000000000E+00 0. -1.
</event>
<event>
 7    1  0.1631716E-009  0.4778726E+02  0.7816164E-02  0.1312668E+00
        -11   -1    0    0    0    0  0.00000000000E+00  0.00000000000E+00  0.45593999997E+02  0.45594000000E+02  0.51100000000E-03 0.  1.
         11   -1    0    0    0    0 -0.00000000000E+00 -0.00000000000E+00 -0.45593999997E+02  0.45594000000E+02  0.51100000000E-03 0. -1.
    9900012    2    1    2    0    0 -0.41918714394E+02 -0.10810788682E+02 -0.30939222797E+01  0.47787261257E+02  0.19999955373E+02 0.  0.
         12    1    1    2    0    0  0.41918714394E+02  0.10810788682E+02  0.30939222797E+01  0.43400738743E+02  0.00000000000E+00 0. -1.
         11    1    3    3    0    0 -0.58727026879E+01  0.31899846424E+01 -0.18156405925E+01  0.69254017863E+01  0.51100000000E-03 0. -1.
        -11    1    3    3    0    0  0.92994350332E+00 -0.14306954132E+01 -0.57737518667E+00  0.18014013023E+01  0.51100000000E-03 0.  1.
        -12    1    3    3    0    0 -0.36975955210E+02 -0.12570077911E+02 -0.70090650053E+00  0.39060458168E+02  0.00000000000E+00 0.  1.
</event>
<event>
 7    1  0.1631716E-009  0.4778727E+02  0.7816164E-02  0.1312668E+00
        -11   -1    0    0    0    0  0.00000000000E+00  0.00000000000E+00  0.45593999997E+02  0.45594000000E+02  0.51100000000E-03 0.  1.
         11   -1    0    0    0    0 -0.00000000000E+00 -0.00000000000E+00 -0.45593999997E+02  0.45594000000E+02  0.51100000000E-03 0. -1.
    9900012    2    1    2    0    0 -0.60009106936E+01  0.38144762225E+02  0.19813867077E+02  0.47787272553E+02  0.20000006880E+02 0.  0.
         12    1    1    2    0    0  0.60009106936E+01 -0.38144762225E+02 -0.19813867077E+02  0.43400727447E+02  0.00000000000E+00 0. -1.
         11    1    3    3    0    0 -0.75539560969E+01  0.11232095439E+02 -0.48464108369E+00  0.13544633547E+02  0.51100000000E-03 0. -1.
        -11    1    3    3    0    0  0.23698697280E+01  0.90684920989E+01  0.45068023292E+01  0.10400245140E+02  0.51100000000E-03 0.  1.
        -12    1    3    3    0    0 -0.81682432474E+00  0.17844174687E+02  0.15791705831E+02  0.23842393867E+02  0.00000000000E+00 0.  1.
</event>
<event>
 7    1  0.1631716E-009  0.4778727E+02  0.7816164E-02  0.1312668E+00
        -11   -1    0    0    0    0  0.00000000000E+00  0.00000000000E+00  0.45593999997E+02  0.45594000000E+02  0.51100000000E-03 0.  1.
         11   -1    0    0    0    0 -0.00000000000E+00 -0.00000000000E+00 -0.45593999997E+02  0.45594000000E+02  0.51100000000E-03 0. -1.
    9900012    2    1    2    0    0  0.22783532650E+02  0.21319294606E+02  0.30166562930E+02  0.47787271878E+02  0.20000003800E+02 0.  0.
         12    1    1    2    0    0 -0.22783532650E+02 -0.21319294606E+02 -0.30166562930E+02  0.43400728122E+02  0.00000000000E+00 0. -1.
         11    1    3    3    0    0  0.29664978175E+01 -0.15745007853E+01 -0.27747094327E+00  0.33698890797E+01  0.51100000000E-03 0. -1.
        -11    1    3    3    0    0  0.28475983331E+01  0.71059377858E+01  0.14140531968E+02  0.16079732980E+02  0.51100000000E-03 0.  1.
        -12    1    3    3    0    0  0.16969436500E+02  0.15787857606E+02  0.16303501904E+02  0.28337649819E+02  0.00000000000E+00 0.  1.
</event>
<event>
 7    1  0.1631716E-009  0.4778727E+02  0.7816164E-02  0.1312668E+00
        -11   -1    0    0    0    0  0.00000000000E+00  0.00000000000E+00  0.45593999997E+02  0.45594000000E+02  0.51100000000E-03 0.  1.
         11   -1    0    0    0    0 -0.00000000000E+00 -0.00000000000E+00 -0.45593999997E+02  0.45594000000E+02  0.51100000000E-03 0. -1.
    9900012    2    1    2    0    0 -0.93438371608E+01  0.31038178593E+02  0.28860831902E+02  0.47787269115E+02  0.19999991202E+02 0.  0.
         12    1    1    2    0    0  0.93438371608E+01 -0.31038178593E+02 -0.28860831902E+02  0.43400730885E+02  0.00000000000E+00 0. -1.
         11    1    3    3    0    0  0.19587281005E+01  0.92899070279E+01  0.83970153444E+01  0.12674732948E+02  0.51100000000E-03 0. -1.
        -11    1    3    3    0    0 -0.12361742922E+02  0.18481817148E+02  0.22063851971E+02  0.31324173050E+02  0.51100000000E-03 0.  1.
        -12    1    3    3    0    0  0.10591776610E+01  0.32664544175E+01 -0.16000354135E+01  0.37883631166E+01  0.00000000000E+00 0.  1.
</event>
<event>
 7    1  0.1631716E-009  0.4778733E+02  0.7816164E-02  0.1312668E+00
        -11   -1    0    0    0    0  0.00000000000E+00  0.00000000000E+00  0.45593999997E+02  0.45594000000E+02  0.51100000000E-03 0.  1.
         11   -1    0    0    0    0 -0.00000000000E+00 -0.00000000000E+00 -0.45593999997E+02  0.45594000000E+02  0.51100000000E-03 0. -1.
    9900012    2    1    2    0    0  0.34142029401E+02 -0.83672772998E+01  0.25454449243E+02  0.47787326188E+02  0.20000251421E+02 0.  0.
         12    1    1    2    0    0 -0.34142029401E+02  0.83672772998E+01 -0.25454449243E+02  0.43400673812E+02  0.00000000000E+00 0. -1.
         11    1    3    3    0    0  0.77690921139E+01 -0.38348697522E+01  0.14885116566E+02  0.17222999557E+02  0.51100000000E-03 0. -1.
        -11    1    3    3    0    0  0.20585943006E+02 -0.60174550945E+00  0.11366824064E+02  0.23523346630E+02  0.51100000000E-03 0.  1.
        -12    1    3    3    0    0  0.57869942815E+01 -0.39306620382E+01 -0.79749138705E+00  0.70409800017E+01  0.00000000000E+00 0.  1.
</event>
<event>
 7    1  0.1631716E-009  0.4778727E+02  0.7816164E-02  0.1312668E+00
        -11   -1    0    0    0    0  0.00000000000E+00  0.00000000000E+00  0.45593999997E+02  0.45594000000E+02  0.51100000000E-03 0. -1.
         11   -1    0    0    0    0 -0.00000000000E+00 -0.00000000000E+00 -0.45593999997E+02  0.45594000000E+02  0.51100000000E-03 0.  1.
    9900012    2    1    2    0    0  0.34860439324E+02 -0.59371703565E+01 -0.25161936364E+02  0.47787271166E+02  0.20000000555E+02 0.  0.
         12    1    1    2    0    0 -0.34860439324E+02  0.59371703565E+01  0.25161936364E+02  0.43400728834E+02  0.00000000000E+00 0. -1.
         11    1    3    3    0    0  0.58274844209E+01  0.26813771414E+01 -0.44422887749E+01  0.78027743701E+01  0.51100000000E-03 0. -1.
        -11    1    3    3    0    0  0.29923723048E+02 -0.10536308043E+02 -0.20680004941E+02  0.37869586648E+02  0.51100000000E-03 0.  1.
         12    1    3    3    0    0 -0.89076814470E+00  0.19177605452E+01 -0.39642647720E-01  0.21149101484E+01  0.00000000000E+00 0. -1.
</event>
<event>
 7    1  0.1631716E-009  0.4778727E+02  0.7816164E-02  0.1312668E+00
        -11   -1    0    0    0    0  0.00000000000E+00  0.00000000000E+00  0.45593999997E+02  0.45594000000E+02  0.51100000000E-03 0. -1.
         11   -1    0    0    0    0 -0.00000000000E+00 -0.00000000000E+00 -0.45593999997E+02  0.45594000000E+02  0.51100000000E-03 0.  1.
    9900012    2    1    2    0    0 -0.27951497206E+02 -0.14404923810E+02 -0.29913792074E+02  0.47787274404E+02  0.20000015316E+02 0.  0.
         12    1    1    2    0    0  0.27951497206E+02  0.14404923810E+02  0.29913792074E+02  0.43400725596E+02  0.00000000000E+00 0. -1.
         11    1    3    3    0    0 -0.12951800245E+02 -0.11040211294E+02 -0.15280395401E+02  0.22871945236E+02  0.51100000000E-03 0. -1.
        -11    1    3    3    0    0 -0.15462117869E+02 -0.39220645314E+01 -0.16477581362E+02  0.22934043843E+02  0.51100000000E-03 0.  1.
         12    1    3    3    0    0  0.46242090820E+00  0.55735201536E+00  0.18441846898E+01  0.19812853241E+01  0.00000000000E+00 0. -1.
</event>
<event>
 7    1  0.1631716E-009  0.4778726E+02  0.7816164E-02  0.1312668E+00
        -11   -1    0    0    0    0  0.00000000000E+00  0.00000000000E+00  0.45593999997E+02  0.45594000000E+02  0.51100000000E-03 0.  1.
         11   -1    0    0    0    0 -0.00000000000E+00 -0.00000000000E+00 -0.45593999997E+02  0.45594000000E+02  0.51100000000E-03 0. -1.
    9900012    2    1    2    0    0 -0.85882833081E+01 -0.17606576489E+02  0.38728203416E+02  0.47787263996E+02  0.19999967863E+02 0.  0.
         12    1    1    2    0    0  0.85882833081E+01  0.17606576489E+02 -0.38728203416E+02  0.43400736004E+02  0.00000000000E+00 0. -1.
         11    1    3    3    0    0  0.67703914650E+00 -0.12510146225E+00 -0.37488597365E+00  0.78394651355E+00  0.51100000000E-03 0. -1.
        -11    1    3    3    0    0 -0.89844925619E+00 -0.28487402978E+01 -0.12752984064E+01  0.32479098874E+01  0.51100000000E-03 0.  1.
        -12    1    3    3    0    0 -0.83668731984E+01 -0.14632734729E+02  0.40378387796E+02  0.43755407595E+02  0.00000000000E+00 0.  1.
</event>
<event>
 7    1  0.1631716E-009  0.4778727E+02  0.7816164E-02  0.1312668E+00
        -11   -1    0    0    0    0  0.00000000000E+00  0.00000000000E+00  0.45593999997E+02  0.45594000000E+02  0.51100000000E-03 0.  1.
         11   -1    0    0    0    0 -0.00000000000E+00 -0.00000000000E+00 -0.45593999997E+02  0.45594000000E+02  0.51100000000E-03 0. -1.
    9900012    2    1    2    0    0 -0.11737381219E+02 -0.18809488923E+02  0.37310325553E+02  0.47787269772E+02  0.19999994200E+02 0.  0.
         12    1    1    2    0    0  0.11737381219E+02  0.18809488923E+02 -0.37310325553E+02  0.43400730228E+02  0.00000000000E+00 0. -1.
         11    1    3    3    0    0 -0.10839186950E+02 -0.72867280221E+01  0.23382972461E+02  0.26783348939E+02  0.51100000000E-03 0. -1.
        -11    1    3    3    0    0 -0.13135654702E+01 -0.11542978393E+02  0.15503808897E+02  0.19373535945E+02  0.51100000000E-03 0.  1.
         12    1    3    3    0    0  0.41537120098E+00  0.20217491853E-01 -0.15764558049E+01  0.16303848890E+01  0.00000000000E+00 0. -1.
</event>
<event>
 7    1  0.1631716E-009  0.4778727E+02  0.7816164E-02  0.1312668E+00
        -11   -1    0    0    0    0  0.00000000000E+00  0.00000000000E+00  0.45593999997E+02  0.45594000000E+02  0.51100000000E-03 0.  1.
         11   -1    0    0    0    0 -0.00000000000E+00 -0.00000000000E+00 -0.45593999997E+02  0.45594000000E+02  0.51100000000E-03 0. -1.
    9900012    2    1    2    0    0  0.10557354072E+02 -0.10187451191E+01  0.42084769445E+02  0.47787269754E+02  0.19999994116E+02 0.  0.
         12    1    1    2    0    0 -0.10557354072E+02  0.10187451191E+01 -0.42084769445E+02  0.43400730246E+02  0.00000000000E+00 0. -1.
         11    1    3    3    0    0  0.11138244870E+02 -0.64779773522E+01  0.32035792003E+02  0.34529938588E+02  0.51100000000E-03 0. -1.
        -11    1    3    3    0    0 -0.22193608580E+01  0.10276466500E+01  0.75002656090E+01  0.78889546026E+01  0.51100000000E-03 0.  1.
        -12    1    3    3    0    0  0.16384700603E+01  0.44315855831E+01  0.25487118331E+01  0.53683765634E+01  0.00000000000E+00 0.  1.
</event>
<event>
 7    1  0.1631716E-009  0.4778729E+02  0.7816164E-02  0.1312668E+00
        -11   -1    0    0    0    0  0.00000000000E+00  0.00000000000E+00  0.45593999997E+02  0.45594000000E+02  0.51100000000E-03 0.  1.
         11   -1    0    0    0    0 -0.00000000000E+00 -0.00000000000E+00 -0.45593999997E+02  0.45594000000E+02  0.51100000000E-03 0. -1.
    9900012    2    1    2    0    0 -0.95041184495E+01 -0.29927380417E+02 -0.29960734760E+02  0.47787285795E+02  0.20000067255E+02 0.  0.
         12    1    1    2    0    0  0.95041184495E+01  0.29927380417E+02  0.29960734760E+02  0.43400714205E+02  0.00000000000E+00 0. -1.
         11    1    3    3    0    0 -0.44415992199E+01 -0.72394936244E+00  0.81437191843E+00  0.45733038596E+01  0.51100000000E-03 0. -1.
        -11    1    3    3    0    0  0.58675815422E+00 -0.13417293082E+02 -0.11638766226E+02  0.17771576135E+02  0.51100000000E-03 0.  1.
        -12    1    3    3    0    0 -0.56492773838E+01 -0.15786137972E+02 -0.19136340452E+02  0.25442405801E+02  0.00000000000E+00 0.  1.
</event>
<event>
 7    1  0.1631716E-009  0.4778727E+02  0.7816164E-02  0.1312668E+00
        -11   -1    0    0    0    0  0.00000000000E+00  0.00000000000E+00  0.45593999997E+02  0.45594000000E+02  0.51100000000E-03 0.  1.
         11   -1    0    0    0    0 -0.00000000000E+00 -0.00000000000E+00 -0.45593999997E+02  0.45594000000E+02  0.51100000000E-03 0. -1.
    9900012    2    1    2    0    0 -0.15107335141E+02  0.74918908759E+01  0.39990793212E+02  0.47787267913E+02  0.19999985724E+02 0.  0.
         12    1    1    2    0    0  0.15107335141E+02 -0.74918908759E+01 -0.39990793212E+02  0.43400732087E+02  0.00000000000E+00 0. -1.
         11    1    3    3    0    0  0.19654965796E+01 -0.95244188225E+00  0.23464172499E+01  0.32056195213E+01  0.51100000000E-03 0. -1.
        -11    1    3    3    0    0 -0.36504576283E+01 -0.14098014181E+01  0.58945316491E+00  0.39573774434E+01  0.51100000000E-03 0.  1.
        -12    1    3    3    0    0 -0.13422374092E+02  0.98541341763E+01  0.37054922797E+02  0.40624270949E+02  0.00000000000E+00 0.  1.
</event>
<event>
 7    1  0.1631716E-009  0.4778727E+02  0.7816164E-02  0.1312668E+00
        -11   -1    0    0    0    0  0.00000000000E+00  0.00000000000E+00  0.45593999997E+02  0.45594000000E+02  0.51100000000E-03 0. -1.
         11   -1    0    0    0    0 -0.00000000000E+00 -0.00000000000E+00 -0.45593999997E+02  0.45594000000E+02  0.51100000000E-03 0.  1.
    9900012    2    1    2    0    0  0.79171968586E+01 -0.38286596590E+01 -0.42500381715E+02  0.47787273199E+02  0.20000009824E+02 0.  0.
         12    1    1    2    0    0 -0.79171968586E+01  0.38286596590E+01  0.42500381715E+02  0.43400726801E+02  0.00000000000E+00 0. -1.
         11    1    3    3    0    0  0.74442092597E+01 -0.11086684239E+01 -0.50412698700E+01  0.90586864026E+01  0.51100000000E-03 0. -1.
        -11    1    3    3    0    0 -0.21829461830E+01 -0.49252717491E+01 -0.13720424072E+02  0.14740203282E+02  0.51100000000E-03 0.  1.
        -12    1    3    3    0    0  0.26559337818E+01  0.22052805140E+01 -0.23738687774E+02  0.23988383514E+02  0.00000000000E+00 0.  1.
</event>
<event>
 7    1  0.1631716E-009  0.4778727E+02  0.7816164E-02  0.1312668E+00
        -11   -1    0    0    0    0  0.00000000000E+00  0.00000000000E+00  0.45593999997E+02  0.45594000000E+02  0.51100000000E-03 0.  1.
         11   -1    0    0    0    0 -0.00000000000E+00 -0.00000000000E+00 -0.45593999997E+02  0.45594000000E+02  0.51100000000E-03 0. -1.
    9900012    2    1    2    0    0  0.20138914416E+02  0.37387991046E+02  0.89546329345E+01  0.47787271904E+02  0.20000003917E+02 0.  0.
         12    1    1    2    0    0 -0.20138914416E+02 -0.37387991046E+02 -0.89546329345E+01  0.43400728096E+02  0.00000000000E+00 0. -1.
         11    1    3    3    0    0  0.88527088754E+01  0.15176605250E+02 -0.32735158719E+01  0.17872204894E+02  0.51100000000E-03 0. -1.
        -11    1    3    3    0    0 -0.20733469363E+01  0.32305665969E+01  0.32447454283E+01  0.50263009471E+01  0.51100000000E-03 0.  1.
         12    1    3    3    0    0  0.13359552477E+02  0.18980819198E+02  0.89834033781E+01  0.24888766062E+02  0.00000000000E+00 0. -1.
</event>
<event>
 7    1  0.1631716E-009  0.4778729E+02  0.7816164E-02  0.1312668E+00
        -11   -1    0    0    0    0  0.00000000000E+00  0.00000000000E+00  0.45593999997E+02  0.45594000000E+02  0.51100000000E-03 0.  1.
         11   -1    0    0    0    0 -0.00000000000E+00 -0.00000000000E+00 -0.45593999997E+02  0.45594000000E+02  0.51100000000E-03 0. -1.
    9900012    2    1    2    0    0  0.21107624008E+02 -0.14333467377E+02  0.35108998949E+02  0.47787287039E+02  0.20000072928E+02 0.  0.
         12    1    1    2    0    0 -0.21107624008E+02  0.14333467377E+02 -0.35108998949E+02  0.43400712961E+02  0.00000000000E+00 0. -1.
         11    1    3    3    0    0  0.83482191429E+01  0.76527352662E+00  0.17607055345E+02  0.19500943685E+02  0.51100000000E-03 0. -1.
        -11    1    3    3    0    0  0.34039685766E+01 -0.38403265733E+01  0.11257325464E+02  0.12371842511E+02  0.51100000000E-03 0.  1.
        -12    1    3    3    0    0  0.93554362881E+01 -0.11258414331E+02  0.62446181401E+01  0.15914500843E+02  0.00000000000E+00 0.  1.
</event>
<event>
 7    1  0.2040727E-009  0.4778727E+02  0.7816164E-02  0.1312668E+00
        -11   -1    0    0    0    0  0.00000000000E+00  0.00000000000E+00  0.45593999997E+02  0.45594000000E+02  0.51100000000E-03 0. -1.
         11   -1    0    0    0    0 -0.00000000000E+00 -0.00000000000E+00 -0.45593999997E+02  0.45594000000E+02  0.51100000000E-03 0.  1.
    9900012    2    1    2    0    0 -0.12865560090E+02  0.37488012042E+02  0.17684727790E+02  0.47787270971E+02  0.19999999663E+02 0.  0.
         12    1    1    2    0    0  0.12865560090E+02 -0.37488012042E+02 -0.17684727790E+02  0.43400729029E+02  0.00000000000E+00 0. -1.
         11    1    3    3    0    0 -0.17740014035E+01  0.11737805643E+02 -0.13235907093E+01  0.11944666380E+02  0.51100000000E-03 0. -1.
        -11    1    3    3    0    0 -0.12737494762E+02  0.17508986984E+02  0.11228003552E+02  0.24390089422E+02  0.51100000000E-03 0.  1.
         12    1    3    3    0    0  0.16459360750E+01  0.82412194149E+01  0.77803149476E+01  0.11452515169E+02  0.00000000000E+00 0. -1.
</event>
<event>
 7    1  0.1631716E-009  0.4778727E+02  0.7816164E-02  0.1312668E+00
        -11   -1    0    0    0    0  0.00000000000E+00  0.00000000000E+00  0.45593999997E+02  0.45594000000E+02  0.51100000000E-03 0.  1.
         11   -1    0    0    0    0 -0.00000000000E+00 -0.00000000000E+00 -0.45593999997E+02  0.45594000000E+02  0.51100000000E-03 0. -1.
    9900012    2    1    2    0    0  0.36751055148E+02  0.16952349842E+02  0.15671671299E+02  0.47787268428E+02  0.19999988071E+02 0.  0.
         12    1    1    2    0    0 -0.36751055148E+02 -0.16952349842E+02 -0.15671671299E+02  0.43400731572E+02  0.00000000000E+00 0. -1.
         11    1    3    3    0    0  0.28934431551E+02  0.13390267786E+02  0.19112535153E+02  0.37172430655E+02  0.51100000000E-03 0.  1.
        -11    1    3    3    0    0 -0.58777603522E-01  0.19830266315E+01 -0.98935473311E+00  0.22169060595E+01  0.51100000000E-03 0. -1.
        -12    1    3    3    0    0  0.78754012001E+01  0.15790554242E+01 -0.24515091202E+01  0.83979317133E+01  0.00000000000E+00 0.  1.
</event>
<event>
 7    1  0.1631716E-009  0.4778727E+02  0.7816164E-02  0.1312668E+00
        -11   -1    0    0    0    0  0.00000000000E+00  0.00000000000E+00  0.45593999997E+02  0.45594000000E+02  0.51100000000E-03 0. -1.
         11   -1    0    0    0    0 -0.00000000000E+00 -0.00000000000E+00 -0.45593999997E+02  0.45594000000E+02  0.51100000000E-03 0.  1.
    9900012    2    1    2    0    0 -0.20269967912E+02  0.12769151561E+02 -0.36189782882E+02  0.47787271714E+02  0.20000003052E+02 0.  0.
         12    1    1    2    0    0  0.20269967912E+02 -0.12769151561E+02  0.36189782882E+02  0.43400728286E+02  0.00000000000E+00 0. -1.
         11    1    3    3    0    0  0.15231836684E+01 -0.29580904402E+00 -0.15576133890E+01  0.21985793615E+01  0.51100000000E-03 0. -1.
        -11    1    3    3    0    0 -0.18132950839E+02  0.10193855914E+02 -0.15614172167E+02  0.26010016864E+02  0.51100000000E-03 0.  1.
         12    1    3    3    0    0 -0.36602007418E+01  0.28711046912E+01 -0.19017997326E+02  0.19578675489E+02  0.00000000000E+00 0. -1.
</event>
<event>
 7    1  0.1631716E-009  0.4778724E+02  0.7816164E-02  0.1312668E+00
        -11   -1    0    0    0    0  0.00000000000E+00  0.00000000000E+00  0.45593999997E+02  0.45594000000E+02  0.51100000000E-03 0.  1.
         11   -1    0    0    0    0 -0.00000000000E+00 -0.00000000000E+00 -0.45593999997E+02  0.45594000000E+02  0.51100000000E-03 0. -1.
    9900012    2    1    2    0    0 -0.97155430464E+01  0.36185987664E+02 -0.21904539675E+02  0.47787235741E+02  0.19999839038E+02 0.  0.
         12    1    1    2    0    0  0.97155430464E+01 -0.36185987664E+02  0.21904539675E+02  0.43400764259E+02  0.00000000000E+00 0. -1.
         11    1    3    3    0    0  0.68544320571E+00  0.19147488596E+02 -0.65310090110E+01  0.20242288183E+02  0.51100000000E-03 0. -1.
        -11    1    3    3    0    0 -0.11438582895E+02  0.16833475035E+02 -0.11181173500E+02  0.23221233850E+02  0.51100000000E-03 0.  1.
         12    1    3    3    0    0  0.10375966434E+01  0.20502403324E+00 -0.41923571639E+01  0.43237137091E+01  0.00000000000E+00 0. -1.
</event>
<event>
 7    1  0.1631716E-009  0.4778727E+02  0.7816164E-02  0.1312668E+00
        -11   -1    0    0    0    0  0.00000000000E+00  0.00000000000E+00  0.45593999997E+02  0.45594000000E+02  0.51100000000E-03 0.  1.
         11   -1    0    0    0    0 -0.00000000000E+00 -0.00000000000E+00 -0.45593999997E+02  0.45594000000E+02  0.51100000000E-03 0. -1.
    9900012    2    1    2    0    0  0.29184089047E+02  0.27478558782E+02 -0.16638539813E+02  0.47787271280E+02  0.20000001076E+02 0.  0.
         12    1    1    2    0    0 -0.29184089047E+02 -0.27478558782E+02  0.16638539813E+02  0.43400728720E+02  0.00000000000E+00 0. -1.
         11    1    3    3    0    0  0.93959397035E+01  0.55281869052E+01  0.38426132555E+01  0.11558988289E+02  0.51100000000E-03 0. -1.
        -11    1    3    3    0    0  0.75987625018E+01  0.59328033990E+01 -0.81444519260E+01  0.12620279124E+02  0.51100000000E-03 0.  1.
         12    1    3    3    0    0  0.12189386842E+02  0.16017568478E+02 -0.12336701142E+02  0.23608003868E+02  0.00000000000E+00 0. -1.
</event>
<event>
 7    1  0.1631716E-009  0.4778727E+02  0.7816164E-02  0.1312668E+00
        -11   -1    0    0    0    0  0.00000000000E+00  0.00000000000E+00  0.45593999997E+02  0.45594000000E+02  0.51100000000E-03 0.  1.
         11   -1    0    0    0    0 -0.00000000000E+00 -0.00000000000E+00 -0.45593999997E+02  0.45594000000E+02  0.51100000000E-03 0. -1.
    9900012    2    1    2    0    0 -0.15956253818E+02  0.39985836503E+02  0.54912714743E+01  0.47787271675E+02  0.20000002875E+02 0.  0.
         12    1    1    2    0    0  0.15956253818E+02 -0.39985836503E+02 -0.54912714743E+01  0.43400728325E+02  0.00000000000E+00 0. -1.
         11    1    3    3    0    0 -0.20839250240E+01  0.16680305517E+02  0.78874165321E+00  0.16828471389E+02  0.51100000000E-03 0. -1.
        -11    1    3    3    0    0 -0.16637508645E+02  0.21836267336E+02  0.45225825750E+01  0.27822347466E+02  0.51100000000E-03 0.  1.
         12    1    3    3    0    0  0.27651798510E+01  0.14692636501E+01  0.17994724606E+00  0.31364528202E+01  0.00000000000E+00 0. -1.
</event>
<event>
 7    1  0.1631716E-009  0.4778722E+02  0.7816164E-02  0.1312668E+00
        -11   -1    0    0    0    0  0.00000000000E+00  0.00000000000E+00  0.45593999997E+02  0.45594000000E+02  0.51100000000E-03 0.  1.
         11   -1    0    0    0    0 -0.00000000000E+00 -0.00000000000E+00 -0.45593999997E+02  0.45594000000E+02  0.51100000000E-03 0. -1.
    9900012    2    1    2    0    0  0.33157174291E+02  0.24760758636E+02  0.13081818862E+02  0.47787223971E+02  0.19999785371E+02 0.  0.
         12    1    1    2    0    0 -0.33157174291E+02 -0.24760758636E+02 -0.13081818862E+02  0.43400776029E+02  0.00000000000E+00 0. -1.
         11    1    3    3    0    0  0.78834287355E+01  0.75562888879E+01 -0.30961398120E+01  0.11350419921E+02  0.51100000000E-03 0. -1.
        -11    1    3    3    0    0  0.11165270604E+02  0.73019159771E+01  0.84591781064E+00  0.13367753058E+02  0.51100000000E-03 0.  1.
        -12    1    3    3    0    0  0.14108474952E+02  0.99025537709E+01  0.15332040863E+02  0.23069050992E+02  0.00000000000E+00 0.  1.
</event>
<event>
 7    1  0.1631716E-009  0.4778727E+02  0.7816164E-02  0.1312668E+00
        -11   -1    0    0    0    0  0.00000000000E+00  0.00000000000E+00  0.45593999997E+02  0.45594000000E+02  0.51100000000E-03 0.  1.
         11   -1    0    0    0    0 -0.00000000000E+00 -0.00000000000E+00 -0.45593999997E+02  0.45594000000E+02  0.51100000000E-03 0. -1.
    9900012    2    1    2    0    0  0.23142435963E+02  0.34614599269E+02  0.12242568632E+02  0.47787270610E+02  0.19999998020E+02 0.  0.
         12    1    1    2    0    0 -0.23142435963E+02 -0.34614599269E+02 -0.12242568632E+02  0.43400729390E+02  0.00000000000E+00 0. -1.
         11    1    3    3    0    0  0.64756511420E+01 -0.59560227639E-01 -0.10680241425E+01  0.65634046778E+01  0.51100000000E-03 0. -1.
        -11    1    3    3    0    0  0.84821169192E+00  0.76633065605E+01  0.28591822108E+01  0.82231778340E+01  0.51100000000E-03 0.  1.
         12    1    3    3    0    0  0.15818573129E+02  0.27010852937E+02  0.10451410564E+02  0.33000688098E+02  0.00000000000E+00 0. -1.
</event>
<event>
 7    1  0.1631716E-009  0.4778727E+02  0.7816164E-02  0.1312668E+00
        -11   -1    0    0    0    0  0.00000000000E+00  0.00000000000E+00  0.45593999997E+02  0.45594000000E+02  0.51100000000E-03 0.  1.
         11   -1    0    0    0    0 -0.00000000000E+00 -0.00000000000E+00 -0.45593999997E+02  0.45594000000E+02  0.51100000000E-03 0. -1.
    9900012    2    1    2    0    0 -0.39580485071E+02  0.17703047673E+02  0.19002271462E+01  0.47787267764E+02  0.19999985045E+02 0.  0.
         12    1    1    2    0    0  0.39580485071E+02 -0.17703047673E+02 -0.19002271462E+01  0.43400732236E+02  0.00000000000E+00 0. -1.
         11    1    3    3    0    0 -0.26116535685E+02  0.57186654876E+01 -0.58552736863E+01  0.27368975160E+02  0.51100000000E-03 0. -1.
        -11    1    3    3    0    0 -0.11391945702E+02  0.67521186368E+01  0.58455069356E+01  0.14475409651E+02  0.51100000000E-03 0.  1.
        -12    1    3    3    0    0 -0.20720036849E+01  0.52322635486E+01  0.19099938969E+01  0.59428829535E+01  0.00000000000E+00 0.  1.
</event>
<event>
 7    1  0.1631716E-009  0.4778727E+02  0.7816164E-02  0.1312668E+00
        -11   -1    0    0    0    0  0.00000000000E+00  0.00000000000E+00  0.45593999997E+02  0.45594000000E+02  0.51100000000E-03 0.  1.
         11   -1    0    0    0    0 -0.00000000000E+00 -0.00000000000E+00 -0.45593999997E+02  0.45594000000E+02  0.51100000000E-03 0. -1.
    9900012    2    1    2    0    0  0.14130899214E+02  0.41024131843E+02 -0.98052857310E+00  0.47787272560E+02  0.20000006909E+02 0.  0.
         12    1    1    2    0    0 -0.14130899214E+02 -0.41024131843E+02  0.98052857310E+00  0.43400727440E+02  0.00000000000E+00 0. -1.
         11    1    3    3    0    0 -0.91983316392E+00  0.19262747191E+02 -0.48707971496E+00  0.19290846775E+02  0.51100000000E-03 0. -1.
        -11    1    3    3    0    0  0.27022192239E+01  0.12554408141E+02 -0.20898354924E+01  0.13010863352E+02  0.51100000000E-03 0.  1.
        -12    1    3    3    0    0  0.12348513154E+02  0.92069765104E+01  0.15963866343E+01  0.15485562433E+02  0.00000000000E+00 0.  1.
</event>
<event>
 7    1  0.1631716E-009  0.4778727E+02  0.7816164E-02  0.1312668E+00
        -11   -1    0    0    0    0  0.00000000000E+00  0.00000000000E+00  0.45593999997E+02  0.45594000000E+02  0.51100000000E-03 0. -1.
         11   -1    0    0    0    0 -0.00000000000E+00 -0.00000000000E+00 -0.45593999997E+02  0.45594000000E+02  0.51100000000E-03 0.  1.
    9900012    2    1    2    0    0  0.42587487047E+02 -0.39574795395E+01 -0.73666830273E+01  0.47787265949E+02  0.19999976770E+02 0.  0.
         12    1    1    2    0    0 -0.42587487047E+02  0.39574795395E+01  0.73666830273E+01  0.43400734051E+02  0.00000000000E+00 0. -1.
         11    1    3    3    0    0  0.62347072455E+01  0.36966179728E+01 -0.17533173704E+01  0.74572569311E+01  0.51100000000E-03 0. -1.
        -11    1    3    3    0    0  0.55760423702E+01 -0.68950124779E+01  0.72874387784E+00  0.88974442109E+01  0.51100000000E-03 0.  1.
         12    1    3    3    0    0  0.30776737432E+02 -0.75908503438E+00 -0.63421095347E+01  0.31432564807E+02  0.00000000000E+00 0. -1.
</event>
<event>
 7    1  0.1631716E-009  0.4778727E+02  0.7816164E-02  0.1312668E+00
        -11   -1    0    0    0    0  0.00000000000E+00  0.00000000000E+00  0.45593999997E+02  0.45594000000E+02  0.51100000000E-03 0.  1.
         11   -1    0    0    0    0 -0.00000000000E+00 -0.00000000000E+00 -0.45593999997E+02  0.45594000000E+02  0.51100000000E-03 0. -1.
    9900012    2    1    2    0    0  0.17740486744E+02  0.45877760649E-01  0.39609296614E+02  0.47787270133E+02  0.19999995846E+02 0.  0.
         12    1    1    2    0    0 -0.17740486744E+02 -0.45877760649E-01 -0.39609296614E+02  0.43400729867E+02  0.00000000000E+00 0. -1.
         11    1    3    3    0    0  0.61644156131E+00  0.15968603703E+01 -0.54461973195E+00  0.17962667269E+01  0.51100000000E-03 0. -1.
        -11    1    3    3    0    0  0.10346703547E+02 -0.74964483529E+01  0.18008033450E+02  0.22080314336E+02  0.51100000000E-03 0.  1.
         12    1    3    3    0    0  0.67773416357E+01  0.59454657433E+01  0.22145882896E+02  0.23910689070E+02  0.00000000000E+00 0. -1.
</event>
<event>
 7    1  0.1631716E-009  0.4778727E+02  0.7816164E-02  0.1312668E+00
        -11   -1    0    0    0    0  0.00000000000E+00  0.00000000000E+00  0.45593999997E+02  0.45594000000E+02  0.51100000000E-03 0. -1.
         11   -1    0    0    0    0 -0.00000000000E+00 -0.00000000000E+00 -0.45593999997E+02  0.45594000000E+02  0.51100000000E-03 0.  1.
    9900012    2    1    2    0    0 -0.10600434302E+02  0.40944662846E+02  0.97359383584E+01  0.47787272833E+02  0.20000008154E+02 0.  0.
         12    1    1    2    0    0  0.10600434302E+02 -0.40944662846E+02 -0.97359383584E+01  0.43400727167E+02  0.00000000000E+00 0. -1.
         11    1    3    3    0    0  0.36445612502E+01  0.16735727671E+01  0.21715585705E+01  0.45606292767E+01  0.51100000000E-03 0. -1.
        -11    1    3    3    0    0 -0.69943264606E+01  0.90140464468E+01  0.28268947191E+01  0.11754359617E+02  0.51100000000E-03 0.  1.
         12    1    3    3    0    0 -0.72506690912E+01  0.30257043632E+02  0.47374850687E+01  0.31472283940E+02  0.00000000000E+00 0. -1.
</event>
<event>
 7    1  0.1631716E-009  0.4778727E+02  0.7816164E-02  0.1312668E+00
        -11   -1    0    0    0    0  0.00000000000E+00  0.00000000000E+00  0.45593999997E+02  0.45594000000E+02  0.51100000000E-03 0.  1.
         11   -1    0    0    0    0 -0.00000000000E+00 -0.00000000000E+00 -0.45593999997E+02  0.45594000000E+02  0.51100000000E-03 0. -1.
    9900012    2    1    2    0    0 -0.24650273187E+02  0.30329911372E+02  0.18870181431E+02  0.47787271443E+02  0.20000001818E+02 0.  0.
         12    1    1    2    0    0  0.24650273187E+02 -0.30329911372E+02 -0.18870181431E+02  0.43400728557E+02  0.00000000000E+00 0. -1.
         11    1    3    3    0    0  0.20054589533E+00  0.46901397043E+01  0.33506091779E+01  0.57675134353E+01  0.51100000000E-03 0. -1.
        -11    1    3    3    0    0 -0.79354211623E+00  0.10600692884E+02  0.51580110968E+01  0.11815645452E+02  0.51100000000E-03 0.  1.
        -12    1    3    3    0    0 -0.24057276966E+02  0.15039078783E+02  0.10361561156E+02  0.30204112556E+02  0.00000000000E+00 0.  1.
</event>
<event>
 7    1  0.1631716E-009  0.4778728E+02  0.7816164E-02  0.1312668E+00
        -11   -1    0    0    0    0  0.00000000000E+00  0.00000000000E+00  0.45593999997E+02  0.45594000000E+02  0.51100000000E-03 0. -1.
         11   -1    0    0    0    0 -0.00000000000E+00 -0.00000000000E+00 -0.45593999997E+02  0.45594000000E+02  0.51100000000E-03 0.  1.
    9900012    2    1    2    0    0  0.41255752477E+02  0.13386194119E+02  0.15477570319E+01  0.47787275844E+02  0.20000021882E+02 0.  0.
         12    1    1    2    0    0 -0.41255752477E+02 -0.13386194119E+02 -0.15477570319E+01  0.43400724156E+02  0.00000000000E+00 0. -1.
         11    1    3    3    0    0  0.15274922502E+01  0.11829433311E+01  0.49613479722E+01  0.53242428064E+01  0.51100000000E-03 0. -1.
        -11    1    3    3    0    0  0.10811799840E+02  0.22401451068E+01 -0.43413179625E+01  0.11864244932E+02  0.51100000000E-03 0.  1.
        -12    1    3    3    0    0  0.28916460387E+02  0.99631056815E+01  0.92772702218E+00  0.30598788106E+02  0.00000000000E+00 0.  1.
</event>
<event>
 7    1  0.1631716E-009  0.4778727E+02  0.7816164E-02  0.1312668E+00
        -11   -1    0    0    0    0  0.00000000000E+00  0.00000000000E+00  0.45593999997E+02  0.45594000000E+02  0.51100000000E-03 0. -1.
         11   -1    0    0    0    0 -0.00000000000E+00 -0.00000000000E+00 -0.45593999997E+02  0.45594000000E+02  0.51100000000E-03 0.  1.
    9900012    2    1    2    0    0 -0.26959238601E+02 -0.96886559048E+01 -0.32602957193E+02  0.47787269397E+02  0.19999992487E+02 0.  0.
         12    1    1    2    0    0  0.26959238601E+02  0.96886559048E+01  0.32602957193E+02  0.43400730603E+02  0.00000000000E+00 0. -1.
         11    1    3    3    0    0 -0.74946331924E+01 -0.32392905514E+01 -0.39937977579E+01  0.90891666701E+01  0.51100000000E-03 0. -1.
        -11    1    3    3    0    0 -0.15306161031E+01 -0.26556917478E+01 -0.16375486085E+02  0.16659892829E+02  0.51100000000E-03 0.  1.
        -12    1    3    3    0    0 -0.17933989305E+02 -0.37936736056E+01 -0.12233673351E+02  0.22038209897E+02  0.00000000000E+00 0.  1.
</event>
<event>
 7    1  0.1631716E-009  0.4778728E+02  0.7816164E-02  0.1312668E+00
        -11   -1    0    0    0    0  0.00000000000E+00  0.00000000000E+00  0.45593999997E+02  0.45594000000E+02  0.51100000000E-03 0.  1.
         11   -1    0    0    0    0 -0.00000000000E+00 -0.00000000000E+00 -0.45593999997E+02  0.45594000000E+02  0.51100000000E-03 0. -1.
    9900012    2    1    2    0    0 -0.27650194297E+02  0.28490182844E+02  0.17532799407E+02  0.47787276294E+02  0.20000023936E+02 0.  0.
         12    1    1    2    0    0  0.27650194297E+02 -0.28490182844E+02 -0.17532799407E+02  0.43400723706E+02  0.00000000000E+00 0. -1.
         11    1    3    3    0    0 -0.26983438493E+01 -0.20672409921E+01  0.26701289754E+00  0.34096687518E+01  0.51100000000E-03 0. -1.
        -11    1    3    3    0    0 -0.91487455026E+01  0.16851126765E+02  0.39407045903E+01  0.19575218273E+02  0.51100000000E-03 0.  1.
         12    1    3    3    0    0 -0.15803104945E+02  0.13706297071E+02  0.13325081920E+02  0.24802389269E+02  0.00000000000E+00 0. -1.
</event>
<event>
 7    1  0.1631716E-009  0.4778727E+02  0.7816164E-02  0.1312668E+00
        -11   -1    0    0    0    0  0.00000000000E+00  0.00000000000E+00  0.45593999997E+02  0.45594000000E+02  0.51100000000E-03 0.  1.
         11   -1    0    0    0    0 -0.00000000000E+00 -0.00000000000E+00 -0.45593999997E+02  0.45594000000E+02  0.51100000000E-03 0. -1.
    9900012    2    1    2    0    0 -0.29421254675E+01 -0.41500318396E+02  0.12356807328E+02  0.47787271705E+02  0.20000003012E+02 0.  0.
         12    1    1    2    0    0  0.29421254675E+01  0.41500318396E+02 -0.12356807328E+02  0.43400728295E+02  0.00000000000E+00 0. -1.
         11    1    3    3    0    0  0.49841121338E+01 -0.12462898675E+02  0.85699947319E+00  0.13449894628E+02  0.51100000000E-03 0.  1.
        -11    1    3    3    0    0 -0.77205106975E+01 -0.12271354659E+02  0.95400637048E+00  0.14529368845E+02  0.51100000000E-03 0. -1.
        -12    1    3    3    0    0 -0.20572690376E+00 -0.16766065062E+02  0.10545801484E+02  0.19808008233E+02  0.00000000000E+00 0.  1.
</event>
<event>
 7    1  0.1631716E-009  0.4778727E+02  0.7816164E-02  0.1312668E+00
        -11   -1    0    0    0    0  0.00000000000E+00  0.00000000000E+00  0.45593999997E+02  0.45594000000E+02  0.51100000000E-03 0. -1.
         11   -1    0    0    0    0 -0.00000000000E+00 -0.00000000000E+00 -0.45593999997E+02  0.45594000000E+02  0.51100000000E-03 0.  1.
    9900012    2    1    2    0    0 -0.29437864684E+02 -0.29397417897E+02 -0.12362327889E+02  0.47787271816E+02  0.20000003516E+02 0.  0.
         12    1    1    2    0    0  0.29437864684E+02  0.29397417897E+02  0.12362327889E+02  0.43400728184E+02  0.00000000000E+00 0. -1.
         11    1    3    3    0    0  0.50193883968E+00 -0.41328767047E+01 -0.55815856434E+01  0.69632399794E+01  0.51100000000E-03 0. -1.
        -11    1    3    3    0    0 -0.97440938374E+01 -0.68157828795E+01  0.20783340899E+01  0.12071525745E+02  0.51100000000E-03 0.  1.
        -12    1    3    3    0    0 -0.20195709686E+02 -0.18448758312E+02 -0.88590763351E+01  0.28752506091E+02  0.00000000000E+00 0.  1.
</event>
<event>
 7    1  0.1631716E-009  0.4778727E+02  0.7816164E-02  0.1312668E+00
        -11   -1    0    0    0    0  0.00000000000E+00  0.00000000000E+00  0.45593999997E+02  0.45594000000E+02  0.51100000000E-03 0.  1.
         11   -1    0    0    0    0 -0.00000000000E+00 -0.00000000000E+00 -0.45593999997E+02  0.45594000000E+02  0.51100000000E-03 0. -1.
    9900012    2    1    2    0    0  0.32334497568E+02 -0.17076484906E+02  0.23377278786E+02  0.47787271513E+02  0.20000002136E+02 0.  0.
         12    1    1    2    0    0 -0.32334497568E+02  0.17076484906E+02 -0.23377278786E+02  0.43400728487E+02  0.00000000000E+00 0. -1.
         11    1    3    3    0    0  0.12119967264E+02 -0.10664500184E+02  0.87774262912E+01  0.18375755310E+02  0.51100000000E-03 0. -1.
        -11    1    3    3    0    0  0.14988195438E+02 -0.10988715582E+02  0.10596181517E+02  0.21393385324E+02  0.51100000000E-03 0.  1.
         12    1    3    3    0    0  0.52263348670E+01  0.45767308589E+01  0.40036709784E+01  0.80181308794E+01  0.00000000000E+00 0. -1.
</event>
<event>
 7    1  0.1631716E-009  0.4778727E+02  0.7816164E-02  0.1312668E+00
        -11   -1    0    0    0    0  0.00000000000E+00  0.00000000000E+00  0.45593999997E+02  0.45594000000E+02  0.51100000000E-03 0. -1.
         11   -1    0    0    0    0 -0.00000000000E+00 -0.00000000000E+00 -0.45593999997E+02  0.45594000000E+02  0.51100000000E-03 0.  1.
    9900012    2    1    2    0    0  0.22470562341E+02 -0.18886332536E+02 -0.31968792949E+02  0.47787269001E+02  0.19999990685E+02 0.  0.
         12    1    1    2    0    0 -0.22470562341E+02  0.18886332536E+02  0.31968792949E+02  0.43400730999E+02  0.00000000000E+00 0. -1.
         11    1    3    3    0    0 -0.44861434429E+00  0.35197613786E+00  0.60156766456E+00  0.82887028399E+00  0.51100000000E-03 0. -1.
        -11    1    3    3    0    0  0.69817512420E+01 -0.54037183768E+01 -0.21246686227E+02  0.23007970327E+02  0.51100000000E-03 0.  1.
         12    1    3    3    0    0  0.15937425444E+02 -0.13834590297E+02 -0.11323674387E+02  0.23950428390E+02  0.00000000000E+00 0. -1.
</event>
<event>
 7    1  0.1631716E-009  0.4778727E+02  0.7816164E-02  0.1312668E+00
        -11   -1    0    0    0    0  0.00000000000E+00  0.00000000000E+00  0.45593999997E+02  0.45594000000E+02  0.51100000000E-03 0.  1.
         11   -1    0    0    0    0 -0.00000000000E+00 -0.00000000000E+00 -0.45593999997E+02  0.45594000000E+02  0.51100000000E-03 0. -1.
    9900012    2    1    2    0    0 -0.30626753555E+02  0.76379231517E+01  0.29787367073E+02  0.47787272581E+02  0.20000007005E+02 0.  0.
         12    1    1    2    0    0  0.30626753555E+02 -0.76379231517E+01 -0.29787367073E+02  0.43400727419E+02  0.00000000000E+00 0. -1.
         11    1    3    3    0    0 -0.17594494956E+02  0.45255994107E+01  0.52319181658E+01  0.18905561899E+02  0.51100000000E-03 0. -1.
        -11    1    3    3    0    0 -0.28586262837E+01 -0.23017387757E+01  0.63892221417E+01  0.73683041101E+01  0.51100000000E-03 0.  1.
         12    1    3    3    0    0 -0.10173632316E+02  0.54140625168E+01  0.18166226765E+02  0.21513406572E+02  0.00000000000E+00 0. -1.
</event>
