<event>
 7    1  0.1220856E-011  0.5930195E+02  0.7816164E-02  0.1266605E+00
        -11   -1    0    0    0    0  0.00000000000E+00  0.00000000000E+00  0.45593999997E+02  0.45594000000E+02  0.51100000000E-03 0. -1.
         11   -1    0    0    0    0 -0.00000000000E+00 -0.00000000000E+00 -0.45593999997E+02  0.45594000000E+02  0.51100000000E-03 0.  1.
    9900012    2    1    2    0    0 -0.21282223262E+02 -0.11922322766E+02  0.20534009353E+02  0.59301947450E+02  0.50000006241E+02 0.  0.
        -12    1    1    2    0    0  0.21282223262E+02  0.11922322766E+02 -0.20534009353E+02  0.31886052550E+02  0.00000000000E+00 0.  1.
         11    1    3    3    0    0 -0.10158773404E+02 -0.18266335707E+02  0.40095530205E+01  0.21282298111E+02  0.51100000000E-03 0. -1.
        -11    1    3    3    0    0 -0.58445665442E+01  0.16317955412E+01  0.25714632744E+02  0.26420901805E+02  0.51100000000E-03 0.  1.
         12    1    3    3    0    0 -0.52788833142E+01  0.47122173994E+01 -0.91901764114E+01  0.11598747533E+02  0.00000000000E+00 0. -1.
</event>
<event>
 7    1  0.1220856E-011  0.5930190E+02  0.7816164E-02  0.1266605E+00
        -11   -1    0    0    0    0  0.00000000000E+00  0.00000000000E+00  0.45593999997E+02  0.45594000000E+02  0.51100000000E-03 0.  1.
         11   -1    0    0    0    0 -0.00000000000E+00 -0.00000000000E+00 -0.45593999997E+02  0.45594000000E+02  0.51100000000E-03 0. -1.
    9900012    2    1    2    0    0  0.25209693338E+01 -0.38238835649E+01 -0.31555446746E+02  0.59301896581E+02  0.49999913469E+02 0.  0.
        -12    1    1    2    0    0 -0.25209693338E+01  0.38238835649E+01  0.31555446746E+02  0.31886103419E+02  0.00000000000E+00 0.  1.
         11    1    3    3    0    0  0.81388147451E+01  0.40866246487E+01  0.65919926258E-01  0.91074229161E+01  0.51100000000E-03 0. -1.
        -11    1    3    3    0    0 -0.31605811431E+01 -0.16262779049E+01  0.86551864656E+01  0.93566182994E+01  0.51100000000E-03 0.  1.
         12    1    3    3    0    0 -0.24572642682E+01 -0.62842303087E+01 -0.40276553137E+02  0.40837855366E+02  0.00000000000E+00 0. -1.
</event>
<event>
 7    1  0.1220856E-011  0.5930194E+02  0.7816164E-02  0.1266605E+00
        -11   -1    0    0    0    0  0.00000000000E+00  0.00000000000E+00  0.45593999997E+02  0.45594000000E+02  0.51100000000E-03 0.  1.
         11   -1    0    0    0    0 -0.00000000000E+00 -0.00000000000E+00 -0.45593999997E+02  0.45594000000E+02  0.51100000000E-03 0. -1.
    9900012    2    1    2    0    0 -0.16108848526E+02  0.36024587704E+01 -0.27280907071E+02  0.59301943476E+02  0.49999998994E+02 0.  0.
        -12    1    1    2    0    0  0.16108848526E+02 -0.36024587704E+01  0.27280907071E+02  0.31886056524E+02  0.00000000000E+00 0.  1.
         11    1    3    3    0    0 -0.14971297667E+02  0.43972869865E+00 -0.28339699682E+02  0.32054199311E+02  0.51100000000E-03 0. -1.
        -11    1    3    3    0    0  0.46666434685E+00 -0.82634408886E+01 -0.87931567554E+01  0.12075671282E+02  0.51100000000E-03 0.  1.
        -12    1    3    3    0    0 -0.16042152059E+01  0.11426170960E+02  0.98519493661E+01  0.15172072883E+02  0.00000000000E+00 0.  1.
</event>
<event>
 7    1  0.1220856E-011  0.5930199E+02  0.7816164E-02  0.1266605E+00
        -11   -1    0    0    0    0  0.00000000000E+00  0.00000000000E+00  0.45593999997E+02  0.45594000000E+02  0.51100000000E-03 0.  1.
         11   -1    0    0    0    0 -0.00000000000E+00 -0.00000000000E+00 -0.45593999997E+02  0.45594000000E+02  0.51100000000E-03 0. -1.
    9900012    2    1    2    0    0  0.21620294642E+02  0.15119256527E+02 -0.17907783811E+02  0.59301987716E+02  0.50000079677E+02 0.  0.
        -12    1    1    2    0    0 -0.21620294642E+02 -0.15119256527E+02  0.17907783811E+02  0.31886012284E+02  0.00000000000E+00 0.  1.
         11    1    3    3    0    0  0.13634074784E+02  0.11219292242E+02  0.33678155698E+01  0.17975057596E+02  0.51100000000E-03 0. -1.
        -11    1    3    3    0    0  0.12594025275E+02 -0.35914290436E+01  0.46913014469E+01  0.13911008042E+02  0.51100000000E-03 0.  1.
         12    1    3    3    0    0 -0.46078054168E+01  0.74913933287E+01 -0.25966900828E+02  0.27415922078E+02  0.00000000000E+00 0. -1.
</event>
<event>
 7    1  0.1220856E-011  0.5930199E+02  0.7816164E-02  0.1266605E+00
        -11   -1    0    0    0    0  0.00000000000E+00  0.00000000000E+00  0.45593999997E+02  0.45594000000E+02  0.51100000000E-03 0.  1.
         11   -1    0    0    0    0 -0.00000000000E+00 -0.00000000000E+00 -0.45593999997E+02  0.45594000000E+02  0.51100000000E-03 0. -1.
    9900012    2    1    2    0    0  0.42327123623E+01  0.30731201917E+02  0.73752878716E+01  0.59301992154E+02  0.50000087770E+02 0.  0.
        -12    1    1    2    0    0 -0.42327123623E+01 -0.30731201917E+02 -0.73752878716E+01  0.31886007846E+02  0.00000000000E+00 0.  1.
         11    1    3    3    0    0  0.28343781621E+01  0.22186092109E+02 -0.29862420714E+01  0.22564884768E+02  0.51100000000E-03 0. -1.
        -11    1    3    3    0    0  0.16230955463E+02 -0.27679133076E+01  0.33123902945E+01  0.16795153737E+02  0.51100000000E-03 0.  1.
         12    1    3    3    0    0 -0.14832621263E+02  0.11313023115E+02  0.70491396485E+01  0.19941953649E+02  0.00000000000E+00 0. -1.
</event>
<event>
 7    1  0.1220856E-011  0.5930196E+02  0.7816164E-02  0.1266605E+00
        -11   -1    0    0    0    0  0.00000000000E+00  0.00000000000E+00  0.45593999997E+02  0.45594000000E+02  0.51100000000E-03 0.  1.
         11   -1    0    0    0    0 -0.00000000000E+00 -0.00000000000E+00 -0.45593999997E+02  0.45594000000E+02  0.51100000000E-03 0. -1.
    9900012    2    1    2    0    0 -0.36589393246E+01 -0.61577311726E+01 -0.31071112840E+02  0.59301960056E+02  0.50000029232E+02 0.  0.
        -12    1    1    2    0    0  0.36589393246E+01  0.61577311726E+01  0.31071112840E+02  0.31886039944E+02  0.00000000000E+00 0.  1.
         11    1    3    3    0    0  0.29606347187E+01  0.71123472583E+01 -0.20040541530E+01  0.79603438852E+01  0.51100000000E-03 0. -1.
        -11    1    3    3    0    0  0.26200256849E+01  0.53639527540E+01 -0.29935109234E+02  0.30524535850E+02  0.51100000000E-03 0.  1.
        -12    1    3    3    0    0 -0.92395997282E+01 -0.18634031185E+02  0.86805054719E+00  0.20817080321E+02  0.00000000000E+00 0.  1.
</event>
<event>
 7    1  0.1220856E-011  0.5930196E+02  0.7816164E-02  0.1266605E+00
        -11   -1    0    0    0    0  0.00000000000E+00  0.00000000000E+00  0.45593999997E+02  0.45594000000E+02  0.51100000000E-03 0. -1.
         11   -1    0    0    0    0 -0.00000000000E+00 -0.00000000000E+00 -0.45593999997E+02  0.45594000000E+02  0.51100000000E-03 0.  1.
    9900012    2    1    2    0    0 -0.86750342378E+01 -0.24482615691E+02  0.18495001951E+02  0.59301956230E+02  0.50000022254E+02 0.  0.
        -12    1    1    2    0    0  0.86750342378E+01  0.24482615691E+02 -0.18495001951E+02  0.31886043770E+02  0.00000000000E+00 0.  1.
         11    1    3    3    0    0  0.38398111303E+01 -0.23028239644E+02  0.96225482053E+01  0.25251483220E+02  0.51100000000E-03 0. -1.
        -11    1    3    3    0    0 -0.98554960882E+01 -0.13743063243E+02  0.12424731597E+02  0.20985150606E+02  0.51100000000E-03 0.  1.
        -12    1    3    3    0    0 -0.26593492799E+01  0.12288687196E+02 -0.35522778505E+01  0.13065322404E+02  0.00000000000E+00 0.  1.
</event>
<event>
 7    1  0.1220856E-011  0.5930195E+02  0.7816164E-02  0.1266605E+00
        -11   -1    0    0    0    0  0.00000000000E+00  0.00000000000E+00  0.45593999997E+02  0.45594000000E+02  0.51100000000E-03 0.  1.
         11   -1    0    0    0    0 -0.00000000000E+00 -0.00000000000E+00 -0.45593999997E+02  0.45594000000E+02  0.51100000000E-03 0. -1.
    9900012    2    1    2    0    0 -0.22453336961E+01 -0.25308072896E+02 -0.19266038229E+02  0.59301948094E+02  0.50000007416E+02 0.  0.
        -12    1    1    2    0    0  0.22453336961E+01  0.25308072896E+02  0.19266038229E+02  0.31886051906E+02  0.00000000000E+00 0.  1.
         11    1    3    3    0    0  0.60657323578E+01 -0.11634316273E+02 -0.47554012342E+01  0.13955796837E+02  0.51100000000E-03 0. -1.
        -11    1    3    3    0    0  0.66168705862E+01 -0.16903185431E+02  0.65783360848E+01  0.19307386150E+02  0.51100000000E-03 0.  1.
         12    1    3    3    0    0 -0.14927936640E+02  0.32294288079E+01 -0.21088973079E+02  0.26038765107E+02  0.00000000000E+00 0. -1.
</event>
<event>
 7    1  0.1220856E-011  0.5930193E+02  0.7816164E-02  0.1266605E+00
        -11   -1    0    0    0    0  0.00000000000E+00  0.00000000000E+00  0.45593999997E+02  0.45594000000E+02  0.51100000000E-03 0. -1.
         11   -1    0    0    0    0 -0.00000000000E+00 -0.00000000000E+00 -0.45593999997E+02  0.45594000000E+02  0.51100000000E-03 0.  1.
    9900012    2    1    2    0    0  0.25025280634E+02  0.18704176457E+02  0.63726362909E+01  0.59301931239E+02  0.49999976676E+02 0.  0.
        -12    1    1    2    0    0 -0.25025280634E+02 -0.18704176457E+02 -0.63726362909E+01  0.31886068761E+02  0.00000000000E+00 0.  1.
         11    1    3    3    0    0  0.18502827069E+02  0.25645703419E+02  0.14969395328E+02  0.34987705128E+02  0.51100000000E-03 0. -1.
        -11    1    3    3    0    0  0.11685495989E+02  0.17870777372E+01 -0.14549455582E+01  0.11910555411E+02  0.51100000000E-03 0.  1.
        -12    1    3    3    0    0 -0.51630424239E+01 -0.87286046992E+01 -0.71418134786E+01  0.12403670700E+02  0.00000000000E+00 0.  1.
</event>
<event>
 7    1  0.1220856E-011  0.5930185E+02  0.7816164E-02  0.1266605E+00
        -11   -1    0    0    0    0  0.00000000000E+00  0.00000000000E+00  0.45593999997E+02  0.45594000000E+02  0.51100000000E-03 0.  1.
         11   -1    0    0    0    0 -0.00000000000E+00 -0.00000000000E+00 -0.45593999997E+02  0.45594000000E+02  0.51100000000E-03 0. -1.
    9900012    2    1    2    0    0 -0.26754572803E+02 -0.77313101493E+01 -0.15528883445E+02  0.59301850287E+02  0.49999829039E+02 0.  0.
        -12    1    1    2    0    0  0.26754572803E+02  0.77313101493E+01  0.15528883445E+02  0.31886149713E+02  0.00000000000E+00 0.  1.
         11    1    3    3    0    0  0.77943111955E+00  0.17088385523E+01 -0.12885756404E+02  0.13021918462E+02  0.51100000000E-03 0. -1.
        -11    1    3    3    0    0  0.27016734871E+01  0.99179337101E+01 -0.12015605046E+01  0.10349308992E+02  0.51100000000E-03 0.  1.
        -12    1    3    3    0    0 -0.30235677409E+02 -0.19358082412E+02 -0.14415665366E+01  0.35930622833E+02  0.00000000000E+00 0.  1.
</event>
<event>
 7    1  0.1220856E-011  0.5930201E+02  0.7816164E-02  0.1266605E+00
        -11   -1    0    0    0    0  0.00000000000E+00  0.00000000000E+00  0.45593999997E+02  0.45594000000E+02  0.51100000000E-03 0. -1.
         11   -1    0    0    0    0 -0.00000000000E+00 -0.00000000000E+00 -0.45593999997E+02  0.45594000000E+02  0.51100000000E-03 0.  1.
    9900012    2    1    2    0    0  0.28037985525E+02  0.15149538459E+02 -0.10387712243E+01  0.59302012585E+02  0.50000125032E+02 0.  0.
        -12    1    1    2    0    0 -0.28037985525E+02 -0.15149538459E+02  0.10387712243E+01  0.31885987415E+02  0.00000000000E+00 0.  1.
         11    1    3    3    0    0 -0.86802951625E+01 -0.16228155968E+01  0.75206774484E+01  0.11599208771E+02  0.51100000000E-03 0. -1.
        -11    1    3    3    0    0  0.32724684761E+01  0.63568432653E+01  0.64155566058E+01  0.96061372596E+01  0.51100000000E-03 0.  1.
        -12    1    3    3    0    0  0.33445812211E+02  0.10415510790E+02 -0.14975005279E+02  0.38096666554E+02  0.00000000000E+00 0.  1.
</event>
<event>
 7    1  0.1220856E-011  0.5930195E+02  0.7816164E-02  0.1266605E+00
        -11   -1    0    0    0    0  0.00000000000E+00  0.00000000000E+00  0.45593999997E+02  0.45594000000E+02  0.51100000000E-03 0.  1.
         11   -1    0    0    0    0 -0.00000000000E+00 -0.00000000000E+00 -0.45593999997E+02  0.45594000000E+02  0.51100000000E-03 0. -1.
    9900012    2    1    2    0    0 -0.24008929609E+02  0.78483006846E+01 -0.19460108126E+02  0.59301947675E+02  0.50000006651E+02 0.  0.
        -12    1    1    2    0    0  0.24008929609E+02 -0.78483006846E+01  0.19460108126E+02  0.31886052325E+02  0.00000000000E+00 0.  1.
         11    1    3    3    0    0 -0.87404295557E+01  0.54276527953E+01  0.34065036640E+01  0.10837840706E+02  0.51100000000E-03 0. -1.
        -11    1    3    3    0    0 -0.65635084544E+01  0.19605600611E+02 -0.20396117250E+02  0.29042396899E+02  0.51100000000E-03 0.  1.
         12    1    3    3    0    0 -0.87049915992E+01 -0.17184952721E+02 -0.24704945402E+01  0.19421710070E+02  0.00000000000E+00 0. -1.
</event>
<event>
 7    1  0.1220856E-011  0.5930194E+02  0.7816164E-02  0.1266605E+00
        -11   -1    0    0    0    0  0.00000000000E+00  0.00000000000E+00  0.45593999997E+02  0.45594000000E+02  0.51100000000E-03 0. -1.
         11   -1    0    0    0    0 -0.00000000000E+00 -0.00000000000E+00 -0.45593999997E+02  0.45594000000E+02  0.51100000000E-03 0.  1.
    9900012    2    1    2    0    0  0.19933491819E+02  0.16823803339E+02  0.18339479662E+02  0.59301937697E+02  0.49999988454E+02 0.  0.
        -12    1    1    2    0    0 -0.19933491819E+02 -0.16823803339E+02 -0.18339479662E+02  0.31886062303E+02  0.00000000000E+00 0.  1.
         11    1    3    3    0    0  0.15028970544E+02 -0.10286948195E+02  0.15014874849E+02  0.23603765076E+02  0.51100000000E-03 0. -1.
        -11    1    3    3    0    0  0.14188810940E+00  0.56038842494E+01  0.11020787512E+02  0.12364522173E+02  0.51100000000E-03 0.  1.
        -12    1    3    3    0    0  0.47626331661E+01  0.21506867285E+02 -0.76961826990E+01  0.23333650448E+02  0.00000000000E+00 0.  1.
</event>
<event>
 7    1  0.1220856E-011  0.5930226E+02  0.7816164E-02  0.1266604E+00
        -11   -1    0    0    0    0  0.00000000000E+00  0.00000000000E+00  0.45593999997E+02  0.45594000000E+02  0.51100000000E-03 0.  1.
         11   -1    0    0    0    0 -0.00000000000E+00 -0.00000000000E+00 -0.45593999997E+02  0.45594000000E+02  0.51100000000E-03 0. -1.
    9900012    2    1    2    0    0  0.87718333426E+01 -0.30621660891E+02 -0.14384749373E+01  0.59302260460E+02  0.50000577092E+02 0.  0.
        -12    1    1    2    0    0 -0.87718333426E+01  0.30621660891E+02  0.14384749373E+01  0.31885739540E+02  0.00000000000E+00 0.  1.
         11    1    3    3    0    0  0.66509042446E+01 -0.27943724096E+02  0.57539582614E+01  0.29294953142E+02  0.51100000000E-03 0. -1.
        -11    1    3    3    0    0  0.23572647547E+01 -0.31337847096E+01  0.11066719530E+02  0.11740936298E+02  0.51100000000E-03 0.  1.
         12    1    3    3    0    0 -0.23633565667E+00  0.45584791502E+00 -0.18259152729E+02  0.18266371020E+02  0.00000000000E+00 0. -1.
</event>
<event>
 7    1  0.1220856E-011  0.5930194E+02  0.7816164E-02  0.1266605E+00
        -11   -1    0    0    0    0  0.00000000000E+00  0.00000000000E+00  0.45593999997E+02  0.45594000000E+02  0.51100000000E-03 0.  1.
         11   -1    0    0    0    0 -0.00000000000E+00 -0.00000000000E+00 -0.45593999997E+02  0.45594000000E+02  0.51100000000E-03 0. -1.
    9900012    2    1    2    0    0  0.19597732209E+02  0.24820254878E+02  0.40748916330E+01  0.59301938754E+02  0.49999990382E+02 0.  0.
        -12    1    1    2    0    0 -0.19597732209E+02 -0.24820254878E+02 -0.40748916330E+01  0.31886061246E+02  0.00000000000E+00 0.  1.
         11    1    3    3    0    0  0.58009744591E+01 -0.86595680122E+01 -0.88858028433E+01  0.13696602326E+02  0.51100000000E-03 0. -1.
        -11    1    3    3    0    0 -0.14353926221E+00  0.31057967818E+01  0.11759428989E+02  0.12163500630E+02  0.51100000000E-03 0.  1.
        -12    1    3    3    0    0  0.13940297013E+02  0.30374026108E+02  0.12012654875E+01  0.33441835799E+02  0.00000000000E+00 0.  1.
</event>
<event>
 7    1  0.1220856E-011  0.5930195E+02  0.7816164E-02  0.1266605E+00
        -11   -1    0    0    0    0  0.00000000000E+00  0.00000000000E+00  0.45593999997E+02  0.45594000000E+02  0.51100000000E-03 0.  1.
         11   -1    0    0    0    0 -0.00000000000E+00 -0.00000000000E+00 -0.45593999997E+02  0.45594000000E+02  0.51100000000E-03 0. -1.
    9900012    2    1    2    0    0  0.11161161446E+01  0.30497568384E+02 -0.92397423047E+01  0.59301949282E+02  0.50000009582E+02 0.  0.
        -12    1    1    2    0    0 -0.11161161446E+01 -0.30497568384E+02  0.92397423047E+01  0.31886050718E+02  0.00000000000E+00 0.  1.
         11    1    3    3    0    0  0.16865280409E+02  0.24065147215E+02 -0.61860949480E+01  0.30030597142E+02  0.51100000000E-03 0. -1.
        -11    1    3    3    0    0 -0.26014710654E+01  0.11402210077E+02 -0.82214475296E+01  0.14295812187E+02  0.51100000000E-03 0.  1.
        -12    1    3    3    0    0 -0.13147693199E+02 -0.49697889084E+01  0.51678001728E+01  0.14975539953E+02  0.00000000000E+00 0.  1.
</event>
<event>
 7    1  0.1220856E-011  0.5930164E+02  0.7816164E-02  0.1266606E+00
        -11   -1    0    0    0    0  0.00000000000E+00  0.00000000000E+00  0.45593999997E+02  0.45594000000E+02  0.51100000000E-03 0. -1.
         11   -1    0    0    0    0 -0.00000000000E+00 -0.00000000000E+00 -0.45593999997E+02  0.45594000000E+02  0.51100000000E-03 0.  1.
    9900012    2    1    2    0    0 -0.27295727517E+02  0.14761370759E+02 -0.73338222173E+01  0.59301643110E+02  0.49999451196E+02 0.  0.
        -12    1    1    2    0    0  0.27295727517E+02 -0.14761370759E+02  0.73338222173E+01  0.31886356890E+02  0.00000000000E+00 0.  1.
         11    1    3    3    0    0 -0.22020128623E+02  0.13636956698E+01 -0.20775815817E+02  0.30304789285E+02  0.51100000000E-03 0. -1.
        -11    1    3    3    0    0  0.17634643289E+01 -0.53435181238E+01  0.22406056238E+01  0.60566745167E+01  0.51100000000E-03 0.  1.
         12    1    3    3    0    0 -0.70390632229E+01  0.18741193213E+02  0.11201387976E+02  0.22940179309E+02  0.00000000000E+00 0. -1.
</event>
<event>
 7    1  0.1220856E-011  0.5930194E+02  0.7816164E-02  0.1266605E+00
        -11   -1    0    0    0    0  0.00000000000E+00  0.00000000000E+00  0.45593999997E+02  0.45594000000E+02  0.51100000000E-03 0.  1.
         11   -1    0    0    0    0 -0.00000000000E+00 -0.00000000000E+00 -0.45593999997E+02  0.45594000000E+02  0.51100000000E-03 0. -1.
    9900012    2    1    2    0    0 -0.26858283735E+02 -0.17417033685E+01 -0.17097356026E+02  0.59301944759E+02  0.50000001333E+02 0.  0.
        -12    1    1    2    0    0  0.26858283735E+02  0.17417033685E+01  0.17097356026E+02  0.31886055241E+02  0.00000000000E+00 0.  1.
         11    1    3    3    0    0  0.11406797136E+02  0.21803549415E+01 -0.60550473466E+01  0.13097044217E+02  0.51100000000E-03 0. -1.
        -11    1    3    3    0    0 -0.15313457479E+01  0.64783489746E+01 -0.22605344966E+01  0.70302234465E+01  0.51100000000E-03 0.  1.
         12    1    3    3    0    0 -0.36733735123E+02 -0.10400407285E+02 -0.87817741824E+01  0.39174677096E+02  0.00000000000E+00 0. -1.
</event>
<event>
 7    1  0.1220856E-011  0.5930191E+02  0.7816164E-02  0.1266605E+00
        -11   -1    0    0    0    0  0.00000000000E+00  0.00000000000E+00  0.45593999997E+02  0.45594000000E+02  0.51100000000E-03 0.  1.
         11   -1    0    0    0    0 -0.00000000000E+00 -0.00000000000E+00 -0.45593999997E+02  0.45594000000E+02  0.51100000000E-03 0. -1.
    9900012    2    1    2    0    0 -0.38310569238E+00 -0.28975828545E+02 -0.13303282255E+02  0.59301910108E+02  0.49999938138E+02 0.  0.
        -12    1    1    2    0    0  0.38310569238E+00  0.28975828545E+02  0.13303282255E+02  0.31886089892E+02  0.00000000000E+00 0.  1.
         11    1    3    3    0    0 -0.80218222016E+01 -0.36804943539E+01 -0.19125944911E+01  0.90307080604E+01  0.51100000000E-03 0. -1.
        -11    1    3    3    0    0 -0.53092160155E+01  0.76148721027E+01  0.58029479493E+01  0.10947522871E+02  0.51100000000E-03 0.  1.
         12    1    3    3    0    0  0.12947932525E+02 -0.32910206294E+02 -0.17193635713E+02  0.39323679177E+02  0.00000000000E+00 0. -1.
</event>
<event>
 7    1  0.1220856E-011  0.5930180E+02  0.7816164E-02  0.1266605E+00
        -11   -1    0    0    0    0  0.00000000000E+00  0.00000000000E+00  0.45593999997E+02  0.45594000000E+02  0.51100000000E-03 0.  1.
         11   -1    0    0    0    0 -0.00000000000E+00 -0.00000000000E+00 -0.45593999997E+02  0.45594000000E+02  0.51100000000E-03 0. -1.
    9900012    2    1    2    0    0  0.17264248652E+02  0.26269015501E+02 -0.53492445562E+01  0.59301798059E+02  0.49999733787E+02 0.  0.
        -12    1    1    2    0    0 -0.17264248652E+02 -0.26269015501E+02  0.53492445562E+01  0.31886201941E+02  0.00000000000E+00 0.  1.
         11    1    3    3    0    0  0.67526780607E+01  0.45473417752E+01  0.74903112440E+01  0.11062628124E+02  0.51100000000E-03 0. -1.
        -11    1    3    3    0    0 -0.18880340456E+01  0.15211186573E+02  0.12172403307E+02  0.19573253998E+02  0.51100000000E-03 0.  1.
         12    1    3    3    0    0  0.12399604637E+02  0.65104871529E+01 -0.25011959108E+02  0.28665915937E+02  0.00000000000E+00 0. -1.
</event>
<event>
 7    1  0.1220856E-011  0.5930196E+02  0.7816164E-02  0.1266605E+00
        -11   -1    0    0    0    0  0.00000000000E+00  0.00000000000E+00  0.45593999997E+02  0.45594000000E+02  0.51100000000E-03 0. -1.
         11   -1    0    0    0    0 -0.00000000000E+00 -0.00000000000E+00 -0.45593999997E+02  0.45594000000E+02  0.51100000000E-03 0.  1.
    9900012    2    1    2    0    0 -0.89860595491E+01 -0.23204733611E+02 -0.19937668766E+02  0.59301959732E+02  0.50000028641E+02 0.  0.
        -12    1    1    2    0    0  0.89860595491E+01  0.23204733611E+02  0.19937668766E+02  0.31886040268E+02  0.00000000000E+00 0.  1.
         11    1    3    3    0    0 -0.13478964422E+01 -0.20451954912E+01 -0.15677877361E+02  0.15868065044E+02  0.51100000000E-03 0. -1.
        -11    1    3    3    0    0 -0.17364979069E+02  0.80046418834E+00 -0.79837935416E+01  0.19129145317E+02  0.51100000000E-03 0.  1.
         12    1    3    3    0    0  0.97268159619E+01 -0.21960002308E+02  0.37240021370E+01  0.24304749372E+02  0.00000000000E+00 0. -1.
</event>
<event>
 7    1  0.1220856E-011  0.5930207E+02  0.7816164E-02  0.1266604E+00
        -11   -1    0    0    0    0  0.00000000000E+00  0.00000000000E+00  0.45593999997E+02  0.45594000000E+02  0.51100000000E-03 0. -1.
         11   -1    0    0    0    0 -0.00000000000E+00 -0.00000000000E+00 -0.45593999997E+02  0.45594000000E+02  0.51100000000E-03 0.  1.
    9900012    2    1    2    0    0 -0.29069635758E+02 -0.12178336657E+02 -0.48328828927E+01  0.59302072636E+02  0.50000234549E+02 0.  0.
        -12    1    1    2    0    0  0.29069635758E+02  0.12178336657E+02  0.48328828927E+01  0.31885927364E+02  0.00000000000E+00 0.  1.
         11    1    3    3    0    0 -0.15905876185E+01  0.68353188903E+01 -0.18645942849E+01  0.72614230983E+01  0.51100000000E-03 0. -1.
        -11    1    3    3    0    0  0.73834801428E+00  0.25630048608E+01 -0.14462042985E+02  0.14705945712E+02  0.51100000000E-03 0.  1.
         12    1    3    3    0    0 -0.28217396154E+02 -0.21576660408E+02  0.11493754377E+02  0.37334703826E+02  0.00000000000E+00 0. -1.
</event>
<event>
 7    1  0.1220856E-011  0.5930195E+02  0.7816164E-02  0.1266605E+00
        -11   -1    0    0    0    0  0.00000000000E+00  0.00000000000E+00  0.45593999997E+02  0.45594000000E+02  0.51100000000E-03 0. -1.
         11   -1    0    0    0    0 -0.00000000000E+00 -0.00000000000E+00 -0.45593999997E+02  0.45594000000E+02  0.51100000000E-03 0.  1.
    9900012    2    1    2    0    0 -0.30033082864E+02  0.77648613347E+01 -0.73784247748E+01  0.59301948347E+02  0.50000007877E+02 0.  0.
        -12    1    1    2    0    0  0.30033082864E+02 -0.77648613347E+01  0.73784247748E+01  0.31886051653E+02  0.00000000000E+00 0.  1.
         11    1    3    3    0    0 -0.16373547423E+02 -0.59447521683E+01  0.14191902928E+02  0.22468716976E+02  0.51100000000E-03 0. -1.
        -11    1    3    3    0    0 -0.34995388177E+01 -0.55033385520E+01 -0.10703851459E+02  0.12534190978E+02  0.51100000000E-03 0.  1.
        -12    1    3    3    0    0 -0.10159996624E+02  0.19212952055E+02 -0.10866476244E+02  0.24299040393E+02  0.00000000000E+00 0.  1.
</event>
<event>
 7    1  0.1220856E-011  0.5930194E+02  0.7816164E-02  0.1266605E+00
        -11   -1    0    0    0    0  0.00000000000E+00  0.00000000000E+00  0.45593999997E+02  0.45594000000E+02  0.51100000000E-03 0.  1.
         11   -1    0    0    0    0 -0.00000000000E+00 -0.00000000000E+00 -0.45593999997E+02  0.45594000000E+02  0.51100000000E-03 0. -1.
    9900012    2    1    2    0    0  0.31300820358E+02  0.79399392703E+00  0.60290383414E+01  0.59301935885E+02  0.49999985149E+02 0.  0.
        -12    1    1    2    0    0 -0.31300820358E+02 -0.79399392703E+00 -0.60290383414E+01  0.31886064115E+02  0.00000000000E+00 0.  1.
         11    1    3    3    0    0 -0.37740207046E+01  0.43154461909E+01 -0.81990161143E+01  0.10004507664E+02  0.51100000000E-03 0. -1.
        -11    1    3    3    0    0  0.58541677645E+01  0.11434413864E+02 -0.14359726500E+01  0.12925908802E+02  0.51100000000E-03 0.  1.
        -12    1    3    3    0    0  0.29220673298E+02 -0.14955866128E+02  0.15664027106E+02  0.36371519419E+02  0.00000000000E+00 0.  1.
</event>
<event>
 7    1  0.1220856E-011  0.5930194E+02  0.7816164E-02  0.1266605E+00
        -11   -1    0    0    0    0  0.00000000000E+00  0.00000000000E+00  0.45593999997E+02  0.45594000000E+02  0.51100000000E-03 0. -1.
         11   -1    0    0    0    0 -0.00000000000E+00 -0.00000000000E+00 -0.45593999997E+02  0.45594000000E+02  0.51100000000E-03 0.  1.
    9900012    2    1    2    0    0  0.20425719360E+01 -0.31660445961E+02  0.31882005092E+01  0.59301944097E+02  0.50000000126E+02 0.  0.
        -12    1    1    2    0    0 -0.20425719360E+01  0.31660445961E+02 -0.31882005092E+01  0.31886055903E+02  0.00000000000E+00 0.  1.
         11    1    3    3    0    0 -0.86396608957E+01 -0.23222280408E+02  0.13018435821E+02  0.27989242920E+02  0.51100000000E-03 0. -1.
        -11    1    3    3    0    0  0.96864849188E+01 -0.14882569660E+02 -0.14798147795E+02  0.23115017807E+02  0.51100000000E-03 0.  1.
         12    1    3    3    0    0  0.99574791289E+00  0.64444041066E+01  0.49679124833E+01  0.81976833701E+01  0.00000000000E+00 0. -1.
</event>
<event>
 7    1  0.1220856E-011  0.5930197E+02  0.7816164E-02  0.1266605E+00
        -11   -1    0    0    0    0  0.00000000000E+00  0.00000000000E+00  0.45593999997E+02  0.45594000000E+02  0.51100000000E-03 0.  1.
         11   -1    0    0    0    0 -0.00000000000E+00 -0.00000000000E+00 -0.45593999997E+02  0.45594000000E+02  0.51100000000E-03 0. -1.
    9900012    2    1    2    0    0  0.55720389752E+00  0.25661213029E+01 -0.31777718298E+02  0.59301971164E+02  0.50000049490E+02 0.  0.
        -12    1    1    2    0    0 -0.55720389752E+00 -0.25661213029E+01  0.31777718298E+02  0.31886028836E+02  0.00000000000E+00 0.  1.
         11    1    3    3    0    0  0.11310928857E+02  0.19224193264E+01 -0.22132020758E+02  0.24929082429E+02  0.51100000000E-03 0. -1.
        -11    1    3    3    0    0  0.74845918333E+01  0.99241785624E+01 -0.23687336788E+01  0.12653826874E+02  0.51100000000E-03 0.  1.
         12    1    3    3    0    0 -0.18238316793E+02 -0.92804765858E+01 -0.72769638606E+01  0.21719061861E+02  0.00000000000E+00 0. -1.
</event>
<event>
 7    1  0.1220856E-011  0.5930192E+02  0.7816164E-02  0.1266605E+00
        -11   -1    0    0    0    0  0.00000000000E+00  0.00000000000E+00  0.45593999997E+02  0.45594000000E+02  0.51100000000E-03 0.  1.
         11   -1    0    0    0    0 -0.00000000000E+00 -0.00000000000E+00 -0.45593999997E+02  0.45594000000E+02  0.51100000000E-03 0. -1.
    9900012    2    1    2    0    0 -0.52137511759E+00  0.14702399472E+02 -0.28289388573E+02  0.59301923288E+02  0.49999962176E+02 0.  0.
        -12    1    1    2    0    0  0.52137511759E+00 -0.14702399472E+02  0.28289388573E+02  0.31886076712E+02  0.00000000000E+00 0.  1.
         11    1    3    3    0    0 -0.53484588806E+01 -0.20379354716E+01 -0.18083485256E+02  0.18967646999E+02  0.51100000000E-03 0. -1.
        -11    1    3    3    0    0 -0.10023791755E+01  0.51880369746E+01 -0.22121578457E+02  0.22743894243E+02  0.51100000000E-03 0.  1.
        -12    1    3    3    0    0  0.58294629385E+01  0.11552297969E+02  0.11915675140E+02  0.17590382046E+02  0.00000000000E+00 0.  1.
</event>
<event>
 7    1  0.1220856E-011  0.5930192E+02  0.7816164E-02  0.1266605E+00
        -11   -1    0    0    0    0  0.00000000000E+00  0.00000000000E+00  0.45593999997E+02  0.45594000000E+02  0.51100000000E-03 0. -1.
         11   -1    0    0    0    0 -0.00000000000E+00 -0.00000000000E+00 -0.45593999997E+02  0.45594000000E+02  0.51100000000E-03 0.  1.
    9900012    2    1    2    0    0 -0.22770709805E+02  0.10726341321E+02  0.19574532197E+02  0.59301922570E+02  0.49999960867E+02 0.  0.
        -12    1    1    2    0    0  0.22770709805E+02 -0.10726341321E+02 -0.19574532197E+02  0.31886077430E+02  0.00000000000E+00 0.  1.
         11    1    3    3    0    0  0.71299085399E+01  0.67640311699E+01  0.21790348145E+01  0.10066573719E+02  0.51100000000E-03 0. -1.
        -11    1    3    3    0    0  0.59109447622E+01 -0.37230480941E+01  0.94580832235E+01  0.11758218131E+02  0.51100000000E-03 0.  1.
         12    1    3    3    0    0 -0.35811563107E+02  0.76853582454E+01  0.79374141587E+01  0.37477130720E+02  0.00000000000E+00 0. -1.
</event>
<event>
 7    1  0.1220856E-011  0.5930189E+02  0.7816164E-02  0.1266605E+00
        -11   -1    0    0    0    0  0.00000000000E+00  0.00000000000E+00  0.45593999997E+02  0.45594000000E+02  0.51100000000E-03 0.  1.
         11   -1    0    0    0    0 -0.00000000000E+00 -0.00000000000E+00 -0.45593999997E+02  0.45594000000E+02  0.51100000000E-03 0. -1.
    9900012    2    1    2    0    0  0.23261261675E+02  0.40079688836E+01 -0.21437670504E+02  0.59301892901E+02  0.49999906756E+02 0.  0.
        -12    1    1    2    0    0 -0.23261261675E+02 -0.40079688836E+01  0.21437670504E+02  0.31886107099E+02  0.00000000000E+00 0.  1.
         11    1    3    3    0    0  0.27218739230E+02 -0.23155053517E+01 -0.19582069911E+02  0.33610694616E+02  0.51100000000E-03 0. -1.
        -11    1    3    3    0    0 -0.10220874228E+01 -0.87007375122E+01  0.35556875880E+01  0.94546502019E+01  0.51100000000E-03 0.  1.
         12    1    3    3    0    0 -0.29353901319E+01  0.15024211748E+02 -0.54112881817E+01  0.16236548083E+02  0.00000000000E+00 0. -1.
</event>
<event>
 7    1  0.1220856E-011  0.5930195E+02  0.7816164E-02  0.1266605E+00
        -11   -1    0    0    0    0  0.00000000000E+00  0.00000000000E+00  0.45593999997E+02  0.45594000000E+02  0.51100000000E-03 0. -1.
         11   -1    0    0    0    0 -0.00000000000E+00 -0.00000000000E+00 -0.45593999997E+02  0.45594000000E+02  0.51100000000E-03 0.  1.
    9900012    2    1    2    0    0  0.17391673736E+02  0.21546680274E+02 -0.15811082113E+02  0.59301951895E+02  0.50000014348E+02 0.  0.
        -12    1    1    2    0    0 -0.17391673736E+02 -0.21546680274E+02  0.15811082113E+02  0.31886048105E+02  0.00000000000E+00 0.  1.
         11    1    3    3    0    0  0.73405693928E+00  0.15678565601E+01  0.37819243569E+01  0.41593227677E+01  0.51100000000E-03 0. -1.
        -11    1    3    3    0    0  0.22999799444E+01 -0.13613237619E+02 -0.10901288080E+02  0.17591140620E+02  0.51100000000E-03 0.  1.
         12    1    3    3    0    0  0.14357636852E+02  0.33592061333E+02 -0.86917183899E+01  0.37551488508E+02  0.00000000000E+00 0. -1.
</event>
<event>
 7    1  0.1220856E-011  0.5930194E+02  0.7816164E-02  0.1266605E+00
        -11   -1    0    0    0    0  0.00000000000E+00  0.00000000000E+00  0.45593999997E+02  0.45594000000E+02  0.51100000000E-03 0.  1.
         11   -1    0    0    0    0 -0.00000000000E+00 -0.00000000000E+00 -0.45593999997E+02  0.45594000000E+02  0.51100000000E-03 0. -1.
    9900012    2    1    2    0    0  0.29514738766E+02 -0.34086303621E+01 -0.11575073149E+02  0.59301939037E+02  0.49999990897E+02 0.  0.
        -12    1    1    2    0    0 -0.29514738766E+02  0.34086303621E+01  0.11575073149E+02  0.31886060963E+02  0.00000000000E+00 0.  1.
         11    1    3    3    0    0 -0.27450222544E+00 -0.10127015645E+01 -0.10804093499E+02  0.10854922962E+02  0.51100000000E-03 0. -1.
        -11    1    3    3    0    0 -0.26041576148E+01  0.12124599963E+02  0.29689766012E+01  0.12751563962E+02  0.51100000000E-03 0.  1.
         12    1    3    3    0    0  0.32393398606E+02 -0.14520528761E+02 -0.37399562521E+01  0.35695452112E+02  0.00000000000E+00 0. -1.
</event>
<event>
 7    1  0.1220856E-011  0.5930199E+02  0.7816164E-02  0.1266605E+00
        -11   -1    0    0    0    0  0.00000000000E+00  0.00000000000E+00  0.45593999997E+02  0.45594000000E+02  0.51100000000E-03 0.  1.
         11   -1    0    0    0    0 -0.00000000000E+00 -0.00000000000E+00 -0.45593999997E+02  0.45594000000E+02  0.51100000000E-03 0. -1.
    9900012    2    1    2    0    0 -0.13549296627E+02  0.24591350124E+02 -0.15112894412E+02  0.59301991822E+02  0.50000087165E+02 0.  0.
        -12    1    1    2    0    0  0.13549296627E+02 -0.24591350124E+02  0.15112894412E+02  0.31886008178E+02  0.00000000000E+00 0.  1.
         11    1    3    3    0    0 -0.83807241168E+01  0.15552251758E+02 -0.21972880515E+02  0.28194264485E+02  0.51100000000E-03 0. -1.
        -11    1    3    3    0    0  0.46603182600E+01 -0.26580726108E+01 -0.81059265081E+01  0.97205946888E+01  0.51100000000E-03 0.  1.
         12    1    3    3    0    0 -0.98288907701E+01  0.11697170977E+02  0.14965912611E+02  0.21387132648E+02  0.00000000000E+00 0. -1.
</event>
<event>
 7    1  0.1220856E-011  0.5930195E+02  0.7816164E-02  0.1266605E+00
        -11   -1    0    0    0    0  0.00000000000E+00  0.00000000000E+00  0.45593999997E+02  0.45594000000E+02  0.51100000000E-03 0. -1.
         11   -1    0    0    0    0 -0.00000000000E+00 -0.00000000000E+00 -0.45593999997E+02  0.45594000000E+02  0.51100000000E-03 0.  1.
    9900012    2    1    2    0    0  0.27326036199E+02  0.10734649715E+02 -0.12440878678E+02  0.59301946291E+02  0.50000004128E+02 0.  0.
        -12    1    1    2    0    0 -0.27326036199E+02 -0.10734649715E+02  0.12440878678E+02  0.31886053709E+02  0.00000000000E+00 0.  1.
         11    1    3    3    0    0 -0.38600382136E+01  0.23348991947E+01  0.11217994424E+02  0.12091114440E+02  0.51100000000E-03 0. -1.
        -11    1    3    3    0    0 -0.42707250706E+01  0.21601657238E+01 -0.19322431094E+01  0.51612956007E+01  0.51100000000E-03 0.  1.
        -12    1    3    3    0    0  0.35456799483E+02  0.62395847965E+01 -0.21726629992E+02  0.42049536250E+02  0.00000000000E+00 0.  1.
</event>
<event>
 7    1  0.1220856E-011  0.5930194E+02  0.7816164E-02  0.1266605E+00
        -11   -1    0    0    0    0  0.00000000000E+00  0.00000000000E+00  0.45593999997E+02  0.45594000000E+02  0.51100000000E-03 0.  1.
         11   -1    0    0    0    0 -0.00000000000E+00 -0.00000000000E+00 -0.45593999997E+02  0.45594000000E+02  0.51100000000E-03 0. -1.
    9900012    2    1    2    0    0  0.26612097304E+02 -0.13237420794E+02 -0.11545036064E+02  0.59301938940E+02  0.49999990722E+02 0.  0.
        -12    1    1    2    0    0 -0.26612097304E+02  0.13237420794E+02  0.11545036064E+02  0.31886061060E+02  0.00000000000E+00 0.  1.
         11    1    3    3    0    0  0.13995107917E+02 -0.21656833081E+02 -0.11705302142E+02  0.28317760562E+02  0.51100000000E-03 0. -1.
        -11    1    3    3    0    0  0.18914604665E+01 -0.34450507267E+01  0.10988110242E+02  0.11669814230E+02  0.51100000000E-03 0.  1.
         12    1    3    3    0    0  0.10725528920E+02  0.11864463014E+02 -0.10827844164E+02  0.19314364149E+02  0.00000000000E+00 0. -1.
</event>
<event>
 7    1  0.1220856E-011  0.5930208E+02  0.7816164E-02  0.1266604E+00
        -11   -1    0    0    0    0  0.00000000000E+00  0.00000000000E+00  0.45593999997E+02  0.45594000000E+02  0.51100000000E-03 0.  1.
         11   -1    0    0    0    0 -0.00000000000E+00 -0.00000000000E+00 -0.45593999997E+02  0.45594000000E+02  0.51100000000E-03 0. -1.
    9900012    2    1    2    0    0  0.10795974273E+02  0.15028844529E+01 -0.29964986178E+02  0.59302076478E+02  0.50000241557E+02 0.  0.
        -12    1    1    2    0    0 -0.10795974273E+02 -0.15028844529E+01  0.29964986178E+02  0.31885923522E+02  0.00000000000E+00 0.  1.
         11    1    3    3    0    0  0.75472754581E+01  0.15364058823E+02 -0.24390971931E+02  0.29798241262E+02  0.51100000000E-03 0.  1.
        -11    1    3    3    0    0 -0.79250883134E+01  0.10589277235E+01 -0.72436791966E+01  0.10788848004E+02  0.51100000000E-03 0. -1.
        -12    1    3    3    0    0  0.11173787129E+02 -0.14920102094E+02  0.16696649491E+01  0.18714987211E+02  0.00000000000E+00 0.  1.
</event>
<event>
 7    1  0.1263650E-011  0.5930196E+02  0.7816164E-02  0.1266605E+00
        -11   -1    0    0    0    0  0.00000000000E+00  0.00000000000E+00  0.45593999997E+02  0.45594000000E+02  0.51100000000E-03 0. -1.
         11   -1    0    0    0    0 -0.00000000000E+00 -0.00000000000E+00 -0.45593999997E+02  0.45594000000E+02  0.51100000000E-03 0.  1.
    9900012    2    1    2    0    0  0.71768122737E+01 -0.26450868291E+02  0.16296147142E+02  0.59301961058E+02  0.50000031059E+02 0.  0.
        -12    1    1    2    0    0 -0.71768122737E+01  0.26450868291E+02 -0.16296147142E+02  0.31886038942E+02  0.00000000000E+00 0.  1.
         11    1    3    3    0    0  0.15696703767E+02 -0.26266157649E+02  0.61931253432E+01  0.31219422617E+02  0.51100000000E-03 0. -1.
        -11    1    3    3    0    0 -0.78863894621E+01 -0.26541968499E+01 -0.69489568251E+01  0.10841028590E+02  0.51100000000E-03 0.  1.
        -12    1    3    3    0    0 -0.63350203163E+00  0.24694862078E+01  0.17051978624E+02  0.17241509851E+02  0.00000000000E+00 0.  1.
</event>
<event>
 7    1  0.1220856E-011  0.5930186E+02  0.7816164E-02  0.1266605E+00
        -11   -1    0    0    0    0  0.00000000000E+00  0.00000000000E+00  0.45593999997E+02  0.45594000000E+02  0.51100000000E-03 0. -1.
         11   -1    0    0    0    0 -0.00000000000E+00 -0.00000000000E+00 -0.45593999997E+02  0.45594000000E+02  0.51100000000E-03 0.  1.
    9900012    2    1    2    0    0  0.46898882937E+01  0.25437020768E+02  0.18646418135E+02  0.59301859013E+02  0.49999844953E+02 0.  0.
        -12    1    1    2    0    0 -0.46898882937E+01 -0.25437020768E+02 -0.18646418135E+02  0.31886140987E+02  0.00000000000E+00 0.  1.
         11    1    3    3    0    0 -0.52024660238E+00  0.21288981924E+02  0.17875559110E+02  0.27803363495E+02  0.51100000000E-03 0. -1.
        -11    1    3    3    0    0 -0.46043463805E+01 -0.28119522159E+01  0.13163307344E+02  0.14226023385E+02  0.51100000000E-03 0.  1.
         12    1    3    3    0    0  0.98144812766E+01  0.69599910597E+01 -0.12392448318E+02  0.17272472133E+02  0.00000000000E+00 0. -1.
</event>
<event>
 7    1  0.1220856E-011  0.5930191E+02  0.7816164E-02  0.1266605E+00
        -11   -1    0    0    0    0  0.00000000000E+00  0.00000000000E+00  0.45593999997E+02  0.45594000000E+02  0.51100000000E-03 0.  1.
         11   -1    0    0    0    0 -0.00000000000E+00 -0.00000000000E+00 -0.45593999997E+02  0.45594000000E+02  0.51100000000E-03 0. -1.
    9900012    2    1    2    0    0 -0.10686698574E+01  0.57035482920E+01 -0.31353632159E+02  0.59301909491E+02  0.49999937012E+02 0.  0.
        -12    1    1    2    0    0  0.10686698574E+01 -0.57035482920E+01  0.31353632159E+02  0.31886090509E+02  0.00000000000E+00 0.  1.
         11    1    3    3    0    0 -0.28699037772E+00  0.55220577622E+00 -0.20665919761E+02  0.20675288015E+02  0.51100000000E-03 0. -1.
        -11    1    3    3    0    0 -0.62415006911E+01  0.18971113809E+02 -0.12646592472E+02  0.23638861890E+02  0.51100000000E-03 0.  1.
        -12    1    3    3    0    0  0.54598212114E+01 -0.13819771293E+02  0.19588800734E+01  0.14987759586E+02  0.00000000000E+00 0.  1.
</event>
<event>
 7    1  0.1220856E-011  0.5930194E+02  0.7816164E-02  0.1266605E+00
        -11   -1    0    0    0    0  0.00000000000E+00  0.00000000000E+00  0.45593999997E+02  0.45594000000E+02  0.51100000000E-03 0.  1.
         11   -1    0    0    0    0 -0.00000000000E+00 -0.00000000000E+00 -0.45593999997E+02  0.45594000000E+02  0.51100000000E-03 0. -1.
    9900012    2    1    2    0    0 -0.24396400668E+02  0.17917178783E+02 -0.10025535566E+02  0.59301936830E+02  0.49999986874E+02 0.  0.
        -12    1    1    2    0    0  0.24396400668E+02 -0.17917178783E+02  0.10025535566E+02  0.31886063170E+02  0.00000000000E+00 0.  1.
         11    1    3    3    0    0  0.30130056789E+01 -0.92110126269E+00 -0.85597422829E+01  0.91211742099E+01  0.51100000000E-03 0. -1.
        -11    1    3    3    0    0 -0.55891319265E+01 -0.31197962247E+01  0.14134226773E+02  0.15516052684E+02  0.51100000000E-03 0.  1.
         12    1    3    3    0    0 -0.21820274420E+02  0.21958076270E+02 -0.15600020055E+02  0.34664709936E+02  0.00000000000E+00 0. -1.
</event>
<event>
 7    1  0.1220856E-011  0.5930200E+02  0.7816164E-02  0.1266605E+00
        -11   -1    0    0    0    0  0.00000000000E+00  0.00000000000E+00  0.45593999997E+02  0.45594000000E+02  0.51100000000E-03 0.  1.
         11   -1    0    0    0    0 -0.00000000000E+00 -0.00000000000E+00 -0.45593999997E+02  0.45594000000E+02  0.51100000000E-03 0. -1.
    9900012    2    1    2    0    0  0.26895670769E+01 -0.33494044465E+01 -0.31595328972E+02  0.59301998462E+02  0.50000099275E+02 0.  0.
        -12    1    1    2    0    0 -0.26895670769E+01  0.33494044465E+01  0.31595328972E+02  0.31886001538E+02  0.00000000000E+00 0.  1.
         11    1    3    3    0    0 -0.72655072219E+01 -0.10330864593E+02 -0.16086035681E+01  0.12731926960E+02  0.51100000000E-03 0. -1.
        -11    1    3    3    0    0  0.41614419883E+00 -0.13242807507E+02 -0.10394274118E+02  0.16840013699E+02  0.51100000000E-03 0.  1.
        -12    1    3    3    0    0  0.95389301000E+01  0.20224267654E+02 -0.19592451286E+02  0.29730057803E+02  0.00000000000E+00 0.  1.
</event>
<event>
 7    1  0.1220856E-011  0.5930217E+02  0.7816164E-02  0.1266604E+00
        -11   -1    0    0    0    0  0.00000000000E+00  0.00000000000E+00  0.45593999997E+02  0.45594000000E+02  0.51100000000E-03 0.  1.
         11   -1    0    0    0    0 -0.00000000000E+00 -0.00000000000E+00 -0.45593999997E+02  0.45594000000E+02  0.51100000000E-03 0. -1.
    9900012    2    1    2    0    0 -0.11085248266E+02 -0.26874168768E+02 -0.13099708788E+02  0.59302171699E+02  0.50000415217E+02 0.  0.
        -12    1    1    2    0    0  0.11085248266E+02  0.26874168768E+02  0.13099708788E+02  0.31885828301E+02  0.00000000000E+00 0.  1.
         11    1    3    3    0    0  0.89526622266E+01  0.32031331952E+01  0.33882727677E+01  0.10094088162E+02  0.51100000000E-03 0.  1.
        -11    1    3    3    0    0  0.46463626691E+01 -0.11341623279E+02  0.29767799530E+01  0.12612784142E+02  0.51100000000E-03 0. -1.
        -12    1    3    3    0    0 -0.24684273162E+02 -0.18735678684E+02 -0.19464761509E+02  0.36595299396E+02  0.00000000000E+00 0.  1.
</event>
<event>
 7    1  0.1220856E-011  0.5930193E+02  0.7816164E-02  0.1266605E+00
        -11   -1    0    0    0    0  0.00000000000E+00  0.00000000000E+00  0.45593999997E+02  0.45594000000E+02  0.51100000000E-03 0.  1.
         11   -1    0    0    0    0 -0.00000000000E+00 -0.00000000000E+00 -0.45593999997E+02  0.45594000000E+02  0.51100000000E-03 0. -1.
    9900012    2    1    2    0    0  0.10196312731E+02 -0.29918138645E+02  0.42025723059E+01  0.59301930514E+02  0.49999975355E+02 0.  0.
        -12    1    1    2    0    0 -0.10196312731E+02  0.29918138645E+02 -0.42025723059E+01  0.31886069486E+02  0.00000000000E+00 0.  1.
         11    1    3    3    0    0  0.74472678255E-01 -0.39684620676E+02 -0.49345802774E+01  0.39990308165E+02  0.51100000000E-03 0. -1.
        -11    1    3    3    0    0  0.55295862214E+00 -0.16873772056E+01  0.22716812004E+01  0.28833211422E+01  0.51100000000E-03 0.  1.
         12    1    3    3    0    0  0.95688814302E+01  0.11453859237E+02  0.68654713829E+01  0.16428301207E+02  0.00000000000E+00 0. -1.
</event>
<event>
 7    1  0.1220856E-011  0.5930196E+02  0.7816164E-02  0.1266605E+00
        -11   -1    0    0    0    0  0.00000000000E+00  0.00000000000E+00  0.45593999997E+02  0.45594000000E+02  0.51100000000E-03 0.  1.
         11   -1    0    0    0    0 -0.00000000000E+00 -0.00000000000E+00 -0.45593999997E+02  0.45594000000E+02  0.51100000000E-03 0. -1.
    9900012    2    1    2    0    0  0.26094647974E+02  0.11365410339E+01 -0.18289265443E+02  0.59301959028E+02  0.50000027357E+02 0.  0.
        -12    1    1    2    0    0 -0.26094647974E+02 -0.11365410339E+01  0.18289265443E+02  0.31886040972E+02  0.00000000000E+00 0.  1.
         11    1    3    3    0    0  0.18582311554E+02  0.19751790050E+02 -0.78892494499E+01  0.28243154392E+02  0.51100000000E-03 0. -1.
        -11    1    3    3    0    0 -0.97693744091E+00  0.29795620005E+01 -0.69180211413E+01  0.75954732078E+01  0.51100000000E-03 0.  1.
        -12    1    3    3    0    0  0.84892738612E+01 -0.21594811017E+02 -0.34819948520E+01  0.23463331428E+02  0.00000000000E+00 0.  1.
</event>
<event>
 7    1  0.1220856E-011  0.5930194E+02  0.7816164E-02  0.1266605E+00
        -11   -1    0    0    0    0  0.00000000000E+00  0.00000000000E+00  0.45593999997E+02  0.45594000000E+02  0.51100000000E-03 0.  1.
         11   -1    0    0    0    0 -0.00000000000E+00 -0.00000000000E+00 -0.45593999997E+02  0.45594000000E+02  0.51100000000E-03 0. -1.
    9900012    2    1    2    0    0  0.69986331157E+01  0.18304807336E+02 -0.25153012175E+02  0.59301939432E+02  0.49999991618E+02 0.  0.
        -12    1    1    2    0    0 -0.69986331157E+01 -0.18304807336E+02  0.25153012175E+02  0.31886060568E+02  0.00000000000E+00 0.  1.
         11    1    3    3    0    0  0.32522497521E+01 -0.49310734107E+01 -0.47856823897E+00  0.59263514284E+01  0.51100000000E-03 0. -1.
        -11    1    3    3    0    0 -0.84090316744E+01 -0.31296629813E+01  0.62681675405E+01  0.10945160056E+02  0.51100000000E-03 0.  1.
         12    1    3    3    0    0  0.12155415038E+02  0.26365543728E+02 -0.30942611476E+02  0.42430427947E+02  0.00000000000E+00 0. -1.
</event>
<event>
 7    1  0.1220856E-011  0.5930195E+02  0.7816164E-02  0.1266605E+00
        -11   -1    0    0    0    0  0.00000000000E+00  0.00000000000E+00  0.45593999997E+02  0.45594000000E+02  0.51100000000E-03 0. -1.
         11   -1    0    0    0    0 -0.00000000000E+00 -0.00000000000E+00 -0.45593999997E+02  0.45594000000E+02  0.51100000000E-03 0.  1.
    9900012    2    1    2    0    0 -0.80948530710E+00 -0.19645122223E+02  0.25102477150E+02  0.59301945797E+02  0.50000003226E+02 0.  0.
        -12    1    1    2    0    0  0.80948530710E+00  0.19645122223E+02 -0.25102477150E+02  0.31886054203E+02  0.00000000000E+00 0.  1.
         11    1    3    3    0    0 -0.77808238415E+01 -0.37159723805E+01 -0.95719176660E+01  0.12882984066E+02  0.51100000000E-03 0. -1.
        -11    1    3    3    0    0  0.61599111166E+01  0.58086817449E+01  0.14277042352E+02  0.16598771857E+02  0.51100000000E-03 0.  1.
         12    1    3    3    0    0  0.81142741779E+00 -0.21737831587E+02  0.20397352463E+02  0.29820189873E+02  0.00000000000E+00 0. -1.
</event>
<event>
 7    1  0.1220856E-011  0.5930191E+02  0.7816164E-02  0.1266605E+00
        -11   -1    0    0    0    0  0.00000000000E+00  0.00000000000E+00  0.45593999997E+02  0.45594000000E+02  0.51100000000E-03 0. -1.
         11   -1    0    0    0    0 -0.00000000000E+00 -0.00000000000E+00 -0.45593999997E+02  0.45594000000E+02  0.51100000000E-03 0.  1.
    9900012    2    1    2    0    0 -0.26215309101E+02 -0.59288559426E+01  0.17156016195E+02  0.59301911251E+02  0.49999940223E+02 0.  0.
        -12    1    1    2    0    0  0.26215309101E+02  0.59288559426E+01 -0.17156016195E+02  0.31886088749E+02  0.00000000000E+00 0.  1.
         11    1    3    3    0    0 -0.29258915626E+01 -0.48541631661E+01  0.20478829618E+02  0.21248675353E+02  0.51100000000E-03 0.  1.
        -11    1    3    3    0    0  0.46903146252E+01 -0.69434933030E+01 -0.43603029645E+01  0.94458135031E+01  0.51100000000E-03 0. -1.
        -12    1    3    3    0    0 -0.27979732163E+02  0.58688005265E+01  0.10374895413E+01  0.28607422395E+02  0.00000000000E+00 0.  1.
</event>
<event>
 7    1  0.1220856E-011  0.5930202E+02  0.7816164E-02  0.1266604E+00
        -11   -1    0    0    0    0  0.00000000000E+00  0.00000000000E+00  0.45593999997E+02  0.45594000000E+02  0.51100000000E-03 0. -1.
         11   -1    0    0    0    0 -0.00000000000E+00 -0.00000000000E+00 -0.45593999997E+02  0.45594000000E+02  0.51100000000E-03 0.  1.
    9900012    2    1    2    0    0  0.62458087345E+01 -0.24925007204E+02  0.18879873270E+02  0.59302019922E+02  0.50000138412E+02 0.  0.
        -12    1    1    2    0    0 -0.62458087345E+01  0.24925007204E+02 -0.18879873270E+02  0.31885980078E+02  0.00000000000E+00 0.  1.
         11    1    3    3    0    0  0.10238673503E+02  0.67097907707E+01 -0.61253389211E+01  0.13688371139E+02  0.51100000000E-03 0. -1.
        -11    1    3    3    0    0  0.61744420464E+01 -0.20973871659E+02  0.84168195542E+01  0.23427972141E+02  0.51100000000E-03 0.  1.
        -12    1    3    3    0    0 -0.10167306815E+02 -0.10660926315E+02  0.16588392637E+02  0.22185676642E+02  0.00000000000E+00 0.  1.
</event>
<event>
 7    1  0.1220856E-011  0.5930194E+02  0.7816164E-02  0.1266605E+00
        -11   -1    0    0    0    0  0.00000000000E+00  0.00000000000E+00  0.45593999997E+02  0.45594000000E+02  0.51100000000E-03 0.  1.
         11   -1    0    0    0    0 -0.00000000000E+00 -0.00000000000E+00 -0.45593999997E+02  0.45594000000E+02  0.51100000000E-03 0. -1.
    9900012    2    1    2    0    0  0.27025542340E+02 -0.16493808081E+02 -0.37808728301E+01  0.59301942810E+02  0.49999997780E+02 0.  0.
        -12    1    1    2    0    0 -0.27025542340E+02  0.16493808081E+02  0.37808728301E+01  0.31886057190E+02  0.00000000000E+00 0.  1.
         11    1    3    3    0    0  0.12597482805E+02 -0.14563992569E+02 -0.16538112616E+02  0.25383372938E+02  0.51100000000E-03 0. -1.
        -11    1    3    3    0    0  0.15869526472E+02  0.44371541781E+01 -0.31026290263E+01  0.16767722409E+02  0.51100000000E-03 0.  1.
        -12    1    3    3    0    0 -0.14414669378E+01 -0.63669696897E+01  0.15859868812E+02  0.17150847463E+02  0.00000000000E+00 0.  1.
</event>
<event>
 7    1  0.1220856E-011  0.5930197E+02  0.7816164E-02  0.1266605E+00
        -11   -1    0    0    0    0  0.00000000000E+00  0.00000000000E+00  0.45593999997E+02  0.45594000000E+02  0.51100000000E-03 0. -1.
         11   -1    0    0    0    0 -0.00000000000E+00 -0.00000000000E+00 -0.45593999997E+02  0.45594000000E+02  0.51100000000E-03 0.  1.
    9900012    2    1    2    0    0  0.91610060731E+01 -0.20603419580E+02  0.22545373912E+02  0.59301971469E+02  0.50000050045E+02 0.  0.
        -12    1    1    2    0    0 -0.91610060731E+01  0.20603419580E+02 -0.22545373912E+02  0.31886028531E+02  0.00000000000E+00 0.  1.
         11    1    3    3    0    0  0.55423820437E+01 -0.57074122649E+01 -0.10595871769E+02  0.13250096312E+02  0.51100000000E-03 0.  1.
        -11    1    3    3    0    0  0.14085776594E+02 -0.12114405486E+02  0.29032685838E+02  0.34468315447E+02  0.51100000000E-03 0. -1.
         12    1    3    3    0    0 -0.10467152565E+02 -0.27816018290E+01  0.41085598431E+01  0.11583559709E+02  0.00000000000E+00 0. -1.
</event>
<event>
 7    1  0.1220856E-011  0.5930193E+02  0.7816164E-02  0.1266605E+00
        -11   -1    0    0    0    0  0.00000000000E+00  0.00000000000E+00  0.45593999997E+02  0.45594000000E+02  0.51100000000E-03 0.  1.
         11   -1    0    0    0    0 -0.00000000000E+00 -0.00000000000E+00 -0.45593999997E+02  0.45594000000E+02  0.51100000000E-03 0. -1.
    9900012    2    1    2    0    0  0.79874224914E+01  0.13333074365E+02 -0.27841545383E+02  0.59301930324E+02  0.49999975007E+02 0.  0.
        -12    1    1    2    0    0 -0.79874224914E+01 -0.13333074365E+02  0.27841545383E+02  0.31886069676E+02  0.00000000000E+00 0.  1.
         11    1    3    3    0    0  0.20763593025E+01  0.23497179142E+02 -0.67046671217E+01  0.24523076011E+02  0.51100000000E-03 0. -1.
        -11    1    3    3    0    0 -0.67972411952E+01  0.13067281326E+01  0.78301878638E+00  0.69658556517E+01  0.51100000000E-03 0.  1.
        -12    1    3    3    0    0  0.12708304384E+02 -0.11470832909E+02 -0.21919897048E+02  0.27812998661E+02  0.00000000000E+00 0.  1.
</event>
<event>
 7    1  0.1220856E-011  0.5930193E+02  0.7816164E-02  0.1266605E+00
        -11   -1    0    0    0    0  0.00000000000E+00  0.00000000000E+00  0.45593999997E+02  0.45594000000E+02  0.51100000000E-03 0. -1.
         11   -1    0    0    0    0 -0.00000000000E+00 -0.00000000000E+00 -0.45593999997E+02  0.45594000000E+02  0.51100000000E-03 0.  1.
    9900012    2    1    2    0    0  0.17518918214E+02 -0.16504366690E+02  0.20914460105E+02  0.59301933189E+02  0.49999980232E+02 0.  0.
        -12    1    1    2    0    0 -0.17518918214E+02  0.16504366690E+02 -0.20914460105E+02  0.31886066811E+02  0.00000000000E+00 0.  1.
         11    1    3    3    0    0 -0.82567906802E+01 -0.86494491677E+01  0.12284329626E+02  0.17143287837E+02  0.51100000000E-03 0. -1.
        -11    1    3    3    0    0  0.11618605478E+02 -0.18931123808E+02  0.95091376089E+01  0.24162018546E+02  0.51100000000E-03 0.  1.
        -12    1    3    3    0    0  0.14157103416E+02  0.11076206286E+02 -0.87900712994E+00  0.17996626805E+02  0.00000000000E+00 0.  1.
</event>
<event>
 7    1  0.1220856E-011  0.5930206E+02  0.7816164E-02  0.1266604E+00
        -11   -1    0    0    0    0  0.00000000000E+00  0.00000000000E+00  0.45593999997E+02  0.45594000000E+02  0.51100000000E-03 0.  1.
         11   -1    0    0    0    0 -0.00000000000E+00 -0.00000000000E+00 -0.45593999997E+02  0.45594000000E+02  0.51100000000E-03 0. -1.
    9900012    2    1    2    0    0  0.21727727329E+02  0.20689794001E+02 -0.10795897263E+02  0.59302060961E+02  0.50000213257E+02 0.  0.
        -12    1    1    2    0    0 -0.21727727329E+02 -0.20689794001E+02  0.10795897263E+02  0.31885939039E+02  0.00000000000E+00 0.  1.
         11    1    3    3    0    0  0.93553044748E+01 -0.18205058465E+01 -0.63078609414E+01  0.11429132656E+02  0.51100000000E-03 0. -1.
        -11    1    3    3    0    0  0.10682257652E+01 -0.54321520762E+00 -0.18556693670E+02  0.18595350744E+02  0.51100000000E-03 0.  1.
         12    1    3    3    0    0  0.11304197089E+02  0.23053515055E+02  0.14068657349E+02  0.29277577561E+02  0.00000000000E+00 0. -1.
</event>
<event>
 7    1  0.1220856E-011  0.5930197E+02  0.7816164E-02  0.1266605E+00
        -11   -1    0    0    0    0  0.00000000000E+00  0.00000000000E+00  0.45593999997E+02  0.45594000000E+02  0.51100000000E-03 0.  1.
         11   -1    0    0    0    0 -0.00000000000E+00 -0.00000000000E+00 -0.45593999997E+02  0.45594000000E+02  0.51100000000E-03 0. -1.
    9900012    2    1    2    0    0 -0.12528229320E+02 -0.78328604972E+01 -0.28256129033E+02  0.59301967613E+02  0.50000043014E+02 0.  0.
        -12    1    1    2    0    0  0.12528229320E+02  0.78328604972E+01  0.28256129033E+02  0.31886032387E+02  0.00000000000E+00 0.  1.
         11    1    3    3    0    0 -0.14587869535E+01 -0.64250487496E+01 -0.16887950979E+02  0.18127663924E+02  0.51100000000E-03 0. -1.
        -11    1    3    3    0    0  0.12159305389E+02 -0.90072316482E+01 -0.41714674191E+01  0.15696498660E+02  0.51100000000E-03 0.  1.
        -12    1    3    3    0    0 -0.23228747755E+02  0.75994199006E+01 -0.71967106348E+01  0.25477805029E+02  0.00000000000E+00 0.  1.
</event>
<event>
 7    1  0.1220856E-011  0.5930194E+02  0.7816164E-02  0.1266605E+00
        -11   -1    0    0    0    0  0.00000000000E+00  0.00000000000E+00  0.45593999997E+02  0.45594000000E+02  0.51100000000E-03 0. -1.
         11   -1    0    0    0    0 -0.00000000000E+00 -0.00000000000E+00 -0.45593999997E+02  0.45594000000E+02  0.51100000000E-03 0.  1.
    9900012    2    1    2    0    0  0.20081681166E+02  0.21098788336E+02 -0.12972586142E+02  0.59301940680E+02  0.49999993895E+02 0.  0.
        -12    1    1    2    0    0 -0.20081681166E+02 -0.21098788336E+02  0.12972586142E+02  0.31886059320E+02  0.00000000000E+00 0.  1.
         11    1    3    3    0    0  0.75408399228E+01 -0.22573310209E+01  0.70010553619E+01  0.10534447613E+02  0.51100000000E-03 0. -1.
        -11    1    3    3    0    0  0.13181956943E+02  0.57269201044E+01  0.74280834248E+01  0.16178319639E+02  0.51100000000E-03 0.  1.
        -12    1    3    3    0    0 -0.64111569930E+00  0.17629199253E+02 -0.27401724929E+02  0.32589173428E+02  0.00000000000E+00 0.  1.
</event>
<event>
 7    1  0.1220856E-011  0.5930196E+02  0.7816164E-02  0.1266605E+00
        -11   -1    0    0    0    0  0.00000000000E+00  0.00000000000E+00  0.45593999997E+02  0.45594000000E+02  0.51100000000E-03 0.  1.
         11   -1    0    0    0    0 -0.00000000000E+00 -0.00000000000E+00 -0.45593999997E+02  0.45594000000E+02  0.51100000000E-03 0. -1.
    9900012    2    1    2    0    0  0.19925468471E+02 -0.24885018566E+02 -0.65660114271E+00  0.59301959671E+02  0.50000028529E+02 0.  0.
        -12    1    1    2    0    0 -0.19925468471E+02  0.24885018566E+02  0.65660114271E+00  0.31886040329E+02  0.00000000000E+00 0.  1.
         11    1    3    3    0    0 -0.71630082637E-01 -0.10713698702E+02 -0.21495278608E+01  0.10927439820E+02  0.51100000000E-03 0. -1.
        -11    1    3    3    0    0 -0.23401226071E+01 -0.76375838850E+01  0.18099580816E+02  0.19783924974E+02  0.51100000000E-03 0.  1.
         12    1    3    3    0    0  0.22337221161E+02 -0.65337359793E+01 -0.16606654098E+02  0.28590594876E+02  0.00000000000E+00 0. -1.
</event>
<event>
 7    1  0.1220856E-011  0.5930195E+02  0.7816164E-02  0.1266605E+00
        -11   -1    0    0    0    0  0.00000000000E+00  0.00000000000E+00  0.45593999997E+02  0.45594000000E+02  0.51100000000E-03 0. -1.
         11   -1    0    0    0    0 -0.00000000000E+00 -0.00000000000E+00 -0.45593999997E+02  0.45594000000E+02  0.51100000000E-03 0.  1.
    9900012    2    1    2    0    0 -0.16131116700E+00  0.46652555028E+01  0.31542502369E+02  0.59301951548E+02  0.50000013715E+02 0.  0.
        -12    1    1    2    0    0  0.16131116700E+00 -0.46652555028E+01 -0.31542502369E+02  0.31886048452E+02  0.00000000000E+00 0.  1.
         11    1    3    3    0    0  0.51565635226E+00  0.17921461452E+02  0.21338367982E+02  0.27870605132E+02  0.51100000000E-03 0. -1.
        -11    1    3    3    0    0  0.75435947404E+01 -0.10684541690E+02  0.16285537007E+02  0.20887411725E+02  0.51100000000E-03 0.  1.
         12    1    3    3    0    0 -0.82205622597E+01 -0.25716642597E+01 -0.60814026197E+01  0.10543934690E+02  0.00000000000E+00 0. -1.
</event>
<event>
 7    1  0.1220856E-011  0.5930193E+02  0.7816164E-02  0.1266605E+00
        -11   -1    0    0    0    0  0.00000000000E+00  0.00000000000E+00  0.45593999997E+02  0.45594000000E+02  0.51100000000E-03 0. -1.
         11   -1    0    0    0    0 -0.00000000000E+00 -0.00000000000E+00 -0.45593999997E+02  0.45594000000E+02  0.51100000000E-03 0.  1.
    9900012    2    1    2    0    0  0.27886771238E+02 -0.34556005905E+00  0.15457357348E+02  0.59301932227E+02  0.49999978478E+02 0.  0.
        -12    1    1    2    0    0 -0.27886771238E+02  0.34556005905E+00 -0.15457357348E+02  0.31886067773E+02  0.00000000000E+00 0.  1.
         11    1    3    3    0    0  0.30832231044E+02 -0.40746378924E+01  0.75737393238E+01  0.32009227931E+02  0.51100000000E-03 0. -1.
        -11    1    3    3    0    0 -0.12464191416E+01  0.13704776369E+02 -0.10402571294E+01  0.13800601116E+02  0.51100000000E-03 0.  1.
        -12    1    3    3    0    0 -0.16990406642E+01 -0.99756985361E+01  0.89238751537E+01  0.13492103180E+02  0.00000000000E+00 0.  1.
</event>
<event>
 7    1  0.1220856E-011  0.5930205E+02  0.7816164E-02  0.1266604E+00
        -11   -1    0    0    0    0  0.00000000000E+00  0.00000000000E+00  0.45593999997E+02  0.45594000000E+02  0.51100000000E-03 0.  1.
         11   -1    0    0    0    0 -0.00000000000E+00 -0.00000000000E+00 -0.45593999997E+02  0.45594000000E+02  0.51100000000E-03 0. -1.
    9900012    2    1    2    0    0 -0.28618864545E+02 -0.11825746169E+02 -0.76043350404E+01  0.59302053383E+02  0.50000199437E+02 0.  0.
        -12    1    1    2    0    0  0.28618864545E+02  0.11825746169E+02  0.76043350404E+01  0.31885946617E+02  0.00000000000E+00 0.  1.
         11    1    3    3    0    0 -0.23688080524E+02 -0.15905884141E+01 -0.11185331429E+02  0.26244366440E+02  0.51100000000E-03 0. -1.
        -11    1    3    3    0    0 -0.12928921253E+02  0.63803892478E+01  0.12786043107E+01  0.14474156313E+02  0.51100000000E-03 0.  1.
        -12    1    3    3    0    0  0.79981372324E+01 -0.16615547003E+02  0.23023920781E+01  0.18583530630E+02  0.00000000000E+00 0.  1.
</event>
<event>
 7    1  0.1220856E-011  0.5930194E+02  0.7816164E-02  0.1266605E+00
        -11   -1    0    0    0    0  0.00000000000E+00  0.00000000000E+00  0.45593999997E+02  0.45594000000E+02  0.51100000000E-03 0. -1.
         11   -1    0    0    0    0 -0.00000000000E+00 -0.00000000000E+00 -0.45593999997E+02  0.45594000000E+02  0.51100000000E-03 0.  1.
    9900012    2    1    2    0    0  0.21169313580E+02 -0.21113946312E+02 -0.11080720899E+02  0.59301938124E+02  0.49999989233E+02 0.  0.
        -12    1    1    2    0    0 -0.21169313580E+02  0.21113946312E+02  0.11080720899E+02  0.31886061876E+02  0.00000000000E+00 0.  1.
         11    1    3    3    0    0 -0.65078687919E+01 -0.73086207254E+01  0.26911346433E+01  0.10149408803E+02  0.51100000000E-03 0. -1.
        -11    1    3    3    0    0 -0.30044658729E+01  0.32374874671E+01  0.70678795511E+01  0.83344503052E+01  0.51100000000E-03 0.  1.
         12    1    3    3    0    0  0.30681648245E+02 -0.17042813054E+02 -0.20839735093E+02  0.40818079016E+02  0.00000000000E+00 0. -1.
</event>
<event>
 7    1  0.1220856E-011  0.5930198E+02  0.7816164E-02  0.1266605E+00
        -11   -1    0    0    0    0  0.00000000000E+00  0.00000000000E+00  0.45593999997E+02  0.45594000000E+02  0.51100000000E-03 0. -1.
         11   -1    0    0    0    0 -0.00000000000E+00 -0.00000000000E+00 -0.45593999997E+02  0.45594000000E+02  0.51100000000E-03 0.  1.
    9900012    2    1    2    0    0 -0.18642529916E+02 -0.16129248253E+02  0.20224282848E+02  0.59301981315E+02  0.50000068003E+02 0.  0.
        -12    1    1    2    0    0  0.18642529916E+02  0.16129248253E+02 -0.20224282848E+02  0.31886018685E+02  0.00000000000E+00 0.  1.
         11    1    3    3    0    0 -0.14735628227E+01  0.88557047408E+01  0.82773383419E+01  0.12211028791E+02  0.51100000000E-03 0. -1.
        -11    1    3    3    0    0 -0.20503296983E+02 -0.55293559955E+01  0.16429241508E+02  0.26849188846E+02  0.51100000000E-03 0.  1.
         12    1    3    3    0    0  0.33343298894E+01 -0.19455596999E+02 -0.44822970025E+01  0.20241763678E+02  0.00000000000E+00 0. -1.
</event>
<event>
 7    1  0.1220856E-011  0.5930193E+02  0.7816164E-02  0.1266605E+00
        -11   -1    0    0    0    0  0.00000000000E+00  0.00000000000E+00  0.45593999997E+02  0.45594000000E+02  0.51100000000E-03 0. -1.
         11   -1    0    0    0    0 -0.00000000000E+00 -0.00000000000E+00 -0.45593999997E+02  0.45594000000E+02  0.51100000000E-03 0.  1.
    9900012    2    1    2    0    0 -0.87758897551E+01 -0.16549231011E+02  0.25803643005E+02  0.59301932817E+02  0.49999979554E+02 0.  0.
        -12    1    1    2    0    0  0.87758897551E+01  0.16549231011E+02 -0.25803643005E+02  0.31886067183E+02  0.00000000000E+00 0.  1.
         11    1    3    3    0    0  0.91384460937E+01 -0.46606103600E+01  0.10118131934E+02  0.14408646017E+02  0.51100000000E-03 0. -1.
        -11    1    3    3    0    0  0.44165960760E+01 -0.48574557893E+00 -0.87930726567E+01  0.98519235012E+01  0.51100000000E-03 0.  1.
         12    1    3    3    0    0 -0.22330931925E+02 -0.11402875072E+02  0.24478583728E+02  0.35041363299E+02  0.00000000000E+00 0. -1.
</event>
<event>
 7    1  0.1220856E-011  0.5930194E+02  0.7816164E-02  0.1266605E+00
        -11   -1    0    0    0    0  0.00000000000E+00  0.00000000000E+00  0.45593999997E+02  0.45594000000E+02  0.51100000000E-03 0.  1.
         11   -1    0    0    0    0 -0.00000000000E+00 -0.00000000000E+00 -0.45593999997E+02  0.45594000000E+02  0.51100000000E-03 0. -1.
    9900012    2    1    2    0    0 -0.11431609307E+02 -0.99354265958E+01 -0.28059339140E+02  0.59301938688E+02  0.49999990262E+02 0.  0.
        -12    1    1    2    0    0  0.11431609307E+02  0.99354265958E+01  0.28059339140E+02  0.31886061312E+02  0.00000000000E+00 0.  1.
         11    1    3    3    0    0 -0.14858609908E+02 -0.16055048539E+02 -0.12316947439E+02  0.25104781745E+02  0.51100000000E-03 0. -1.
        -11    1    3    3    0    0 -0.12852636496E+02  0.41075409820E+01 -0.10085041844E+02  0.16845480909E+02  0.51100000000E-03 0.  1.
         12    1    3    3    0    0  0.16279637097E+02  0.20120809610E+01 -0.56573498576E+01  0.17351676034E+02  0.00000000000E+00 0. -1.
</event>
<event>
 7    1  0.1220856E-011  0.5930194E+02  0.7816164E-02  0.1266605E+00
        -11   -1    0    0    0    0  0.00000000000E+00  0.00000000000E+00  0.45593999997E+02  0.45594000000E+02  0.51100000000E-03 0. -1.
         11   -1    0    0    0    0 -0.00000000000E+00 -0.00000000000E+00 -0.45593999997E+02  0.45594000000E+02  0.51100000000E-03 0.  1.
    9900012    2    1    2    0    0 -0.79253724594E+01  0.29750378387E+02  0.82960220515E+01  0.59301944668E+02  0.50000001167E+02 0.  0.
        -12    1    1    2    0    0  0.79253724594E+01 -0.29750378387E+02 -0.82960220515E+01  0.31886055332E+02  0.00000000000E+00 0.  1.
         11    1    3    3    0    0 -0.88611814395E+01  0.30581652781E+02  0.20393486004E+02  0.37810743116E+02  0.51100000000E-03 0. -1.
        -11    1    3    3    0    0  0.28060518816E+01  0.11457528635E+01  0.40821225780E+01  0.50843290403E+01  0.51100000000E-03 0.  1.
        -12    1    3    3    0    0 -0.18702429014E+01 -0.19770272578E+01 -0.16179586531E+02  0.16406872511E+02  0.00000000000E+00 0.  1.
</event>
<event>
 7    1  0.1220856E-011  0.5930197E+02  0.7816164E-02  0.1266605E+00
        -11   -1    0    0    0    0  0.00000000000E+00  0.00000000000E+00  0.45593999997E+02  0.45594000000E+02  0.51100000000E-03 0.  1.
         11   -1    0    0    0    0 -0.00000000000E+00 -0.00000000000E+00 -0.45593999997E+02  0.45594000000E+02  0.51100000000E-03 0. -1.
    9900012    2    1    2    0    0 -0.12041114994E+01  0.60088615968E+01 -0.31291569541E+02  0.59301974432E+02  0.50000055450E+02 0.  0.
        -12    1    1    2    0    0  0.12041114994E+01 -0.60088615968E+01  0.31291569541E+02  0.31886025568E+02  0.00000000000E+00 0.  1.
         11    1    3    3    0    0  0.85079931943E+01 -0.44763766316E+01 -0.41944432409E+01  0.10488910825E+02  0.51100000000E-03 0. -1.
        -11    1    3    3    0    0 -0.18495210174E+00  0.45658202592E+01  0.94966858271E+01  0.10538878682E+02  0.51100000000E-03 0.  1.
         12    1    3    3    0    0 -0.95271525920E+01  0.59194179691E+01 -0.36593812127E+02  0.38274184924E+02  0.00000000000E+00 0. -1.
</event>
<event>
 7    1  0.1220856E-011  0.5930195E+02  0.7816164E-02  0.1266605E+00
        -11   -1    0    0    0    0  0.00000000000E+00  0.00000000000E+00  0.45593999997E+02  0.45594000000E+02  0.51100000000E-03 0.  1.
         11   -1    0    0    0    0 -0.00000000000E+00 -0.00000000000E+00 -0.45593999997E+02  0.45594000000E+02  0.51100000000E-03 0. -1.
    9900012    2    1    2    0    0 -0.18457381936E+01  0.16725000961E+02 -0.27084825716E+02  0.59301949905E+02  0.50000010718E+02 0.  0.
        -12    1    1    2    0    0  0.18457381936E+01 -0.16725000961E+02  0.27084825716E+02  0.31886050095E+02  0.00000000000E+00 0.  1.
         11    1    3    3    0    0  0.73897676500E+01  0.13504429706E+02 -0.29066869269E+02  0.32891658167E+02  0.51100000000E-03 0. -1.
        -11    1    3    3    0    0 -0.97102132941E+01 -0.59986204755E+01 -0.71150446960E+01  0.13449741675E+02  0.51100000000E-03 0.  1.
        -12    1    3    3    0    0  0.47470745049E+00  0.92191917304E+01  0.90970882491E+01  0.12960550063E+02  0.00000000000E+00 0.  1.
</event>
<event>
 7    1  0.1220856E-011  0.5930194E+02  0.7816164E-02  0.1266605E+00
        -11   -1    0    0    0    0  0.00000000000E+00  0.00000000000E+00  0.45593999997E+02  0.45594000000E+02  0.51100000000E-03 0.  1.
         11   -1    0    0    0    0 -0.00000000000E+00 -0.00000000000E+00 -0.45593999997E+02  0.45594000000E+02  0.51100000000E-03 0. -1.
    9900012    2    1    2    0    0  0.30268438182E+02  0.44775935246E+01 -0.89718153551E+01  0.59301942475E+02  0.49999997168E+02 0.  0.
        -12    1    1    2    0    0 -0.30268438182E+02 -0.44775935246E+01  0.89718153551E+01  0.31886057525E+02  0.00000000000E+00 0.  1.
         11    1    3    3    0    0  0.51067534069E+01  0.12275692069E+02  0.67133593231E+01  0.14894319044E+02  0.51100000000E-03 0. -1.
        -11    1    3    3    0    0  0.11115260264E+02 -0.98615688294E+01  0.79378636109E+01  0.16846638522E+02  0.51100000000E-03 0.  1.
         12    1    3    3    0    0  0.14046424511E+02  0.20634702853E+01 -0.23623038289E+02  0.27560984909E+02  0.00000000000E+00 0. -1.
</event>
<event>
 7    1  0.1220856E-011  0.5930194E+02  0.7816164E-02  0.1266605E+00
        -11   -1    0    0    0    0  0.00000000000E+00  0.00000000000E+00  0.45593999997E+02  0.45594000000E+02  0.51100000000E-03 0. -1.
         11   -1    0    0    0    0 -0.00000000000E+00 -0.00000000000E+00 -0.45593999997E+02  0.45594000000E+02  0.51100000000E-03 0.  1.
    9900012    2    1    2    0    0 -0.14370381500E+02 -0.13886207273E+02  0.24847258902E+02  0.59301938911E+02  0.49999990668E+02 0.  0.
        -12    1    1    2    0    0  0.14370381500E+02  0.13886207273E+02 -0.24847258902E+02  0.31886061089E+02  0.00000000000E+00 0.  1.
         11    1    3    3    0    0 -0.16192041857E+02 -0.10351509964E+01 -0.78733504881E+00  0.16244188309E+02  0.51100000000E-03 0. -1.
        -11    1    3    3    0    0 -0.10018387539E+02 -0.17015668917E+02  0.77584724820E+01  0.21215441855E+02  0.51100000000E-03 0.  1.
        -12    1    3    3    0    0  0.11840047896E+02  0.41646126406E+01  0.17876121468E+02  0.21842308747E+02  0.00000000000E+00 0.  1.
</event>
<event>
 7    1  0.1220856E-011  0.5930191E+02  0.7816164E-02  0.1266605E+00
        -11   -1    0    0    0    0  0.00000000000E+00  0.00000000000E+00  0.45593999997E+02  0.45594000000E+02  0.51100000000E-03 0.  1.
         11   -1    0    0    0    0 -0.00000000000E+00 -0.00000000000E+00 -0.45593999997E+02  0.45594000000E+02  0.51100000000E-03 0. -1.
    9900012    2    1    2    0    0 -0.25781949711E+02 -0.74334024664E+01  0.17226676229E+02  0.59301909349E+02  0.49999936754E+02 0.  0.
        -12    1    1    2    0    0  0.25781949711E+02  0.74334024664E+01 -0.17226676229E+02  0.31886090651E+02  0.00000000000E+00 0.  1.
         11    1    3    3    0    0 -0.24469103848E+02 -0.18729753704E+02  0.19691577698E+02  0.36569098286E+02  0.51100000000E-03 0. -1.
        -11    1    3    3    0    0 -0.76978315630E+01  0.59433093979E-02 -0.54389472557E+01  0.94254333379E+01  0.51100000000E-03 0.  1.
         12    1    3    3    0    0  0.63849857007E+01  0.11290407928E+02  0.29740457867E+01  0.13307377725E+02  0.00000000000E+00 0. -1.
</event>
<event>
 7    1  0.1220856E-011  0.5930194E+02  0.7816164E-02  0.1266605E+00
        -11   -1    0    0    0    0  0.00000000000E+00  0.00000000000E+00  0.45593999997E+02  0.45594000000E+02  0.51100000000E-03 0.  1.
         11   -1    0    0    0    0 -0.00000000000E+00 -0.00000000000E+00 -0.45593999997E+02  0.45594000000E+02  0.51100000000E-03 0. -1.
    9900012    2    1    2    0    0 -0.45371555891E+01  0.12393764521E+02 -0.29026360533E+02  0.59301940575E+02  0.49999993703E+02 0.  0.
        -12    1    1    2    0    0  0.45371555891E+01 -0.12393764521E+02  0.29026360533E+02  0.31886059425E+02  0.00000000000E+00 0.  1.
         11    1    3    3    0    0 -0.11467665716E+02  0.52063147956E+01 -0.88041887312E+01  0.15366418262E+02  0.51100000000E-03 0. -1.
        -11    1    3    3    0    0 -0.97030338137E+01 -0.10002245226E+02 -0.24809496314E+01  0.14154465235E+02  0.51100000000E-03 0.  1.
        -12    1    3    3    0    0  0.16633543940E+02  0.17189694952E+02 -0.17741222171E+02  0.29781057078E+02  0.00000000000E+00 0.  1.
</event>
<event>
 7    1  0.1220856E-011  0.5930202E+02  0.7816164E-02  0.1266604E+00
        -11   -1    0    0    0    0  0.00000000000E+00  0.00000000000E+00  0.45593999997E+02  0.45594000000E+02  0.51100000000E-03 0. -1.
         11   -1    0    0    0    0 -0.00000000000E+00 -0.00000000000E+00 -0.45593999997E+02  0.45594000000E+02  0.51100000000E-03 0.  1.
    9900012    2    1    2    0    0 -0.79785220441E+01 -0.43746958758E+01  0.30560119875E+02  0.59302020247E+02  0.50000139005E+02 0.  0.
        -12    1    1    2    0    0  0.79785220441E+01  0.43746958758E+01 -0.30560119875E+02  0.31885979753E+02  0.00000000000E+00 0.  1.
         11    1    3    3    0    0  0.20707413062E+01  0.17301053151E+02  0.82843966312E+01  0.19293668326E+02  0.51100000000E-03 0.  1.
        -11    1    3    3    0    0 -0.13023561776E+02 -0.19420907615E+01  0.10457022025E+02  0.16814701536E+02  0.51100000000E-03 0. -1.
        -12    1    3    3    0    0  0.29742984254E+01 -0.19733658265E+02  0.11818701219E+02  0.23193650384E+02  0.00000000000E+00 0.  1.
</event>
<event>
 7    1  0.1701231E-011  0.5930200E+02  0.7816164E-02  0.1266605E+00
        -11   -1    0    0    0    0  0.00000000000E+00  0.00000000000E+00  0.45593999997E+02  0.45594000000E+02  0.51100000000E-03 0.  1.
         11   -1    0    0    0    0 -0.00000000000E+00 -0.00000000000E+00 -0.45593999997E+02  0.45594000000E+02  0.51100000000E-03 0. -1.
    9900012    2    1    2    0    0  0.73635648587E+01  0.20762543088E+02 -0.23052372025E+02  0.59301997759E+02  0.50000097993E+02 0.  0.
        -12    1    1    2    0    0 -0.73635648587E+01 -0.20762543088E+02  0.23052372025E+02  0.31886002241E+02  0.00000000000E+00 0.  1.
         11    1    3    3    0    0  0.12154098560E+01  0.99269932518E+01 -0.18058572104E+02  0.20643024072E+02  0.51100000000E-03 0. -1.
        -11    1    3    3    0    0 -0.15027394522E+02  0.24443561108E+01 -0.45003266744E+01  0.15876095343E+02  0.51100000000E-03 0.  1.
        -12    1    3    3    0    0  0.21175549524E+02  0.83911937255E+01 -0.49347324622E+00  0.22782878344E+02  0.00000000000E+00 0.  1.
</event>
<event>
 7    1  0.1220856E-011  0.5930196E+02  0.7816164E-02  0.1266605E+00
        -11   -1    0    0    0    0  0.00000000000E+00  0.00000000000E+00  0.45593999997E+02  0.45594000000E+02  0.51100000000E-03 0. -1.
         11   -1    0    0    0    0 -0.00000000000E+00 -0.00000000000E+00 -0.45593999997E+02  0.45594000000E+02  0.51100000000E-03 0.  1.
    9900012    2    1    2    0    0  0.25179350161E+02  0.10300356025E+00 -0.19562957273E+02  0.59301959457E+02  0.50000028139E+02 0.  0.
        -12    1    1    2    0    0 -0.25179350161E+02 -0.10300356025E+00  0.19562957273E+02  0.31886040543E+02  0.00000000000E+00 0.  1.
         11    1    3    3    0    0  0.38513631496E+01 -0.65636758937E+01  0.22801715231E+00  0.76135951712E+01  0.51100000000E-03 0. -1.
        -11    1    3    3    0    0  0.23987308925E+02  0.99170845818E+01 -0.30579997142E+02  0.40110793828E+02  0.51100000000E-03 0.  1.
         12    1    3    3    0    0 -0.26593219133E+01 -0.32504051279E+01  0.10789022717E+02  0.11577570458E+02  0.00000000000E+00 0. -1.
</event>
<event>
 7    1  0.1220856E-011  0.5930181E+02  0.7816164E-02  0.1266605E+00
        -11   -1    0    0    0    0  0.00000000000E+00  0.00000000000E+00  0.45593999997E+02  0.45594000000E+02  0.51100000000E-03 0.  1.
         11   -1    0    0    0    0 -0.00000000000E+00 -0.00000000000E+00 -0.45593999997E+02  0.45594000000E+02  0.51100000000E-03 0. -1.
    9900012    2    1    2    0    0  0.57087211999E+01  0.19840201051E+02 -0.24300331712E+02  0.59301808682E+02  0.49999753161E+02 0.  0.
        -12    1    1    2    0    0 -0.57087211999E+01 -0.19840201051E+02  0.24300331712E+02  0.31886191318E+02  0.00000000000E+00 0.  1.
         11    1    3    3    0    0 -0.11474630021E+02  0.63354705026E+00 -0.35343014749E+01  0.12023302507E+02  0.51100000000E-03 0. -1.
        -11    1    3    3    0    0 -0.66892231771E+01  0.64436503531E+01 -0.17759858667E+02  0.20041928967E+02  0.51100000000E-03 0.  1.
        -12    1    3    3    0    0  0.23872574399E+02  0.12763003648E+02 -0.30061715700E+01  0.27236577208E+02  0.00000000000E+00 0.  1.
</event>
<event>
 7    1  0.1220856E-011  0.5930195E+02  0.7816164E-02  0.1266605E+00
        -11   -1    0    0    0    0  0.00000000000E+00  0.00000000000E+00  0.45593999997E+02  0.45594000000E+02  0.51100000000E-03 0.  1.
         11   -1    0    0    0    0 -0.00000000000E+00 -0.00000000000E+00 -0.45593999997E+02  0.45594000000E+02  0.51100000000E-03 0. -1.
    9900012    2    1    2    0    0  0.31624419478E+02 -0.39073286629E+01  0.11615050453E+01  0.59301949468E+02  0.50000009921E+02 0.  0.
        -12    1    1    2    0    0 -0.31624419478E+02  0.39073286629E+01 -0.11615050453E+01  0.31886050532E+02  0.00000000000E+00 0.  1.
         11    1    3    3    0    0  0.22393032759E+01 -0.73064923085E+01 -0.84760047562E+01  0.11412360225E+02  0.51100000000E-03 0. -1.
        -11    1    3    3    0    0 -0.55468099137E+01  0.54717294597E+01  0.10269315074E+02  0.12890529697E+02  0.51100000000E-03 0.  1.
        -12    1    3    3    0    0  0.34931926116E+02 -0.20725658141E+01 -0.63180527289E+00  0.34999059546E+02  0.00000000000E+00 0.  1.
</event>
<event>
 7    1  0.1220856E-011  0.5930197E+02  0.7816164E-02  0.1266605E+00
        -11   -1    0    0    0    0  0.00000000000E+00  0.00000000000E+00  0.45593999997E+02  0.45594000000E+02  0.51100000000E-03 0.  1.
         11   -1    0    0    0    0 -0.00000000000E+00 -0.00000000000E+00 -0.45593999997E+02  0.45594000000E+02  0.51100000000E-03 0. -1.
    9900012    2    1    2    0    0 -0.15022794495E+02  0.22146039771E+02 -0.17337459612E+02  0.59301969551E+02  0.50000046549E+02 0.  0.
        -12    1    1    2    0    0  0.15022794495E+02 -0.22146039771E+02  0.17337459612E+02  0.31886030449E+02  0.00000000000E+00 0.  1.
         11    1    3    3    0    0 -0.10981357371E+02  0.77415115615E+00 -0.38268175352E+01  0.11654786675E+02  0.51100000000E-03 0. -1.
        -11    1    3    3    0    0  0.60358608379E+00  0.53256185886E+01  0.14262995701E+02  0.15236783654E+02  0.51100000000E-03 0.  1.
         12    1    3    3    0    0 -0.46450232080E+01  0.16046270026E+02 -0.27773637777E+02  0.32410399222E+02  0.00000000000E+00 0. -1.
</event>
<event>
 7    1  0.1220856E-011  0.5930200E+02  0.7816164E-02  0.1266605E+00
        -11   -1    0    0    0    0  0.00000000000E+00  0.00000000000E+00  0.45593999997E+02  0.45594000000E+02  0.51100000000E-03 0.  1.
         11   -1    0    0    0    0 -0.00000000000E+00 -0.00000000000E+00 -0.45593999997E+02  0.45594000000E+02  0.51100000000E-03 0. -1.
    9900012    2    1    2    0    0  0.28365557088E+02  0.61140800979E+01 -0.13218550615E+02  0.59302001745E+02  0.50000105263E+02 0.  0.
        -12    1    1    2    0    0 -0.28365557088E+02 -0.61140800979E+01  0.13218550615E+02  0.31885998255E+02  0.00000000000E+00 0.  1.
         11    1    3    3    0    0  0.84474161595E+01 -0.12600689770E+01 -0.20160331711E+00  0.85432580294E+01  0.51100000000E-03 0. -1.
        -11    1    3    3    0    0 -0.19794037489E+01 -0.15987901516E+02  0.21740983534E+00  0.16111433871E+02  0.51100000000E-03 0.  1.
        -12    1    3    3    0    0  0.21897544677E+02  0.23362050591E+02 -0.13234357133E+02  0.34647309844E+02  0.00000000000E+00 0.  1.
</event>
<event>
 7    1  0.1220856E-011  0.5930194E+02  0.7816164E-02  0.1266605E+00
        -11   -1    0    0    0    0  0.00000000000E+00  0.00000000000E+00  0.45593999997E+02  0.45594000000E+02  0.51100000000E-03 0. -1.
         11   -1    0    0    0    0 -0.00000000000E+00 -0.00000000000E+00 -0.45593999997E+02  0.45594000000E+02  0.51100000000E-03 0.  1.
    9900012    2    1    2    0    0 -0.15737714600E+02 -0.26948894273E+02 -0.65423473556E+01  0.59301939216E+02  0.49999991225E+02 0.  0.
        -12    1    1    2    0    0  0.15737714600E+02  0.26948894273E+02  0.65423473556E+01  0.31886060784E+02  0.00000000000E+00 0.  1.
         11    1    3    3    0    0  0.70654587353E+01  0.16606441243E+01  0.10012829533E+02  0.12366697278E+02  0.51100000000E-03 0. -1.
        -11    1    3    3    0    0 -0.10131139619E+02 -0.25988958551E+01  0.42590118201E+01  0.11293070069E+02  0.51100000000E-03 0.  1.
         12    1    3    3    0    0 -0.12672033716E+02 -0.26010642542E+02 -0.20814188708E+02  0.35642171869E+02  0.00000000000E+00 0. -1.
</event>
<event>
 7    1  0.1220856E-011  0.5930195E+02  0.7816164E-02  0.1266605E+00
        -11   -1    0    0    0    0  0.00000000000E+00  0.00000000000E+00  0.45593999997E+02  0.45594000000E+02  0.51100000000E-03 0. -1.
         11   -1    0    0    0    0 -0.00000000000E+00 -0.00000000000E+00 -0.45593999997E+02  0.45594000000E+02  0.51100000000E-03 0.  1.
    9900012    2    1    2    0    0  0.79978280092E+01  0.20275726835E+02  0.23273370525E+02  0.59301950901E+02  0.50000012535E+02 0.  0.
        -12    1    1    2    0    0 -0.79978280092E+01 -0.20275726835E+02 -0.23273370525E+02  0.31886049099E+02  0.00000000000E+00 0.  1.
         11    1    3    3    0    0  0.10743309561E+02 -0.32698805927E+01  0.86011723955E+01  0.14145352108E+02  0.51100000000E-03 0. -1.
        -11    1    3    3    0    0  0.81133566210E+01 -0.25997985886E+01  0.14532261259E+02  0.16845537270E+02  0.51100000000E-03 0.  1.
        -12    1    3    3    0    0 -0.10858838173E+02  0.26145406017E+02  0.13993687079E+00  0.28311061523E+02  0.00000000000E+00 0.  1.
</event>
<event>
 7    1  0.1220856E-011  0.5930194E+02  0.7816164E-02  0.1266605E+00
        -11   -1    0    0    0    0  0.00000000000E+00  0.00000000000E+00  0.45593999997E+02  0.45594000000E+02  0.51100000000E-03 0. -1.
         11   -1    0    0    0    0 -0.00000000000E+00 -0.00000000000E+00 -0.45593999997E+02  0.45594000000E+02  0.51100000000E-03 0.  1.
    9900012    2    1    2    0    0 -0.19586401781E+02  0.24377991225E+02 -0.62295324987E+01  0.59301942451E+02  0.49999997124E+02 0.  0.
        -12    1    1    2    0    0  0.19586401781E+02 -0.24377991225E+02  0.62295324987E+01  0.31886057549E+02  0.00000000000E+00 0.  1.
         11    1    3    3    0    0 -0.14087118317E+02  0.19430412627E+02 -0.29651430716E+01  0.24182223037E+02  0.51100000000E-03 0. -1.
        -11    1    3    3    0    0 -0.13563199892E+02  0.16103969158E+02 -0.35463764476E+01  0.21351229476E+02  0.51100000000E-03 0.  1.
        -12    1    3    3    0    0  0.80639164282E+01 -0.11156390560E+02  0.28198702051E+00  0.13768489938E+02  0.00000000000E+00 0.  1.
</event>
<event>
 7    1  0.1220856E-011  0.5930191E+02  0.7816164E-02  0.1266605E+00
        -11   -1    0    0    0    0  0.00000000000E+00  0.00000000000E+00  0.45593999997E+02  0.45594000000E+02  0.51100000000E-03 0. -1.
         11   -1    0    0    0    0 -0.00000000000E+00 -0.00000000000E+00 -0.45593999997E+02  0.45594000000E+02  0.51100000000E-03 0.  1.
    9900012    2    1    2    0    0 -0.13628755085E+02 -0.82566144202E+01 -0.27618974911E+02  0.59301914916E+02  0.49999946907E+02 0.  0.
        -12    1    1    2    0    0  0.13628755085E+02  0.82566144202E+01  0.27618974911E+02  0.31886085084E+02  0.00000000000E+00 0.  1.
         11    1    3    3    0    0  0.41248186319E+01  0.66295403544E+01 -0.25021963858E+02  0.26211898246E+02  0.51100000000E-03 0. -1.
        -11    1    3    3    0    0 -0.99479082569E+01 -0.10657440038E+02 -0.12916368468E+02  0.19477537871E+02  0.51100000000E-03 0.  1.
         12    1    3    3    0    0 -0.78056654604E+01 -0.42287147369E+01  0.10319357415E+02  0.13612478799E+02  0.00000000000E+00 0. -1.
</event>
<event>
 7    1  0.1220856E-011  0.5930195E+02  0.7816164E-02  0.1266605E+00
        -11   -1    0    0    0    0  0.00000000000E+00  0.00000000000E+00  0.45593999997E+02  0.45594000000E+02  0.51100000000E-03 0. -1.
         11   -1    0    0    0    0 -0.00000000000E+00 -0.00000000000E+00 -0.45593999997E+02  0.45594000000E+02  0.51100000000E-03 0.  1.
    9900012    2    1    2    0    0  0.14446176563E+02 -0.25423353846E+02  0.12715400263E+02  0.59301947533E+02  0.50000006393E+02 0.  0.
        -12    1    1    2    0    0 -0.14446176563E+02  0.25423353846E+02 -0.12715400263E+02  0.31886052467E+02  0.00000000000E+00 0.  1.
         11    1    3    3    0    0  0.18568373778E+02 -0.75678683348E+01  0.19839012165E+02  0.28207154054E+02  0.51100000000E-03 0. -1.
        -11    1    3    3    0    0 -0.33051276546E+01 -0.16281752089E+02  0.61407964069E+01  0.17712388339E+02  0.51100000000E-03 0.  1.
        -12    1    3    3    0    0 -0.81706956051E+00 -0.15737334226E+01 -0.13264408308E+02  0.13382405140E+02  0.00000000000E+00 0.  1.
</event>
<event>
 7    1  0.1220856E-011  0.5930193E+02  0.7816164E-02  0.1266605E+00
        -11   -1    0    0    0    0  0.00000000000E+00  0.00000000000E+00  0.45593999997E+02  0.45594000000E+02  0.51100000000E-03 0.  1.
         11   -1    0    0    0    0 -0.00000000000E+00 -0.00000000000E+00 -0.45593999997E+02  0.45594000000E+02  0.51100000000E-03 0. -1.
    9900012    2    1    2    0    0  0.29933082129E+02  0.77776087731E+01 -0.77614777990E+01  0.59301934993E+02  0.49999983524E+02 0.  0.
        -12    1    1    2    0    0 -0.29933082129E+02 -0.77776087731E+01  0.77614777990E+01  0.31886065007E+02  0.00000000000E+00 0.  1.
         11    1    3    3    0    0  0.22191370894E+02  0.86386292349E+01 -0.18958352708E+02  0.30438495279E+02  0.51100000000E-03 0. -1.
        -11    1    3    3    0    0 -0.68471344768E+01 -0.47619514288E+00 -0.38765292376E+01  0.78827337611E+01  0.51100000000E-03 0.  1.
        -12    1    3    3    0    0  0.14588845712E+02 -0.38482531894E+00  0.15073404146E+02  0.20980705953E+02  0.00000000000E+00 0.  1.
</event>
<event>
 7    1  0.1220856E-011  0.5930194E+02  0.7816164E-02  0.1266605E+00
        -11   -1    0    0    0    0  0.00000000000E+00  0.00000000000E+00  0.45593999997E+02  0.45594000000E+02  0.51100000000E-03 0.  1.
         11   -1    0    0    0    0 -0.00000000000E+00 -0.00000000000E+00 -0.45593999997E+02  0.45594000000E+02  0.51100000000E-03 0. -1.
    9900012    2    1    2    0    0 -0.30085866461E+01  0.83478999062E+00 -0.31732824217E+02  0.59301943475E+02  0.49999998993E+02 0.  0.
        -12    1    1    2    0    0  0.30085866461E+01 -0.83478999062E+00  0.31732824217E+02  0.31886056525E+02  0.00000000000E+00 0.  1.
         11    1    3    3    0    0 -0.78961410700E+01 -0.66340876436E+01 -0.54816013903E+01  0.11679388542E+02  0.51100000000E-03 0. -1.
        -11    1    3    3    0    0 -0.63926698424E+01 -0.83269704877E+01  0.43672786152E+01  0.11370039049E+02  0.51100000000E-03 0.  1.
         12    1    3    3    0    0  0.11280224266E+02  0.15795848122E+02 -0.30618501441E+02  0.36252515884E+02  0.00000000000E+00 0. -1.
</event>
<event>
 7    1  0.1220856E-011  0.5930193E+02  0.7816164E-02  0.1266605E+00
        -11   -1    0    0    0    0  0.00000000000E+00  0.00000000000E+00  0.45593999997E+02  0.45594000000E+02  0.51100000000E-03 0. -1.
         11   -1    0    0    0    0 -0.00000000000E+00 -0.00000000000E+00 -0.45593999997E+02  0.45594000000E+02  0.51100000000E-03 0.  1.
    9900012    2    1    2    0    0 -0.28444838267E+02 -0.11000740039E+02 -0.93057300858E+01  0.59301925957E+02  0.49999967044E+02 0.  0.
        -12    1    1    2    0    0  0.28444838267E+02  0.11000740039E+02  0.93057300858E+01  0.31886074043E+02  0.00000000000E+00 0.  1.
         11    1    3    3    0    0 -0.13184865529E+02  0.16807821377E+02 -0.43490047354E+01  0.21800398641E+02  0.51100000000E-03 0. -1.
        -11    1    3    3    0    0 -0.16783339685E+01  0.41910748293E-01 -0.62672198391E+01  0.64881897470E+01  0.51100000000E-03 0.  1.
        -12    1    3    3    0    0 -0.13581638770E+02 -0.27850472164E+02  0.13104944887E+01  0.31013337570E+02  0.00000000000E+00 0.  1.
</event>
<event>
 7    1  0.1220856E-011  0.5930193E+02  0.7816164E-02  0.1266605E+00
        -11   -1    0    0    0    0  0.00000000000E+00  0.00000000000E+00  0.45593999997E+02  0.45594000000E+02  0.51100000000E-03 0.  1.
         11   -1    0    0    0    0 -0.00000000000E+00 -0.00000000000E+00 -0.45593999997E+02  0.45594000000E+02  0.51100000000E-03 0. -1.
    9900012    2    1    2    0    0  0.19882375643E+02 -0.70577215655E+01 -0.23908188070E+02  0.59301925427E+02  0.49999966077E+02 0.  0.
        -12    1    1    2    0    0 -0.19882375643E+02  0.70577215655E+01  0.23908188070E+02  0.31886074573E+02  0.00000000000E+00 0.  1.
         11    1    3    3    0    0 -0.77736366614E+01 -0.16876696034E+02 -0.16278381552E+02  0.24702995814E+02  0.51100000000E-03 0.  1.
        -11    1    3    3    0    0  0.17375352115E+02 -0.26504864582E+01 -0.43910347828E+01  0.18116542891E+02  0.51100000000E-03 0. -1.
        -12    1    3    3    0    0  0.10280660189E+02  0.12469460926E+02 -0.32387717343E+01  0.16482386722E+02  0.00000000000E+00 0.  1.
</event>
<event>
 7    1  0.1220856E-011  0.5930193E+02  0.7816164E-02  0.1266605E+00
        -11   -1    0    0    0    0  0.00000000000E+00  0.00000000000E+00  0.45593999997E+02  0.45594000000E+02  0.51100000000E-03 0.  1.
         11   -1    0    0    0    0 -0.00000000000E+00 -0.00000000000E+00 -0.45593999997E+02  0.45594000000E+02  0.51100000000E-03 0. -1.
    9900012    2    1    2    0    0 -0.20520298848E+02 -0.19028989637E+02 -0.15281889068E+02  0.59301933373E+02  0.49999980569E+02 0.  0.
        -12    1    1    2    0    0  0.20520298848E+02  0.19028989637E+02  0.15281889068E+02  0.31886066627E+02  0.00000000000E+00 0.  1.
         11    1    3    3    0    0 -0.10920503572E+02  0.53117622795E+01 -0.10714162199E+02  0.16194612952E+02  0.51100000000E-03 0. -1.
        -11    1    3    3    0    0 -0.83158211429E+01 -0.27676555358E+01  0.12709743687E+02  0.15438600432E+02  0.51100000000E-03 0.  1.
         12    1    3    3    0    0 -0.12839741333E+01 -0.21573096381E+02 -0.17277470557E+02  0.27668719990E+02  0.00000000000E+00 0. -1.
</event>
<event>
 7    1  0.1220856E-011  0.5930198E+02  0.7816164E-02  0.1266605E+00
        -11   -1    0    0    0    0  0.00000000000E+00  0.00000000000E+00  0.45593999997E+02  0.45594000000E+02  0.51100000000E-03 0.  1.
         11   -1    0    0    0    0 -0.00000000000E+00 -0.00000000000E+00 -0.45593999997E+02  0.45594000000E+02  0.51100000000E-03 0. -1.
    9900012    2    1    2    0    0 -0.31144186833E+01 -0.13238500032E+02 -0.28840268161E+02  0.59301975562E+02  0.50000057511E+02 0.  0.
        -12    1    1    2    0    0  0.31144186833E+01  0.13238500032E+02  0.28840268161E+02  0.31886024438E+02  0.00000000000E+00 0.  1.
         11    1    3    3    0    0  0.47691881447E+01 -0.13164208486E+02 -0.48030223221E+01  0.14802383738E+02  0.51100000000E-03 0. -1.
        -11    1    3    3    0    0 -0.67868752183E+01 -0.17849441726E+02 -0.86499271205E+01  0.20963909096E+02  0.51100000000E-03 0.  1.
        -12    1    3    3    0    0 -0.10967316097E+01  0.17775150180E+02 -0.15387318719E+02  0.23535682728E+02  0.00000000000E+00 0.  1.
</event>
<event>
 7    1  0.1220856E-011  0.5930199E+02  0.7816164E-02  0.1266605E+00
        -11   -1    0    0    0    0  0.00000000000E+00  0.00000000000E+00  0.45593999997E+02  0.45594000000E+02  0.51100000000E-03 0.  1.
         11   -1    0    0    0    0 -0.00000000000E+00 -0.00000000000E+00 -0.45593999997E+02  0.45594000000E+02  0.51100000000E-03 0. -1.
    9900012    2    1    2    0    0 -0.26267769006E+02  0.18071533755E+02 -0.37650390494E+00  0.59301987768E+02  0.50000079772E+02 0.  0.
        -12    1    1    2    0    0  0.26267769006E+02 -0.18071533755E+02  0.37650390494E+00  0.31886012232E+02  0.00000000000E+00 0.  1.
         11    1    3    3    0    0 -0.16719995465E+02  0.18050994195E+02  0.16554968037E+01  0.24660440176E+02  0.51100000000E-03 0. -1.
        -11    1    3    3    0    0 -0.79682114679E+01  0.39102943016E+01  0.14819879118E+02  0.17274594434E+02  0.51100000000E-03 0.  1.
         12    1    3    3    0    0 -0.15795620735E+01 -0.38897547411E+01 -0.16851879827E+02  0.17366953158E+02  0.00000000000E+00 0. -1.
</event>
<event>
 7    1  0.1220856E-011  0.5930194E+02  0.7816164E-02  0.1266605E+00
        -11   -1    0    0    0    0  0.00000000000E+00  0.00000000000E+00  0.45593999997E+02  0.45594000000E+02  0.51100000000E-03 0.  1.
         11   -1    0    0    0    0 -0.00000000000E+00 -0.00000000000E+00 -0.45593999997E+02  0.45594000000E+02  0.51100000000E-03 0. -1.
    9900012    2    1    2    0    0  0.93560770965E+00 -0.19075767594E+02 -0.25533514150E+02  0.59301943236E+02  0.49999998557E+02 0.  0.
        -12    1    1    2    0    0 -0.93560770965E+00  0.19075767594E+02  0.25533514150E+02  0.31886056764E+02  0.00000000000E+00 0.  1.
         11    1    3    3    0    0  0.76443026210E+01 -0.14169700695E+02 -0.28726267554E+02  0.32930445309E+02  0.51100000000E-03 0. -1.
        -11    1    3    3    0    0 -0.75256435553E+01 -0.35045857499E+01 -0.10046837108E+02  0.13032895623E+02  0.51100000000E-03 0.  1.
         12    1    3    3    0    0  0.81694864389E+00 -0.14014811492E+01  0.13239590512E+02  0.13338602304E+02  0.00000000000E+00 0. -1.
</event>
<event>
 7    1  0.1220856E-011  0.5930206E+02  0.7816164E-02  0.1266604E+00
        -11   -1    0    0    0    0  0.00000000000E+00  0.00000000000E+00  0.45593999997E+02  0.45594000000E+02  0.51100000000E-03 0. -1.
         11   -1    0    0    0    0 -0.00000000000E+00 -0.00000000000E+00 -0.45593999997E+02  0.45594000000E+02  0.51100000000E-03 0.  1.
    9900012    2    1    2    0    0 -0.54146083808E+01 -0.11136832230E+02  0.29383091375E+02  0.59302061488E+02  0.50000214220E+02 0.  0.
        -12    1    1    2    0    0  0.54146083808E+01  0.11136832230E+02 -0.29383091375E+02  0.31885938512E+02  0.00000000000E+00 0.  1.
         11    1    3    3    0    0 -0.38468656266E+01 -0.11698280783E+02  0.19536519532E+02  0.23093803154E+02  0.51100000000E-03 0. -1.
        -11    1    3    3    0    0 -0.87971720621E+01 -0.10300363770E+02 -0.67195271223E+01  0.15120839100E+02  0.51100000000E-03 0.  1.
         12    1    3    3    0    0  0.72294293079E+01  0.10861812323E+02  0.16566098965E+02  0.21087419235E+02  0.00000000000E+00 0. -1.
</event>
<event>
 7    1  0.1220856E-011  0.5930195E+02  0.7816164E-02  0.1266605E+00
        -11   -1    0    0    0    0  0.00000000000E+00  0.00000000000E+00  0.45593999997E+02  0.45594000000E+02  0.51100000000E-03 0.  1.
         11   -1    0    0    0    0 -0.00000000000E+00 -0.00000000000E+00 -0.45593999997E+02  0.45594000000E+02  0.51100000000E-03 0. -1.
    9900012    2    1    2    0    0  0.21482677721E+02 -0.20050092914E+00 -0.23562142177E+02  0.59301949968E+02  0.50000010834E+02 0.  0.
        -12    1    1    2    0    0 -0.21482677721E+02  0.20050092914E+00  0.23562142177E+02  0.31886050032E+02  0.00000000000E+00 0.  1.
         11    1    3    3    0    0  0.54470484716E+00 -0.10176927433E+02  0.17081058978E+01  0.10333643180E+02  0.51100000000E-03 0.  1.
        -11    1    3    3    0    0  0.29831556694E+02  0.18369937023E+01 -0.18055380003E+02  0.34918377223E+02  0.51100000000E-03 0. -1.
         12    1    3    3    0    0 -0.88935838200E+01  0.81394328015E+01 -0.72148680718E+01  0.14049929565E+02  0.00000000000E+00 0. -1.
</event>
<event>
 7    1  0.1220856E-011  0.5930196E+02  0.7816164E-02  0.1266605E+00
        -11   -1    0    0    0    0  0.00000000000E+00  0.00000000000E+00  0.45593999997E+02  0.45594000000E+02  0.51100000000E-03 0.  1.
         11   -1    0    0    0    0 -0.00000000000E+00 -0.00000000000E+00 -0.45593999997E+02  0.45594000000E+02  0.51100000000E-03 0. -1.
    9900012    2    1    2    0    0 -0.35596136786E+00 -0.20549255888E+02 -0.24378693165E+02  0.59301963770E+02  0.50000036005E+02 0.  0.
        -12    1    1    2    0    0  0.35596136786E+00  0.20549255888E+02  0.24378693165E+02  0.31886036230E+02  0.00000000000E+00 0.  1.
         11    1    3    3    0    0 -0.53560982343E+01 -0.86769149355E+01  0.69196024300E+01  0.12323049101E+02  0.51100000000E-03 0. -1.
        -11    1    3    3    0    0  0.59324337697E+01 -0.11084146072E+02  0.27826182041E+01  0.12876141848E+02  0.51100000000E-03 0.  1.
         12    1    3    3    0    0 -0.93229690331E+00 -0.78819488103E+00 -0.34080913799E+02  0.34102772821E+02  0.00000000000E+00 0. -1.
</event>
<event>
 7    1  0.1220856E-011  0.5930197E+02  0.7816164E-02  0.1266605E+00
        -11   -1    0    0    0    0  0.00000000000E+00  0.00000000000E+00  0.45593999997E+02  0.45594000000E+02  0.51100000000E-03 0.  1.
         11   -1    0    0    0    0 -0.00000000000E+00 -0.00000000000E+00 -0.45593999997E+02  0.45594000000E+02  0.51100000000E-03 0. -1.
    9900012    2    1    2    0    0 -0.29175095495E+02 -0.37018231314E+01 -0.12321898309E+02  0.59301970621E+02  0.50000048500E+02 0.  0.
        -12    1    1    2    0    0  0.29175095495E+02  0.37018231314E+01  0.12321898309E+02  0.31886029379E+02  0.00000000000E+00 0.  1.
         11    1    3    3    0    0 -0.14372572626E+01  0.77725925696E+01  0.66414530527E+01  0.10324136894E+02  0.51100000000E-03 0. -1.
        -11    1    3    3    0    0  0.60099014640E+01  0.42465606544E+01 -0.61952889914E+01  0.96194489939E+01  0.51100000000E-03 0.  1.
         12    1    3    3    0    0 -0.33747739696E+02 -0.15720976355E+02 -0.12768062370E+02  0.39358384734E+02  0.00000000000E+00 0. -1.
</event>
<event>
 7    1  0.1220856E-011  0.5930195E+02  0.7816164E-02  0.1266605E+00
        -11   -1    0    0    0    0  0.00000000000E+00  0.00000000000E+00  0.45593999997E+02  0.45594000000E+02  0.51100000000E-03 0. -1.
         11   -1    0    0    0    0 -0.00000000000E+00 -0.00000000000E+00 -0.45593999997E+02  0.45594000000E+02  0.51100000000E-03 0.  1.
    9900012    2    1    2    0    0  0.11903000832E+02 -0.19104032347E+02  0.22584831475E+02  0.59301951429E+02  0.50000013497E+02 0.  0.
        -12    1    1    2    0    0 -0.11903000832E+02  0.19104032347E+02 -0.22584831475E+02  0.31886048571E+02  0.00000000000E+00 0.  1.
         11    1    3    3    0    0  0.38030720146E+01 -0.20503071973E+02  0.16363851543E+02  0.26506885042E+02  0.51100000000E-03 0. -1.
        -11    1    3    3    0    0  0.19998437874E+02 -0.97295696958E+00  0.30323382328E+01  0.20250413282E+02  0.51100000000E-03 0.  1.
        -12    1    3    3    0    0 -0.11898509057E+02  0.23719965949E+01  0.31886416996E+01  0.12544653105E+02  0.00000000000E+00 0.  1.
</event>
<event>
 7    1  0.1220856E-011  0.5930195E+02  0.7816164E-02  0.1266605E+00
        -11   -1    0    0    0    0  0.00000000000E+00  0.00000000000E+00  0.45593999997E+02  0.45594000000E+02  0.51100000000E-03 0. -1.
         11   -1    0    0    0    0 -0.00000000000E+00 -0.00000000000E+00 -0.45593999997E+02  0.45594000000E+02  0.51100000000E-03 0.  1.
    9900012    2    1    2    0    0  0.15544645873E+02  0.83602987039E+01  0.26555404501E+02  0.59301951046E+02  0.50000012799E+02 0.  0.
        -12    1    1    2    0    0 -0.15544645873E+02 -0.83602987039E+01 -0.26555404501E+02  0.31886048954E+02  0.00000000000E+00 0.  1.
         11    1    3    3    0    0 -0.65645963931E+01  0.14726276947E+02  0.13770659809E+02  0.21203495711E+02  0.51100000000E-03 0. -1.
        -11    1    3    3    0    0  0.90989943999E+01 -0.43256060332E+01 -0.84246878318E+01  0.13133085394E+02  0.51100000000E-03 0.  1.
         12    1    3    3    0    0  0.13010247866E+02 -0.20403722103E+01  0.21209432523E+02  0.24965369940E+02  0.00000000000E+00 0. -1.
</event>
<event>
 7    1  0.1220856E-011  0.5930196E+02  0.7816164E-02  0.1266605E+00
        -11   -1    0    0    0    0  0.00000000000E+00  0.00000000000E+00  0.45593999997E+02  0.45594000000E+02  0.51100000000E-03 0.  1.
         11   -1    0    0    0    0 -0.00000000000E+00 -0.00000000000E+00 -0.45593999997E+02  0.45594000000E+02  0.51100000000E-03 0. -1.
    9900012    2    1    2    0    0  0.13772314615E+02 -0.30913590231E+01 -0.28591716854E+02  0.59301961941E+02  0.50000032669E+02 0.  0.
        -12    1    1    2    0    0 -0.13772314615E+02  0.30913590231E+01  0.28591716854E+02  0.31886038059E+02  0.00000000000E+00 0.  1.
         11    1    3    3    0    0  0.34610495274E+00 -0.13454942148E+02  0.27257687118E+01  0.13732628014E+02  0.51100000000E-03 0. -1.
        -11    1    3    3    0    0  0.21681798749E+01  0.10651666465E+02  0.14074569718E+01  0.10960836548E+02  0.51100000000E-03 0.  1.
         12    1    3    3    0    0  0.11258029788E+02 -0.28808334002E+00 -0.32724942538E+02  0.34608497379E+02  0.00000000000E+00 0. -1.
</event>
<event>
 7    1  0.1220856E-011  0.5930194E+02  0.7816164E-02  0.1266605E+00
        -11   -1    0    0    0    0  0.00000000000E+00  0.00000000000E+00  0.45593999997E+02  0.45594000000E+02  0.51100000000E-03 0. -1.
         11   -1    0    0    0    0 -0.00000000000E+00 -0.00000000000E+00 -0.45593999997E+02  0.45594000000E+02  0.51100000000E-03 0.  1.
    9900012    2    1    2    0    0 -0.20535369354E+02  0.24628969498E+01  0.24268360221E+02  0.59301944055E+02  0.50000000049E+02 0.  0.
        -12    1    1    2    0    0  0.20535369354E+02 -0.24628969498E+01 -0.24268360221E+02  0.31886055945E+02  0.00000000000E+00 0.  1.
         11    1    3    3    0    0  0.10499065491E+01 -0.25684789191E+01 -0.22333158589E+00  0.27837501644E+01  0.51100000000E-03 0. -1.
        -11    1    3    3    0    0 -0.63461854185E+01 -0.19598731505E+02  0.16715747212E+02  0.26529239550E+02  0.51100000000E-03 0.  1.
         12    1    3    3    0    0 -0.15239090485E+02  0.24630107374E+02  0.77759445952E+01  0.29988954340E+02  0.00000000000E+00 0. -1.
</event>
<event>
 7    1  0.1220856E-011  0.5930196E+02  0.7816164E-02  0.1266605E+00
        -11   -1    0    0    0    0  0.00000000000E+00  0.00000000000E+00  0.45593999997E+02  0.45594000000E+02  0.51100000000E-03 0. -1.
         11   -1    0    0    0    0 -0.00000000000E+00 -0.00000000000E+00 -0.45593999997E+02  0.45594000000E+02  0.51100000000E-03 0.  1.
    9900012    2    1    2    0    0 -0.13735099363E+02 -0.13080312409E+01  0.28746406413E+02  0.59301956315E+02  0.50000022409E+02 0.  0.
        -12    1    1    2    0    0  0.13735099363E+02  0.13080312409E+01 -0.28746406413E+02  0.31886043685E+02  0.00000000000E+00 0.  1.
         11    1    3    3    0    0 -0.67424124393E+01  0.42617483037E+00  0.43840289984E+01  0.80536613417E+01  0.51100000000E-03 0.  1.
        -11    1    3    3    0    0 -0.61046261900E+01 -0.20054833987E+01  0.37515817081E+02  0.38062119701E+02  0.51100000000E-03 0. -1.
        -12    1    3    3    0    0 -0.88806073336E+00  0.27127732743E+00 -0.13153439667E+02  0.13186175273E+02  0.00000000000E+00 0.  1.
</event>
<event>
 7    1  0.1220856E-011  0.5930195E+02  0.7816164E-02  0.1266605E+00
        -11   -1    0    0    0    0  0.00000000000E+00  0.00000000000E+00  0.45593999997E+02  0.45594000000E+02  0.51100000000E-03 0.  1.
         11   -1    0    0    0    0 -0.00000000000E+00 -0.00000000000E+00 -0.45593999997E+02  0.45594000000E+02  0.51100000000E-03 0. -1.
    9900012    2    1    2    0    0 -0.68168323948E+01 -0.29914987838E+02 -0.86801382560E+01  0.59301945032E+02  0.50000001832E+02 0.  0.
        -12    1    1    2    0    0  0.68168323948E+01  0.29914987838E+02  0.86801382560E+01  0.31886054968E+02  0.00000000000E+00 0.  1.
         11    1    3    3    0    0  0.41225005296E+01 -0.17996723702E+02 -0.20104769140E+02  0.27296131907E+02  0.51100000000E-03 0. -1.
        -11    1    3    3    0    0 -0.47541947043E+01 -0.30763854587E+01 -0.79905045487E+01  0.97936039322E+01  0.51100000000E-03 0.  1.
         12    1    3    3    0    0 -0.61851382202E+01 -0.88418786774E+01  0.19415135433E+02  0.22212209193E+02  0.00000000000E+00 0. -1.
</event>
<event>
 7    1  0.1220856E-011  0.5930196E+02  0.7816164E-02  0.1266605E+00
        -11   -1    0    0    0    0  0.00000000000E+00  0.00000000000E+00  0.45593999997E+02  0.45594000000E+02  0.51100000000E-03 0.  1.
         11   -1    0    0    0    0 -0.00000000000E+00 -0.00000000000E+00 -0.45593999997E+02  0.45594000000E+02  0.51100000000E-03 0. -1.
    9900012    2    1    2    0    0 -0.39926362821E+01  0.94940637606E+01 -0.30176834653E+02  0.59301956959E+02  0.50000023583E+02 0.  0.
        -12    1    1    2    0    0  0.39926362821E+01 -0.94940637606E+01  0.30176834653E+02  0.31886043041E+02  0.00000000000E+00 0.  1.
         11    1    3    3    0    0 -0.10199629106E+02 -0.57520572369E+00 -0.54465313325E+01  0.11577046227E+02  0.51100000000E-03 0. -1.
        -11    1    3    3    0    0  0.13843278910E+01  0.10642677338E+02 -0.34868858221E+02  0.36483149789E+02  0.51100000000E-03 0.  1.
        -12    1    3    3    0    0  0.48226649334E+01 -0.57340785366E+00  0.10138554900E+02  0.11241760943E+02  0.00000000000E+00 0.  1.
</event>
<event>
 7    1  0.1220856E-011  0.5930194E+02  0.7816164E-02  0.1266605E+00
        -11   -1    0    0    0    0  0.00000000000E+00  0.00000000000E+00  0.45593999997E+02  0.45594000000E+02  0.51100000000E-03 0. -1.
         11   -1    0    0    0    0 -0.00000000000E+00 -0.00000000000E+00 -0.45593999997E+02  0.45594000000E+02  0.51100000000E-03 0.  1.
    9900012    2    1    2    0    0 -0.16936799309E+02 -0.14225917695E+02 -0.22967124575E+02  0.59301941662E+02  0.49999995685E+02 0.  0.
        -12    1    1    2    0    0  0.16936799309E+02  0.14225917695E+02  0.22967124575E+02  0.31886058338E+02  0.00000000000E+00 0.  1.
         11    1    3    3    0    0  0.44558261233E+00  0.61884003096E+01  0.45058258408E+00  0.62207609809E+01  0.51100000000E-03 0. -1.
        -11    1    3    3    0    0 -0.53063379535E+01 -0.24964977869E+02  0.91396066995E+00  0.25539042011E+02  0.51100000000E-03 0.  1.
         12    1    3    3    0    0 -0.12076043968E+02  0.45506598647E+01 -0.24331667829E+02  0.27542138669E+02  0.00000000000E+00 0. -1.
</event>
<event>
 7    1  0.1220856E-011  0.5930196E+02  0.7816164E-02  0.1266605E+00
        -11   -1    0    0    0    0  0.00000000000E+00  0.00000000000E+00  0.45593999997E+02  0.45594000000E+02  0.51100000000E-03 0. -1.
         11   -1    0    0    0    0 -0.00000000000E+00 -0.00000000000E+00 -0.45593999997E+02  0.45594000000E+02  0.51100000000E-03 0.  1.
    9900012    2    1    2    0    0  0.75534829768E+01  0.30124200898E+02  0.72247418142E+01  0.59301961063E+02  0.50000031068E+02 0.  0.
        -12    1    1    2    0    0 -0.75534829768E+01 -0.30124200898E+02 -0.72247418142E+01  0.31886038937E+02  0.00000000000E+00 0.  1.
         11    1    3    3    0    0 -0.90254151424E+01  0.91985070107E+01  0.39225006607E+01  0.13470585043E+02  0.51100000000E-03 0.  1.
        -11    1    3    3    0    0 -0.54729104439E+01 -0.75839378430E+01  0.28809234152E+01  0.97861423410E+01  0.51100000000E-03 0. -1.
         12    1    3    3    0    0  0.22051808563E+02  0.28509631730E+02  0.42131773823E+00  0.36045233678E+02  0.00000000000E+00 0. -1.
</event>
<event>
 7    1  0.1220856E-011  0.5930196E+02  0.7816164E-02  0.1266605E+00
        -11   -1    0    0    0    0  0.00000000000E+00  0.00000000000E+00  0.45593999997E+02  0.45594000000E+02  0.51100000000E-03 0.  1.
         11   -1    0    0    0    0 -0.00000000000E+00 -0.00000000000E+00 -0.45593999997E+02  0.45594000000E+02  0.51100000000E-03 0. -1.
    9900012    2    1    2    0    0 -0.47594183851E+01  0.30857841004E+02  0.64700131299E+01  0.59301960976E+02  0.50000030909E+02 0.  0.
        -12    1    1    2    0    0  0.47594183851E+01 -0.30857841004E+02 -0.64700131299E+01  0.31886039024E+02  0.00000000000E+00 0.  1.
         11    1    3    3    0    0 -0.26985155428E+01  0.12549200590E+02  0.36779888924E+01  0.13352603646E+02  0.51100000000E-03 0. -1.
        -11    1    3    3    0    0 -0.17539485060E+02  0.76548555830E+01  0.14322303240E+02  0.23903111106E+02  0.51100000000E-03 0.  1.
         12    1    3    3    0    0  0.15478582218E+02  0.10653784831E+02 -0.11530279003E+02  0.22046246224E+02  0.00000000000E+00 0. -1.
</event>
<event>
 7    1  0.1220856E-011  0.5930169E+02  0.7816164E-02  0.1266606E+00
        -11   -1    0    0    0    0  0.00000000000E+00  0.00000000000E+00  0.45593999997E+02  0.45594000000E+02  0.51100000000E-03 0.  1.
         11   -1    0    0    0    0 -0.00000000000E+00 -0.00000000000E+00 -0.45593999997E+02  0.45594000000E+02  0.51100000000E-03 0. -1.
    9900012    2    1    2    0    0  0.23013418490E+00 -0.17253160685E+02 -0.26814403641E+02  0.59301690117E+02  0.49999536925E+02 0.  0.
        -12    1    1    2    0    0 -0.23013418490E+00  0.17253160685E+02  0.26814403641E+02  0.31886309883E+02  0.00000000000E+00 0.  1.
         11    1    3    3    0    0  0.51781152086E+01 -0.50879099358E+01 -0.20510400390E+01  0.75436377253E+01  0.51100000000E-03 0. -1.
        -11    1    3    3    0    0  0.10383040364E+02  0.47589629363E+01  0.64239068335E+01  0.13104267805E+02  0.51100000000E-03 0.  1.
        -12    1    3    3    0    0 -0.15331021388E+02 -0.16924213685E+02 -0.31187270436E+02  0.38653784587E+02  0.00000000000E+00 0.  1.
</event>
<event>
 7    1  0.1220856E-011  0.5930192E+02  0.7816164E-02  0.1266605E+00
        -11   -1    0    0    0    0  0.00000000000E+00  0.00000000000E+00  0.45593999997E+02  0.45594000000E+02  0.51100000000E-03 0. -1.
         11   -1    0    0    0    0 -0.00000000000E+00 -0.00000000000E+00 -0.45593999997E+02  0.45594000000E+02  0.51100000000E-03 0.  1.
    9900012    2    1    2    0    0  0.26721531744E+02  0.17375534053E+02  0.87892020792E+00  0.59301922426E+02  0.49999960603E+02 0.  0.
        -12    1    1    2    0    0 -0.26721531744E+02 -0.17375534053E+02 -0.87892020792E+00  0.31886077574E+02  0.00000000000E+00 0.  1.
         11    1    3    3    0    0  0.22105556231E+02  0.10139810709E+02  0.13111538219E+02  0.27629401228E+02  0.51100000000E-03 0. -1.
        -11    1    3    3    0    0  0.38355976532E+01 -0.66408621249E+01  0.52830721566E+01  0.93125566196E+01  0.51100000000E-03 0.  1.
        -12    1    3    3    0    0  0.78037785974E+00  0.13876585469E+02 -0.17515690168E+02  0.22359964578E+02  0.00000000000E+00 0.  1.
</event>
<event>
 7    1  0.1220856E-011  0.5930194E+02  0.7816164E-02  0.1266605E+00
        -11   -1    0    0    0    0  0.00000000000E+00  0.00000000000E+00  0.45593999997E+02  0.45594000000E+02  0.51100000000E-03 0.  1.
         11   -1    0    0    0    0 -0.00000000000E+00 -0.00000000000E+00 -0.45593999997E+02  0.45594000000E+02  0.51100000000E-03 0. -1.
    9900012    2    1    2    0    0 -0.29918870141E+02 -0.67775010116E+01 -0.86975597474E+01  0.59301939471E+02  0.49999991690E+02 0.  0.
        -12    1    1    2    0    0  0.29918870141E+02  0.67775010116E+01  0.86975597474E+01  0.31886060529E+02  0.00000000000E+00 0.  1.
         11    1    3    3    0    0 -0.13237496564E+01 -0.21230885232E+01 -0.61697366036E+01  0.66577374572E+01  0.51100000000E-03 0. -1.
        -11    1    3    3    0    0  0.79217038242E+01 -0.61819933789E+01  0.98356442876E+01  0.14060950623E+02  0.51100000000E-03 0.  1.
         12    1    3    3    0    0 -0.36516824309E+02  0.15275808906E+01 -0.12363467431E+02  0.38583251391E+02  0.00000000000E+00 0. -1.
</event>
<event>
 7    1  0.1220856E-011  0.5930196E+02  0.7816164E-02  0.1266605E+00
        -11   -1    0    0    0    0  0.00000000000E+00  0.00000000000E+00  0.45593999997E+02  0.45594000000E+02  0.51100000000E-03 0. -1.
         11   -1    0    0    0    0 -0.00000000000E+00 -0.00000000000E+00 -0.45593999997E+02  0.45594000000E+02  0.51100000000E-03 0.  1.
    9900012    2    1    2    0    0  0.20347987092E+02 -0.21542234582E+02  0.11773320265E+02  0.59301960429E+02  0.50000029912E+02 0.  0.
        -12    1    1    2    0    0 -0.20347987092E+02  0.21542234582E+02 -0.11773320265E+02  0.31886039571E+02  0.00000000000E+00 0.  1.
         11    1    3    3    0    0  0.10160576020E+02  0.36717793135E+01 -0.14610898285E+02  0.18171340548E+02  0.51100000000E-03 0. -1.
        -11    1    3    3    0    0  0.64063820302E+01 -0.78024125398E+01  0.10383072815E+01  0.10148766153E+02  0.51100000000E-03 0.  1.
         12    1    3    3    0    0  0.37810290416E+01 -0.17411601356E+02  0.25345911268E+02  0.30981853727E+02  0.00000000000E+00 0. -1.
</event>
<event>
 7    1  0.1220856E-011  0.5930193E+02  0.7816164E-02  0.1266605E+00
        -11   -1    0    0    0    0  0.00000000000E+00  0.00000000000E+00  0.45593999997E+02  0.45594000000E+02  0.51100000000E-03 0.  1.
         11   -1    0    0    0    0 -0.00000000000E+00 -0.00000000000E+00 -0.45593999997E+02  0.45594000000E+02  0.51100000000E-03 0. -1.
    9900012    2    1    2    0    0  0.38480793800E+01 -0.26989821892E+02 -0.16536732011E+02  0.59301926139E+02  0.49999967376E+02 0.  0.
        -12    1    1    2    0    0 -0.38480793800E+01  0.26989821892E+02  0.16536732011E+02  0.31886073861E+02  0.00000000000E+00 0.  1.
         11    1    3    3    0    0 -0.27429968829E+01 -0.10823799265E+02 -0.35948217667E+01  0.11730362578E+02  0.51100000000E-03 0. -1.
        -11    1    3    3    0    0  0.16485536544E+02 -0.26790125186E+01  0.97815565691E+01  0.19355331886E+02  0.51100000000E-03 0.  1.
         12    1    3    3    0    0 -0.98944602816E+01 -0.13487010108E+02 -0.22723466813E+02  0.28216231675E+02  0.00000000000E+00 0. -1.
</event>
<event>
 7    1  0.1220856E-011  0.5930194E+02  0.7816164E-02  0.1266605E+00
        -11   -1    0    0    0    0  0.00000000000E+00  0.00000000000E+00  0.45593999997E+02  0.45594000000E+02  0.51100000000E-03 0.  1.
         11   -1    0    0    0    0 -0.00000000000E+00 -0.00000000000E+00 -0.45593999997E+02  0.45594000000E+02  0.51100000000E-03 0. -1.
    9900012    2    1    2    0    0  0.52209533806E+00  0.16971624205E+02 -0.26989112113E+02  0.59301940596E+02  0.49999993741E+02 0.  0.
        -12    1    1    2    0    0 -0.52209533806E+00 -0.16971624205E+02  0.26989112113E+02  0.31886059404E+02  0.00000000000E+00 0.  1.
         11    1    3    3    0    0  0.34758110822E+00  0.47349286409E+01 -0.95633074580E+01  0.10676947675E+02  0.51100000000E-03 0. -1.
        -11    1    3    3    0    0 -0.32763693966E+01 -0.11844067138E+02 -0.20705968835E+02  0.24078074434E+02  0.51100000000E-03 0.  1.
        -12    1    3    3    0    0  0.34508836264E+01  0.24080762702E+02  0.32801641805E+01  0.24546918486E+02  0.00000000000E+00 0.  1.
</event>
<event>
 7    1  0.1220856E-011  0.5930196E+02  0.7816164E-02  0.1266605E+00
        -11   -1    0    0    0    0  0.00000000000E+00  0.00000000000E+00  0.45593999997E+02  0.45594000000E+02  0.51100000000E-03 0. -1.
         11   -1    0    0    0    0 -0.00000000000E+00 -0.00000000000E+00 -0.45593999997E+02  0.45594000000E+02  0.51100000000E-03 0.  1.
    9900012    2    1    2    0    0 -0.15668156453E+02  0.57462507810E+00  0.27765057006E+02  0.59301957424E+02  0.50000024432E+02 0.  0.
        -12    1    1    2    0    0  0.15668156453E+02 -0.57462507810E+00 -0.27765057006E+02  0.31886042576E+02  0.00000000000E+00 0.  1.
         11    1    3    3    0    0 -0.18120525859E+02 -0.37702306093E+01  0.22309262360E+02  0.28987433201E+02  0.51100000000E-03 0. -1.
        -11    1    3    3    0    0 -0.66945405239E+01  0.49203776829E+01 -0.95954227716E+01  0.12692483122E+02  0.51100000000E-03 0.  1.
         12    1    3    3    0    0  0.91469099307E+01 -0.57552199552E+00  0.15051217417E+02  0.17622041102E+02  0.00000000000E+00 0. -1.
</event>
<event>
 7    1  0.1220856E-011  0.5930216E+02  0.7816164E-02  0.1266604E+00
        -11   -1    0    0    0    0  0.00000000000E+00  0.00000000000E+00  0.45593999997E+02  0.45594000000E+02  0.51100000000E-03 0. -1.
         11   -1    0    0    0    0 -0.00000000000E+00 -0.00000000000E+00 -0.45593999997E+02  0.45594000000E+02  0.51100000000E-03 0.  1.
    9900012    2    1    2    0    0 -0.26256067792E+02  0.16437552795E+02  0.75586096700E+01  0.59302159601E+02  0.50000393153E+02 0.  0.
        -12    1    1    2    0    0  0.26256067792E+02 -0.16437552795E+02 -0.75586096700E+01  0.31885840399E+02  0.00000000000E+00 0.  1.
         11    1    3    3    0    0  0.11928022154E+01  0.47689962608E+00  0.10387411150E+01  0.16520271619E+01  0.51100000000E-03 0. -1.
        -11    1    3    3    0    0 -0.15744871338E+02  0.18949811442E+02 -0.17868015067E+02  0.30434557494E+02  0.51100000000E-03 0.  1.
         12    1    3    3    0    0 -0.11703998670E+02 -0.29891582737E+01  0.24387883622E+02  0.27215574945E+02  0.00000000000E+00 0. -1.
</event>
<event>
 7    1  0.1220856E-011  0.5930195E+02  0.7816164E-02  0.1266605E+00
        -11   -1    0    0    0    0  0.00000000000E+00  0.00000000000E+00  0.45593999997E+02  0.45594000000E+02  0.51100000000E-03 0. -1.
         11   -1    0    0    0    0 -0.00000000000E+00 -0.00000000000E+00 -0.45593999997E+02  0.45594000000E+02  0.51100000000E-03 0.  1.
    9900012    2    1    2    0    0  0.11330496109E+02 -0.28018833567E+02 -0.10162931343E+02  0.59301947407E+02  0.50000006162E+02 0.  0.
        -12    1    1    2    0    0 -0.11330496109E+02  0.28018833567E+02  0.10162931343E+02  0.31886052593E+02  0.00000000000E+00 0.  1.
         11    1    3    3    0    0  0.31049925043E+01 -0.29138740900E+01  0.89218099595E+01  0.98858653581E+01  0.51100000000E-03 0. -1.
        -11    1    3    3    0    0 -0.14375673990E+02 -0.14838310699E+02 -0.10287723044E+02  0.23079703481E+02  0.51100000000E-03 0.  1.
         12    1    3    3    0    0  0.22601177595E+02 -0.10266648778E+02 -0.87970182588E+01  0.26336378568E+02  0.00000000000E+00 0. -1.
</event>
<event>
 7    1  0.1220856E-011  0.5930203E+02  0.7816164E-02  0.1266604E+00
        -11   -1    0    0    0    0  0.00000000000E+00  0.00000000000E+00  0.45593999997E+02  0.45594000000E+02  0.51100000000E-03 0. -1.
         11   -1    0    0    0    0 -0.00000000000E+00 -0.00000000000E+00 -0.45593999997E+02  0.45594000000E+02  0.51100000000E-03 0.  1.
    9900012    2    1    2    0    0  0.18123806158E+02  0.21688862611E+01  0.26144567017E+02  0.59302034407E+02  0.50000164830E+02 0.  0.
        -12    1    1    2    0    0 -0.18123806158E+02 -0.21688862611E+01 -0.26144567017E+02  0.31885965593E+02  0.00000000000E+00 0.  1.
         11    1    3    3    0    0  0.30993173351E+02 -0.48867053573E+01  0.15394304083E+02  0.34949124196E+02  0.51100000000E-03 0. -1.
        -11    1    3    3    0    0 -0.35634489026E+00  0.50761646725E+01  0.10515583218E+02  0.11682119677E+02  0.51100000000E-03 0.  1.
         12    1    3    3    0    0 -0.12513022303E+02  0.19794269459E+01  0.23467971596E+00  0.12670790534E+02  0.00000000000E+00 0. -1.
</event>
<event>
 7    1  0.1220856E-011  0.5930196E+02  0.7816164E-02  0.1266605E+00
        -11   -1    0    0    0    0  0.00000000000E+00  0.00000000000E+00  0.45593999997E+02  0.45594000000E+02  0.51100000000E-03 0. -1.
         11   -1    0    0    0    0 -0.00000000000E+00 -0.00000000000E+00 -0.45593999997E+02  0.45594000000E+02  0.51100000000E-03 0.  1.
    9900012    2    1    2    0    0  0.65178393426E+01  0.25665263430E+02  0.17763215493E+02  0.59301956011E+02  0.50000021855E+02 0.  0.
        -12    1    1    2    0    0 -0.65178393426E+01 -0.25665263430E+02 -0.17763215493E+02  0.31886043989E+02  0.00000000000E+00 0.  1.
         11    1    3    3    0    0 -0.11937173965E+02  0.16027169099E+02  0.68463111710E+01  0.21124352026E+02  0.51100000000E-03 0. -1.
        -11    1    3    3    0    0 -0.31181920873E+01 -0.27510044510E+01  0.12575158609E+02  0.13244839059E+02  0.51100000000E-03 0.  1.
         12    1    3    3    0    0  0.21573205395E+02  0.12389098781E+02 -0.16582542872E+01  0.24932764927E+02  0.00000000000E+00 0. -1.
</event>
<event>
 7    1  0.1220856E-011  0.5930195E+02  0.7816164E-02  0.1266605E+00
        -11   -1    0    0    0    0  0.00000000000E+00  0.00000000000E+00  0.45593999997E+02  0.45594000000E+02  0.51100000000E-03 0.  1.
         11   -1    0    0    0    0 -0.00000000000E+00 -0.00000000000E+00 -0.45593999997E+02  0.45594000000E+02  0.51100000000E-03 0. -1.
    9900012    2    1    2    0    0  0.28853643674E+02 -0.13291530503E+02  0.27426918213E+01  0.59301954544E+02  0.50000019180E+02 0.  0.
        -12    1    1    2    0    0 -0.28853643674E+02  0.13291530503E+02 -0.27426918213E+01  0.31886045456E+02  0.00000000000E+00 0.  1.
         11    1    3    3    0    0  0.15615721036E+02 -0.15189587831E+02 -0.11533651364E+02  0.24649532166E+02  0.51100000000E-03 0. -1.
        -11    1    3    3    0    0  0.15928542703E+02 -0.41527574411E+01 -0.24691244324E+01  0.16645132704E+02  0.51100000000E-03 0.  1.
        -12    1    3    3    0    0 -0.26906200647E+01  0.60508147691E+01  0.16745467617E+02  0.18007289675E+02  0.00000000000E+00 0.  1.
</event>
<event>
 7    1  0.1220856E-011  0.5930195E+02  0.7816164E-02  0.1266605E+00
        -11   -1    0    0    0    0  0.00000000000E+00  0.00000000000E+00  0.45593999997E+02  0.45594000000E+02  0.51100000000E-03 0.  1.
         11   -1    0    0    0    0 -0.00000000000E+00 -0.00000000000E+00 -0.45593999997E+02  0.45594000000E+02  0.51100000000E-03 0. -1.
    9900012    2    1    2    0    0  0.12865111207E+02 -0.12899474972E+02 -0.26168919212E+02  0.59301954876E+02  0.50000019785E+02 0.  0.
        -12    1    1    2    0    0 -0.12865111207E+02  0.12899474972E+02  0.26168919212E+02  0.31886045124E+02  0.00000000000E+00 0.  1.
         11    1    3    3    0    0  0.20063782069E+02  0.27769918780E+01 -0.20462486043E+02  0.28792019209E+02  0.51100000000E-03 0. -1.
        -11    1    3    3    0    0 -0.97917470835E+01  0.34674448869E+01 -0.39435234504E+01  0.11110934365E+02  0.51100000000E-03 0.  1.
         12    1    3    3    0    0  0.25930762214E+01 -0.19143911736E+02 -0.17629097189E+01  0.19399001303E+02  0.00000000000E+00 0. -1.
</event>
<event>
 7    1  0.1220856E-011  0.5930194E+02  0.7816164E-02  0.1266605E+00
        -11   -1    0    0    0    0  0.00000000000E+00  0.00000000000E+00  0.45593999997E+02  0.45594000000E+02  0.51100000000E-03 0.  1.
         11   -1    0    0    0    0 -0.00000000000E+00 -0.00000000000E+00 -0.45593999997E+02  0.45594000000E+02  0.51100000000E-03 0. -1.
    9900012    2    1    2    0    0  0.11586238140E+02  0.68077080141E+01 -0.28915995845E+02  0.59301943199E+02  0.49999998488E+02 0.  0.
        -12    1    1    2    0    0 -0.11586238140E+02 -0.68077080141E+01  0.28915995845E+02  0.31886056801E+02  0.00000000000E+00 0.  1.
         11    1    3    3    0    0  0.66547118612E+01 -0.14295301192E+02 -0.21700779485E+02  0.26824702359E+02  0.51100000000E-03 0. -1.
        -11    1    3    3    0    0  0.12255415070E+02  0.11326279594E+02 -0.10639224151E+02  0.19790727596E+02  0.51100000000E-03 0.  1.
        -12    1    3    3    0    0 -0.73238887915E+01  0.97767296121E+01  0.34240077915E+01  0.12686513244E+02  0.00000000000E+00 0.  1.
</event>
<event>
 7    1  0.1220856E-011  0.5930192E+02  0.7816164E-02  0.1266605E+00
        -11   -1    0    0    0    0  0.00000000000E+00  0.00000000000E+00  0.45593999997E+02  0.45594000000E+02  0.51100000000E-03 0.  1.
         11   -1    0    0    0    0 -0.00000000000E+00 -0.00000000000E+00 -0.45593999997E+02  0.45594000000E+02  0.51100000000E-03 0. -1.
    9900012    2    1    2    0    0 -0.29905571710E+01 -0.27573124618E+02 -0.15732174936E+02  0.59301922135E+02  0.49999960073E+02 0.  0.
        -12    1    1    2    0    0  0.29905571710E+01  0.27573124618E+02  0.15732174936E+02  0.31886077865E+02  0.00000000000E+00 0.  1.
         11    1    3    3    0    0  0.66920541072E+01 -0.12491285232E+02 -0.25728742199E+02  0.29373184545E+02  0.51100000000E-03 0. -1.
        -11    1    3    3    0    0 -0.17555994538E+01 -0.97123138887E+01 -0.58068689527E+01  0.11451240012E+02  0.51100000000E-03 0.  1.
        -12    1    3    3    0    0 -0.79270118244E+01 -0.53695254974E+01  0.15803436216E+02  0.18477497578E+02  0.00000000000E+00 0.  1.
</event>
<event>
 7    1  0.1220856E-011  0.5930196E+02  0.7816164E-02  0.1266605E+00
        -11   -1    0    0    0    0  0.00000000000E+00  0.00000000000E+00  0.45593999997E+02  0.45594000000E+02  0.51100000000E-03 0. -1.
         11   -1    0    0    0    0 -0.00000000000E+00 -0.00000000000E+00 -0.45593999997E+02  0.45594000000E+02  0.51100000000E-03 0.  1.
    9900012    2    1    2    0    0 -0.48221304482E+01  0.82082506742E+01  0.30431742907E+02  0.59301963909E+02  0.50000036260E+02 0.  0.
        -12    1    1    2    0    0  0.48221304482E+01 -0.82082506742E+01 -0.30431742907E+02  0.31886036091E+02  0.00000000000E+00 0.  1.
         11    1    3    3    0    0 -0.88258794085E+01 -0.17017087623E+00  0.42541936137E+01  0.97991463416E+01  0.51100000000E-03 0. -1.
        -11    1    3    3    0    0  0.74145647747E+01 -0.15336330112E+02  0.56332850462E+01  0.17941925559E+02  0.51100000000E-03 0.  1.
        -12    1    3    3    0    0 -0.34108158145E+01  0.23714751662E+02  0.20544264247E+02  0.31560892009E+02  0.00000000000E+00 0.  1.
</event>
<event>
 7    1  0.1220856E-011  0.5930197E+02  0.7816164E-02  0.1266605E+00
        -11   -1    0    0    0    0  0.00000000000E+00  0.00000000000E+00  0.45593999997E+02  0.45594000000E+02  0.51100000000E-03 0.  1.
         11   -1    0    0    0    0 -0.00000000000E+00 -0.00000000000E+00 -0.45593999997E+02  0.45594000000E+02  0.51100000000E-03 0. -1.
    9900012    2    1    2    0    0  0.82856190497E+01 -0.27465663310E+02 -0.13917793666E+02  0.59301966622E+02  0.50000041206E+02 0.  0.
        -12    1    1    2    0    0 -0.82856190497E+01  0.27465663310E+02  0.13917793666E+02  0.31886033378E+02  0.00000000000E+00 0.  1.
         11    1    3    3    0    0  0.10102628905E+02  0.29126500543E+00 -0.11305317008E+02  0.15164370709E+02  0.51100000000E-03 0. -1.
        -11    1    3    3    0    0  0.49470420602E+01  0.20790862075E+01  0.97595130465E+01  0.11137500607E+02  0.51100000000E-03 0.  1.
         12    1    3    3    0    0 -0.67640519156E+01 -0.29836014523E+02 -0.12371989704E+02  0.33000095305E+02  0.00000000000E+00 0. -1.
</event>
<event>
 7    1  0.1220856E-011  0.5930195E+02  0.7816164E-02  0.1266605E+00
        -11   -1    0    0    0    0  0.00000000000E+00  0.00000000000E+00  0.45593999997E+02  0.45594000000E+02  0.51100000000E-03 0. -1.
         11   -1    0    0    0    0 -0.00000000000E+00 -0.00000000000E+00 -0.45593999997E+02  0.45594000000E+02  0.51100000000E-03 0.  1.
    9900012    2    1    2    0    0  0.24044058273E+02  0.20909786044E+02 -0.11764591399E+01  0.59301953729E+02  0.50000017694E+02 0.  0.
        -12    1    1    2    0    0 -0.24044058273E+02 -0.20909786044E+02  0.11764591399E+01  0.31886046271E+02  0.00000000000E+00 0.  1.
         11    1    3    3    0    0 -0.49404936896E+01  0.11245798140E+01  0.44444536044E+01  0.67399054710E+01  0.51100000000E-03 0. -1.
        -11    1    3    3    0    0  0.11383153937E+02  0.74791779950E+01 -0.21777959115E+02  0.25686451692E+02  0.51100000000E-03 0.  1.
         12    1    3    3    0    0  0.17601398026E+02  0.12306028235E+02  0.16157046371E+02  0.26875596567E+02  0.00000000000E+00 0. -1.
</event>
<event>
 7    1  0.1220856E-011  0.5930196E+02  0.7816164E-02  0.1266605E+00
        -11   -1    0    0    0    0  0.00000000000E+00  0.00000000000E+00  0.45593999997E+02  0.45594000000E+02  0.51100000000E-03 0.  1.
         11   -1    0    0    0    0 -0.00000000000E+00 -0.00000000000E+00 -0.45593999997E+02  0.45594000000E+02  0.51100000000E-03 0. -1.
    9900012    2    1    2    0    0 -0.14811378231E+02 -0.14715501112E+01 -0.28198882203E+02  0.59301963207E+02  0.50000034979E+02 0.  0.
        -12    1    1    2    0    0  0.14811378231E+02  0.14715501112E+01  0.28198882203E+02  0.31886036793E+02  0.00000000000E+00 0.  1.
         11    1    3    3    0    0 -0.26146047089E+00 -0.10252353739E+02 -0.27970105544E+02  0.29791037632E+02  0.51100000000E-03 0. -1.
        -11    1    3    3    0    0 -0.56674603355E+00  0.33065195658E+01 -0.10693727640E+02  0.11207590454E+02  0.51100000000E-03 0.  1.
        -12    1    3    3    0    0 -0.13983171727E+02  0.54742840624E+01  0.10464950980E+02  0.18303335121E+02  0.00000000000E+00 0.  1.
</event>
<event>
 7    1  0.1220856E-011  0.5930194E+02  0.7816164E-02  0.1266605E+00
        -11   -1    0    0    0    0  0.00000000000E+00  0.00000000000E+00  0.45593999997E+02  0.45594000000E+02  0.51100000000E-03 0.  1.
         11   -1    0    0    0    0 -0.00000000000E+00 -0.00000000000E+00 -0.45593999997E+02  0.45594000000E+02  0.51100000000E-03 0. -1.
    9900012    2    1    2    0    0 -0.16840133944E+02  0.62442708356E+01 -0.26346532558E+02  0.59301940235E+02  0.49999993083E+02 0.  0.
        -12    1    1    2    0    0  0.16840133944E+02 -0.62442708356E+01  0.26346532558E+02  0.31886059765E+02  0.00000000000E+00 0.  1.
         11    1    3    3    0    0 -0.73909778810E+01  0.47183091037E+01 -0.19648122880E+01  0.89860715791E+01  0.51100000000E-03 0. -1.
        -11    1    3    3    0    0 -0.33619000624E+01  0.21706328028E+02 -0.17683220838E+02  0.28198640889E+02  0.51100000000E-03 0.  1.
         12    1    3    3    0    0 -0.60872560003E+01 -0.20180366296E+02 -0.66984994315E+01  0.22117227767E+02  0.00000000000E+00 0. -1.
</event>
<event>
 7    1  0.1220856E-011  0.5930195E+02  0.7816164E-02  0.1266605E+00
        -11   -1    0    0    0    0  0.00000000000E+00  0.00000000000E+00  0.45593999997E+02  0.45594000000E+02  0.51100000000E-03 0. -1.
         11   -1    0    0    0    0 -0.00000000000E+00 -0.00000000000E+00 -0.45593999997E+02  0.45594000000E+02  0.51100000000E-03 0.  1.
    9900012    2    1    2    0    0 -0.15622453601E+02  0.23459310089E+02  0.14910404502E+02  0.59301945857E+02  0.50000003337E+02 0.  0.
        -12    1    1    2    0    0  0.15622453601E+02 -0.23459310089E+02 -0.14910404502E+02  0.31886054143E+02  0.00000000000E+00 0.  1.
         11    1    3    3    0    0  0.72650556067E+01 -0.74548713953E+00  0.89819748791E+01  0.11576383590E+02  0.51100000000E-03 0. -1.
        -11    1    3    3    0    0 -0.11769351705E+02  0.30743929637E+02  0.96426031381E+01  0.34302866420E+02  0.51100000000E-03 0.  1.
        -12    1    3    3    0    0 -0.11118157502E+02 -0.65391324086E+01 -0.37141735149E+01  0.13422695847E+02  0.00000000000E+00 0.  1.
</event>
<event>
 7    1  0.1220856E-011  0.5930194E+02  0.7816164E-02  0.1266605E+00
        -11   -1    0    0    0    0  0.00000000000E+00  0.00000000000E+00  0.45593999997E+02  0.45594000000E+02  0.51100000000E-03 0. -1.
         11   -1    0    0    0    0 -0.00000000000E+00 -0.00000000000E+00 -0.45593999997E+02  0.45594000000E+02  0.51100000000E-03 0.  1.
    9900012    2    1    2    0    0  0.27340857861E+02 -0.14667592992E+02 -0.73525733374E+01  0.59301935216E+02  0.49999983930E+02 0.  0.
        -12    1    1    2    0    0 -0.27340857861E+02  0.14667592992E+02  0.73525733374E+01  0.31886064784E+02  0.00000000000E+00 0.  1.
         11    1    3    3    0    0  0.23064872388E+02 -0.15498323490E+02 -0.11077919542E+02  0.29914990739E+02  0.51100000000E-03 0. -1.
        -11    1    3    3    0    0 -0.52675636361E+01 -0.12013550339E+02  0.23472495310E+01  0.13325997112E+02  0.51100000000E-03 0.  1.
        -12    1    3    3    0    0  0.95435491089E+01  0.12844280838E+02  0.13780966733E+01  0.16060947365E+02  0.00000000000E+00 0.  1.
</event>
<event>
 7    1  0.1220856E-011  0.5930194E+02  0.7816164E-02  0.1266605E+00
        -11   -1    0    0    0    0  0.00000000000E+00  0.00000000000E+00  0.45593999997E+02  0.45594000000E+02  0.51100000000E-03 0.  1.
         11   -1    0    0    0    0 -0.00000000000E+00 -0.00000000000E+00 -0.45593999997E+02  0.45594000000E+02  0.51100000000E-03 0. -1.
    9900012    2    1    2    0    0  0.79535100119E+01  0.19942269570E+02 -0.23574740796E+02  0.59301939711E+02  0.49999992128E+02 0.  0.
        -12    1    1    2    0    0 -0.79535100119E+01 -0.19942269570E+02  0.23574740796E+02  0.31886060289E+02  0.00000000000E+00 0.  1.
         11    1    3    3    0    0  0.10407259244E+02  0.18546569849E+01 -0.37028794024E+01  0.11200987173E+02  0.51100000000E-03 0. -1.
        -11    1    3    3    0    0 -0.14047525137E+01  0.11206923444E+02  0.11409600816E+02  0.16054515058E+02  0.51100000000E-03 0.  1.
         12    1    3    3    0    0 -0.10489967189E+01  0.68806891416E+01 -0.31281462210E+02  0.32046437480E+02  0.00000000000E+00 0. -1.
</event>
<event>
 7    1  0.1220856E-011  0.5930194E+02  0.7816164E-02  0.1266605E+00
        -11   -1    0    0    0    0  0.00000000000E+00  0.00000000000E+00  0.45593999997E+02  0.45594000000E+02  0.51100000000E-03 0. -1.
         11   -1    0    0    0    0 -0.00000000000E+00 -0.00000000000E+00 -0.45593999997E+02  0.45594000000E+02  0.51100000000E-03 0.  1.
    9900012    2    1    2    0    0  0.26553824246E+02 -0.58989292362E+01  0.16637852769E+02  0.59301935756E+02  0.49999984914E+02 0.  0.
        -12    1    1    2    0    0 -0.26553824246E+02  0.58989292362E+01 -0.16637852769E+02  0.31886064244E+02  0.00000000000E+00 0.  1.
         11    1    3    3    0    0  0.31461230245E+01  0.75623019151E+01  0.14766233564E+02  0.16885738192E+02  0.51100000000E-03 0. -1.
        -11    1    3    3    0    0  0.47308939512E+01  0.67190156601E+01 -0.95875921258E+01  0.12627289973E+02  0.51100000000E-03 0.  1.
         12    1    3    3    0    0  0.18676807270E+02 -0.20180246811E+02  0.11459211330E+02  0.29788907592E+02  0.00000000000E+00 0. -1.
</event>
<event>
 7    1  0.1220856E-011  0.5930195E+02  0.7816164E-02  0.1266605E+00
        -11   -1    0    0    0    0  0.00000000000E+00  0.00000000000E+00  0.45593999997E+02  0.45594000000E+02  0.51100000000E-03 0.  1.
         11   -1    0    0    0    0 -0.00000000000E+00 -0.00000000000E+00 -0.45593999997E+02  0.45594000000E+02  0.51100000000E-03 0. -1.
    9900012    2    1    2    0    0 -0.93284441917E+01  0.24399401835E+02 -0.18285775812E+02  0.59301948536E+02  0.50000008222E+02 0.  0.
        -12    1    1    2    0    0  0.93284441917E+01 -0.24399401835E+02  0.18285775812E+02  0.31886051464E+02  0.00000000000E+00 0.  1.
         11    1    3    3    0    0 -0.43993611240E+01 -0.57165087698E+01 -0.28704197257E+00  0.72190888739E+01  0.51100000000E-03 0.  1.
        -11    1    3    3    0    0  0.73682633828E+01  0.17518691398E+02 -0.26438002470E+02  0.32560157071E+02  0.51100000000E-03 0. -1.
         12    1    3    3    0    0 -0.12297346451E+02  0.12597219206E+02  0.84392686310E+01  0.19522702592E+02  0.00000000000E+00 0. -1.
</event>
<event>
 7    1  0.1220856E-011  0.5930194E+02  0.7816164E-02  0.1266605E+00
        -11   -1    0    0    0    0  0.00000000000E+00  0.00000000000E+00  0.45593999997E+02  0.45594000000E+02  0.51100000000E-03 0. -1.
         11   -1    0    0    0    0 -0.00000000000E+00 -0.00000000000E+00 -0.45593999997E+02  0.45594000000E+02  0.51100000000E-03 0.  1.
    9900012    2    1    2    0    0  0.70006691116E+00  0.24309426373E+02  0.20622386000E+02  0.59301935511E+02  0.49999984467E+02 0.  0.
        -12    1    1    2    0    0 -0.70006691116E+00 -0.24309426373E+02 -0.20622386000E+02  0.31886064489E+02  0.00000000000E+00 0.  1.
         11    1    3    3    0    0 -0.12722413361E+02 -0.42663472743E+01  0.30189182848E+01  0.13754104430E+02  0.51100000000E-03 0.  1.
        -11    1    3    3    0    0  0.12550585598E+01 -0.54090793033E+01  0.44948793608E+01  0.71440360881E+01  0.51100000000E-03 0. -1.
         12    1    3    3    0    0  0.12167421712E+02  0.33984852951E+02  0.13108588355E+02  0.38403794993E+02  0.00000000000E+00 0. -1.
</event>
<event>
 7    1  0.1220856E-011  0.5930194E+02  0.7816164E-02  0.1266605E+00
        -11   -1    0    0    0    0  0.00000000000E+00  0.00000000000E+00  0.45593999997E+02  0.45594000000E+02  0.51100000000E-03 0.  1.
         11   -1    0    0    0    0 -0.00000000000E+00 -0.00000000000E+00 -0.45593999997E+02  0.45594000000E+02  0.51100000000E-03 0. -1.
    9900012    2    1    2    0    0  0.82699893777E+01  0.77788253765E+01 -0.29796272050E+02  0.59301942285E+02  0.49999996821E+02 0.  0.
        -12    1    1    2    0    0 -0.82699893777E+01 -0.77788253765E+01  0.29796272050E+02  0.31886057715E+02  0.00000000000E+00 0.  1.
         11    1    3    3    0    0  0.15989057196E+02 -0.12219396600E+02 -0.72831848401E+01  0.21401130460E+02  0.51100000000E-03 0. -1.
        -11    1    3    3    0    0 -0.54492758470E+01  0.13214898052E+00  0.24000830996E+01  0.59558769090E+01  0.51100000000E-03 0.  1.
         12    1    3    3    0    0 -0.22697919718E+01  0.19866072996E+02 -0.24913170309E+02  0.31944934915E+02  0.00000000000E+00 0. -1.
</event>
<event>
 7    1  0.1220856E-011  0.5930191E+02  0.7816164E-02  0.1266605E+00
        -11   -1    0    0    0    0  0.00000000000E+00  0.00000000000E+00  0.45593999997E+02  0.45594000000E+02  0.51100000000E-03 0. -1.
         11   -1    0    0    0    0 -0.00000000000E+00 -0.00000000000E+00 -0.45593999997E+02  0.45594000000E+02  0.51100000000E-03 0.  1.
    9900012    2    1    2    0    0  0.11113138438E+02  0.25809126095E+02  0.15070175634E+02  0.59301905392E+02  0.49999929537E+02 0.  0.
        -12    1    1    2    0    0 -0.11113138438E+02 -0.25809126095E+02 -0.15070175634E+02  0.31886094608E+02  0.00000000000E+00 0.  1.
         11    1    3    3    0    0 -0.11144093326E+02  0.52582946675E+01  0.14942754988E+02  0.19368180239E+02  0.51100000000E-03 0. -1.
        -11    1    3    3    0    0  0.88998421515E+01 -0.56066289435E+01 -0.79509897135E+00  0.10548633137E+02  0.51100000000E-03 0.  1.
        -12    1    3    3    0    0  0.13357389612E+02  0.26157460371E+02  0.92251961706E+00  0.29385092016E+02  0.00000000000E+00 0.  1.
</event>
<event>
 7    1  0.1220856E-011  0.5930198E+02  0.7816164E-02  0.1266605E+00
        -11   -1    0    0    0    0  0.00000000000E+00  0.00000000000E+00  0.45593999997E+02  0.45594000000E+02  0.51100000000E-03 0.  1.
         11   -1    0    0    0    0 -0.00000000000E+00 -0.00000000000E+00 -0.45593999997E+02  0.45594000000E+02  0.51100000000E-03 0. -1.
    9900012    2    1    2    0    0  0.49138166220E+01 -0.99027613052E+01 -0.29908323629E+02  0.59301982727E+02  0.50000070578E+02 0.  0.
        -12    1    1    2    0    0 -0.49138166220E+01  0.99027613052E+01  0.29908323629E+02  0.31886017273E+02  0.00000000000E+00 0.  1.
         11    1    3    3    0    0 -0.18094538631E+02 -0.51679619900E+01 -0.23079592652E+02  0.29778981793E+02  0.51100000000E-03 0. -1.
        -11    1    3    3    0    0  0.21425623791E+01  0.51756287345E+01 -0.17841728285E+01  0.58788586723E+01  0.51100000000E-03 0.  1.
        -12    1    3    3    0    0  0.20865792874E+02 -0.99104280497E+01 -0.50445581478E+01  0.23644142261E+02  0.00000000000E+00 0.  1.
</event>
<event>
 7    1  0.1220856E-011  0.5930197E+02  0.7816164E-02  0.1266605E+00
        -11   -1    0    0    0    0  0.00000000000E+00  0.00000000000E+00  0.45593999997E+02  0.45594000000E+02  0.51100000000E-03 0.  1.
         11   -1    0    0    0    0 -0.00000000000E+00 -0.00000000000E+00 -0.45593999997E+02  0.45594000000E+02  0.51100000000E-03 0. -1.
    9900012    2    1    2    0    0 -0.28672142677E+02 -0.55440064949E+01 -0.12801995284E+02  0.59301970819E+02  0.50000048860E+02 0.  0.
        -12    1    1    2    0    0  0.28672142677E+02  0.55440064949E+01  0.12801995284E+02  0.31886029181E+02  0.00000000000E+00 0.  1.
         11    1    3    3    0    0 -0.27177264372E+00  0.70960450627E+01 -0.14616279415E+02  0.16250025849E+02  0.51100000000E-03 0. -1.
        -11    1    3    3    0    0 -0.79024639448E+01 -0.57996819152E+00 -0.12861042233E+02  0.15106015593E+02  0.51100000000E-03 0.  1.
        -12    1    3    3    0    0 -0.20497906089E+02 -0.12060083366E+02  0.14675326365E+02  0.27945929377E+02  0.00000000000E+00 0.  1.
</event>
<event>
 7    1  0.1220856E-011  0.5930194E+02  0.7816164E-02  0.1266605E+00
        -11   -1    0    0    0    0  0.00000000000E+00  0.00000000000E+00  0.45593999997E+02  0.45594000000E+02  0.51100000000E-03 0. -1.
         11   -1    0    0    0    0 -0.00000000000E+00 -0.00000000000E+00 -0.45593999997E+02  0.45594000000E+02  0.51100000000E-03 0.  1.
    9900012    2    1    2    0    0  0.26583398778E+02  0.23583211138E+01  0.17449415589E+02  0.59301939198E+02  0.49999991192E+02 0.  0.
        -12    1    1    2    0    0 -0.26583398778E+02 -0.23583211138E+01 -0.17449415589E+02  0.31886060802E+02  0.00000000000E+00 0.  1.
         11    1    3    3    0    0 -0.57215406670E+01  0.60208285762E+01 -0.33167082100E+01  0.89435428080E+01  0.51100000000E-03 0. -1.
        -11    1    3    3    0    0  0.61378290216E+00 -0.12065852028E+02  0.11123905334E+01  0.12132556514E+02  0.51100000000E-03 0.  1.
         12    1    3    3    0    0  0.31691156543E+02  0.84033445657E+01  0.19653733266E+02  0.38225839876E+02  0.00000000000E+00 0. -1.
</event>
<event>
 7    1  0.1220856E-011  0.5930193E+02  0.7816164E-02  0.1266605E+00
        -11   -1    0    0    0    0  0.00000000000E+00  0.00000000000E+00  0.45593999997E+02  0.45594000000E+02  0.51100000000E-03 0.  1.
         11   -1    0    0    0    0 -0.00000000000E+00 -0.00000000000E+00 -0.45593999997E+02  0.45594000000E+02  0.51100000000E-03 0. -1.
    9900012    2    1    2    0    0  0.28839757921E+02  0.63157231636E+01 -0.12045796808E+02  0.59301933815E+02  0.49999981375E+02 0.  0.
        -12    1    1    2    0    0 -0.28839757921E+02 -0.63157231636E+01  0.12045796808E+02  0.31886066185E+02  0.00000000000E+00 0.  1.
         11    1    3    3    0    0  0.81465614822E+01 -0.43360348957E+01 -0.82274929166E+01  0.12363628212E+02  0.51100000000E-03 0. -1.
        -11    1    3    3    0    0  0.14936274145E+02  0.18302373602E+02 -0.18088691340E+02  0.29753485837E+02  0.51100000000E-03 0.  1.
         12    1    3    3    0    0  0.57569222932E+01 -0.76506155428E+01  0.14270387448E+02  0.17184819766E+02  0.00000000000E+00 0. -1.
</event>
<event>
 7    1  0.1220856E-011  0.5930195E+02  0.7816164E-02  0.1266605E+00
        -11   -1    0    0    0    0  0.00000000000E+00  0.00000000000E+00  0.45593999997E+02  0.45594000000E+02  0.51100000000E-03 0. -1.
         11   -1    0    0    0    0 -0.00000000000E+00 -0.00000000000E+00 -0.45593999997E+02  0.45594000000E+02  0.51100000000E-03 0.  1.
    9900012    2    1    2    0    0  0.72097518787E+01 -0.30149333076E+02 -0.74670689665E+01  0.59301954055E+02  0.50000018287E+02 0.  0.
        -12    1    1    2    0    0 -0.72097518787E+01  0.30149333076E+02  0.74670689665E+01  0.31886045945E+02  0.00000000000E+00 0.  1.
         11    1    3    3    0    0  0.15787217164E+02  0.69357417323E+00 -0.12576215109E+02  0.20196001031E+02  0.51100000000E-03 0. -1.
        -11    1    3    3    0    0  0.40812332002E+00  0.26986562471E+01 -0.23359406546E+01  0.35924823156E+01  0.51100000000E-03 0.  1.
        -12    1    3    3    0    0 -0.89855886050E+01 -0.33541563496E+02  0.74450867968E+01  0.35513470709E+02  0.00000000000E+00 0.  1.
</event>
<event>
 7    1  0.1220856E-011  0.5930195E+02  0.7816164E-02  0.1266605E+00
        -11   -1    0    0    0    0  0.00000000000E+00  0.00000000000E+00  0.45593999997E+02  0.45594000000E+02  0.51100000000E-03 0.  1.
         11   -1    0    0    0    0 -0.00000000000E+00 -0.00000000000E+00 -0.45593999997E+02  0.45594000000E+02  0.51100000000E-03 0. -1.
    9900012    2    1    2    0    0 -0.32254472544E+01 -0.85927305136E+01 -0.30536563591E+02  0.59301949074E+02  0.50000009204E+02 0.  0.
        -12    1    1    2    0    0  0.32254472544E+01  0.85927305136E+01  0.30536563591E+02  0.31886050926E+02  0.00000000000E+00 0.  1.
         11    1    3    3    0    0  0.63571450531E+00  0.39038411488E+01  0.58125744761E+00  0.39977455057E+01  0.51100000000E-03 0.  1.
        -11    1    3    3    0    0 -0.13928492407E+02  0.51596591221E+01 -0.31661211411E+02  0.34972236006E+02  0.51100000000E-03 0. -1.
         12    1    3    3    0    0  0.10067330647E+02 -0.17656230784E+02  0.54339037245E+00  0.20331967563E+02  0.00000000000E+00 0. -1.
</event>
<event>
 7    1  0.1220856E-011  0.5930194E+02  0.7816164E-02  0.1266605E+00
        -11   -1    0    0    0    0  0.00000000000E+00  0.00000000000E+00  0.45593999997E+02  0.45594000000E+02  0.51100000000E-03 0.  1.
         11   -1    0    0    0    0 -0.00000000000E+00 -0.00000000000E+00 -0.45593999997E+02  0.45594000000E+02  0.51100000000E-03 0. -1.
    9900012    2    1    2    0    0  0.16376706754E+02 -0.20917196777E+02 -0.17635050564E+02  0.59301942647E+02  0.49999997482E+02 0.  0.
        -12    1    1    2    0    0 -0.16376706754E+02  0.20917196777E+02  0.17635050564E+02  0.31886057353E+02  0.00000000000E+00 0.  1.
         11    1    3    3    0    0  0.13332452040E+01 -0.16329511004E+02 -0.95561723632E+01  0.18967100540E+02  0.51100000000E-03 0. -1.
        -11    1    3    3    0    0 -0.48321537850E+01 -0.94111629596E+01  0.88438946301E+01  0.13788914785E+02  0.51100000000E-03 0.  1.
        -12    1    3    3    0    0  0.19875615335E+02  0.48234771869E+01 -0.16922772831E+02  0.26545927322E+02  0.00000000000E+00 0.  1.
</event>
<event>
 7    1  0.1220856E-011  0.5930194E+02  0.7816164E-02  0.1266605E+00
        -11   -1    0    0    0    0  0.00000000000E+00  0.00000000000E+00  0.45593999997E+02  0.45594000000E+02  0.51100000000E-03 0.  1.
         11   -1    0    0    0    0 -0.00000000000E+00 -0.00000000000E+00 -0.45593999997E+02  0.45594000000E+02  0.51100000000E-03 0. -1.
    9900012    2    1    2    0    0  0.48043665128E+01 -0.25828892132E+02  0.18069503646E+02  0.59301943982E+02  0.49999999917E+02 0.  0.
        -12    1    1    2    0    0 -0.48043665128E+01  0.25828892132E+02 -0.18069503646E+02  0.31886056018E+02  0.00000000000E+00 0.  1.
         11    1    3    3    0    0 -0.23055410793E+01  0.28789890594E+01 -0.25805147780E+01  0.45014613686E+01  0.51100000000E-03 0. -1.
        -11    1    3    3    0    0 -0.16974602218E+02 -0.14122111780E+02  0.52067984235E+01  0.22686602030E+02  0.51100000000E-03 0.  1.
         12    1    3    3    0    0  0.24084509811E+02 -0.14585769412E+02  0.15443220000E+02  0.32113880583E+02  0.00000000000E+00 0. -1.
</event>
<event>
 7    1  0.1220856E-011  0.5930190E+02  0.7816164E-02  0.1266605E+00
        -11   -1    0    0    0    0  0.00000000000E+00  0.00000000000E+00  0.45593999997E+02  0.45594000000E+02  0.51100000000E-03 0. -1.
         11   -1    0    0    0    0 -0.00000000000E+00 -0.00000000000E+00 -0.45593999997E+02  0.45594000000E+02  0.51100000000E-03 0.  1.
    9900012    2    1    2    0    0 -0.73411119376E+01 -0.62649033610E+01  0.30390498354E+02  0.59301900696E+02  0.49999920973E+02 0.  0.
        -12    1    1    2    0    0  0.73411119376E+01  0.62649033610E+01 -0.30390498354E+02  0.31886099304E+02  0.00000000000E+00 0.  1.
         11    1    3    3    0    0 -0.28640590789E+01 -0.99985314556E+01 -0.53544741181E+01  0.11698027997E+02  0.51100000000E-03 0. -1.
        -11    1    3    3    0    0  0.93375703152E+01 -0.72688196598E+01  0.66649266527E+01  0.13581134201E+02  0.51100000000E-03 0.  1.
         12    1    3    3    0    0 -0.13814623174E+02  0.11002447754E+02  0.29080045820E+02  0.34022738498E+02  0.00000000000E+00 0. -1.
</event>
<event>
 7    1  0.1220856E-011  0.5930196E+02  0.7816164E-02  0.1266605E+00
        -11   -1    0    0    0    0  0.00000000000E+00  0.00000000000E+00  0.45593999997E+02  0.45594000000E+02  0.51100000000E-03 0.  1.
         11   -1    0    0    0    0 -0.00000000000E+00 -0.00000000000E+00 -0.45593999997E+02  0.45594000000E+02  0.51100000000E-03 0. -1.
    9900012    2    1    2    0    0  0.21475289498E+02 -0.15385019012E+02 -0.17855877735E+02  0.59301964833E+02  0.50000037943E+02 0.  0.
        -12    1    1    2    0    0 -0.21475289498E+02  0.15385019012E+02  0.17855877735E+02  0.31886035167E+02  0.00000000000E+00 0.  1.
         11    1    3    3    0    0  0.98105612686E+01  0.23195097315E+01 -0.24760261028E+01  0.10380652355E+02  0.51100000000E-03 0. -1.
        -11    1    3    3    0    0  0.10140776876E+02  0.86698631646E+01 -0.17964396537E+02  0.22376805539E+02  0.51100000000E-03 0.  1.
         12    1    3    3    0    0  0.15239513530E+01 -0.26374391908E+02  0.25845449046E+01  0.26544506938E+02  0.00000000000E+00 0. -1.
</event>
<event>
 7    1  0.1220856E-011  0.5930184E+02  0.7816164E-02  0.1266605E+00
        -11   -1    0    0    0    0  0.00000000000E+00  0.00000000000E+00  0.45593999997E+02  0.45594000000E+02  0.51100000000E-03 0. -1.
         11   -1    0    0    0    0 -0.00000000000E+00 -0.00000000000E+00 -0.45593999997E+02  0.45594000000E+02  0.51100000000E-03 0.  1.
    9900012    2    1    2    0    0  0.11474591485E+02 -0.20667432116E+02  0.21399023818E+02  0.59301839673E+02  0.49999809682E+02 0.  0.
        -12    1    1    2    0    0 -0.11474591485E+02  0.20667432116E+02 -0.21399023818E+02  0.31886160327E+02  0.00000000000E+00 0.  1.
         11    1    3    3    0    0  0.10541351918E+02 -0.12293098961E+01 -0.16265455385E+01  0.10736710564E+02  0.51100000000E-03 0. -1.
        -11    1    3    3    0    0  0.35321683515E-01 -0.28457663846E+02  0.57161712497E+01  0.29026100207E+02  0.51100000000E-03 0.  1.
         12    1    3    3    0    0  0.89791788330E+00  0.90195416258E+01  0.17309398106E+02  0.19539028903E+02  0.00000000000E+00 0. -1.
</event>
<event>
 7    1  0.1220856E-011  0.5930192E+02  0.7816164E-02  0.1266605E+00
        -11   -1    0    0    0    0  0.00000000000E+00  0.00000000000E+00  0.45593999997E+02  0.45594000000E+02  0.51100000000E-03 0.  1.
         11   -1    0    0    0    0 -0.00000000000E+00 -0.00000000000E+00 -0.45593999997E+02  0.45594000000E+02  0.51100000000E-03 0. -1.
    9900012    2    1    2    0    0 -0.75323845073E+01 -0.30983174327E+02 -0.16789834314E+00  0.59301920002E+02  0.49999956183E+02 0.  0.
        -12    1    1    2    0    0  0.75323845073E+01  0.30983174327E+02  0.16789834314E+00  0.31886079998E+02  0.00000000000E+00 0.  1.
         11    1    3    3    0    0  0.69535858715E+01 -0.62712237727E+01 -0.17959384955E+02  0.20253891288E+02  0.51100000000E-03 0. -1.
        -11    1    3    3    0    0 -0.12362421151E+00 -0.75137083549E+01  0.14593067438E+02  0.16414283832E+02  0.51100000000E-03 0.  1.
        -12    1    3    3    0    0 -0.14362346167E+02 -0.17198242200E+02  0.31984191740E+01  0.22633744882E+02  0.00000000000E+00 0.  1.
</event>
<event>
 7    1  0.1220856E-011  0.5930195E+02  0.7816164E-02  0.1266605E+00
        -11   -1    0    0    0    0  0.00000000000E+00  0.00000000000E+00  0.45593999997E+02  0.45594000000E+02  0.51100000000E-03 0.  1.
         11   -1    0    0    0    0 -0.00000000000E+00 -0.00000000000E+00 -0.45593999997E+02  0.45594000000E+02  0.51100000000E-03 0. -1.
    9900012    2    1    2    0    0  0.82012009243E+01  0.29343993198E+02 -0.94016117181E+01  0.59301953893E+02  0.50000017992E+02 0.  0.
        -12    1    1    2    0    0 -0.82012009243E+01 -0.29343993198E+02  0.94016117181E+01  0.31886046107E+02  0.00000000000E+00 0.  1.
         11    1    3    3    0    0  0.14606506023E+01 -0.24065950297E+01  0.25377680591E+01  0.37901803126E+01  0.51100000000E-03 0. -1.
        -11    1    3    3    0    0 -0.14130601502E+02  0.27007923815E+01  0.58888855999E+01  0.15545004090E+02  0.51100000000E-03 0.  1.
         12    1    3    3    0    0  0.20871151824E+02  0.29049795847E+02 -0.17828265377E+02  0.39966769491E+02  0.00000000000E+00 0. -1.
</event>
<event>
 7    1  0.1220856E-011  0.5930194E+02  0.7816164E-02  0.1266605E+00
        -11   -1    0    0    0    0  0.00000000000E+00  0.00000000000E+00  0.45593999997E+02  0.45594000000E+02  0.51100000000E-03 0.  1.
         11   -1    0    0    0    0 -0.00000000000E+00 -0.00000000000E+00 -0.45593999997E+02  0.45594000000E+02  0.51100000000E-03 0. -1.
    9900012    2    1    2    0    0 -0.19435908262E+02 -0.18309474090E+02 -0.17427828800E+02  0.59301943673E+02  0.49999999353E+02 0.  0.
        -12    1    1    2    0    0  0.19435908262E+02  0.18309474090E+02  0.17427828800E+02  0.31886056327E+02  0.00000000000E+00 0.  1.
         11    1    3    3    0    0 -0.12238500791E+02 -0.21563200609E+02 -0.16374874972E+02  0.29713449021E+02  0.51100000000E-03 0. -1.
        -11    1    3    3    0    0 -0.53087888326E+01 -0.47188650811E+01 -0.13168897963E+02  0.14962312667E+02  0.51100000000E-03 0.  1.
        -12    1    3    3    0    0 -0.18886186387E+01  0.79725915996E+01  0.12115944135E+02  0.14626181985E+02  0.00000000000E+00 0.  1.
</event>
<event>
 7    1  0.1220856E-011  0.5930197E+02  0.7816164E-02  0.1266605E+00
        -11   -1    0    0    0    0  0.00000000000E+00  0.00000000000E+00  0.45593999997E+02  0.45594000000E+02  0.51100000000E-03 0. -1.
         11   -1    0    0    0    0 -0.00000000000E+00 -0.00000000000E+00 -0.45593999997E+02  0.45594000000E+02  0.51100000000E-03 0.  1.
    9900012    2    1    2    0    0  0.10797313554E+02 -0.27598406385E+02  0.11767124149E+02  0.59301965036E+02  0.50000038314E+02 0.  0.
        -12    1    1    2    0    0 -0.10797313554E+02  0.27598406385E+02 -0.11767124149E+02  0.31886034964E+02  0.00000000000E+00 0.  1.
         11    1    3    3    0    0  0.15781057044E+02 -0.33539954399E+02  0.13603301975E+02  0.39484428924E+02  0.51100000000E-03 0. -1.
        -11    1    3    3    0    0 -0.28526227387E+01 -0.55534018241E+01  0.32844433839E+01  0.70544522759E+01  0.51100000000E-03 0.  1.
         12    1    3    3    0    0 -0.21311207519E+01  0.11494949838E+02 -0.51206212102E+01  0.12763083837E+02  0.00000000000E+00 0. -1.
</event>
<event>
 7    1  0.1220856E-011  0.5930193E+02  0.7816164E-02  0.1266605E+00
        -11   -1    0    0    0    0  0.00000000000E+00  0.00000000000E+00  0.45593999997E+02  0.45594000000E+02  0.51100000000E-03 0.  1.
         11   -1    0    0    0    0 -0.00000000000E+00 -0.00000000000E+00 -0.45593999997E+02  0.45594000000E+02  0.51100000000E-03 0. -1.
    9900012    2    1    2    0    0  0.33816759168E+01  0.31126740603E+02  0.60341952854E+01  0.59301933681E+02  0.49999981130E+02 0.  0.
        -12    1    1    2    0    0 -0.33816759168E+01 -0.31126740603E+02 -0.60341952854E+01  0.31886066319E+02  0.00000000000E+00 0.  1.
         11    1    3    3    0    0  0.12507247452E+02  0.27929135416E+02 -0.45679982130E+01  0.30940821771E+02  0.51100000000E-03 0. -1.
        -11    1    3    3    0    0  0.76339386756E+01  0.50973159890E+01  0.56644938741E+01  0.10786386842E+02  0.51100000000E-03 0.  1.
         12    1    3    3    0    0 -0.16759510211E+02 -0.18997108026E+01  0.49376996242E+01  0.17574725068E+02  0.00000000000E+00 0. -1.
</event>
<event>
 7    1  0.1220856E-011  0.5930191E+02  0.7816164E-02  0.1266605E+00
        -11   -1    0    0    0    0  0.00000000000E+00  0.00000000000E+00  0.45593999997E+02  0.45594000000E+02  0.51100000000E-03 0.  1.
         11   -1    0    0    0    0 -0.00000000000E+00 -0.00000000000E+00 -0.45593999997E+02  0.45594000000E+02  0.51100000000E-03 0. -1.
    9900012    2    1    2    0    0  0.72746973701E+01 -0.35474835299E+01 -0.30841803797E+02  0.59301910201E+02  0.49999938309E+02 0.  0.
        -12    1    1    2    0    0 -0.72746973701E+01  0.35474835299E+01  0.30841803797E+02  0.31886089799E+02  0.00000000000E+00 0.  1.
         11    1    3    3    0    0 -0.41670043453E+01 -0.84969957644E+00 -0.17009502852E+02  0.17533085927E+02  0.51100000000E-03 0. -1.
        -11    1    3    3    0    0  0.11216596735E+02 -0.64315576068E+00 -0.26578805941E+02  0.28855824666E+02  0.51100000000E-03 0.  1.
        -12    1    3    3    0    0  0.22510498083E+00 -0.20546281928E+01  0.12746504996E+02  0.12912999608E+02  0.00000000000E+00 0.  1.
</event>
<event>
 7    1  0.1220856E-011  0.5930199E+02  0.7816164E-02  0.1266605E+00
        -11   -1    0    0    0    0  0.00000000000E+00  0.00000000000E+00  0.45593999997E+02  0.45594000000E+02  0.51100000000E-03 0. -1.
         11   -1    0    0    0    0 -0.00000000000E+00 -0.00000000000E+00 -0.45593999997E+02  0.45594000000E+02  0.51100000000E-03 0.  1.
    9900012    2    1    2    0    0  0.27644169746E+02 -0.12028264861E+01  0.15845216310E+02  0.59301987512E+02  0.50000079304E+02 0.  0.
        -12    1    1    2    0    0 -0.27644169746E+02  0.12028264861E+01 -0.15845216310E+02  0.31886012488E+02  0.00000000000E+00 0.  1.
         11    1    3    3    0    0  0.11325551279E+02 -0.74246655871E-01  0.19225965797E+02  0.22313928059E+02  0.51100000000E-03 0. -1.
        -11    1    3    3    0    0  0.16428580550E+02 -0.14264778294E+02  0.36920783798E+01  0.22068384665E+02  0.51100000000E-03 0.  1.
         12    1    3    3    0    0 -0.10996208337E+00  0.13136198464E+02 -0.70728278664E+01  0.14919674788E+02  0.00000000000E+00 0. -1.
</event>
<event>
 7    1  0.1220856E-011  0.5930192E+02  0.7816164E-02  0.1266605E+00
        -11   -1    0    0    0    0  0.00000000000E+00  0.00000000000E+00  0.45593999997E+02  0.45594000000E+02  0.51100000000E-03 0.  1.
         11   -1    0    0    0    0 -0.00000000000E+00 -0.00000000000E+00 -0.45593999997E+02  0.45594000000E+02  0.51100000000E-03 0. -1.
    9900012    2    1    2    0    0  0.21990555495E+02  0.74836163582E+01 -0.21843374923E+02  0.59301920391E+02  0.49999956893E+02 0.  0.
        -12    1    1    2    0    0 -0.21990555495E+02 -0.74836163582E+01  0.21843374923E+02  0.31886079609E+02  0.00000000000E+00 0.  1.
         11    1    3    3    0    0  0.10074335056E+02 -0.13517890327E+02 -0.85946995572E+01  0.18923383588E+02  0.51100000000E-03 0.  1.
        -11    1    3    3    0    0 -0.43611839629E+01 -0.81199771847E+00 -0.12376202449E+02  0.13147229867E+02  0.51100000000E-03 0. -1.
        -12    1    3    3    0    0  0.16277404402E+02  0.21813504403E+02 -0.87247291655E+00  0.27231306936E+02  0.00000000000E+00 0.  1.
</event>
<event>
 7    1  0.1220856E-011  0.5930196E+02  0.7816164E-02  0.1266605E+00
        -11   -1    0    0    0    0  0.00000000000E+00  0.00000000000E+00  0.45593999997E+02  0.45594000000E+02  0.51100000000E-03 0.  1.
         11   -1    0    0    0    0 -0.00000000000E+00 -0.00000000000E+00 -0.45593999997E+02  0.45594000000E+02  0.51100000000E-03 0. -1.
    9900012    2    1    2    0    0 -0.20780536694E+02  0.19447251838E+02 -0.14376840136E+02  0.59301955378E+02  0.50000020700E+02 0.  0.
        -12    1    1    2    0    0  0.20780536694E+02 -0.19447251838E+02  0.14376840136E+02  0.31886044622E+02  0.00000000000E+00 0.  1.
         11    1    3    3    0    0  0.67416567082E+00 -0.89660680333E+00 -0.26393525716E+02  0.26417354203E+02  0.51100000000E-03 0.  1.
        -11    1    3    3    0    0 -0.74549986235E+01  0.68749874151E+01  0.19386250392E+00  0.10142979807E+02  0.51100000000E-03 0. -1.
        -12    1    3    3    0    0 -0.13999703741E+02  0.13468871227E+02  0.11822823076E+02  0.22741621368E+02  0.00000000000E+00 0.  1.
</event>
<event>
 7    1  0.1220856E-011  0.5930195E+02  0.7816164E-02  0.1266605E+00
        -11   -1    0    0    0    0  0.00000000000E+00  0.00000000000E+00  0.45593999997E+02  0.45594000000E+02  0.51100000000E-03 0. -1.
         11   -1    0    0    0    0 -0.00000000000E+00 -0.00000000000E+00 -0.45593999997E+02  0.45594000000E+02  0.51100000000E-03 0.  1.
    9900012    2    1    2    0    0  0.31875249378E+02  0.60986256525E-01 -0.82772850984E+00  0.59301946987E+02  0.50000005398E+02 0.  0.
        -12    1    1    2    0    0 -0.31875249378E+02 -0.60986256525E-01  0.82772850984E+00  0.31886053013E+02  0.00000000000E+00 0.  1.
         11    1    3    3    0    0  0.11742619990E+02  0.62029211481E+01  0.33183525090E+01  0.13688565251E+02  0.51100000000E-03 0. -1.
        -11    1    3    3    0    0  0.31908715925E+02  0.47392204505E+00 -0.26012154840E+01  0.32018074213E+02  0.51100000000E-03 0.  1.
        -12    1    3    3    0    0 -0.11776086537E+02 -0.66158569366E+01 -0.15448655348E+01  0.13595307523E+02  0.00000000000E+00 0.  1.
</event>
<event>
 7    1  0.1220856E-011  0.5930194E+02  0.7816164E-02  0.1266605E+00
        -11   -1    0    0    0    0  0.00000000000E+00  0.00000000000E+00  0.45593999997E+02  0.45594000000E+02  0.51100000000E-03 0. -1.
         11   -1    0    0    0    0 -0.00000000000E+00 -0.00000000000E+00 -0.45593999997E+02  0.45594000000E+02  0.51100000000E-03 0.  1.
    9900012    2    1    2    0    0  0.86381738254E+01  0.15029945393E+01  0.30656867154E+02  0.59301944375E+02  0.50000000633E+02 0.  0.
        -12    1    1    2    0    0 -0.86381738254E+01 -0.15029945393E+01 -0.30656867154E+02  0.31886055625E+02  0.00000000000E+00 0.  1.
         11    1    3    3    0    0  0.10443999866E+02  0.13500391118E+02  0.23503074801E+01  0.17229673214E+02  0.51100000000E-03 0. -1.
        -11    1    3    3    0    0 -0.24182777398E+00 -0.72998571790E+00 -0.59380991675E+01  0.59876858472E+01  0.51100000000E-03 0.  1.
        -12    1    3    3    0    0 -0.15639982668E+01 -0.11267410861E+02  0.34244658842E+02  0.36084585314E+02  0.00000000000E+00 0.  1.
</event>
<event>
 7    1  0.1220856E-011  0.5930197E+02  0.7816164E-02  0.1266605E+00
        -11   -1    0    0    0    0  0.00000000000E+00  0.00000000000E+00  0.45593999997E+02  0.45594000000E+02  0.51100000000E-03 0.  1.
         11   -1    0    0    0    0 -0.00000000000E+00 -0.00000000000E+00 -0.45593999997E+02  0.45594000000E+02  0.51100000000E-03 0. -1.
    9900012    2    1    2    0    0 -0.38190042836E+00 -0.73238151967E+01 -0.31031193655E+02  0.59301967061E+02  0.50000042006E+02 0.  0.
        -12    1    1    2    0    0  0.38190042836E+00  0.73238151967E+01  0.31031193655E+02  0.31886032939E+02  0.00000000000E+00 0.  1.
         11    1    3    3    0    0 -0.41648935312E+01 -0.11118023947E+02 -0.66333927531E+01  0.13599951996E+02  0.51100000000E-03 0. -1.
        -11    1    3    3    0    0 -0.45553520198E+01  0.13537428238E+02  0.37526972553E+01  0.14768071380E+02  0.51100000000E-03 0.  1.
        -12    1    3    3    0    0  0.83383451227E+01 -0.97432194876E+01 -0.28150498157E+02  0.30933943684E+02  0.00000000000E+00 0.  1.
</event>
<event>
 7    1  0.1220856E-011  0.5930195E+02  0.7816164E-02  0.1266605E+00
        -11   -1    0    0    0    0  0.00000000000E+00  0.00000000000E+00  0.45593999997E+02  0.45594000000E+02  0.51100000000E-03 0.  1.
         11   -1    0    0    0    0 -0.00000000000E+00 -0.00000000000E+00 -0.45593999997E+02  0.45594000000E+02  0.51100000000E-03 0. -1.
    9900012    2    1    2    0    0 -0.26725092469E+02 -0.13485210077E+02 -0.10983577112E+02  0.59301946239E+02  0.50000004033E+02 0.  0.
        -12    1    1    2    0    0  0.26725092469E+02  0.13485210077E+02  0.10983577112E+02  0.31886053761E+02  0.00000000000E+00 0.  1.
         11    1    3    3    0    0 -0.75379014561E+00  0.50301957485E+01 -0.15488922110E+02  0.16302692331E+02  0.51100000000E-03 0. -1.
        -11    1    3    3    0    0 -0.13212204822E+02  0.63503158714E+01  0.32954134101E+01  0.15024933202E+02  0.51100000000E-03 0.  1.
         12    1    3    3    0    0 -0.12759097501E+02 -0.24865721696E+02  0.12099315882E+01  0.27974320706E+02  0.00000000000E+00 0. -1.
</event>
<event>
 7    1  0.1220856E-011  0.5930191E+02  0.7816164E-02  0.1266605E+00
        -11   -1    0    0    0    0  0.00000000000E+00  0.00000000000E+00  0.45593999997E+02  0.45594000000E+02  0.51100000000E-03 0. -1.
         11   -1    0    0    0    0 -0.00000000000E+00 -0.00000000000E+00 -0.45593999997E+02  0.45594000000E+02  0.51100000000E-03 0.  1.
    9900012    2    1    2    0    0 -0.14258204552E+02 -0.10275935555E+02  0.26605097966E+02  0.59301913907E+02  0.49999945066E+02 0.  0.
        -12    1    1    2    0    0  0.14258204552E+02  0.10275935555E+02 -0.26605097966E+02  0.31886086093E+02  0.00000000000E+00 0.  1.
         11    1    3    3    0    0  0.19073500148E+01 -0.13886695344E+02  0.15797567358E+02  0.21119692857E+02  0.51100000000E-03 0. -1.
        -11    1    3    3    0    0 -0.16870645818E+02 -0.11980299702E+02  0.86493437200E+01  0.22426712160E+02  0.51100000000E-03 0.  1.
        -12    1    3    3    0    0  0.70509125095E+00  0.15591059491E+02  0.21581868874E+01  0.15755508890E+02  0.00000000000E+00 0.  1.
</event>
<event>
 7    1  0.1220856E-011  0.5930195E+02  0.7816164E-02  0.1266605E+00
        -11   -1    0    0    0    0  0.00000000000E+00  0.00000000000E+00  0.45593999997E+02  0.45594000000E+02  0.51100000000E-03 0.  1.
         11   -1    0    0    0    0 -0.00000000000E+00 -0.00000000000E+00 -0.45593999997E+02  0.45594000000E+02  0.51100000000E-03 0. -1.
    9900012    2    1    2    0    0  0.32886669660E+01 -0.17245761709E+02 -0.26617444716E+02  0.59301953043E+02  0.50000016443E+02 0.  0.
        -12    1    1    2    0    0 -0.32886669660E+01  0.17245761709E+02  0.26617444716E+02  0.31886046957E+02  0.00000000000E+00 0.  1.
         11    1    3    3    0    0 -0.62917504642E+01  0.62357029012E+01 -0.55948942156E+01  0.10477258998E+02  0.51100000000E-03 0.  1.
        -11    1    3    3    0    0  0.15125427648E+02 -0.75665177280E+00 -0.20423113232E+02  0.25425472224E+02  0.51100000000E-03 0. -1.
         12    1    3    3    0    0 -0.55450102181E+01 -0.22724812837E+02 -0.59943726787E+00  0.23399221821E+02  0.00000000000E+00 0. -1.
</event>
<event>
 7    1  0.1220856E-011  0.5930195E+02  0.7816164E-02  0.1266605E+00
        -11   -1    0    0    0    0  0.00000000000E+00  0.00000000000E+00  0.45593999997E+02  0.45594000000E+02  0.51100000000E-03 0. -1.
         11   -1    0    0    0    0 -0.00000000000E+00 -0.00000000000E+00 -0.45593999997E+02  0.45594000000E+02  0.51100000000E-03 0.  1.
    9900012    2    1    2    0    0 -0.21659869056E+02 -0.10075955124E+02  0.21119782770E+02  0.59301952527E+02  0.50000015501E+02 0.  0.
        -12    1    1    2    0    0  0.21659869056E+02  0.10075955124E+02 -0.21119782770E+02  0.31886047473E+02  0.00000000000E+00 0.  1.
         11    1    3    3    0    0 -0.88759141545E+01 -0.18550158222E+02  0.25203862164E+02  0.32528831678E+02  0.51100000000E-03 0. -1.
        -11    1    3    3    0    0 -0.68626742962E+01 -0.90717346454E+00  0.78587086912E+01  0.10472753446E+02  0.51100000000E-03 0.  1.
        -12    1    3    3    0    0 -0.59212806053E+01  0.93813765622E+01 -0.11942788085E+02  0.16300367403E+02  0.00000000000E+00 0.  1.
</event>
<event>
 7    1  0.1220856E-011  0.5930195E+02  0.7816164E-02  0.1266605E+00
        -11   -1    0    0    0    0  0.00000000000E+00  0.00000000000E+00  0.45593999997E+02  0.45594000000E+02  0.51100000000E-03 0.  1.
         11   -1    0    0    0    0 -0.00000000000E+00 -0.00000000000E+00 -0.45593999997E+02  0.45594000000E+02  0.51100000000E-03 0. -1.
    9900012    2    1    2    0    0  0.31675575540E+02 -0.25978204654E+01  0.25747613937E+01  0.59301950492E+02  0.50000011790E+02 0.  0.
        -12    1    1    2    0    0 -0.31675575540E+02  0.25978204654E+01 -0.25747613937E+01  0.31886049508E+02  0.00000000000E+00 0.  1.
         11    1    3    3    0    0  0.28000938451E+02 -0.99406271006E+01  0.64288916000E-01  0.29713174765E+02  0.51100000000E-03 0. -1.
        -11    1    3    3    0    0  0.28012097277E+01 -0.10704626183E+02  0.31635379646E+01  0.11508421715E+02  0.51100000000E-03 0.  1.
         12    1    3    3    0    0  0.87342736100E+00  0.18047432818E+02 -0.65306548692E+00  0.18080354012E+02  0.00000000000E+00 0. -1.
</event>
<event>
 7    1  0.1220856E-011  0.5930197E+02  0.7816164E-02  0.1266605E+00
        -11   -1    0    0    0    0  0.00000000000E+00  0.00000000000E+00  0.45593999997E+02  0.45594000000E+02  0.51100000000E-03 0.  1.
         11   -1    0    0    0    0 -0.00000000000E+00 -0.00000000000E+00 -0.45593999997E+02  0.45594000000E+02  0.51100000000E-03 0. -1.
    9900012    2    1    2    0    0  0.10472409701E+02  0.24839724280E+02 -0.17030424373E+02  0.59301974509E+02  0.50000055591E+02 0.  0.
        -12    1    1    2    0    0 -0.10472409701E+02 -0.24839724280E+02  0.17030424373E+02  0.31886025491E+02  0.00000000000E+00 0.  1.
         11    1    3    3    0    0 -0.39825483957E+01 -0.29112142258E+01 -0.14589925371E+02  0.15401356518E+02  0.51100000000E-03 0. -1.
        -11    1    3    3    0    0 -0.41536457829E+01  0.15634187528E+02 -0.11573173188E+02  0.19890171715E+02  0.51100000000E-03 0.  1.
        -12    1    3    3    0    0  0.18608603880E+02  0.12116750978E+02  0.91326741858E+01  0.24010446277E+02  0.00000000000E+00 0.  1.
</event>
<event>
 7    1  0.1220856E-011  0.5930186E+02  0.7816164E-02  0.1266605E+00
        -11   -1    0    0    0    0  0.00000000000E+00  0.00000000000E+00  0.45593999997E+02  0.45594000000E+02  0.51100000000E-03 0. -1.
         11   -1    0    0    0    0 -0.00000000000E+00 -0.00000000000E+00 -0.45593999997E+02  0.45594000000E+02  0.51100000000E-03 0.  1.
    9900012    2    1    2    0    0  0.29061441755E+02 -0.86058816166E+01  0.99044078360E+01  0.59301860537E+02  0.49999847733E+02 0.  0.
        -12    1    1    2    0    0 -0.29061441755E+02  0.86058816166E+01 -0.99044078360E+01  0.31886139463E+02  0.00000000000E+00 0.  1.
         11    1    3    3    0    0  0.18065662854E+02  0.97460616481E+01  0.28955414062E+01  0.20730124271E+02  0.51100000000E-03 0. -1.
        -11    1    3    3    0    0 -0.39535901718E+01  0.59617010677E+01  0.70303480959E+01  0.10029882825E+02  0.51100000000E-03 0.  1.
        -12    1    3    3    0    0  0.14949369073E+02 -0.24313644332E+02 -0.21481666104E-01  0.28541853441E+02  0.00000000000E+00 0.  1.
</event>
<event>
 7    1  0.1220856E-011  0.5930191E+02  0.7816164E-02  0.1266605E+00
        -11   -1    0    0    0    0  0.00000000000E+00  0.00000000000E+00  0.45593999997E+02  0.45594000000E+02  0.51100000000E-03 0.  1.
         11   -1    0    0    0    0 -0.00000000000E+00 -0.00000000000E+00 -0.45593999997E+02  0.45594000000E+02  0.51100000000E-03 0. -1.
    9900012    2    1    2    0    0  0.15138444425E+02  0.46682355039E+01 -0.27672329476E+02  0.59301909914E+02  0.49999937784E+02 0.  0.
        -12    1    1    2    0    0 -0.15138444425E+02 -0.46682355039E+01  0.27672329476E+02  0.31886090086E+02  0.00000000000E+00 0.  1.
         11    1    3    3    0    0  0.16035148216E+02 -0.38998020133E+01  0.49900434230E+01  0.17240503696E+02  0.51100000000E-03 0. -1.
        -11    1    3    3    0    0  0.21655531873E+01  0.10638585869E+01  0.39139422001E+01  0.45978646681E+01  0.51100000000E-03 0.  1.
         12    1    3    3    0    0 -0.30622569782E+01  0.75041789303E+01 -0.36576315099E+02  0.37463541550E+02  0.00000000000E+00 0. -1.
</event>
<event>
 7    1  0.1220856E-011  0.5930208E+02  0.7816164E-02  0.1266604E+00
        -11   -1    0    0    0    0  0.00000000000E+00  0.00000000000E+00  0.45593999997E+02  0.45594000000E+02  0.51100000000E-03 0.  1.
         11   -1    0    0    0    0 -0.00000000000E+00 -0.00000000000E+00 -0.45593999997E+02  0.45594000000E+02  0.51100000000E-03 0. -1.
    9900012    2    1    2    0    0  0.19637277966E+02  0.28737564464E+01 -0.24956571676E+02  0.59302084115E+02  0.50000255484E+02 0.  0.
        -12    1    1    2    0    0 -0.19637277966E+02 -0.28737564464E+01  0.24956571676E+02  0.31885915885E+02  0.00000000000E+00 0.  1.
         11    1    3    3    0    0  0.20079335442E+02  0.15627278699E+02 -0.17556240321E+01  0.25504387218E+02  0.51100000000E-03 0. -1.
        -11    1    3    3    0    0 -0.94154001473E+01 -0.19954114729E+01 -0.50491320039E+01  0.10868539973E+02  0.51100000000E-03 0.  1.
        -12    1    3    3    0    0  0.89733426712E+01 -0.10758110780E+02 -0.18151815640E+02  0.22929156924E+02  0.00000000000E+00 0.  1.
</event>
<event>
 7    1  0.1220856E-011  0.5930199E+02  0.7816164E-02  0.1266605E+00
        -11   -1    0    0    0    0  0.00000000000E+00  0.00000000000E+00  0.45593999997E+02  0.45594000000E+02  0.51100000000E-03 0.  1.
         11   -1    0    0    0    0 -0.00000000000E+00 -0.00000000000E+00 -0.45593999997E+02  0.45594000000E+02  0.51100000000E-03 0. -1.
    9900012    2    1    2    0    0 -0.12785122488E+02 -0.28099928811E+02 -0.79782496988E+01  0.59301987009E+02  0.50000078387E+02 0.  0.
        -12    1    1    2    0    0  0.12785122488E+02  0.28099928811E+02  0.79782496988E+01  0.31886012991E+02  0.00000000000E+00 0.  1.
         11    1    3    3    0    0  0.34178791366E+01  0.13906631023E+01 -0.18435625937E+01  0.41248715076E+01  0.51100000000E-03 0. -1.
        -11    1    3    3    0    0  0.80583647973E+01 -0.23494583810E+02  0.84562890344E+01  0.26238169450E+02  0.51100000000E-03 0.  1.
        -12    1    3    3    0    0 -0.24261366422E+02 -0.59960081037E+01 -0.14590976139E+02  0.28938946051E+02  0.00000000000E+00 0.  1.
</event>
<event>
 7    1  0.1220856E-011  0.5930194E+02  0.7816164E-02  0.1266605E+00
        -11   -1    0    0    0    0  0.00000000000E+00  0.00000000000E+00  0.45593999997E+02  0.45594000000E+02  0.51100000000E-03 0. -1.
         11   -1    0    0    0    0 -0.00000000000E+00 -0.00000000000E+00 -0.45593999997E+02  0.45594000000E+02  0.51100000000E-03 0.  1.
    9900012    2    1    2    0    0 -0.29423320435E+02  0.60754617514E+01 -0.10680720256E+02  0.59301940254E+02  0.49999993118E+02 0.  0.
        -12    1    1    2    0    0  0.29423320435E+02 -0.60754617514E+01  0.10680720256E+02  0.31886059746E+02  0.00000000000E+00 0.  1.
         11    1    3    3    0    0 -0.13142012492E+02 -0.80310394777E+01 -0.18292877713E+01  0.15509880124E+02  0.51100000000E-03 0. -1.
        -11    1    3    3    0    0  0.76571039632E+01 -0.46111724539E+01 -0.99621785821E+01  0.13384287611E+02  0.51100000000E-03 0.  1.
         12    1    3    3    0    0 -0.23938411906E+02  0.18717673683E+02  0.11107460978E+01  0.30407772519E+02  0.00000000000E+00 0. -1.
</event>
<event>
 7    1  0.1220856E-011  0.5930196E+02  0.7816164E-02  0.1266605E+00
        -11   -1    0    0    0    0  0.00000000000E+00  0.00000000000E+00  0.45593999997E+02  0.45594000000E+02  0.51100000000E-03 0.  1.
         11   -1    0    0    0    0 -0.00000000000E+00 -0.00000000000E+00 -0.45593999997E+02  0.45594000000E+02  0.51100000000E-03 0. -1.
    9900012    2    1    2    0    0 -0.18626964182E+02 -0.17357594405E+02  0.19195566214E+02  0.59301958533E+02  0.50000026455E+02 0.  0.
        -12    1    1    2    0    0  0.18626964182E+02  0.17357594405E+02 -0.19195566214E+02  0.31886041467E+02  0.00000000000E+00 0.  1.
         11    1    3    3    0    0 -0.18762471737E+02  0.86908991035E+01  0.42099140669E+01  0.21101787830E+02  0.51100000000E-03 0. -1.
        -11    1    3    3    0    0 -0.35157122590E+01 -0.15548990408E+02  0.20355453021E+02  0.25854899020E+02  0.51100000000E-03 0.  1.
        -12    1    3    3    0    0  0.36512198147E+01 -0.10499503101E+02 -0.53698008742E+01  0.12345271683E+02  0.00000000000E+00 0.  1.
</event>
<event>
 7    1  0.1220856E-011  0.5930194E+02  0.7816164E-02  0.1266605E+00
        -11   -1    0    0    0    0  0.00000000000E+00  0.00000000000E+00  0.45593999997E+02  0.45594000000E+02  0.51100000000E-03 0.  1.
         11   -1    0    0    0    0 -0.00000000000E+00 -0.00000000000E+00 -0.45593999997E+02  0.45594000000E+02  0.51100000000E-03 0. -1.
    9900012    2    1    2    0    0 -0.25518181597E+02  0.15509068765E+02 -0.11180869416E+02  0.59301942752E+02  0.49999997673E+02 0.  0.
        -12    1    1    2    0    0  0.25518181597E+02 -0.15509068765E+02  0.11180869416E+02  0.31886057248E+02  0.00000000000E+00 0.  1.
         11    1    3    3    0    0 -0.14580732662E+02  0.72036351629E+01 -0.11701823374E+02  0.20035538302E+02  0.51100000000E-03 0. -1.
        -11    1    3    3    0    0 -0.17506291787E+02 -0.89724783175E+01  0.48947450991E+01  0.20271510776E+02  0.51100000000E-03 0.  1.
        -12    1    3    3    0    0  0.65688428524E+01  0.17277911920E+02 -0.43737911413E+01  0.18994893674E+02  0.00000000000E+00 0.  1.
</event>
<event>
 7    1  0.1220856E-011  0.5930197E+02  0.7816164E-02  0.1266605E+00
        -11   -1    0    0    0    0  0.00000000000E+00  0.00000000000E+00  0.45593999997E+02  0.45594000000E+02  0.51100000000E-03 0.  1.
         11   -1    0    0    0    0 -0.00000000000E+00 -0.00000000000E+00 -0.45593999997E+02  0.45594000000E+02  0.51100000000E-03 0. -1.
    9900012    2    1    2    0    0 -0.14673918992E+02  0.27000179980E+01 -0.28179865078E+02  0.59301971844E+02  0.50000050730E+02 0.  0.
        -12    1    1    2    0    0  0.14673918992E+02 -0.27000179980E+01  0.28179865078E+02  0.31886028156E+02  0.00000000000E+00 0.  1.
         11    1    3    3    0    0 -0.15183599807E+02 -0.17566695861E+02 -0.15196634031E+02  0.27750102571E+02  0.51100000000E-03 0. -1.
        -11    1    3    3    0    0  0.42263806261E+01  0.14777505134E+02 -0.17680476440E+02  0.23427253330E+02  0.51100000000E-03 0.  1.
        -12    1    3    3    0    0 -0.37166998120E+01  0.54892087253E+01  0.46972453937E+01  0.81246159424E+01  0.00000000000E+00 0.  1.
</event>
<event>
 7    1  0.1220856E-011  0.5930193E+02  0.7816164E-02  0.1266605E+00
        -11   -1    0    0    0    0  0.00000000000E+00  0.00000000000E+00  0.45593999997E+02  0.45594000000E+02  0.51100000000E-03 0.  1.
         11   -1    0    0    0    0 -0.00000000000E+00 -0.00000000000E+00 -0.45593999997E+02  0.45594000000E+02  0.51100000000E-03 0. -1.
    9900012    2    1    2    0    0  0.22096203687E+02  0.14534125735E+02 -0.17811186185E+02  0.59301931231E+02  0.49999976661E+02 0.  0.
        -12    1    1    2    0    0 -0.22096203687E+02 -0.14534125735E+02  0.17811186185E+02  0.31886068769E+02  0.00000000000E+00 0.  1.
         11    1    3    3    0    0  0.19460648583E+02 -0.73840918932E+01 -0.11938261038E+02  0.23995077271E+02  0.51100000000E-03 0. -1.
        -11    1    3    3    0    0 -0.29735863425E+01  0.99832987280E+01  0.10157420143E+02  0.14549283606E+02  0.51100000000E-03 0.  1.
         12    1    3    3    0    0  0.56091414464E+01  0.11934918900E+02 -0.16030345289E+02  0.20757570354E+02  0.00000000000E+00 0. -1.
</event>
<event>
 7    1  0.1220856E-011  0.5930196E+02  0.7816164E-02  0.1266605E+00
        -11   -1    0    0    0    0  0.00000000000E+00  0.00000000000E+00  0.45593999997E+02  0.45594000000E+02  0.51100000000E-03 0.  1.
         11   -1    0    0    0    0 -0.00000000000E+00 -0.00000000000E+00 -0.45593999997E+02  0.45594000000E+02  0.51100000000E-03 0. -1.
    9900012    2    1    2    0    0 -0.83170994946E+01 -0.95706022387E+01 -0.29256609589E+02  0.59301956410E+02  0.50000022582E+02 0.  0.
        -12    1    1    2    0    0  0.83170994946E+01  0.95706022387E+01  0.29256609589E+02  0.31886043590E+02  0.00000000000E+00 0.  1.
         11    1    3    3    0    0  0.53704709167E+01 -0.17077315504E+02  0.48891550864E+01  0.18557491760E+02  0.51100000000E-03 0. -1.
        -11    1    3    3    0    0 -0.11173549379E+02 -0.12820920260E+01 -0.10472896291E+02  0.15367938139E+02  0.51100000000E-03 0.  1.
        -12    1    3    3    0    0 -0.25140210328E+01  0.87888052915E+01 -0.23672868384E+02  0.25376526511E+02  0.00000000000E+00 0.  1.
</event>
<event>
 7    1  0.1220856E-011  0.5930200E+02  0.7816164E-02  0.1266605E+00
        -11   -1    0    0    0    0  0.00000000000E+00  0.00000000000E+00  0.45593999997E+02  0.45594000000E+02  0.51100000000E-03 0.  1.
         11   -1    0    0    0    0 -0.00000000000E+00 -0.00000000000E+00 -0.45593999997E+02  0.45594000000E+02  0.51100000000E-03 0. -1.
    9900012    2    1    2    0    0  0.29087297693E+02 -0.67625368840E+00 -0.13045641468E+02  0.59302000448E+02  0.50000102897E+02 0.  0.
        -12    1    1    2    0    0 -0.29087297693E+02  0.67625368840E+00  0.13045641468E+02  0.31885999552E+02  0.00000000000E+00 0.  1.
         11    1    3    3    0    0 -0.17041787704E+01  0.11593083542E+02  0.20941677074E+01  0.11903333564E+02  0.51100000000E-03 0. -1.
        -11    1    3    3    0    0  0.99275409852E+01 -0.10355375921E+02 -0.21191700223E+02  0.25590584970E+02  0.51100000000E-03 0.  1.
         12    1    3    3    0    0  0.20863935478E+02 -0.19139613097E+01  0.60518910477E+01  0.21808081914E+02  0.00000000000E+00 0. -1.
</event>
<event>
 7    1  0.1220856E-011  0.5930194E+02  0.7816164E-02  0.1266605E+00
        -11   -1    0    0    0    0  0.00000000000E+00  0.00000000000E+00  0.45593999997E+02  0.45594000000E+02  0.51100000000E-03 0.  1.
         11   -1    0    0    0    0 -0.00000000000E+00 -0.00000000000E+00 -0.45593999997E+02  0.45594000000E+02  0.51100000000E-03 0. -1.
    9900012    2    1    2    0    0  0.88954367981E+01  0.14319152374E+02 -0.27065735994E+02  0.59301937442E+02  0.49999987989E+02 0.  0.
        -12    1    1    2    0    0 -0.88954367981E+01 -0.14319152374E+02  0.27065735994E+02  0.31886062558E+02  0.00000000000E+00 0.  1.
         11    1    3    3    0    0 -0.50741842187E+01  0.68693489573E+01 -0.16944820810E+01  0.87066968689E+01  0.51100000000E-03 0. -1.
        -11    1    3    3    0    0  0.67981105609E+01 -0.25320314803E+01  0.10451612931E+02  0.12722488111E+02  0.51100000000E-03 0.  1.
         12    1    3    3    0    0  0.71715104559E+01  0.99818348974E+01 -0.35822866844E+02  0.37872752462E+02  0.00000000000E+00 0. -1.
</event>
<event>
 7    1  0.1220856E-011  0.5930194E+02  0.7816164E-02  0.1266605E+00
        -11   -1    0    0    0    0  0.00000000000E+00  0.00000000000E+00  0.45593999997E+02  0.45594000000E+02  0.51100000000E-03 0. -1.
         11   -1    0    0    0    0 -0.00000000000E+00 -0.00000000000E+00 -0.45593999997E+02  0.45594000000E+02  0.51100000000E-03 0.  1.
    9900012    2    1    2    0    0 -0.27422035227E+02 -0.71138975142E+01  0.14633699555E+02  0.59301941660E+02  0.49999995681E+02 0.  0.
        -12    1    1    2    0    0  0.27422035227E+02  0.71138975142E+01 -0.14633699555E+02  0.31886058340E+02  0.00000000000E+00 0.  1.
         11    1    3    3    0    0 -0.23488490107E+02 -0.76885546596E+01  0.14357201848E+02  0.28582377183E+02  0.51100000000E-03 0. -1.
        -11    1    3    3    0    0 -0.28033489948E+01  0.13440350034E+02  0.77821529522E+01  0.15781751470E+02  0.51100000000E-03 0.  1.
         12    1    3    3    0    0 -0.11301961248E+01 -0.12865692888E+02 -0.75056552454E+01  0.14937813007E+02  0.00000000000E+00 0. -1.
</event>
<event>
 7    1  0.1220856E-011  0.5930195E+02  0.7816164E-02  0.1266605E+00
        -11   -1    0    0    0    0  0.00000000000E+00  0.00000000000E+00  0.45593999997E+02  0.45594000000E+02  0.51100000000E-03 0. -1.
         11   -1    0    0    0    0 -0.00000000000E+00 -0.00000000000E+00 -0.45593999997E+02  0.45594000000E+02  0.51100000000E-03 0.  1.
    9900012    2    1    2    0    0 -0.29169893395E+02  0.85796303243E+01  0.96035176838E+01  0.59301948362E+02  0.50000007905E+02 0.  0.
        -12    1    1    2    0    0  0.29169893395E+02 -0.85796303243E+01 -0.96035176838E+01  0.31886051638E+02  0.00000000000E+00 0.  1.
         11    1    3    3    0    0 -0.32141407837E+02 -0.11089466643E+02  0.24391112114E+01  0.34088057028E+02  0.51100000000E-03 0. -1.
        -11    1    3    3    0    0 -0.54320486627E+01  0.90361043724E+01  0.21300007676E+01  0.10756172109E+02  0.51100000000E-03 0.  1.
        -12    1    3    3    0    0  0.84035631052E+01  0.10632992595E+02  0.50344057049E+01  0.14457719225E+02  0.00000000000E+00 0.  1.
</event>
<event>
 7    1  0.1220856E-011  0.5930195E+02  0.7816164E-02  0.1266605E+00
        -11   -1    0    0    0    0  0.00000000000E+00  0.00000000000E+00  0.45593999997E+02  0.45594000000E+02  0.51100000000E-03 0.  1.
         11   -1    0    0    0    0 -0.00000000000E+00 -0.00000000000E+00 -0.45593999997E+02  0.45594000000E+02  0.51100000000E-03 0. -1.
    9900012    2    1    2    0    0  0.30783982278E+01  0.25791080100E+02 -0.18494971991E+02  0.59301947605E+02  0.50000006524E+02 0.  0.
        -12    1    1    2    0    0 -0.30783982278E+01 -0.25791080100E+02  0.18494971991E+02  0.31886052395E+02  0.00000000000E+00 0.  1.
         11    1    3    3    0    0  0.30611314248E+01 -0.40982761969E+01 -0.47739598335E+01  0.69969340527E+01  0.51100000000E-03 0. -1.
        -11    1    3    3    0    0 -0.19235467454E+02  0.12685527979E+02  0.51828633303E-01  0.23041886094E+02  0.51100000000E-03 0.  1.
         12    1    3    3    0    0  0.19252734257E+02  0.17203828318E+02 -0.13772840791E+02  0.29263127458E+02  0.00000000000E+00 0. -1.
</event>
<event>
 7    1  0.1220856E-011  0.5930196E+02  0.7816164E-02  0.1266605E+00
        -11   -1    0    0    0    0  0.00000000000E+00  0.00000000000E+00  0.45593999997E+02  0.45594000000E+02  0.51100000000E-03 0. -1.
         11   -1    0    0    0    0 -0.00000000000E+00 -0.00000000000E+00 -0.45593999997E+02  0.45594000000E+02  0.51100000000E-03 0.  1.
    9900012    2    1    2    0    0 -0.10565011650E+02  0.27362688269E+02  0.12505345365E+02  0.59301955354E+02  0.50000020656E+02 0.  0.
        -12    1    1    2    0    0  0.10565011650E+02 -0.27362688269E+02 -0.12505345365E+02  0.31886044646E+02  0.00000000000E+00 0.  1.
         11    1    3    3    0    0  0.39045011626E+01  0.34157404847E+00 -0.30076224838E+01  0.49404043787E+01  0.51100000000E-03 0. -1.
        -11    1    3    3    0    0 -0.73149174059E+01  0.12462667461E+02 -0.14357490907E+02  0.20370656404E+02  0.51100000000E-03 0.  1.
         12    1    3    3    0    0 -0.71545954071E+01  0.14558446760E+02  0.29870458756E+02  0.33990894572E+02  0.00000000000E+00 0. -1.
</event>
<event>
 7    1  0.1220856E-011  0.5930195E+02  0.7816164E-02  0.1266605E+00
        -11   -1    0    0    0    0  0.00000000000E+00  0.00000000000E+00  0.45593999997E+02  0.45594000000E+02  0.51100000000E-03 0.  1.
         11   -1    0    0    0    0 -0.00000000000E+00 -0.00000000000E+00 -0.45593999997E+02  0.45594000000E+02  0.51100000000E-03 0. -1.
    9900012    2    1    2    0    0 -0.72428015384E+01 -0.31052532717E+02  0.49273811697E-01  0.59301946777E+02  0.50000005014E+02 0.  0.
        -12    1    1    2    0    0  0.72428015384E+01  0.31052532717E+02 -0.49273811697E-01  0.31886053223E+02  0.00000000000E+00 0.  1.
         11    1    3    3    0    0 -0.87422991528E+01 -0.27342540555E+02 -0.91316034613E+01  0.30123553915E+02  0.51100000000E-03 0. -1.
        -11    1    3    3    0    0  0.12042829949E+02 -0.95061931058E+01  0.29299301103E+01  0.15619921615E+02  0.51100000000E-03 0.  1.
         12    1    3    3    0    0 -0.10543332335E+02  0.57962009438E+01  0.62509471627E+01  0.13558471246E+02  0.00000000000E+00 0. -1.
</event>
<event>
 7    1  0.1220856E-011  0.5930210E+02  0.7816164E-02  0.1266604E+00
        -11   -1    0    0    0    0  0.00000000000E+00  0.00000000000E+00  0.45593999997E+02  0.45594000000E+02  0.51100000000E-03 0. -1.
         11   -1    0    0    0    0 -0.00000000000E+00 -0.00000000000E+00 -0.45593999997E+02  0.45594000000E+02  0.51100000000E-03 0.  1.
    9900012    2    1    2    0    0  0.26518659026E+02 -0.13858858360E+02 -0.11018323861E+02  0.59302098848E+02  0.50000282354E+02 0.  0.
        -12    1    1    2    0    0 -0.26518659026E+02  0.13858858360E+02  0.11018323861E+02  0.31885901152E+02  0.00000000000E+00 0.  1.
         11    1    3    3    0    0  0.42343558852E+01 -0.59479246442E+01  0.16142791503E+01  0.74775313287E+01  0.51100000000E-03 0. -1.
        -11    1    3    3    0    0  0.11155215173E+00 -0.22388702611E+02 -0.11851258987E+02  0.25332169041E+02  0.51100000000E-03 0.  1.
         12    1    3    3    0    0  0.22172750989E+02  0.14477768895E+02 -0.78134402440E+00  0.26492398478E+02  0.00000000000E+00 0. -1.
</event>
<event>
 7    1  0.1220856E-011  0.5930192E+02  0.7816164E-02  0.1266605E+00
        -11   -1    0    0    0    0  0.00000000000E+00  0.00000000000E+00  0.45593999997E+02  0.45594000000E+02  0.51100000000E-03 0. -1.
         11   -1    0    0    0    0 -0.00000000000E+00 -0.00000000000E+00 -0.45593999997E+02  0.45594000000E+02  0.51100000000E-03 0.  1.
    9900012    2    1    2    0    0  0.12136394686E+02 -0.29478465733E+02 -0.67068158992E+00  0.59301924171E+02  0.49999963786E+02 0.  0.
        -12    1    1    2    0    0 -0.12136394686E+02  0.29478465733E+02  0.67068158992E+00  0.31886075829E+02  0.00000000000E+00 0.  1.
         11    1    3    3    0    0  0.20904943131E+01 -0.31109936431E+02  0.14720718427E+01  0.31214825116E+02  0.51100000000E-03 0. -1.
        -11    1    3    3    0    0  0.12964554358E+02 -0.85353210379E+01 -0.62597841933E+01  0.16736674501E+02  0.51100000000E-03 0.  1.
        -12    1    3    3    0    0 -0.29186539853E+01  0.10166791736E+02  0.41170307607E+01  0.11350424555E+02  0.00000000000E+00 0.  1.
</event>
<event>
 7    1  0.1220856E-011  0.5930195E+02  0.7816164E-02  0.1266605E+00
        -11   -1    0    0    0    0  0.00000000000E+00  0.00000000000E+00  0.45593999997E+02  0.45594000000E+02  0.51100000000E-03 0. -1.
         11   -1    0    0    0    0 -0.00000000000E+00 -0.00000000000E+00 -0.45593999997E+02  0.45594000000E+02  0.51100000000E-03 0.  1.
    9900012    2    1    2    0    0 -0.13227692995E+02 -0.28635090345E+02  0.46669032297E+01  0.59301949025E+02  0.50000009114E+02 0.  0.
        -12    1    1    2    0    0  0.13227692995E+02  0.28635090345E+02 -0.46669032297E+01  0.31886050975E+02  0.00000000000E+00 0.  1.
         11    1    3    3    0    0 -0.14775225584E+02 -0.18246786604E+01  0.46747894887E+01  0.15604178937E+02  0.51100000000E-03 0. -1.
        -11    1    3    3    0    0 -0.62933743394E+01 -0.26569306785E+02 -0.11628211176E+02  0.29677431139E+02  0.51100000000E-03 0.  1.
         12    1    3    3    0    0  0.78409069291E+01 -0.24110490011E+00  0.11620324917E+02  0.14020338949E+02  0.00000000000E+00 0. -1.
</event>
<event>
 7    1  0.1220856E-011  0.5930196E+02  0.7816164E-02  0.1266605E+00
        -11   -1    0    0    0    0  0.00000000000E+00  0.00000000000E+00  0.45593999997E+02  0.45594000000E+02  0.51100000000E-03 0.  1.
         11   -1    0    0    0    0 -0.00000000000E+00 -0.00000000000E+00 -0.45593999997E+02  0.45594000000E+02  0.51100000000E-03 0. -1.
    9900012    2    1    2    0    0 -0.11118018721E+01 -0.25727700866E+02 -0.18803423131E+02  0.59301962041E+02  0.50000032853E+02 0.  0.
        -12    1    1    2    0    0  0.11118018721E+01  0.25727700866E+02  0.18803423131E+02  0.31886037959E+02  0.00000000000E+00 0.  1.
         11    1    3    3    0    0 -0.64208398946E+01 -0.28496053991E+02 -0.23582506219E+02  0.37541801740E+02  0.51100000000E-03 0. -1.
        -11    1    3    3    0    0  0.70250398290E+01 -0.77339229530E+01  0.11243588183E+01  0.10508517110E+02  0.51100000000E-03 0.  1.
        -12    1    3    3    0    0 -0.17160018065E+01  0.10502276078E+02  0.36547242694E+01  0.11251643192E+02  0.00000000000E+00 0.  1.
</event>
<event>
 7    1  0.1220856E-011  0.5930205E+02  0.7816164E-02  0.1266604E+00
        -11   -1    0    0    0    0  0.00000000000E+00  0.00000000000E+00  0.45593999997E+02  0.45594000000E+02  0.51100000000E-03 0. -1.
         11   -1    0    0    0    0 -0.00000000000E+00 -0.00000000000E+00 -0.45593999997E+02  0.45594000000E+02  0.51100000000E-03 0.  1.
    9900012    2    1    2    0    0 -0.22308139056E+02 -0.14516221510E+02  0.17559614600E+02  0.59302049803E+02  0.50000192908E+02 0.  0.
        -12    1    1    2    0    0  0.22308139056E+02  0.14516221510E+02 -0.17559614600E+02  0.31885950197E+02  0.00000000000E+00 0.  1.
         11    1    3    3    0    0 -0.11939000051E+02 -0.13735060889E+02  0.13112454043E+02  0.22430516515E+02  0.51100000000E-03 0. -1.
        -11    1    3    3    0    0 -0.23328253658E+01 -0.10227709939E+02 -0.12214262086E+02  0.16100817474E+02  0.51100000000E-03 0.  1.
        -12    1    3    3    0    0 -0.80363136394E+01  0.94465493180E+01  0.16661422642E+02  0.20770715813E+02  0.00000000000E+00 0.  1.
</event>
<event>
 7    1  0.1794489E-011  0.5930205E+02  0.7816164E-02  0.1266604E+00
        -11   -1    0    0    0    0  0.00000000000E+00  0.00000000000E+00  0.45593999997E+02  0.45594000000E+02  0.51100000000E-03 0. -1.
         11   -1    0    0    0    0 -0.00000000000E+00 -0.00000000000E+00 -0.45593999997E+02  0.45594000000E+02  0.51100000000E-03 0.  1.
    9900012    2    1    2    0    0 -0.27312847162E+02  0.11120709826E+01  0.16416019813E+02  0.59302046534E+02  0.50000186946E+02 0.  0.
        -12    1    1    2    0    0  0.27312847162E+02 -0.11120709826E+01 -0.16416019813E+02  0.31885953466E+02  0.00000000000E+00 0.  1.
         11    1    3    3    0    0 -0.68416608467E+01 -0.79038532732E+01  0.30977927630E+01  0.10903006006E+02  0.51100000000E-03 0. -1.
        -11    1    3    3    0    0  0.66479359393E+00 -0.10984989336E+02 -0.68782911941E+01  0.12977782216E+02  0.51100000000E-03 0.  1.
         12    1    3    3    0    0 -0.21135979909E+02  0.20000913592E+02  0.20196518244E+02  0.35421258312E+02  0.00000000000E+00 0. -1.
</event>
<event>
 7    1  0.1220856E-011  0.5930195E+02  0.7816164E-02  0.1266605E+00
        -11   -1    0    0    0    0  0.00000000000E+00  0.00000000000E+00  0.45593999997E+02  0.45594000000E+02  0.51100000000E-03 0.  1.
         11   -1    0    0    0    0 -0.00000000000E+00 -0.00000000000E+00 -0.45593999997E+02  0.45594000000E+02  0.51100000000E-03 0. -1.
    9900012    2    1    2    0    0 -0.27226606205E+02 -0.98579316695E+00 -0.16566838929E+02  0.59301952492E+02  0.50000015436E+02 0.  0.
        -12    1    1    2    0    0  0.27226606205E+02  0.98579316695E+00  0.16566838929E+02  0.31886047508E+02  0.00000000000E+00 0.  1.
         11    1    3    3    0    0 -0.10226888921E+02 -0.14090050292E+02 -0.11947830732E+01  0.17451254427E+02  0.51100000000E-03 0. -1.
        -11    1    3    3    0    0 -0.10876716566E+02 -0.40363992626E+01 -0.19953849908E+02  0.23081412624E+02  0.51100000000E-03 0.  1.
         12    1    3    3    0    0 -0.61230007180E+01  0.17140656388E+02  0.45817940527E+01  0.18769285440E+02  0.00000000000E+00 0. -1.
</event>
<event>
 7    1  0.1220856E-011  0.5930194E+02  0.7816164E-02  0.1266605E+00
        -11   -1    0    0    0    0  0.00000000000E+00  0.00000000000E+00  0.45593999997E+02  0.45594000000E+02  0.51100000000E-03 0. -1.
         11   -1    0    0    0    0 -0.00000000000E+00 -0.00000000000E+00 -0.45593999997E+02  0.45594000000E+02  0.51100000000E-03 0.  1.
    9900012    2    1    2    0    0  0.28051086154E+02 -0.71127506490E+01  0.13389027592E+02  0.59301941666E+02  0.49999995692E+02 0.  0.
        -12    1    1    2    0    0 -0.28051086154E+02  0.71127506490E+01 -0.13389027592E+02  0.31886058334E+02  0.00000000000E+00 0.  1.
         11    1    3    3    0    0  0.24523377875E+02 -0.18434154183E+02  0.58577447374E+01  0.31233432032E+02  0.51100000000E-03 0. -1.
        -11    1    3    3    0    0 -0.26682444135E+01 -0.52457098638E+01 -0.38524174934E+01  0.70340685972E+01  0.51100000000E-03 0.  1.
         12    1    3    3    0    0  0.61959526931E+01  0.16567113398E+02  0.11383700348E+02  0.21034441037E+02  0.00000000000E+00 0. -1.
</event>
<event>
 7    1  0.1220856E-011  0.5930195E+02  0.7816164E-02  0.1266605E+00
        -11   -1    0    0    0    0  0.00000000000E+00  0.00000000000E+00  0.45593999997E+02  0.45594000000E+02  0.51100000000E-03 0.  1.
         11   -1    0    0    0    0 -0.00000000000E+00 -0.00000000000E+00 -0.45593999997E+02  0.45594000000E+02  0.51100000000E-03 0. -1.
    9900012    2    1    2    0    0 -0.22561183254E+02 -0.22504246216E+02  0.11279566915E+01  0.59301947032E+02  0.50000005479E+02 0.  0.
        -12    1    1    2    0    0  0.22561183254E+02  0.22504246216E+02 -0.11279566915E+01  0.31886052968E+02  0.00000000000E+00 0.  1.
         11    1    3    3    0    0 -0.29079356610E+01  0.25937424056E+01 -0.24010368381E+01  0.45769605236E+01  0.51100000000E-03 0. -1.
        -11    1    3    3    0    0 -0.33497046213E+02 -0.21390639218E+02 -0.80470726503E+00  0.39752472945E+02  0.51100000000E-03 0.  1.
         12    1    3    3    0    0  0.13843798620E+02 -0.37073494036E+01  0.43337007946E+01  0.14972513564E+02  0.00000000000E+00 0. -1.
</event>
<event>
 7    1  0.1220856E-011  0.5930195E+02  0.7816164E-02  0.1266605E+00
        -11   -1    0    0    0    0  0.00000000000E+00  0.00000000000E+00  0.45593999997E+02  0.45594000000E+02  0.51100000000E-03 0.  1.
         11   -1    0    0    0    0 -0.00000000000E+00 -0.00000000000E+00 -0.45593999997E+02  0.45594000000E+02  0.51100000000E-03 0. -1.
    9900012    2    1    2    0    0 -0.19287255002E+02 -0.41606880062E+00 -0.25387963073E+02  0.59301953087E+02  0.50000016522E+02 0.  0.
        -12    1    1    2    0    0  0.19287255002E+02  0.41606880062E+00  0.25387963073E+02  0.31886046913E+02  0.00000000000E+00 0.  1.
         11    1    3    3    0    0  0.50680669806E+01 -0.33137131933E+01 -0.14610104554E+02  0.15815219043E+02  0.51100000000E-03 0. -1.
        -11    1    3    3    0    0  0.51647683062E+01  0.70792269874E+00  0.71734955888E+01  0.88676392251E+01  0.51100000000E-03 0.  1.
        -12    1    3    3    0    0 -0.29520090289E+02  0.21897216940E+01 -0.17951354108E+02  0.34619094819E+02  0.00000000000E+00 0.  1.
</event>
<event>
 7    1  0.1220856E-011  0.5930193E+02  0.7816164E-02  0.1266605E+00
        -11   -1    0    0    0    0  0.00000000000E+00  0.00000000000E+00  0.45593999997E+02  0.45594000000E+02  0.51100000000E-03 0.  1.
         11   -1    0    0    0    0 -0.00000000000E+00 -0.00000000000E+00 -0.45593999997E+02  0.45594000000E+02  0.51100000000E-03 0. -1.
    9900012    2    1    2    0    0  0.26161501129E+02  0.14639766798E+02 -0.10861618544E+02  0.59301926698E+02  0.49999968394E+02 0.  0.
        -12    1    1    2    0    0 -0.26161501129E+02 -0.14639766798E+02  0.10861618544E+02  0.31886073302E+02  0.00000000000E+00 0.  1.
         11    1    3    3    0    0  0.13954263570E+02 -0.66300876284E+01 -0.11711429212E+02  0.19386518722E+02  0.51100000000E-03 0. -1.
        -11    1    3    3    0    0 -0.39580428611E+01 -0.41310192019E+01  0.71476183870E+01  0.91553193174E+01  0.51100000000E-03 0.  1.
         12    1    3    3    0    0  0.16165280421E+02  0.25400873628E+02 -0.62978077194E+01  0.30760088658E+02  0.00000000000E+00 0. -1.
</event>
<event>
 7    1  0.1220856E-011  0.5930196E+02  0.7816164E-02  0.1266605E+00
        -11   -1    0    0    0    0  0.00000000000E+00  0.00000000000E+00  0.45593999997E+02  0.45594000000E+02  0.51100000000E-03 0. -1.
         11   -1    0    0    0    0 -0.00000000000E+00 -0.00000000000E+00 -0.45593999997E+02  0.45594000000E+02  0.51100000000E-03 0.  1.
    9900012    2    1    2    0    0  0.17971307079E+02  0.22249922960E+02  0.14095847004E+02  0.59301955206E+02  0.50000020387E+02 0.  0.
        -12    1    1    2    0    0 -0.17971307079E+02 -0.22249922960E+02 -0.14095847004E+02  0.31886044794E+02  0.00000000000E+00 0.  1.
         11    1    3    3    0    0 -0.73887435078E+01 -0.46500358006E+00  0.21154033017E+02  0.22412114405E+02  0.51100000000E-03 0. -1.
        -11    1    3    3    0    0  0.95894456253E+00  0.53759913991E+01 -0.40623952714E+01  0.68061673356E+01  0.51100000000E-03 0.  1.
        -12    1    3    3    0    0  0.24401106024E+02  0.17338935141E+02 -0.29957907414E+01  0.30083673466E+02  0.00000000000E+00 0.  1.
</event>
<event>
 7    1  0.1220856E-011  0.5930193E+02  0.7816164E-02  0.1266605E+00
        -11   -1    0    0    0    0  0.00000000000E+00  0.00000000000E+00  0.45593999997E+02  0.45594000000E+02  0.51100000000E-03 0.  1.
         11   -1    0    0    0    0 -0.00000000000E+00 -0.00000000000E+00 -0.45593999997E+02  0.45594000000E+02  0.51100000000E-03 0. -1.
    9900012    2    1    2    0    0 -0.23781383618E+02 -0.19367408936E+02 -0.87218482193E+01  0.59301931380E+02  0.49999976934E+02 0.  0.
        -12    1    1    2    0    0  0.23781383618E+02  0.19367408936E+02  0.87218482193E+01  0.31886068620E+02  0.00000000000E+00 0.  1.
         11    1    3    3    0    0  0.31656665431E+01  0.71593920323E+01 -0.40899221359E+01  0.88320893493E+01  0.51100000000E-03 0. -1.
        -11    1    3    3    0    0 -0.11535459021E+02  0.27182147005E+01  0.88272864180E+01  0.14777567180E+02  0.51100000000E-03 0.  1.
         12    1    3    3    0    0 -0.15411591139E+02 -0.29245015669E+02 -0.13459212501E+02  0.35692274851E+02  0.00000000000E+00 0. -1.
</event>
<event>
 7    1  0.1220856E-011  0.5930155E+02  0.7816164E-02  0.1266606E+00
        -11   -1    0    0    0    0  0.00000000000E+00  0.00000000000E+00  0.45593999997E+02  0.45594000000E+02  0.51100000000E-03 0.  1.
         11   -1    0    0    0    0 -0.00000000000E+00 -0.00000000000E+00 -0.45593999997E+02  0.45594000000E+02  0.51100000000E-03 0. -1.
    9900012    2    1    2    0    0 -0.21891681740E+02 -0.23183235057E+02  0.19303856624E+00  0.59301554901E+02  0.49999290322E+02 0.  0.
        -12    1    1    2    0    0  0.21891681740E+02  0.23183235057E+02 -0.19303856624E+00  0.31886445099E+02  0.00000000000E+00 0.  1.
         11    1    3    3    0    0 -0.24709017294E+02 -0.68109380351E+01 -0.55816280694E+01  0.26231259686E+02  0.51100000000E-03 0. -1.
        -11    1    3    3    0    0 -0.58118594154E+01  0.41173285945E+01  0.80181821472E+01  0.10724800689E+02  0.51100000000E-03 0.  1.
        -12    1    3    3    0    0  0.86291949693E+01 -0.20489625617E+02 -0.22435155116E+01  0.22345494525E+02  0.00000000000E+00 0.  1.
</event>
<event>
 7    1  0.1220856E-011  0.5930195E+02  0.7816164E-02  0.1266605E+00
        -11   -1    0    0    0    0  0.00000000000E+00  0.00000000000E+00  0.45593999997E+02  0.45594000000E+02  0.51100000000E-03 0.  1.
         11   -1    0    0    0    0 -0.00000000000E+00 -0.00000000000E+00 -0.45593999997E+02  0.45594000000E+02  0.51100000000E-03 0. -1.
    9900012    2    1    2    0    0 -0.10357004762E+02  0.29642925031E+02 -0.55452201214E+01  0.59301952609E+02  0.50000015651E+02 0.  0.
        -12    1    1    2    0    0  0.10357004762E+02 -0.29642925031E+02  0.55452201214E+01  0.31886047391E+02  0.00000000000E+00 0.  1.
         11    1    3    3    0    0 -0.38995311781E+00 -0.67586396338E+00  0.30764793679E+01  0.31738905295E+01  0.51100000000E-03 0. -1.
        -11    1    3    3    0    0 -0.89183404201E+01 -0.52949763497E+01  0.11274877213E+02  0.15319805052E+02  0.51100000000E-03 0.  1.
         12    1    3    3    0    0 -0.10487112242E+01  0.35613765344E+02 -0.19896576702E+02  0.40808257028E+02  0.00000000000E+00 0. -1.
</event>
<event>
 7    1  0.1220856E-011  0.5930196E+02  0.7816164E-02  0.1266605E+00
        -11   -1    0    0    0    0  0.00000000000E+00  0.00000000000E+00  0.45593999997E+02  0.45594000000E+02  0.51100000000E-03 0.  1.
         11   -1    0    0    0    0 -0.00000000000E+00 -0.00000000000E+00 -0.45593999997E+02  0.45594000000E+02  0.51100000000E-03 0. -1.
    9900012    2    1    2    0    0  0.19473091996E+02  0.21749949100E+02 -0.12824114335E+02  0.59301960638E+02  0.50000030293E+02 0.  0.
        -12    1    1    2    0    0 -0.19473091996E+02 -0.21749949100E+02  0.12824114335E+02  0.31886039362E+02  0.00000000000E+00 0.  1.
         11    1    3    3    0    0 -0.63033871433E+00  0.49466734147E+01  0.13576615309E+02  0.14463450082E+02  0.51100000000E-03 0. -1.
        -11    1    3    3    0    0  0.80180910686E+01 -0.52841394856E+01 -0.20649102756E+01  0.98222079593E+01  0.51100000000E-03 0.  1.
         12    1    3    3    0    0  0.12085339642E+02  0.22087415171E+02 -0.24335819369E+02  0.35016302596E+02  0.00000000000E+00 0. -1.
</event>
<event>
 7    1  0.1220856E-011  0.5930200E+02  0.7816164E-02  0.1266605E+00
        -11   -1    0    0    0    0  0.00000000000E+00  0.00000000000E+00  0.45593999997E+02  0.45594000000E+02  0.51100000000E-03 0. -1.
         11   -1    0    0    0    0 -0.00000000000E+00 -0.00000000000E+00 -0.45593999997E+02  0.45594000000E+02  0.51100000000E-03 0.  1.
    9900012    2    1    2    0    0 -0.26389558842E+02  0.16115067613E+02  0.77854227735E+01  0.59301999501E+02  0.50000101170E+02 0.  0.
        -12    1    1    2    0    0  0.26389558842E+02 -0.16115067613E+02 -0.77854227735E+01  0.31886000499E+02  0.00000000000E+00 0.  1.
         11    1    3    3    0    0 -0.18628403912E+02  0.23561102993E+02 -0.40971010746E+01  0.30313845748E+02  0.51100000000E-03 0. -1.
        -11    1    3    3    0    0 -0.82623665843E+01  0.61395005666E+01  0.11435455270E+02  0.15386026332E+02  0.51100000000E-03 0.  1.
        -12    1    3    3    0    0  0.50121165375E+00 -0.13585535947E+02  0.44706857806E+00  0.13602127422E+02  0.00000000000E+00 0.  1.
</event>
<event>
 7    1  0.1220856E-011  0.5930195E+02  0.7816164E-02  0.1266605E+00
        -11   -1    0    0    0    0  0.00000000000E+00  0.00000000000E+00  0.45593999997E+02  0.45594000000E+02  0.51100000000E-03 0.  1.
         11   -1    0    0    0    0 -0.00000000000E+00 -0.00000000000E+00 -0.45593999997E+02  0.45594000000E+02  0.51100000000E-03 0. -1.
    9900012    2    1    2    0    0 -0.22374104372E+02  0.73652467716E+01 -0.21491225521E+02  0.59301950059E+02  0.50000011000E+02 0.  0.
        -12    1    1    2    0    0  0.22374104372E+02 -0.73652467716E+01  0.21491225521E+02  0.31886049941E+02  0.00000000000E+00 0.  1.
         11    1    3    3    0    0 -0.15404588391E+02  0.96261052222E+01 -0.84040404606E+00  0.18184320842E+02  0.51100000000E-03 0. -1.
        -11    1    3    3    0    0 -0.20666348720E+01  0.15533435122E+02 -0.37985125325E+01  0.16124121189E+02  0.51100000000E-03 0.  1.
         12    1    3    3    0    0 -0.49028811089E+01 -0.17794293573E+02 -0.16852308942E+02  0.24993508029E+02  0.00000000000E+00 0. -1.
</event>
<event>
 7    1  0.1220856E-011  0.5930194E+02  0.7816164E-02  0.1266605E+00
        -11   -1    0    0    0    0  0.00000000000E+00  0.00000000000E+00  0.45593999997E+02  0.45594000000E+02  0.51100000000E-03 0. -1.
         11   -1    0    0    0    0 -0.00000000000E+00 -0.00000000000E+00 -0.45593999997E+02  0.45594000000E+02  0.51100000000E-03 0.  1.
    9900012    2    1    2    0    0  0.28017163695E+02  0.15159875730E+02  0.13919145049E+01  0.59301941610E+02  0.49999995590E+02 0.  0.
        -12    1    1    2    0    0 -0.28017163695E+02 -0.15159875730E+02 -0.13919145049E+01  0.31886058390E+02  0.00000000000E+00 0.  1.
         11    1    3    3    0    0  0.13577291044E+02  0.26350273898E+02  0.55727135377E+01  0.30161811998E+02  0.51100000000E-03 0. -1.
        -11    1    3    3    0    0  0.89568861713E+01 -0.76808803301E+01  0.87321735291E+01  0.14678984547E+02  0.51100000000E-03 0.  1.
        -12    1    3    3    0    0  0.54829864800E+01 -0.35095178379E+01 -0.12912972562E+02  0.14461145065E+02  0.00000000000E+00 0.  1.
</event>
<event>
 7    1  0.1220856E-011  0.5930192E+02  0.7816164E-02  0.1266605E+00
        -11   -1    0    0    0    0  0.00000000000E+00  0.00000000000E+00  0.45593999997E+02  0.45594000000E+02  0.51100000000E-03 0.  1.
         11   -1    0    0    0    0 -0.00000000000E+00 -0.00000000000E+00 -0.45593999997E+02  0.45594000000E+02  0.51100000000E-03 0. -1.
    9900012    2    1    2    0    0  0.16301785831E+02  0.13138858344E+02 -0.24048783109E+02  0.59301924843E+02  0.49999965012E+02 0.  0.
        -12    1    1    2    0    0 -0.16301785831E+02 -0.13138858344E+02  0.24048783109E+02  0.31886075157E+02  0.00000000000E+00 0.  1.
         11    1    3    3    0    0  0.51160875254E+01 -0.39253295511E+01 -0.22209108947E+01  0.68201912814E+01  0.51100000000E-03 0. -1.
        -11    1    3    3    0    0  0.38841268489E+01  0.21013422866E+02  0.69967001803E+01  0.22485644211E+02  0.51100000000E-03 0.  1.
         12    1    3    3    0    0  0.73015714569E+01 -0.39492349708E+01 -0.28824572395E+02  0.29996089351E+02  0.00000000000E+00 0. -1.
</event>
<event>
 7    1  0.1220856E-011  0.5930190E+02  0.7816164E-02  0.1266605E+00
        -11   -1    0    0    0    0  0.00000000000E+00  0.00000000000E+00  0.45593999997E+02  0.45594000000E+02  0.51100000000E-03 0.  1.
         11   -1    0    0    0    0 -0.00000000000E+00 -0.00000000000E+00 -0.45593999997E+02  0.45594000000E+02  0.51100000000E-03 0. -1.
    9900012    2    1    2    0    0 -0.64078148468E+01 -0.73621742503E+01 -0.30355585462E+02  0.59301901626E+02  0.49999922669E+02 0.  0.
        -12    1    1    2    0    0  0.64078148468E+01  0.73621742503E+01  0.30355585462E+02  0.31886098374E+02  0.00000000000E+00 0.  1.
         11    1    3    3    0    0 -0.85596506606E+01 -0.59419242826E+01 -0.13745266593E+02  0.17248374926E+02  0.51100000000E-03 0. -1.
        -11    1    3    3    0    0 -0.59731379031E+01  0.13366354147E+02 -0.20058367962E+02  0.24832960458E+02  0.51100000000E-03 0.  1.
         12    1    3    3    0    0  0.81249737169E+01 -0.14786604114E+02  0.34480490925E+01  0.17220566241E+02  0.00000000000E+00 0. -1.
</event>
<event>
 7    1  0.1220856E-011  0.5930194E+02  0.7816164E-02  0.1266605E+00
        -11   -1    0    0    0    0  0.00000000000E+00  0.00000000000E+00  0.45593999997E+02  0.45594000000E+02  0.51100000000E-03 0.  1.
         11   -1    0    0    0    0 -0.00000000000E+00 -0.00000000000E+00 -0.45593999997E+02  0.45594000000E+02  0.51100000000E-03 0. -1.
    9900012    2    1    2    0    0  0.22729344084E+02  0.17528362080E+02 -0.13887190680E+02  0.59301943099E+02  0.49999998307E+02 0.  0.
        -12    1    1    2    0    0 -0.22729344084E+02 -0.17528362080E+02  0.13887190680E+02  0.31886056901E+02  0.00000000000E+00 0.  1.
         11    1    3    3    0    0 -0.25209987350E+01 -0.30545709276E+01  0.14858185621E+01  0.42300703580E+01  0.51100000000E-03 0. -1.
        -11    1    3    3    0    0  0.10474053472E+02 -0.12053831976E+02 -0.10009964052E+02  0.18846751497E+02  0.51100000000E-03 0.  1.
         12    1    3    3    0    0  0.14776289347E+02  0.32636764983E+02 -0.53630451906E+01  0.36225121244E+02  0.00000000000E+00 0. -1.
</event>
<event>
 7    1  0.1220856E-011  0.5930181E+02  0.7816164E-02  0.1266605E+00
        -11   -1    0    0    0    0  0.00000000000E+00  0.00000000000E+00  0.45593999997E+02  0.45594000000E+02  0.51100000000E-03 0.  1.
         11   -1    0    0    0    0 -0.00000000000E+00 -0.00000000000E+00 -0.45593999997E+02  0.45594000000E+02  0.51100000000E-03 0. -1.
    9900012    2    1    2    0    0 -0.26264562589E+02 -0.38931318744E+01 -0.17656304808E+02  0.59301814539E+02  0.49999763844E+02 0.  0.
        -12    1    1    2    0    0  0.26264562589E+02  0.38931318744E+01  0.17656304808E+02  0.31886185461E+02  0.00000000000E+00 0.  1.
         11    1    3    3    0    0 -0.12043082612E+02 -0.45343351103E+01  0.52330214754E+01  0.13891743869E+02  0.51100000000E-03 0. -1.
        -11    1    3    3    0    0 -0.14393889564E+02 -0.16569937715E+02 -0.14056043968E+02  0.26063753854E+02  0.51100000000E-03 0.  1.
        -12    1    3    3    0    0  0.17240958730E+00  0.17211140951E+02 -0.88332823152E+01  0.19346316817E+02  0.00000000000E+00 0.  1.
</event>
<event>
 7    1  0.1220856E-011  0.5930199E+02  0.7816164E-02  0.1266605E+00
        -11   -1    0    0    0    0  0.00000000000E+00  0.00000000000E+00  0.45593999997E+02  0.45594000000E+02  0.51100000000E-03 0.  1.
         11   -1    0    0    0    0 -0.00000000000E+00 -0.00000000000E+00 -0.45593999997E+02  0.45594000000E+02  0.51100000000E-03 0. -1.
    9900012    2    1    2    0    0 -0.18820526618E+02 -0.25505148629E+02  0.34631042234E+01  0.59301985517E+02  0.50000075667E+02 0.  0.
        -12    1    1    2    0    0  0.18820526618E+02  0.25505148629E+02 -0.34631042234E+01  0.31886014483E+02  0.00000000000E+00 0.  1.
         11    1    3    3    0    0 -0.23660727846E+02 -0.11555765489E+02  0.38510328031E+01  0.26611956188E+02  0.51100000000E-03 0. -1.
        -11    1    3    3    0    0 -0.75771509060E+01 -0.14124545194E+02 -0.82144687360E+01  0.18010926952E+02  0.51100000000E-03 0.  1.
        -12    1    3    3    0    0  0.12417352134E+02  0.17516205454E+00  0.78265401563E+01  0.14679102377E+02  0.00000000000E+00 0.  1.
</event>
<event>
 7    1  0.1220856E-011  0.5930193E+02  0.7816164E-02  0.1266605E+00
        -11   -1    0    0    0    0  0.00000000000E+00  0.00000000000E+00  0.45593999997E+02  0.45594000000E+02  0.51100000000E-03 0. -1.
         11   -1    0    0    0    0 -0.00000000000E+00 -0.00000000000E+00 -0.45593999997E+02  0.45594000000E+02  0.51100000000E-03 0.  1.
    9900012    2    1    2    0    0 -0.23922506770E+01  0.28539029446E+02  0.14018635222E+02  0.59301934101E+02  0.49999981896E+02 0.  0.
        -12    1    1    2    0    0  0.23922506770E+01 -0.28539029446E+02 -0.14018635222E+02  0.31886065899E+02  0.00000000000E+00 0.  1.
         11    1    3    3    0    0  0.16346892208E+01 -0.25701081440E+01 -0.64958205863E+01  0.71744930184E+01  0.51100000000E-03 0. -1.
        -11    1    3    3    0    0  0.11454334564E+02  0.12856869466E+02 -0.41996338022E+01  0.17723932891E+02  0.51100000000E-03 0.  1.
         12    1    3    3    0    0 -0.15481274462E+02  0.18252268124E+02  0.24714089611E+02  0.34403508192E+02  0.00000000000E+00 0. -1.
</event>
<event>
 7    1  0.1220856E-011  0.5930188E+02  0.7816164E-02  0.1266605E+00
        -11   -1    0    0    0    0  0.00000000000E+00  0.00000000000E+00  0.45593999997E+02  0.45594000000E+02  0.51100000000E-03 0. -1.
         11   -1    0    0    0    0 -0.00000000000E+00 -0.00000000000E+00 -0.45593999997E+02  0.45594000000E+02  0.51100000000E-03 0.  1.
    9900012    2    1    2    0    0 -0.29659469733E+02 -0.89424803356E+01 -0.75546279698E+01  0.59301882282E+02  0.49999887390E+02 0.  0.
        -12    1    1    2    0    0  0.29659469733E+02  0.89424803356E+01  0.75546279698E+01  0.31886117718E+02  0.00000000000E+00 0.  1.
         11    1    3    3    0    0 -0.13162446569E+02  0.10082925283E+02  0.75126361238E+01  0.18203161367E+02  0.51100000000E-03 0. -1.
        -11    1    3    3    0    0 -0.22529322368E+02 -0.13155168367E+02 -0.28240812688E+01  0.26241270099E+02  0.51100000000E-03 0.  1.
        -12    1    3    3    0    0  0.60322992042E+01 -0.58702372515E+01 -0.12243182825E+02  0.14857450816E+02  0.00000000000E+00 0.  1.
</event>
<event>
 7    1  0.1220856E-011  0.5930198E+02  0.7816164E-02  0.1266605E+00
        -11   -1    0    0    0    0  0.00000000000E+00  0.00000000000E+00  0.45593999997E+02  0.45594000000E+02  0.51100000000E-03 0.  1.
         11   -1    0    0    0    0 -0.00000000000E+00 -0.00000000000E+00 -0.45593999997E+02  0.45594000000E+02  0.51100000000E-03 0. -1.
    9900012    2    1    2    0    0 -0.24207700329E+02 -0.14008145713E+02 -0.15312659411E+02  0.59301977361E+02  0.50000060791E+02 0.  0.
        -12    1    1    2    0    0  0.24207700329E+02  0.14008145713E+02  0.15312659411E+02  0.31886022639E+02  0.00000000000E+00 0.  1.
         11    1    3    3    0    0  0.76280291281E+01  0.91254461471E+00 -0.19090121399E+01  0.79160529094E+01  0.51100000000E-03 0. -1.
        -11    1    3    3    0    0 -0.23461582208E+01  0.92435992381E+01 -0.88127107509E+01  0.12985085919E+02  0.51100000000E-03 0.  1.
         12    1    3    3    0    0 -0.29489571236E+02 -0.24164289566E+02 -0.45909365203E+01  0.38400838533E+02  0.00000000000E+00 0. -1.
</event>
<event>
 7    1  0.1220856E-011  0.5930192E+02  0.7816164E-02  0.1266605E+00
        -11   -1    0    0    0    0  0.00000000000E+00  0.00000000000E+00  0.45593999997E+02  0.45594000000E+02  0.51100000000E-03 0.  1.
         11   -1    0    0    0    0 -0.00000000000E+00 -0.00000000000E+00 -0.45593999997E+02  0.45594000000E+02  0.51100000000E-03 0. -1.
    9900012    2    1    2    0    0 -0.12810542674E+02  0.27583368089E+02 -0.95796561466E+01  0.59301921366E+02  0.49999958671E+02 0.  0.
        -12    1    1    2    0    0  0.12810542674E+02 -0.27583368089E+02  0.95796561466E+01  0.31886078634E+02  0.00000000000E+00 0.  1.
         11    1    3    3    0    0 -0.33699651469E+00 -0.62752031659E+01 -0.32354227287E+01  0.70682177329E+01  0.51100000000E-03 0. -1.
        -11    1    3    3    0    0 -0.84299904582E+01  0.20602140201E+02  0.14958599937E+02  0.26819258608E+02  0.51100000000E-03 0.  1.
         12    1    3    3    0    0 -0.40435557010E+01  0.13256431055E+02 -0.21302833355E+02  0.25414445025E+02  0.00000000000E+00 0. -1.
</event>
<event>
 7    1  0.1220856E-011  0.5930194E+02  0.7816164E-02  0.1266605E+00
        -11   -1    0    0    0    0  0.00000000000E+00  0.00000000000E+00  0.45593999997E+02  0.45594000000E+02  0.51100000000E-03 0.  1.
         11   -1    0    0    0    0 -0.00000000000E+00 -0.00000000000E+00 -0.45593999997E+02  0.45594000000E+02  0.51100000000E-03 0. -1.
    9900012    2    1    2    0    0  0.48373090578E+01 -0.28011343783E+02 -0.14445959814E+02  0.59301942006E+02  0.49999996312E+02 0.  0.
        -12    1    1    2    0    0 -0.48373090578E+01  0.28011343783E+02  0.14445959814E+02  0.31886057994E+02  0.00000000000E+00 0.  1.
         11    1    3    3    0    0  0.11683552191E+02 -0.17275924697E+02 -0.29069831159E+01  0.21057386282E+02  0.51100000000E-03 0. -1.
        -11    1    3    3    0    0  0.13950245338E+02 -0.34155606368E+01 -0.55618253990E+01  0.15401600614E+02  0.51100000000E-03 0.  1.
        -12    1    3    3    0    0 -0.20796488471E+02 -0.73198584497E+01 -0.59771512989E+01  0.22842955109E+02  0.00000000000E+00 0.  1.
</event>
<event>
 7    1  0.1220856E-011  0.5930192E+02  0.7816164E-02  0.1266605E+00
        -11   -1    0    0    0    0  0.00000000000E+00  0.00000000000E+00  0.45593999997E+02  0.45594000000E+02  0.51100000000E-03 0. -1.
         11   -1    0    0    0    0 -0.00000000000E+00 -0.00000000000E+00 -0.45593999997E+02  0.45594000000E+02  0.51100000000E-03 0.  1.
    9900012    2    1    2    0    0 -0.49444733271E+01 -0.30416208293E+02  0.81931905123E+01  0.59301922879E+02  0.49999961430E+02 0.  0.
        -12    1    1    2    0    0  0.49444733271E+01  0.30416208293E+02 -0.81931905123E+01  0.31886077121E+02  0.00000000000E+00 0.  1.
         11    1    3    3    0    0 -0.11497849548E+02 -0.16074574053E+01 -0.57523234320E+01  0.12956607915E+02  0.51100000000E-03 0. -1.
        -11    1    3    3    0    0  0.35644068021E+01  0.70935971983E+01  0.73368481940E+00  0.79726037615E+01  0.51100000000E-03 0.  1.
        -12    1    3    3    0    0  0.29889694183E+01 -0.35902348086E+02  0.13211829125E+02  0.38372711203E+02  0.00000000000E+00 0.  1.
</event>
<event>
 7    1  0.1220856E-011  0.5930196E+02  0.7816164E-02  0.1266605E+00
        -11   -1    0    0    0    0  0.00000000000E+00  0.00000000000E+00  0.45593999997E+02  0.45594000000E+02  0.51100000000E-03 0.  1.
         11   -1    0    0    0    0 -0.00000000000E+00 -0.00000000000E+00 -0.45593999997E+02  0.45594000000E+02  0.51100000000E-03 0. -1.
    9900012    2    1    2    0    0  0.20081748205E+02  0.24492231410E+02 -0.36842144077E+01  0.59301961579E+02  0.50000032009E+02 0.  0.
        -12    1    1    2    0    0 -0.20081748205E+02 -0.24492231410E+02  0.36842144077E+01  0.31886038421E+02  0.00000000000E+00 0.  1.
         11    1    3    3    0    0  0.90824039902E+01  0.25189818711E+01 -0.75081157576E+01  0.12050192297E+02  0.51100000000E-03 0. -1.
        -11    1    3    3    0    0  0.23942882906E+02  0.20403183060E+02 -0.45080439339E+01  0.31778514459E+02  0.51100000000E-03 0.  1.
        -12    1    3    3    0    0 -0.12943538692E+02  0.15700664790E+01  0.83319452838E+01  0.15473254823E+02  0.00000000000E+00 0.  1.
</event>
<event>
 7    1  0.1743420E-011  0.5930193E+02  0.7816164E-02  0.1266605E+00
        -11   -1    0    0    0    0  0.00000000000E+00  0.00000000000E+00  0.45593999997E+02  0.45594000000E+02  0.51100000000E-03 0. -1.
         11   -1    0    0    0    0 -0.00000000000E+00 -0.00000000000E+00 -0.45593999997E+02  0.45594000000E+02  0.51100000000E-03 0.  1.
    9900012    2    1    2    0    0  0.13433534613E+02  0.13216067413E+02  0.25721526449E+02  0.59301933875E+02  0.49999981484E+02 0.  0.
        -12    1    1    2    0    0 -0.13433534613E+02 -0.13216067413E+02 -0.25721526449E+02  0.31886066125E+02  0.00000000000E+00 0.  1.
         11    1    3    3    0    0  0.96794176579E+01  0.14267729396E+02  0.28640100183E+02  0.33429247181E+02  0.51100000000E-03 0. -1.
        -11    1    3    3    0    0 -0.92236579107E+01 -0.98729645104E+00  0.51312241007E+01  0.10600947154E+02  0.51100000000E-03 0.  1.
        -12    1    3    3    0    0  0.12977774866E+02 -0.64365532609E-01 -0.80497978348E+01  0.15271739540E+02  0.00000000000E+00 0.  1.
</event>
<event>
 7    1  0.1220856E-011  0.5930193E+02  0.7816164E-02  0.1266605E+00
        -11   -1    0    0    0    0  0.00000000000E+00  0.00000000000E+00  0.45593999997E+02  0.45594000000E+02  0.51100000000E-03 0.  1.
         11   -1    0    0    0    0 -0.00000000000E+00 -0.00000000000E+00 -0.45593999997E+02  0.45594000000E+02  0.51100000000E-03 0. -1.
    9900012    2    1    2    0    0  0.14373261704E+02  0.10778588701E+02 -0.26342983679E+02  0.59301930698E+02  0.49999975690E+02 0.  0.
        -12    1    1    2    0    0 -0.14373261704E+02 -0.10778588701E+02  0.26342983679E+02  0.31886069302E+02  0.00000000000E+00 0.  1.
         11    1    3    3    0    0  0.94266811246E+01 -0.64579837846E+01 -0.93701994121E+01  0.14777297076E+02  0.51100000000E-03 0. -1.
        -11    1    3    3    0    0  0.18707851025E+02  0.57740215218E+01  0.38664206686E+00  0.19582454056E+02  0.51100000000E-03 0.  1.
         12    1    3    3    0    0 -0.13761270445E+02  0.11462550964E+02 -0.17359426334E+02  0.24942179566E+02  0.00000000000E+00 0. -1.
</event>
<event>
 7    1  0.1220856E-011  0.5930188E+02  0.7816164E-02  0.1266605E+00
        -11   -1    0    0    0    0  0.00000000000E+00  0.00000000000E+00  0.45593999997E+02  0.45594000000E+02  0.51100000000E-03 0.  1.
         11   -1    0    0    0    0 -0.00000000000E+00 -0.00000000000E+00 -0.45593999997E+02  0.45594000000E+02  0.51100000000E-03 0. -1.
    9900012    2    1    2    0    0 -0.19448249937E+02 -0.19838180790E+02  0.15650455469E+02  0.59301880778E+02  0.49999884647E+02 0.  0.
        -12    1    1    2    0    0  0.19448249937E+02  0.19838180790E+02 -0.15650455469E+02  0.31886119222E+02  0.00000000000E+00 0.  1.
         11    1    3    3    0    0 -0.64589010450E+01 -0.11914042532E+02 -0.41089664809E+01  0.14161405932E+02  0.51100000000E-03 0. -1.
        -11    1    3    3    0    0 -0.20947661034E+02 -0.18027928135E+02  0.12090626588E+02  0.30166105933E+02  0.51100000000E-03 0.  1.
        -12    1    3    3    0    0  0.79583121416E+01  0.10103789877E+02  0.76687953619E+01  0.14974368913E+02  0.00000000000E+00 0.  1.
</event>
<event>
 7    1  0.1220856E-011  0.5930199E+02  0.7816164E-02  0.1266605E+00
        -11   -1    0    0    0    0  0.00000000000E+00  0.00000000000E+00  0.45593999997E+02  0.45594000000E+02  0.51100000000E-03 0.  1.
         11   -1    0    0    0    0 -0.00000000000E+00 -0.00000000000E+00 -0.45593999997E+02  0.45594000000E+02  0.51100000000E-03 0. -1.
    9900012    2    1    2    0    0  0.31209196901E+01  0.13973541766E+02 -0.28490657775E+02  0.59301990691E+02  0.50000085102E+02 0.  0.
        -12    1    1    2    0    0 -0.31209196901E+01 -0.13973541766E+02  0.28490657775E+02  0.31886009309E+02  0.00000000000E+00 0.  1.
         11    1    3    3    0    0  0.19754032170E+01 -0.34501373701E+01  0.70253359385E+01  0.80722370537E+01  0.51100000000E-03 0. -1.
        -11    1    3    3    0    0 -0.12568635467E+02 -0.21868706643E+01 -0.15154131943E+02  0.19809106895E+02  0.51100000000E-03 0.  1.
         12    1    3    3    0    0  0.13714151940E+02  0.19610549800E+02 -0.20361861771E+02  0.31420646742E+02  0.00000000000E+00 0. -1.
</event>
<event>
 7    1  0.1220856E-011  0.5930186E+02  0.7816164E-02  0.1266605E+00
        -11   -1    0    0    0    0  0.00000000000E+00  0.00000000000E+00  0.45593999997E+02  0.45594000000E+02  0.51100000000E-03 0.  1.
         11   -1    0    0    0    0 -0.00000000000E+00 -0.00000000000E+00 -0.45593999997E+02  0.45594000000E+02  0.51100000000E-03 0. -1.
    9900012    2    1    2    0    0  0.25670797806E+02 -0.18655014529E+02  0.31187590135E+01  0.59301857479E+02  0.49999842156E+02 0.  0.
        -12    1    1    2    0    0 -0.25670797806E+02  0.18655014529E+02 -0.31187590135E+01  0.31886142521E+02  0.00000000000E+00 0.  1.
         11    1    3    3    0    0 -0.20335759500E+00 -0.30530491864E+01 -0.13560314901E+01  0.33468321304E+01  0.51100000000E-03 0. -1.
        -11    1    3    3    0    0  0.35251067256E+02 -0.24401654906E+02  0.25069487969E+01  0.42946051010E+02  0.51100000000E-03 0.  1.
        -12    1    3    3    0    0 -0.93769118549E+01  0.87996895639E+01  0.19678417068E+01  0.13008974338E+02  0.00000000000E+00 0.  1.
</event>
<event>
 7    1  0.1220856E-011  0.5930184E+02  0.7816164E-02  0.1266605E+00
        -11   -1    0    0    0    0  0.00000000000E+00  0.00000000000E+00  0.45593999997E+02  0.45594000000E+02  0.51100000000E-03 0.  1.
         11   -1    0    0    0    0 -0.00000000000E+00 -0.00000000000E+00 -0.45593999997E+02  0.45594000000E+02  0.51100000000E-03 0. -1.
    9900012    2    1    2    0    0 -0.29023637645E+02 -0.79974833375E+01  0.10506932409E+02  0.59301844532E+02  0.49999818544E+02 0.  0.
        -12    1    1    2    0    0  0.29023637645E+02  0.79974833375E+01 -0.10506932409E+02  0.31886155468E+02  0.00000000000E+00 0.  1.
         11    1    3    3    0    0  0.70929100670E+01 -0.36400160999E+00  0.46887646857E+01  0.85103692593E+01  0.51100000000E-03 0. -1.
        -11    1    3    3    0    0  0.34992210220E+01 -0.91395715865E+01 -0.28852078684E+01  0.10202977078E+02  0.51100000000E-03 0.  1.
         12    1    3    3    0    0 -0.39615768734E+02  0.15060898589E+01  0.87033755922E+01  0.40588498195E+02  0.00000000000E+00 0. -1.
</event>
<event>
 7    1  0.1220856E-011  0.5930194E+02  0.7816164E-02  0.1266605E+00
        -11   -1    0    0    0    0  0.00000000000E+00  0.00000000000E+00  0.45593999997E+02  0.45594000000E+02  0.51100000000E-03 0.  1.
         11   -1    0    0    0    0 -0.00000000000E+00 -0.00000000000E+00 -0.45593999997E+02  0.45594000000E+02  0.51100000000E-03 0. -1.
    9900012    2    1    2    0    0  0.18213042316E+02 -0.17443709264E+02 -0.19512118377E+02  0.59301942438E+02  0.49999997101E+02 0.  0.
        -12    1    1    2    0    0 -0.18213042316E+02  0.17443709264E+02  0.19512118377E+02  0.31886057562E+02  0.00000000000E+00 0.  1.
         11    1    3    3    0    0  0.10042108893E+02  0.48412129398E+01 -0.32482779191E+01  0.11611744203E+02  0.51100000000E-03 0. -1.
        -11    1    3    3    0    0  0.74267221550E+01  0.41890956051E+01 -0.19234400615E+02  0.21039650455E+02  0.51100000000E-03 0.  1.
        -12    1    3    3    0    0  0.74421126775E+00 -0.26474017809E+02  0.29705601578E+01  0.26650547780E+02  0.00000000000E+00 0.  1.
</event>
<event>
 7    1  0.1220856E-011  0.5930192E+02  0.7816164E-02  0.1266605E+00
        -11   -1    0    0    0    0  0.00000000000E+00  0.00000000000E+00  0.45593999997E+02  0.45594000000E+02  0.51100000000E-03 0.  1.
         11   -1    0    0    0    0 -0.00000000000E+00 -0.00000000000E+00 -0.45593999997E+02  0.45594000000E+02  0.51100000000E-03 0. -1.
    9900012    2    1    2    0    0  0.30248876773E+02  0.10044608578E+02  0.91280382231E+00  0.59301922813E+02  0.49999961310E+02 0.  0.
        -12    1    1    2    0    0 -0.30248876773E+02 -0.10044608578E+02 -0.91280382231E+00  0.31886077187E+02  0.00000000000E+00 0.  1.
         11    1    3    3    0    0 -0.12123935410E+01 -0.33039562402E+01 -0.50135688715E+01  0.61255120624E+01  0.51100000000E-03 0. -1.
        -11    1    3    3    0    0 -0.49425443950E+01  0.93987367403E+01  0.12038057023E+02  0.16052408373E+02  0.51100000000E-03 0.  1.
        -12    1    3    3    0    0  0.36403814709E+02  0.39498280781E+01 -0.61116843295E+01  0.37124002378E+02  0.00000000000E+00 0.  1.
</event>
<event>
 7    1  0.1220856E-011  0.5930194E+02  0.7816164E-02  0.1266605E+00
        -11   -1    0    0    0    0  0.00000000000E+00  0.00000000000E+00  0.45593999997E+02  0.45594000000E+02  0.51100000000E-03 0.  1.
         11   -1    0    0    0    0 -0.00000000000E+00 -0.00000000000E+00 -0.45593999997E+02  0.45594000000E+02  0.51100000000E-03 0. -1.
    9900012    2    1    2    0    0  0.50624054933E+01  0.18869717110E+02 -0.25199737019E+02  0.59301938484E+02  0.49999989889E+02 0.  0.
        -12    1    1    2    0    0 -0.50624054933E+01 -0.18869717110E+02  0.25199737019E+02  0.31886061516E+02  0.00000000000E+00 0.  1.
         11    1    3    3    0    0 -0.29128270724E+01 -0.69215684265E+01 -0.18556044374E+02  0.20017978272E+02  0.51100000000E-03 0. -1.
        -11    1    3    3    0    0  0.78249965764E+01 -0.28101808510E+00 -0.10319029236E+02  0.12953451556E+02  0.51100000000E-03 0.  1.
        -12    1    3    3    0    0  0.15023598924E+00  0.26072303621E+02  0.36753365906E+01  0.26330508655E+02  0.00000000000E+00 0.  1.
</event>
<event>
 7    1  0.1220856E-011  0.5930194E+02  0.7816164E-02  0.1266605E+00
        -11   -1    0    0    0    0  0.00000000000E+00  0.00000000000E+00  0.45593999997E+02  0.45594000000E+02  0.51100000000E-03 0.  1.
         11   -1    0    0    0    0 -0.00000000000E+00 -0.00000000000E+00 -0.45593999997E+02  0.45594000000E+02  0.51100000000E-03 0. -1.
    9900012    2    1    2    0    0 -0.30470972295E+02  0.23335417816E+01  0.90991762222E+01  0.59301943835E+02  0.49999999648E+02 0.  0.
        -12    1    1    2    0    0  0.30470972295E+02 -0.23335417816E+01 -0.90991762222E+01  0.31886056165E+02  0.00000000000E+00 0.  1.
         11    1    3    3    0    0  0.38305932747E+01 -0.22009889103E+00  0.78527107589E+01  0.87399630939E+01  0.51100000000E-03 0.  1.
        -11    1    3    3    0    0 -0.30368507875E+02 -0.13007637960E+02 -0.48528491853E+01  0.33391541763E+02  0.51100000000E-03 0. -1.
         12    1    3    3    0    0 -0.39330576943E+01  0.15561278632E+02  0.60993146485E+01  0.17170438978E+02  0.00000000000E+00 0. -1.
</event>
<event>
 7    1  0.1220856E-011  0.5930182E+02  0.7816164E-02  0.1266605E+00
        -11   -1    0    0    0    0  0.00000000000E+00  0.00000000000E+00  0.45593999997E+02  0.45594000000E+02  0.51100000000E-03 0.  1.
         11   -1    0    0    0    0 -0.00000000000E+00 -0.00000000000E+00 -0.45593999997E+02  0.45594000000E+02  0.51100000000E-03 0. -1.
    9900012    2    1    2    0    0  0.60439731949E+01 -0.28549634573E+02 -0.12849784700E+02  0.59301824107E+02  0.49999781293E+02 0.  0.
        -12    1    1    2    0    0 -0.60439731949E+01  0.28549634573E+02  0.12849784700E+02  0.31886175893E+02  0.00000000000E+00 0.  1.
         11    1    3    3    0    0 -0.61150886115E+01  0.46252193709E+01 -0.12832611202E+00  0.76683395079E+01  0.51100000000E-03 0.  1.
        -11    1    3    3    0    0  0.33123886642E+01 -0.38898428072E+02 -0.12838580433E+02  0.41096091942E+02  0.51100000000E-03 0. -1.
         12    1    3    3    0    0  0.88466731422E+01  0.57235741277E+01  0.11712184577E+00  0.10537392657E+02  0.00000000000E+00 0. -1.
</event>
<event>
 7    1  0.1220856E-011  0.5930174E+02  0.7816164E-02  0.1266605E+00
        -11   -1    0    0    0    0  0.00000000000E+00  0.00000000000E+00  0.45593999997E+02  0.45594000000E+02  0.51100000000E-03 0. -1.
         11   -1    0    0    0    0 -0.00000000000E+00 -0.00000000000E+00 -0.45593999997E+02  0.45594000000E+02  0.51100000000E-03 0.  1.
    9900012    2    1    2    0    0 -0.16726948859E+02  0.25629554448E+02  0.89481098961E+01  0.59301740420E+02  0.49999628666E+02 0.  0.
        -12    1    1    2    0    0  0.16726948859E+02 -0.25629554448E+02 -0.89481098961E+01  0.31886259580E+02  0.00000000000E+00 0.  1.
         11    1    3    3    0    0 -0.13848991067E+02  0.12655761114E+02 -0.91191729106E+01  0.20859581917E+02  0.51100000000E-03 0. -1.
        -11    1    3    3    0    0 -0.52682859067E+01 -0.95827555622E+01  0.83809568993E+01  0.13777680479E+02  0.51100000000E-03 0.  1.
         12    1    3    3    0    0  0.23903281147E+01  0.22556548896E+02  0.96863259075E+01  0.24664478024E+02  0.00000000000E+00 0. -1.
</event>
<event>
 7    1  0.1220856E-011  0.5930193E+02  0.7816164E-02  0.1266605E+00
        -11   -1    0    0    0    0  0.00000000000E+00  0.00000000000E+00  0.45593999997E+02  0.45594000000E+02  0.51100000000E-03 0.  1.
         11   -1    0    0    0    0 -0.00000000000E+00 -0.00000000000E+00 -0.45593999997E+02  0.45594000000E+02  0.51100000000E-03 0. -1.
    9900012    2    1    2    0    0 -0.25339194600E+02  0.39024054344E+01 -0.18958321644E+02  0.59301929206E+02  0.49999972969E+02 0.  0.
        -12    1    1    2    0    0  0.25339194600E+02 -0.39024054344E+01  0.18958321644E+02  0.31886070794E+02  0.00000000000E+00 0.  1.
         11    1    3    3    0    0 -0.26950989799E+02 -0.55064722561E+01 -0.66229027838E+01  0.28293814331E+02  0.51100000000E-03 0. -1.
        -11    1    3    3    0    0 -0.26010934012E+01 -0.60987465200E+01  0.42810640468E+01  0.78922687252E+01  0.51100000000E-03 0.  1.
         12    1    3    3    0    0  0.42128886009E+01  0.15507624210E+02 -0.16616482907E+02  0.23115846149E+02  0.00000000000E+00 0. -1.
</event>
<event>
 7    1  0.1220856E-011  0.5930196E+02  0.7816164E-02  0.1266605E+00
        -11   -1    0    0    0    0  0.00000000000E+00  0.00000000000E+00  0.45593999997E+02  0.45594000000E+02  0.51100000000E-03 0.  1.
         11   -1    0    0    0    0 -0.00000000000E+00 -0.00000000000E+00 -0.45593999997E+02  0.45594000000E+02  0.51100000000E-03 0. -1.
    9900012    2    1    2    0    0  0.24679092009E+02  0.20074753886E+02 -0.21600985377E+01  0.59301963061E+02  0.50000034712E+02 0.  0.
        -12    1    1    2    0    0 -0.24679092009E+02 -0.20074753886E+02  0.21600985377E+01  0.31886036939E+02  0.00000000000E+00 0.  1.
         11    1    3    3    0    0  0.13963515199E+02 -0.64835099377E+00  0.19922402575E+01  0.14119813640E+02  0.51100000000E-03 0. -1.
        -11    1    3    3    0    0  0.58141067392E+01 -0.69365269124E+01  0.10200618025E+02  0.13637149671E+02  0.51100000000E-03 0.  1.
         12    1    3    3    0    0  0.49014700703E+01  0.27659631792E+02 -0.14352956821E+02  0.31544999750E+02  0.00000000000E+00 0. -1.
</event>
<event>
 7    1  0.1220856E-011  0.5930192E+02  0.7816164E-02  0.1266605E+00
        -11   -1    0    0    0    0  0.00000000000E+00  0.00000000000E+00  0.45593999997E+02  0.45594000000E+02  0.51100000000E-03 0. -1.
         11   -1    0    0    0    0 -0.00000000000E+00 -0.00000000000E+00 -0.45593999997E+02  0.45594000000E+02  0.51100000000E-03 0.  1.
    9900012    2    1    2    0    0  0.11498194560E+02  0.20733133105E+02  0.21322544653E+02  0.59301918444E+02  0.49999953342E+02 0.  0.
        -12    1    1    2    0    0 -0.11498194560E+02 -0.20733133105E+02 -0.21322544653E+02  0.31886081556E+02  0.00000000000E+00 0.  1.
         11    1    3    3    0    0  0.52251910514E+01  0.87380932774E+01  0.52316821072E+01  0.11446719774E+02  0.51100000000E-03 0. -1.
        -11    1    3    3    0    0  0.12050368755E+02 -0.34798172732E+01  0.25805422941E+02  0.28692165635E+02  0.51100000000E-03 0.  1.
        -12    1    3    3    0    0 -0.57773652466E+01  0.15474857101E+02 -0.97145603948E+01  0.19163033036E+02  0.00000000000E+00 0.  1.
</event>
<event>
 7    1  0.1220856E-011  0.5930198E+02  0.7816164E-02  0.1266605E+00
        -11   -1    0    0    0    0  0.00000000000E+00  0.00000000000E+00  0.45593999997E+02  0.45594000000E+02  0.51100000000E-03 0.  1.
         11   -1    0    0    0    0 -0.00000000000E+00 -0.00000000000E+00 -0.45593999997E+02  0.45594000000E+02  0.51100000000E-03 0. -1.
    9900012    2    1    2    0    0 -0.64765755899E+01  0.12288284939E+02 -0.28701401539E+02  0.59301977539E+02  0.50000061116E+02 0.  0.
        -12    1    1    2    0    0  0.64765755899E+01 -0.12288284939E+02  0.28701401539E+02  0.31886022461E+02  0.00000000000E+00 0.  1.
         11    1    3    3    0    0 -0.75281031343E+01 -0.27518125080E+01 -0.41237943149E+01  0.90139052964E+01  0.51100000000E-03 0. -1.
        -11    1    3    3    0    0 -0.53789870586E+00 -0.55708184086E+01  0.91520336459E+01  0.10727677888E+02  0.51100000000E-03 0.  1.
         12    1    3    3    0    0  0.15894262503E+01  0.20610915856E+02 -0.33729640870E+02  0.39560394354E+02  0.00000000000E+00 0. -1.
</event>
<event>
 7    1  0.1220856E-011  0.5930194E+02  0.7816164E-02  0.1266605E+00
        -11   -1    0    0    0    0  0.00000000000E+00  0.00000000000E+00  0.45593999997E+02  0.45594000000E+02  0.51100000000E-03 0.  1.
         11   -1    0    0    0    0 -0.00000000000E+00 -0.00000000000E+00 -0.45593999997E+02  0.45594000000E+02  0.51100000000E-03 0. -1.
    9900012    2    1    2    0    0  0.68932101914E+01 -0.25541454246E+02 -0.17799959437E+02  0.59301940543E+02  0.49999993645E+02 0.  0.
        -12    1    1    2    0    0 -0.68932101914E+01  0.25541454246E+02  0.17799959437E+02  0.31886059457E+02  0.00000000000E+00 0.  1.
         11    1    3    3    0    0 -0.83032552991E+01 -0.23181586285E+02 -0.11779139187E+02  0.27296118982E+02  0.51100000000E-03 0. -1.
        -11    1    3    3    0    0 -0.22097219852E+01 -0.30196067447E+01  0.85265254696E+01  0.93114194938E+01  0.51100000000E-03 0.  1.
         12    1    3    3    0    0  0.17406187476E+02  0.65973878353E+00 -0.14547345720E+02  0.22694402067E+02  0.00000000000E+00 0. -1.
</event>
<event>
 7    1  0.1220856E-011  0.5930191E+02  0.7816164E-02  0.1266605E+00
        -11   -1    0    0    0    0  0.00000000000E+00  0.00000000000E+00  0.45593999997E+02  0.45594000000E+02  0.51100000000E-03 0.  1.
         11   -1    0    0    0    0 -0.00000000000E+00 -0.00000000000E+00 -0.45593999997E+02  0.45594000000E+02  0.51100000000E-03 0. -1.
    9900012    2    1    2    0    0  0.27839848227E+02 -0.11671012008E+02  0.10269049628E+02  0.59301905055E+02  0.49999928923E+02 0.  0.
        -12    1    1    2    0    0 -0.27839848227E+02  0.11671012008E+02 -0.10269049628E+02  0.31886094945E+02  0.00000000000E+00 0.  1.
         11    1    3    3    0    0  0.56893331918E+01 -0.63057763009E+01 -0.76224917535E-01  0.84933584302E+01  0.51100000000E-03 0. -1.
        -11    1    3    3    0    0  0.35052579518E+02  0.78745733990E+00  0.10195601307E+02  0.36513746811E+02  0.51100000000E-03 0.  1.
        -12    1    3    3    0    0 -0.12902064482E+02 -0.61526930469E+01  0.14967323828E+00  0.14294799814E+02  0.00000000000E+00 0.  1.
</event>
<event>
 7    1  0.1220856E-011  0.5930194E+02  0.7816164E-02  0.1266605E+00
        -11   -1    0    0    0    0  0.00000000000E+00  0.00000000000E+00  0.45593999997E+02  0.45594000000E+02  0.51100000000E-03 0.  1.
         11   -1    0    0    0    0 -0.00000000000E+00 -0.00000000000E+00 -0.45593999997E+02  0.45594000000E+02  0.51100000000E-03 0. -1.
    9900012    2    1    2    0    0  0.13299923584E+02  0.59064662128E+01 -0.28371573693E+02  0.59301944987E+02  0.50000001750E+02 0.  0.
        -12    1    1    2    0    0 -0.13299923584E+02 -0.59064662128E+01  0.28371573693E+02  0.31886055013E+02  0.00000000000E+00 0.  1.
         11    1    3    3    0    0 -0.70375655844E+01  0.61290843275E+00 -0.84907569014E+01  0.11045177188E+02  0.51100000000E-03 0. -1.
        -11    1    3    3    0    0  0.13309655270E+02 -0.16038909215E+02 -0.53906398003E+01  0.21527947648E+02  0.51100000000E-03 0.  1.
         12    1    3    3    0    0  0.70278338981E+01  0.21332466995E+02 -0.14490176991E+02  0.26728820151E+02  0.00000000000E+00 0. -1.
</event>
<event>
 7    1  0.1220856E-011  0.5930195E+02  0.7816164E-02  0.1266605E+00
        -11   -1    0    0    0    0  0.00000000000E+00  0.00000000000E+00  0.45593999997E+02  0.45594000000E+02  0.51100000000E-03 0. -1.
         11   -1    0    0    0    0 -0.00000000000E+00 -0.00000000000E+00 -0.45593999997E+02  0.45594000000E+02  0.51100000000E-03 0.  1.
    9900012    2    1    2    0    0 -0.74735745593E+01  0.22700028268E+02  0.21108640034E+02  0.59301948439E+02  0.50000008046E+02 0.  0.
        -12    1    1    2    0    0  0.74735745593E+01 -0.22700028268E+02 -0.21108640034E+02  0.31886051561E+02  0.00000000000E+00 0.  1.
         11    1    3    3    0    0 -0.63517006535E+01  0.15504770406E+02 -0.11781759833E+01  0.16796729010E+02  0.51100000000E-03 0. -1.
        -11    1    3    3    0    0  0.43454779785E+01  0.12456999413E+02 -0.50561788072E+01  0.14128869651E+02  0.51100000000E-03 0.  1.
         12    1    3    3    0    0 -0.54673518843E+01 -0.52617415504E+01  0.27342994824E+02  0.28376349778E+02  0.00000000000E+00 0. -1.
</event>
<event>
 7    1  0.1220856E-011  0.5930194E+02  0.7816164E-02  0.1266605E+00
        -11   -1    0    0    0    0  0.00000000000E+00  0.00000000000E+00  0.45593999997E+02  0.45594000000E+02  0.51100000000E-03 0.  1.
         11   -1    0    0    0    0 -0.00000000000E+00 -0.00000000000E+00 -0.45593999997E+02  0.45594000000E+02  0.51100000000E-03 0. -1.
    9900012    2    1    2    0    0  0.17471293855E+01 -0.10841402720E+02 -0.29935474716E+02  0.59301935324E+02  0.49999984127E+02 0.  0.
        -12    1    1    2    0    0 -0.17471293855E+01  0.10841402720E+02  0.29935474716E+02  0.31886064676E+02  0.00000000000E+00 0.  1.
         11    1    3    3    0    0  0.10574663026E+01  0.75867263061E+01 -0.53070775916E-01  0.76602524628E+01  0.51100000000E-03 0. -1.
        -11    1    3    3    0    0  0.12123187239E+02 -0.32491194584E+01  0.36742173009E+01  0.13077779594E+02  0.51100000000E-03 0.  1.
        -12    1    3    3    0    0 -0.11433524156E+02 -0.15179009568E+02 -0.33556621241E+02  0.38563903267E+02  0.00000000000E+00 0.  1.
</event>
<event>
 7    1  0.1220856E-011  0.5930195E+02  0.7816164E-02  0.1266605E+00
        -11   -1    0    0    0    0  0.00000000000E+00  0.00000000000E+00  0.45593999997E+02  0.45594000000E+02  0.51100000000E-03 0. -1.
         11   -1    0    0    0    0 -0.00000000000E+00 -0.00000000000E+00 -0.45593999997E+02  0.45594000000E+02  0.51100000000E-03 0.  1.
    9900012    2    1    2    0    0  0.21524168799E+02  0.12276286177E+02  0.20067970737E+02  0.59301945144E+02  0.50000002035E+02 0.  0.
        -12    1    1    2    0    0 -0.21524168799E+02 -0.12276286177E+02 -0.20067970737E+02  0.31886054856E+02  0.00000000000E+00 0.  1.
         11    1    3    3    0    0  0.26131880802E+02  0.33341178046E+01  0.62429638097E+01  0.27073347284E+02  0.51100000000E-03 0. -1.
        -11    1    3    3    0    0  0.21617559819E+01 -0.68147774597E+01  0.13266076914E+02  0.15069942856E+02  0.51100000000E-03 0.  1.
        -12    1    3    3    0    0 -0.67694679848E+01  0.15756945833E+02  0.55893001363E+00  0.17158655004E+02  0.00000000000E+00 0.  1.
</event>
<event>
 7    1  0.1220856E-011  0.5930188E+02  0.7816164E-02  0.1266605E+00
        -11   -1    0    0    0    0  0.00000000000E+00  0.00000000000E+00  0.45593999997E+02  0.45594000000E+02  0.51100000000E-03 0. -1.
         11   -1    0    0    0    0 -0.00000000000E+00 -0.00000000000E+00 -0.45593999997E+02  0.45594000000E+02  0.51100000000E-03 0.  1.
    9900012    2    1    2    0    0  0.90358266444E+01 -0.28409537607E+02  0.11312682416E+02  0.59301878040E+02  0.49999879655E+02 0.  0.
        -12    1    1    2    0    0 -0.90358266444E+01  0.28409537607E+02 -0.11312682416E+02  0.31886121960E+02  0.00000000000E+00 0.  1.
         11    1    3    3    0    0 -0.23977005306E+01 -0.15039627017E+02  0.15226391786E+02  0.21535606695E+02  0.51100000000E-03 0. -1.
        -11    1    3    3    0    0  0.11600552757E+02 -0.10617764275E+02  0.13138744826E+02  0.20492348775E+02  0.51100000000E-03 0.  1.
        -12    1    3    3    0    0 -0.16702558206E+00 -0.27521463146E+01 -0.17052454195E+02  0.17273922570E+02  0.00000000000E+00 0.  1.
</event>
<event>
 7    1  0.1220856E-011  0.5930178E+02  0.7816164E-02  0.1266605E+00
        -11   -1    0    0    0    0  0.00000000000E+00  0.00000000000E+00  0.45593999997E+02  0.45594000000E+02  0.51100000000E-03 0. -1.
         11   -1    0    0    0    0 -0.00000000000E+00 -0.00000000000E+00 -0.45593999997E+02  0.45594000000E+02  0.51100000000E-03 0.  1.
    9900012    2    1    2    0    0 -0.22574717266E+01  0.31798906912E+02 -0.68150883865E+00  0.59301778624E+02  0.49999698342E+02 0.  0.
        -12    1    1    2    0    0  0.22574717266E+01 -0.31798906912E+02  0.68150883865E+00  0.31886221376E+02  0.00000000000E+00 0.  1.
         11    1    3    3    0    0  0.14432699869E+01  0.58534601219E+01  0.57222941806E+01  0.83120800408E+01  0.51100000000E-03 0. -1.
        -11    1    3    3    0    0 -0.22628611314E+02  0.10960918687E+02  0.24804993918E+01  0.25265562846E+02  0.51100000000E-03 0.  1.
         12    1    3    3    0    0  0.18927869600E+02  0.14984528103E+02 -0.88843024111E+01  0.25724135737E+02  0.00000000000E+00 0. -1.
</event>
<event>
 7    1  0.1220856E-011  0.5930188E+02  0.7816164E-02  0.1266605E+00
        -11   -1    0    0    0    0  0.00000000000E+00  0.00000000000E+00  0.45593999997E+02  0.45594000000E+02  0.51100000000E-03 0.  1.
         11   -1    0    0    0    0 -0.00000000000E+00 -0.00000000000E+00 -0.45593999997E+02  0.45594000000E+02  0.51100000000E-03 0. -1.
    9900012    2    1    2    0    0  0.13059919860E+02 -0.18422626330E+02 -0.22511545850E+02  0.59301884460E+02  0.49999891363E+02 0.  0.
        -12    1    1    2    0    0 -0.13059919860E+02  0.18422626330E+02  0.22511545850E+02  0.31886115540E+02  0.00000000000E+00 0.  1.
         11    1    3    3    0    0  0.40670358214E+01 -0.54223943700E+01 -0.22576593990E+02  0.23572139010E+02  0.51100000000E-03 0. -1.
        -11    1    3    3    0    0  0.55212410364E+01 -0.23642078083E+02 -0.19485061780E+01  0.24356285334E+02  0.51100000000E-03 0.  1.
         12    1    3    3    0    0  0.34716430021E+01  0.10641846123E+02  0.20135543178E+01  0.11373460116E+02  0.00000000000E+00 0. -1.
</event>
<event>
 7    1  0.1220856E-011  0.5930194E+02  0.7816164E-02  0.1266605E+00
        -11   -1    0    0    0    0  0.00000000000E+00  0.00000000000E+00  0.45593999997E+02  0.45594000000E+02  0.51100000000E-03 0.  1.
         11   -1    0    0    0    0 -0.00000000000E+00 -0.00000000000E+00 -0.45593999997E+02  0.45594000000E+02  0.51100000000E-03 0. -1.
    9900012    2    1    2    0    0 -0.20002323756E+02  0.18728482151E+02  0.16305573942E+02  0.59301941277E+02  0.49999994984E+02 0.  0.
        -12    1    1    2    0    0  0.20002323756E+02 -0.18728482151E+02 -0.16305573942E+02  0.31886058723E+02  0.00000000000E+00 0.  1.
         11    1    3    3    0    0 -0.11187143595E+02  0.76818774973E+01 -0.10261174553E+02  0.17013380827E+02  0.51100000000E-03 0. -1.
        -11    1    3    3    0    0 -0.11172586984E+02 -0.40134132170E+01  0.24804495045E+00  0.11874161533E+02  0.51100000000E-03 0.  1.
        -12    1    3    3    0    0  0.23574068236E+01  0.15060017870E+02  0.26318703545E+02  0.30414398917E+02  0.00000000000E+00 0.  1.
</event>
<event>
 7    1  0.1220856E-011  0.5930198E+02  0.7816164E-02  0.1266605E+00
        -11   -1    0    0    0    0  0.00000000000E+00  0.00000000000E+00  0.45593999997E+02  0.45594000000E+02  0.51100000000E-03 0.  1.
         11   -1    0    0    0    0 -0.00000000000E+00 -0.00000000000E+00 -0.45593999997E+02  0.45594000000E+02  0.51100000000E-03 0. -1.
    9900012    2    1    2    0    0 -0.92301433766E+01 -0.56278983964E+01 -0.29997487550E+02  0.59301983529E+02  0.50000072040E+02 0.  0.
        -12    1    1    2    0    0  0.92301433766E+01  0.56278983964E+01  0.29997487550E+02  0.31886016471E+02  0.00000000000E+00 0.  1.
         11    1    3    3    0    0  0.69918667181E+01 -0.49541978768E+01 -0.71452145599E+01  0.11157256301E+02  0.51100000000E-03 0.  1.
        -11    1    3    3    0    0 -0.87268727551E+01  0.79264674264E+01  0.86619235917E+01  0.14629289611E+02  0.51100000000E-03 0. -1.
         12    1    3    3    0    0 -0.74951373396E+01 -0.86001679460E+01 -0.31514196582E+02  0.33515437617E+02  0.00000000000E+00 0. -1.
</event>
<event>
 7    1  0.1220856E-011  0.5930193E+02  0.7816164E-02  0.1266605E+00
        -11   -1    0    0    0    0  0.00000000000E+00  0.00000000000E+00  0.45593999997E+02  0.45594000000E+02  0.51100000000E-03 0.  1.
         11   -1    0    0    0    0 -0.00000000000E+00 -0.00000000000E+00 -0.45593999997E+02  0.45594000000E+02  0.51100000000E-03 0. -1.
    9900012    2    1    2    0    0  0.43182127535E+01  0.31084159787E+02 -0.56435232882E+01  0.59301932413E+02  0.49999978818E+02 0.  0.
        -12    1    1    2    0    0 -0.43182127535E+01 -0.31084159787E+02  0.56435232882E+01  0.31886067587E+02  0.00000000000E+00 0.  1.
         11    1    3    3    0    0  0.11238864587E+02  0.22472535222E+02  0.40852568768E+01  0.25456163114E+02  0.51100000000E-03 0. -1.
        -11    1    3    3    0    0 -0.12166055179E+02  0.17891162614E+02 -0.51241958836E+01  0.22234297426E+02  0.51100000000E-03 0.  1.
         12    1    3    3    0    0  0.52454033457E+01 -0.92795380488E+01 -0.46045842814E+01  0.11611471873E+02  0.00000000000E+00 0. -1.
</event>
<event>
 7    1  0.1220856E-011  0.5930195E+02  0.7816164E-02  0.1266605E+00
        -11   -1    0    0    0    0  0.00000000000E+00  0.00000000000E+00  0.45593999997E+02  0.45594000000E+02  0.51100000000E-03 0.  1.
         11   -1    0    0    0    0 -0.00000000000E+00 -0.00000000000E+00 -0.45593999997E+02  0.45594000000E+02  0.51100000000E-03 0. -1.
    9900012    2    1    2    0    0  0.18889175991E+02 -0.25633132154E+02  0.16915988226E+01  0.59301953832E+02  0.50000017881E+02 0.  0.
        -12    1    1    2    0    0 -0.18889175991E+02  0.25633132154E+02 -0.16915988226E+01  0.31886046168E+02  0.00000000000E+00 0.  1.
         11    1    3    3    0    0  0.12052415713E+02  0.37037921741E+01  0.37771109703E+01  0.13162270645E+02  0.51100000000E-03 0. -1.
        -11    1    3    3    0    0  0.67566316718E+01  0.63161687537E+01  0.38086155357E+01  0.10002580259E+02  0.51100000000E-03 0.  1.
         12    1    3    3    0    0  0.80128605532E-01 -0.35653093082E+02 -0.58941276834E+01  0.36137102928E+02  0.00000000000E+00 0. -1.
</event>
<event>
 7    1  0.1220856E-011  0.5930194E+02  0.7816164E-02  0.1266605E+00
        -11   -1    0    0    0    0  0.00000000000E+00  0.00000000000E+00  0.45593999997E+02  0.45594000000E+02  0.51100000000E-03 0.  1.
         11   -1    0    0    0    0 -0.00000000000E+00 -0.00000000000E+00 -0.45593999997E+02  0.45594000000E+02  0.51100000000E-03 0. -1.
    9900012    2    1    2    0    0  0.29115393835E+02 -0.21246281392E+01 -0.12825784970E+02  0.59301937794E+02  0.49999988632E+02 0.  0.
        -12    1    1    2    0    0 -0.29115393835E+02  0.21246281392E+01  0.12825784970E+02  0.31886062206E+02  0.00000000000E+00 0.  1.
         11    1    3    3    0    0  0.47398885279E+01 -0.12733358697E+02 -0.80258907624E+01  0.15780364057E+02  0.51100000000E-03 0. -1.
        -11    1    3    3    0    0  0.33280994933E+01  0.13213421101E+02 -0.14762764323E+02  0.20090046146E+02  0.51100000000E-03 0.  1.
         12    1    3    3    0    0  0.21047405814E+02 -0.26046905432E+01  0.99628701161E+01  0.23431527591E+02  0.00000000000E+00 0. -1.
</event>
<event>
 7    1  0.1220856E-011  0.5930195E+02  0.7816164E-02  0.1266605E+00
        -11   -1    0    0    0    0  0.00000000000E+00  0.00000000000E+00  0.45593999997E+02  0.45594000000E+02  0.51100000000E-03 0.  1.
         11   -1    0    0    0    0 -0.00000000000E+00 -0.00000000000E+00 -0.45593999997E+02  0.45594000000E+02  0.51100000000E-03 0. -1.
    9900012    2    1    2    0    0  0.22926913353E+01 -0.16350263789E+02 -0.27278800217E+02  0.59301945041E+02  0.50000001849E+02 0.  0.
        -12    1    1    2    0    0 -0.22926913353E+01  0.16350263789E+02  0.27278800217E+02  0.31886054959E+02  0.00000000000E+00 0.  1.
         11    1    3    3    0    0 -0.18443225839E+02 -0.55499958590E+01 -0.11185431540E+02  0.22272604526E+02  0.51100000000E-03 0.  1.
        -11    1    3    3    0    0 -0.24192509926E+01 -0.40859271442E+01  0.35518371607E+01  0.59298502064E+01  0.51100000000E-03 0. -1.
         12    1    3    3    0    0  0.23155168167E+02 -0.67143407859E+01 -0.19645205838E+02  0.31099490309E+02  0.00000000000E+00 0. -1.
</event>
<event>
 7    1  0.1220856E-011  0.5930204E+02  0.7816164E-02  0.1266604E+00
        -11   -1    0    0    0    0  0.00000000000E+00  0.00000000000E+00  0.45593999997E+02  0.45594000000E+02  0.51100000000E-03 0.  1.
         11   -1    0    0    0    0 -0.00000000000E+00 -0.00000000000E+00 -0.45593999997E+02  0.45594000000E+02  0.51100000000E-03 0. -1.
    9900012    2    1    2    0    0  0.60848215808E+01  0.11523492529E+02 -0.29101517256E+02  0.59302043211E+02  0.50000180886E+02 0.  0.
        -12    1    1    2    0    0 -0.60848215808E+01 -0.11523492529E+02  0.29101517256E+02  0.31885956789E+02  0.00000000000E+00 0.  1.
         11    1    3    3    0    0 -0.15732150148E+01  0.15572843705E+02 -0.10016459883E+02  0.18582732184E+02  0.51100000000E-03 0. -1.
        -11    1    3    3    0    0  0.16604829862E+02 -0.56094871002E+01  0.21169180130E+01  0.17654123100E+02  0.51100000000E-03 0.  1.
         12    1    3    3    0    0 -0.89467932665E+01  0.15601359234E+01 -0.21201975387E+02  0.23065187928E+02  0.00000000000E+00 0. -1.
</event>
<event>
 7    1  0.1220856E-011  0.5930194E+02  0.7816164E-02  0.1266605E+00
        -11   -1    0    0    0    0  0.00000000000E+00  0.00000000000E+00  0.45593999997E+02  0.45594000000E+02  0.51100000000E-03 0.  1.
         11   -1    0    0    0    0 -0.00000000000E+00 -0.00000000000E+00 -0.45593999997E+02  0.45594000000E+02  0.51100000000E-03 0. -1.
    9900012    2    1    2    0    0 -0.23432319787E+02  0.64543674310E+01 -0.20639481279E+02  0.59301942592E+02  0.49999997382E+02 0.  0.
        -12    1    1    2    0    0  0.23432319787E+02 -0.64543674310E+01  0.20639481279E+02  0.31886057408E+02  0.00000000000E+00 0.  1.
         11    1    3    3    0    0 -0.20974281463E+01 -0.59872732705E+01 -0.15839937890E+01  0.65387829624E+01  0.51100000000E-03 0. -1.
        -11    1    3    3    0    0  0.83747718977E+01 -0.81068844762E+01 -0.10390975151E+02  0.15615080694E+02  0.51100000000E-03 0.  1.
         12    1    3    3    0    0 -0.29709663538E+02  0.20548525178E+02 -0.86645123397E+01  0.37148078936E+02  0.00000000000E+00 0. -1.
</event>
<event>
 7    1  0.1373506E-011  0.5930209E+02  0.7816164E-02  0.1266604E+00
        -11   -1    0    0    0    0  0.00000000000E+00  0.00000000000E+00  0.45593999997E+02  0.45594000000E+02  0.51100000000E-03 0. -1.
         11   -1    0    0    0    0 -0.00000000000E+00 -0.00000000000E+00 -0.45593999997E+02  0.45594000000E+02  0.51100000000E-03 0.  1.
    9900012    2    1    2    0    0  0.48791586216E+01 -0.15709041586E+02  0.27315397784E+02  0.59302091945E+02  0.50000269765E+02 0.  0.
        -12    1    1    2    0    0 -0.48791586216E+01  0.15709041586E+02 -0.27315397784E+02  0.31885908055E+02  0.00000000000E+00 0.  1.
         11    1    3    3    0    0  0.12750861120E+02 -0.15797771132E+02  0.10342641378E+02  0.22784298606E+02  0.51100000000E-03 0. -1.
        -11    1    3    3    0    0  0.11328632778E+02  0.41087522913E+01  0.29559578647E+01  0.12407959267E+02  0.51100000000E-03 0.  1.
        -12    1    3    3    0    0 -0.19200335277E+02 -0.40200227453E+01  0.14016798542E+02  0.24109834072E+02  0.00000000000E+00 0.  1.
</event>
<event>
 7    1  0.1220856E-011  0.5930194E+02  0.7816164E-02  0.1266605E+00
        -11   -1    0    0    0    0  0.00000000000E+00  0.00000000000E+00  0.45593999997E+02  0.45594000000E+02  0.51100000000E-03 0.  1.
         11   -1    0    0    0    0 -0.00000000000E+00 -0.00000000000E+00 -0.45593999997E+02  0.45594000000E+02  0.51100000000E-03 0. -1.
    9900012    2    1    2    0    0  0.11230764583E+02 -0.84708075778E+01 -0.28615314699E+02  0.59301938947E+02  0.49999990734E+02 0.  0.
        -12    1    1    2    0    0 -0.11230764583E+02  0.84708075778E+01  0.28615314699E+02  0.31886061053E+02  0.00000000000E+00 0.  1.
         11    1    3    3    0    0  0.92659550894E+01  0.78938910197E+00 -0.10905758712E+02  0.14332363107E+02  0.51100000000E-03 0. -1.
        -11    1    3    3    0    0  0.15156511829E+02  0.93612106707E+01 -0.37084257481E+01  0.18196278131E+02  0.51100000000E-03 0.  1.
         12    1    3    3    0    0 -0.13191702336E+02 -0.18621407350E+02 -0.14001130239E+02  0.26773297709E+02  0.00000000000E+00 0. -1.
</event>
<event>
 7    1  0.1220856E-011  0.5930195E+02  0.7816164E-02  0.1266605E+00
        -11   -1    0    0    0    0  0.00000000000E+00  0.00000000000E+00  0.45593999997E+02  0.45594000000E+02  0.51100000000E-03 0. -1.
         11   -1    0    0    0    0 -0.00000000000E+00 -0.00000000000E+00 -0.45593999997E+02  0.45594000000E+02  0.51100000000E-03 0.  1.
    9900012    2    1    2    0    0  0.25772982714E+02 -0.16174233293E+02  0.95324546468E+01  0.59301950508E+02  0.50000011818E+02 0.  0.
        -12    1    1    2    0    0 -0.25772982714E+02  0.16174233293E+02 -0.95324546468E+01  0.31886049492E+02  0.00000000000E+00 0.  1.
         11    1    3    3    0    0  0.84012851548E+01 -0.20235155157E+02  0.20489236801E+01  0.22005480795E+02  0.51100000000E-03 0. -1.
        -11    1    3    3    0    0  0.20887645952E+02 -0.86603561212E+01  0.82653471307E+01  0.24075121703E+02  0.51100000000E-03 0.  1.
        -12    1    3    3    0    0 -0.35159483928E+01  0.12721277985E+02 -0.78181616405E+00  0.13221348010E+02  0.00000000000E+00 0.  1.
</event>
<event>
 7    1  0.1616841E-011  0.5930192E+02  0.7816164E-02  0.1266605E+00
        -11   -1    0    0    0    0  0.00000000000E+00  0.00000000000E+00  0.45593999997E+02  0.45594000000E+02  0.51100000000E-03 0. -1.
         11   -1    0    0    0    0 -0.00000000000E+00 -0.00000000000E+00 -0.45593999997E+02  0.45594000000E+02  0.51100000000E-03 0.  1.
    9900012    2    1    2    0    0 -0.17489932052E+02  0.75879033409E+01  0.25558723054E+02  0.59301916446E+02  0.49999949697E+02 0.  0.
        -12    1    1    2    0    0  0.17489932052E+02 -0.75879033409E+01 -0.25558723054E+02  0.31886083554E+02  0.00000000000E+00 0.  1.
         11    1    3    3    0    0 -0.78263064814E+01  0.12632783526E+01  0.10764321526E+02  0.13368528847E+02  0.51100000000E-03 0. -1.
        -11    1    3    3    0    0 -0.19251317847E+02  0.17960650803E+02  0.24408375015E+01  0.26441556385E+02  0.51100000000E-03 0.  1.
        -12    1    3    3    0    0  0.95876922763E+01 -0.11636025814E+02  0.12353564026E+02  0.19491831214E+02  0.00000000000E+00 0.  1.
</event>
<event>
 7    1  0.1220856E-011  0.5930194E+02  0.7816164E-02  0.1266605E+00
        -11   -1    0    0    0    0  0.00000000000E+00  0.00000000000E+00  0.45593999997E+02  0.45594000000E+02  0.51100000000E-03 0. -1.
         11   -1    0    0    0    0 -0.00000000000E+00 -0.00000000000E+00 -0.45593999997E+02  0.45594000000E+02  0.51100000000E-03 0.  1.
    9900012    2    1    2    0    0  0.99072570903E+01  0.23382915802E+02  0.19282285369E+02  0.59301936845E+02  0.49999986901E+02 0.  0.
        -12    1    1    2    0    0 -0.99072570903E+01 -0.23382915802E+02 -0.19282285369E+02  0.31886063155E+02  0.00000000000E+00 0.  1.
         11    1    3    3    0    0  0.24661756490E+02  0.89407363165E+01  0.19246170695E+02  0.32535428163E+02  0.51100000000E-03 0. -1.
        -11    1    3    3    0    0  0.19736103800E+01  0.72060322199E+01 -0.34177414681E+01  0.82160206481E+01  0.51100000000E-03 0.  1.
        -12    1    3    3    0    0 -0.16728109780E+02  0.72361472658E+01  0.34538561419E+01  0.18550488034E+02  0.00000000000E+00 0.  1.
</event>
<event>
 7    1  0.1220856E-011  0.5930194E+02  0.7816164E-02  0.1266605E+00
        -11   -1    0    0    0    0  0.00000000000E+00  0.00000000000E+00  0.45593999997E+02  0.45594000000E+02  0.51100000000E-03 0. -1.
         11   -1    0    0    0    0 -0.00000000000E+00 -0.00000000000E+00 -0.45593999997E+02  0.45594000000E+02  0.51100000000E-03 0.  1.
    9900012    2    1    2    0    0 -0.16417640242E+02  0.10300074861E+02  0.25319758695E+02  0.59301942959E+02  0.49999998050E+02 0.  0.
        -12    1    1    2    0    0  0.16417640242E+02 -0.10300074861E+02 -0.25319758695E+02  0.31886057041E+02  0.00000000000E+00 0.  1.
         11    1    3    3    0    0 -0.21990910403E+02  0.16388626459E+02  0.75692190889E+01  0.28451367198E+02  0.51100000000E-03 0. -1.
        -11    1    3    3    0    0 -0.42220079708E+01  0.72099779805E+01  0.85046029182E+01  0.11922139273E+02  0.51100000000E-03 0.  1.
        -12    1    3    3    0    0  0.97952781315E+01 -0.13298529579E+02  0.92459366882E+01  0.18928436488E+02  0.00000000000E+00 0.  1.
</event>
<event>
 7    1  0.1220856E-011  0.5930198E+02  0.7816164E-02  0.1266605E+00
        -11   -1    0    0    0    0  0.00000000000E+00  0.00000000000E+00  0.45593999997E+02  0.45594000000E+02  0.51100000000E-03 0. -1.
         11   -1    0    0    0    0 -0.00000000000E+00 -0.00000000000E+00 -0.45593999997E+02  0.45594000000E+02  0.51100000000E-03 0.  1.
    9900012    2    1    2    0    0  0.22477609116E+02  0.40228358750E+01  0.22255165541E+02  0.59301976208E+02  0.50000058689E+02 0.  0.
        -12    1    1    2    0    0 -0.22477609116E+02 -0.40228358750E+01 -0.22255165541E+02  0.31886023792E+02  0.00000000000E+00 0.  1.
         11    1    3    3    0    0  0.18932068650E+02 -0.17588691899E+02  0.23408961255E+02  0.34867818592E+02  0.51100000000E-03 0. -1.
        -11    1    3    3    0    0  0.37474507411E+01  0.22115795849E+01  0.19817677595E+01  0.47814093143E+01  0.51100000000E-03 0.  1.
        -12    1    3    3    0    0 -0.20191027505E+00  0.19399948189E+02 -0.31355634737E+01  0.19652748302E+02  0.00000000000E+00 0.  1.
</event>
<event>
 7    1  0.1220856E-011  0.5930195E+02  0.7816164E-02  0.1266605E+00
        -11   -1    0    0    0    0  0.00000000000E+00  0.00000000000E+00  0.45593999997E+02  0.45594000000E+02  0.51100000000E-03 0.  1.
         11   -1    0    0    0    0 -0.00000000000E+00 -0.00000000000E+00 -0.45593999997E+02  0.45594000000E+02  0.51100000000E-03 0. -1.
    9900012    2    1    2    0    0 -0.14833142957E+02  0.84822698183E+01 -0.26921168313E+02  0.59301947648E+02  0.50000006602E+02 0.  0.
        -12    1    1    2    0    0  0.14833142957E+02 -0.84822698183E+01  0.26921168313E+02  0.31886052352E+02  0.00000000000E+00 0.  1.
         11    1    3    3    0    0 -0.82006594976E+01 -0.34999312809E+01 -0.34004653304E+02  0.35154185835E+02  0.51100000000E-03 0. -1.
        -11    1    3    3    0    0  0.54087722356E+01  0.16106662406E+01 -0.18222340943E+01  0.59303962929E+01  0.51100000000E-03 0.  1.
         12    1    3    3    0    0 -0.12041255695E+02  0.10371534859E+02  0.89057190848E+01  0.18217365519E+02  0.00000000000E+00 0. -1.
</event>
<event>
 7    1  0.1220856E-011  0.5930196E+02  0.7816164E-02  0.1266605E+00
        -11   -1    0    0    0    0  0.00000000000E+00  0.00000000000E+00  0.45593999997E+02  0.45594000000E+02  0.51100000000E-03 0.  1.
         11   -1    0    0    0    0 -0.00000000000E+00 -0.00000000000E+00 -0.45593999997E+02  0.45594000000E+02  0.51100000000E-03 0. -1.
    9900012    2    1    2    0    0 -0.54033893612E+01  0.17663076803E+01 -0.31375203577E+02  0.59301955107E+02  0.50000020206E+02 0.  0.
        -12    1    1    2    0    0  0.54033893612E+01 -0.17663076803E+01  0.31375203577E+02  0.31886044893E+02  0.00000000000E+00 0.  1.
         11    1    3    3    0    0 -0.39173307863E+01  0.98762496008E+01 -0.74630074155E+01  0.12983923391E+02  0.51100000000E-03 0. -1.
        -11    1    3    3    0    0 -0.12314570224E+02  0.18092116379E+01  0.53732270319E+01  0.13557044499E+02  0.51100000000E-03 0.  1.
         12    1    3    3    0    0  0.10828511649E+02 -0.99191535583E+01 -0.29285423193E+02  0.32760987217E+02  0.00000000000E+00 0. -1.
</event>
<event>
 7    1  0.1220856E-011  0.5930194E+02  0.7816164E-02  0.1266605E+00
        -11   -1    0    0    0    0  0.00000000000E+00  0.00000000000E+00  0.45593999997E+02  0.45594000000E+02  0.51100000000E-03 0. -1.
         11   -1    0    0    0    0 -0.00000000000E+00 -0.00000000000E+00 -0.45593999997E+02  0.45594000000E+02  0.51100000000E-03 0.  1.
    9900012    2    1    2    0    0  0.31448528663E+02 -0.14796093240E+01  0.50518908280E+01  0.59301940354E+02  0.49999993299E+02 0.  0.
        -12    1    1    2    0    0 -0.31448528663E+02  0.14796093240E+01 -0.50518908280E+01  0.31886059646E+02  0.00000000000E+00 0.  1.
         11    1    3    3    0    0 -0.25560115038E+00  0.68111193948E+01  0.87923348669E+00  0.68723890419E+01  0.51100000000E-03 0. -1.
        -11    1    3    3    0    0  0.59538688276E+01  0.91456658494E+01 -0.12945186741E+02  0.16931320618E+02  0.51100000000E-03 0.  1.
         12    1    3    3    0    0  0.25750260986E+02 -0.17436394568E+02  0.17117844082E+02  0.35498230694E+02  0.00000000000E+00 0. -1.
</event>
<event>
 7    1  0.1230520E-011  0.5930194E+02  0.7816164E-02  0.1266605E+00
        -11   -1    0    0    0    0  0.00000000000E+00  0.00000000000E+00  0.45593999997E+02  0.45594000000E+02  0.51100000000E-03 0. -1.
         11   -1    0    0    0    0 -0.00000000000E+00 -0.00000000000E+00 -0.45593999997E+02  0.45594000000E+02  0.51100000000E-03 0.  1.
    9900012    2    1    2    0    0  0.22141051885E+02 -0.74591517378E+01  0.21699214987E+02  0.59301936362E+02  0.49999986020E+02 0.  0.
        -12    1    1    2    0    0 -0.22141051885E+02  0.74591517378E+01 -0.21699214987E+02  0.31886063638E+02  0.00000000000E+00 0.  1.
         11    1    3    3    0    0  0.54019049011E+01 -0.13913032404E+02  0.24358543055E+02  0.28567318167E+02  0.51100000000E-03 0. -1.
        -11    1    3    3    0    0  0.11592582096E+02  0.11163186230E+02  0.80180402091E+01  0.17980368614E+02  0.51100000000E-03 0.  1.
        -12    1    3    3    0    0  0.51465648887E+01 -0.47093055641E+01 -0.10677368277E+02  0.12754249581E+02  0.00000000000E+00 0.  1.
</event>
<event>
 7    1  0.1220856E-011  0.5930194E+02  0.7816164E-02  0.1266605E+00
        -11   -1    0    0    0    0  0.00000000000E+00  0.00000000000E+00  0.45593999997E+02  0.45594000000E+02  0.51100000000E-03 0. -1.
         11   -1    0    0    0    0 -0.00000000000E+00 -0.00000000000E+00 -0.45593999997E+02  0.45594000000E+02  0.51100000000E-03 0.  1.
    9900012    2    1    2    0    0 -0.23493486390E+02 -0.93268285946E+01  0.19436741105E+02  0.59301944441E+02  0.50000000753E+02 0.  0.
        -12    1    1    2    0    0  0.23493486390E+02  0.93268285946E+01 -0.19436741105E+02  0.31886055559E+02  0.00000000000E+00 0.  1.
         11    1    3    3    0    0 -0.16841688849E+02  0.49002310025E+01  0.18936025507E+02  0.25811389142E+02  0.51100000000E-03 0. -1.
        -11    1    3    3    0    0 -0.13295241380E+02 -0.24162675504E+01  0.10111550238E+02  0.16877358819E+02  0.51100000000E-03 0.  1.
        -12    1    3    3    0    0  0.66434438391E+01 -0.11810792047E+02 -0.96108346403E+01  0.16613196480E+02  0.00000000000E+00 0.  1.
</event>
<event>
 7    1  0.1220856E-011  0.5930194E+02  0.7816164E-02  0.1266605E+00
        -11   -1    0    0    0    0  0.00000000000E+00  0.00000000000E+00  0.45593999997E+02  0.45594000000E+02  0.51100000000E-03 0.  1.
         11   -1    0    0    0    0 -0.00000000000E+00 -0.00000000000E+00 -0.45593999997E+02  0.45594000000E+02  0.51100000000E-03 0. -1.
    9900012    2    1    2    0    0  0.13559379035E+01  0.26454156833E+02  0.17749916224E+02  0.59301944939E+02  0.50000001663E+02 0.  0.
        -12    1    1    2    0    0 -0.13559379035E+01 -0.26454156833E+02 -0.17749916224E+02  0.31886055061E+02  0.00000000000E+00 0.  1.
         11    1    3    3    0    0 -0.80184420563E+01 -0.41365610044E+01  0.37245221454E+01  0.97610765506E+01  0.51100000000E-03 0. -1.
        -11    1    3    3    0    0  0.37948841312E+01  0.39423900790E+01  0.20780756824E+02  0.21489147018E+02  0.51100000000E-03 0.  1.
         12    1    3    3    0    0  0.55794958286E+01  0.26648327759E+02 -0.67553627456E+01  0.28051721371E+02  0.00000000000E+00 0. -1.
</event>
<event>
 7    1  0.1220856E-011  0.5930195E+02  0.7816164E-02  0.1266605E+00
        -11   -1    0    0    0    0  0.00000000000E+00  0.00000000000E+00  0.45593999997E+02  0.45594000000E+02  0.51100000000E-03 0. -1.
         11   -1    0    0    0    0 -0.00000000000E+00 -0.00000000000E+00 -0.45593999997E+02  0.45594000000E+02  0.51100000000E-03 0.  1.
    9900012    2    1    2    0    0 -0.54456968136E+01 -0.20207324635E+01  0.31352528581E+02  0.59301952552E+02  0.50000015545E+02 0.  0.
        -12    1    1    2    0    0  0.54456968136E+01  0.20207324635E+01 -0.31352528581E+02  0.31886047448E+02  0.00000000000E+00 0.  1.
         11    1    3    3    0    0 -0.34621619560E+01 -0.75674893470E+01  0.94934508047E+01  0.12624542323E+02  0.51100000000E-03 0. -1.
        -11    1    3    3    0    0 -0.13364517627E+02 -0.25007979923E+00 -0.70213802933E+01  0.15098763287E+02  0.51100000000E-03 0.  1.
         12    1    3    3    0    0  0.11380982770E+02  0.57968366828E+01  0.28880458069E+02  0.31578646941E+02  0.00000000000E+00 0. -1.
</event>
<event>
 7    1  0.1220856E-011  0.5930193E+02  0.7816164E-02  0.1266605E+00
        -11   -1    0    0    0    0  0.00000000000E+00  0.00000000000E+00  0.45593999997E+02  0.45594000000E+02  0.51100000000E-03 0. -1.
         11   -1    0    0    0    0 -0.00000000000E+00 -0.00000000000E+00 -0.45593999997E+02  0.45594000000E+02  0.51100000000E-03 0.  1.
    9900012    2    1    2    0    0 -0.30092747406E+02 -0.79732895317E+01  0.68974394873E+01  0.59301929940E+02  0.49999974307E+02 0.  0.
        -12    1    1    2    0    0  0.30092747406E+02  0.79732895317E+01 -0.68974394873E+01  0.31886070060E+02  0.00000000000E+00 0.  1.
         11    1    3    3    0    0  0.57382357794E+01  0.76326871200E+01  0.11018278186E+01  0.96124548028E+01  0.51100000000E-03 0.  1.
        -11    1    3    3    0    0 -0.32238098008E+01 -0.16291632398E+02  0.36546196737E+01  0.17004895796E+02  0.51100000000E-03 0. -1.
        -12    1    3    3    0    0 -0.32607173385E+02  0.68565574608E+00  0.21409919950E+01  0.32684579341E+02  0.00000000000E+00 0.  1.
</event>
<event>
 7    1  0.1220856E-011  0.5930193E+02  0.7816164E-02  0.1266605E+00
        -11   -1    0    0    0    0  0.00000000000E+00  0.00000000000E+00  0.45593999997E+02  0.45594000000E+02  0.51100000000E-03 0.  1.
         11   -1    0    0    0    0 -0.00000000000E+00 -0.00000000000E+00 -0.45593999997E+02  0.45594000000E+02  0.51100000000E-03 0. -1.
    9900012    2    1    2    0    0  0.13163635263E+02  0.61720295592E+01 -0.28378620022E+02  0.59301932250E+02  0.49999978520E+02 0.  0.
        -12    1    1    2    0    0 -0.13163635263E+02 -0.61720295592E+01  0.28378620022E+02  0.31886067750E+02  0.00000000000E+00 0.  1.
         11    1    3    3    0    0  0.16941537791E+02  0.33383490301E+01 -0.24788490839E+02  0.30209759272E+02  0.51100000000E-03 0. -1.
        -11    1    3    3    0    0 -0.11103563337E+02  0.10860886125E+02 -0.78701586365E+01  0.17412276228E+02  0.51100000000E-03 0.  1.
         12    1    3    3    0    0  0.73256608096E+01 -0.80272055959E+01  0.42800294536E+01  0.11679896750E+02  0.00000000000E+00 0. -1.
</event>
<event>
 7    1  0.1220856E-011  0.5930194E+02  0.7816164E-02  0.1266605E+00
        -11   -1    0    0    0    0  0.00000000000E+00  0.00000000000E+00  0.45593999997E+02  0.45594000000E+02  0.51100000000E-03 0.  1.
         11   -1    0    0    0    0 -0.00000000000E+00 -0.00000000000E+00 -0.45593999997E+02  0.45594000000E+02  0.51100000000E-03 0. -1.
    9900012    2    1    2    0    0  0.56168470885E+01  0.20969672827E+02 -0.23354762769E+02  0.59301935745E+02  0.49999984895E+02 0.  0.
        -12    1    1    2    0    0 -0.56168470885E+01 -0.20969672827E+02  0.23354762769E+02  0.31886064255E+02  0.00000000000E+00 0.  1.
         11    1    3    3    0    0 -0.26383067021E+01  0.20033522371E+01 -0.13281943948E+02  0.13688831861E+02  0.51100000000E-03 0. -1.
        -11    1    3    3    0    0  0.13220044117E+01  0.13637265556E+01  0.14487247433E+02  0.14611221175E+02  0.51100000000E-03 0.  1.
         12    1    3    3    0    0  0.69331493789E+01  0.17602594034E+02 -0.24560066254E+02  0.31001882708E+02  0.00000000000E+00 0. -1.
</event>
<event>
 7    1  0.1220856E-011  0.5930196E+02  0.7816164E-02  0.1266605E+00
        -11   -1    0    0    0    0  0.00000000000E+00  0.00000000000E+00  0.45593999997E+02  0.45594000000E+02  0.51100000000E-03 0.  1.
         11   -1    0    0    0    0 -0.00000000000E+00 -0.00000000000E+00 -0.45593999997E+02  0.45594000000E+02  0.51100000000E-03 0. -1.
    9900012    2    1    2    0    0  0.30997998900E+02  0.64033448329E+01 -0.38523714173E+01  0.59301960321E+02  0.50000029715E+02 0.  0.
        -12    1    1    2    0    0 -0.30997998900E+02 -0.64033448329E+01  0.38523714173E+01  0.31886039679E+02  0.00000000000E+00 0.  1.
         11    1    3    3    0    0  0.18347323174E+02 -0.65685308194E+01 -0.15462934234E+02  0.24877142122E+02  0.51100000000E-03 0. -1.
        -11    1    3    3    0    0  0.10549130378E+02  0.63292007806E+01 -0.72769561714E+01  0.14293251052E+02  0.51100000000E-03 0.  1.
        -12    1    3    3    0    0  0.21015453482E+01  0.66426748717E+01  0.18887518988E+02  0.20131567147E+02  0.00000000000E+00 0.  1.
</event>
<event>
 7    1  0.1220856E-011  0.5930168E+02  0.7816164E-02  0.1266606E+00
        -11   -1    0    0    0    0  0.00000000000E+00  0.00000000000E+00  0.45593999997E+02  0.45594000000E+02  0.51100000000E-03 0.  1.
         11   -1    0    0    0    0 -0.00000000000E+00 -0.00000000000E+00 -0.45593999997E+02  0.45594000000E+02  0.51100000000E-03 0. -1.
    9900012    2    1    2    0    0 -0.82373365248E+01  0.13915950437E+02 -0.27481445827E+02  0.59301682333E+02  0.49999522730E+02 0.  0.
        -12    1    1    2    0    0  0.82373365248E+01 -0.13915950437E+02  0.27481445827E+02  0.31886317667E+02  0.00000000000E+00 0.  1.
         11    1    3    3    0    0 -0.70755654108E+01  0.13837962541E+02 -0.39184390821E+02  0.42154113885E+02  0.51100000000E-03 0. -1.
        -11    1    3    3    0    0  0.19806424060E+01 -0.12800276157E+01 -0.19574253687E+01  0.30647886342E+01  0.51100000000E-03 0.  1.
         12    1    3    3    0    0 -0.31424135199E+01  0.13580155119E+01  0.13660370362E+02  0.14082779814E+02  0.00000000000E+00 0. -1.
</event>
<event>
 7    1  0.1220856E-011  0.5930192E+02  0.7816164E-02  0.1266605E+00
        -11   -1    0    0    0    0  0.00000000000E+00  0.00000000000E+00  0.45593999997E+02  0.45594000000E+02  0.51100000000E-03 0.  1.
         11   -1    0    0    0    0 -0.00000000000E+00 -0.00000000000E+00 -0.45593999997E+02  0.45594000000E+02  0.51100000000E-03 0. -1.
    9900012    2    1    2    0    0  0.29501080814E+02  0.80357394033E+01 -0.90462758000E+01  0.59301921802E+02  0.49999959466E+02 0.  0.
        -12    1    1    2    0    0 -0.29501080814E+02 -0.80357394033E+01  0.90462758000E+01  0.31886078198E+02  0.00000000000E+00 0.  1.
         11    1    3    3    0    0  0.15615497506E+01  0.49818214584E+01 -0.54269042474E+01  0.75304895351E+01  0.51100000000E-03 0. -1.
        -11    1    3    3    0    0  0.11114363889E+02  0.20821565785E+02 -0.11240486569E+02  0.26142211555E+02  0.51100000000E-03 0.  1.
         12    1    3    3    0    0  0.16825167175E+02 -0.17767647840E+02  0.76211150162E+01  0.25629220712E+02  0.00000000000E+00 0. -1.
</event>
<event>
 7    1  0.1220856E-011  0.5930194E+02  0.7816164E-02  0.1266605E+00
        -11   -1    0    0    0    0  0.00000000000E+00  0.00000000000E+00  0.45593999997E+02  0.45594000000E+02  0.51100000000E-03 0.  1.
         11   -1    0    0    0    0 -0.00000000000E+00 -0.00000000000E+00 -0.45593999997E+02  0.45594000000E+02  0.51100000000E-03 0. -1.
    9900012    2    1    2    0    0  0.26335501565E+02  0.17888569618E+02 -0.17780065539E+01  0.59301939206E+02  0.49999991206E+02 0.  0.
        -12    1    1    2    0    0 -0.26335501565E+02 -0.17888569618E+02  0.17780065539E+01  0.31886060794E+02  0.00000000000E+00 0.  1.
         11    1    3    3    0    0  0.23580780395E+02  0.25689029347E+02 -0.59005473769E+01  0.35366592887E+02  0.51100000000E-03 0. -1.
        -11    1    3    3    0    0  0.10350749628E+02  0.21773732678E+01 -0.45168465820E+00  0.10586925498E+02  0.51100000000E-03 0.  1.
         12    1    3    3    0    0 -0.75960284580E+01 -0.99778329972E+01  0.45742254812E+01  0.13348420821E+02  0.00000000000E+00 0. -1.
</event>
<event>
 7    1  0.1220856E-011  0.5930193E+02  0.7816164E-02  0.1266605E+00
        -11   -1    0    0    0    0  0.00000000000E+00  0.00000000000E+00  0.45593999997E+02  0.45594000000E+02  0.51100000000E-03 0.  1.
         11   -1    0    0    0    0 -0.00000000000E+00 -0.00000000000E+00 -0.45593999997E+02  0.45594000000E+02  0.51100000000E-03 0. -1.
    9900012    2    1    2    0    0  0.94627052656E+01 -0.18061326571E+02 -0.24514629465E+02  0.59301931470E+02  0.49999977098E+02 0.  0.
        -12    1    1    2    0    0 -0.94627052656E+01  0.18061326571E+02  0.24514629465E+02  0.31886068530E+02  0.00000000000E+00 0.  1.
         11    1    3    3    0    0  0.68174565983E+01  0.10090147102E+02 -0.19999059523E+01  0.12340518915E+02  0.51100000000E-03 0.  1.
        -11    1    3    3    0    0  0.15871655409E+02 -0.13288195618E+02 -0.74285232147E+01  0.21992465655E+02  0.51100000000E-03 0. -1.
         12    1    3    3    0    0 -0.13226406741E+02 -0.14863278056E+02 -0.15086200298E+02  0.24968946900E+02  0.00000000000E+00 0. -1.
</event>
<event>
 7    1  0.1220856E-011  0.5930195E+02  0.7816164E-02  0.1266605E+00
        -11   -1    0    0    0    0  0.00000000000E+00  0.00000000000E+00  0.45593999997E+02  0.45594000000E+02  0.51100000000E-03 0.  1.
         11   -1    0    0    0    0 -0.00000000000E+00 -0.00000000000E+00 -0.45593999997E+02  0.45594000000E+02  0.51100000000E-03 0. -1.
    9900012    2    1    2    0    0  0.23857979842E+02 -0.14879184543E+02 -0.15037519780E+02  0.59301947627E+02  0.50000006565E+02 0.  0.
        -12    1    1    2    0    0 -0.23857979842E+02  0.14879184543E+02  0.15037519780E+02  0.31886052373E+02  0.00000000000E+00 0.  1.
         11    1    3    3    0    0 -0.34640403729E+01 -0.12112726727E+02 -0.18304737320E+02  0.22221186581E+02  0.51100000000E-03 0. -1.
        -11    1    3    3    0    0  0.66571503425E+01 -0.11626806762E+02  0.55065507836E+01  0.14485247252E+02  0.51100000000E-03 0.  1.
        -12    1    3    3    0    0  0.20664869872E+02  0.88603489454E+01 -0.22393332432E+01  0.22595513794E+02  0.00000000000E+00 0.  1.
</event>
<event>
 7    1  0.1220856E-011  0.5930193E+02  0.7816164E-02  0.1266605E+00
        -11   -1    0    0    0    0  0.00000000000E+00  0.00000000000E+00  0.45593999997E+02  0.45594000000E+02  0.51100000000E-03 0. -1.
         11   -1    0    0    0    0 -0.00000000000E+00 -0.00000000000E+00 -0.45593999997E+02  0.45594000000E+02  0.51100000000E-03 0.  1.
    9900012    2    1    2    0    0 -0.25775242833E+02  0.84356380748E+01  0.16768965674E+02  0.59301931842E+02  0.49999977776E+02 0.  0.
        -12    1    1    2    0    0  0.25775242833E+02 -0.84356380748E+01 -0.16768965674E+02  0.31886068158E+02  0.00000000000E+00 0.  1.
         11    1    3    3    0    0 -0.77399653061E+01  0.19229839656E+02 -0.65664394654E+01  0.21744238861E+02  0.51100000000E-03 0. -1.
        -11    1    3    3    0    0 -0.32229833409E+01 -0.28826080898E+01 -0.37269640450E+01  0.57085297817E+01  0.51100000000E-03 0.  1.
         12    1    3    3    0    0 -0.14812294186E+02 -0.79115934911E+01  0.27062369185E+02  0.31849163199E+02  0.00000000000E+00 0. -1.
</event>
<event>
 7    1  0.1220856E-011  0.5930195E+02  0.7816164E-02  0.1266605E+00
        -11   -1    0    0    0    0  0.00000000000E+00  0.00000000000E+00  0.45593999997E+02  0.45594000000E+02  0.51100000000E-03 0.  1.
         11   -1    0    0    0    0 -0.00000000000E+00 -0.00000000000E+00 -0.45593999997E+02  0.45594000000E+02  0.51100000000E-03 0. -1.
    9900012    2    1    2    0    0 -0.23211528019E+02 -0.44096613009E+01 -0.21412619110E+02  0.59301946577E+02  0.50000004649E+02 0.  0.
        -12    1    1    2    0    0  0.23211528019E+02  0.44096613009E+01  0.21412619110E+02  0.31886053423E+02  0.00000000000E+00 0.  1.
         11    1    3    3    0    0 -0.16951766826E+02 -0.31200552615E+01  0.10827883559E+02  0.20355348338E+02  0.51100000000E-03 0. -1.
        -11    1    3    3    0    0  0.54276879388E+01  0.27394821049E+00 -0.96174836562E+00  0.55190401487E+01  0.51100000000E-03 0.  1.
         12    1    3    3    0    0 -0.11687449132E+02 -0.15635542499E+01 -0.31278754303E+02  0.33427558090E+02  0.00000000000E+00 0. -1.
</event>
<event>
 7    1  0.1220856E-011  0.5930195E+02  0.7816164E-02  0.1266605E+00
        -11   -1    0    0    0    0  0.00000000000E+00  0.00000000000E+00  0.45593999997E+02  0.45594000000E+02  0.51100000000E-03 0.  1.
         11   -1    0    0    0    0 -0.00000000000E+00 -0.00000000000E+00 -0.45593999997E+02  0.45594000000E+02  0.51100000000E-03 0. -1.
    9900012    2    1    2    0    0  0.14859386554E+02  0.26325464093E+01 -0.28088939104E+02  0.59301950239E+02  0.50000011328E+02 0.  0.
        -12    1    1    2    0    0 -0.14859386554E+02 -0.26325464093E+01  0.28088939104E+02  0.31886049761E+02  0.00000000000E+00 0.  1.
         11    1    3    3    0    0  0.80974605506E+01  0.87514899586E+01 -0.77969524645E+01  0.14246048991E+02  0.51100000000E-03 0. -1.
        -11    1    3    3    0    0  0.17264633625E+02 -0.94900364595E+01 -0.26011992758E+02  0.32630539893E+02  0.51100000000E-03 0.  1.
        -12    1    3    3    0    0 -0.10502707622E+02  0.33710929102E+01  0.57200061188E+01  0.12425361355E+02  0.00000000000E+00 0.  1.
</event>
<event>
 7    1  0.1220856E-011  0.5930193E+02  0.7816164E-02  0.1266605E+00
        -11   -1    0    0    0    0  0.00000000000E+00  0.00000000000E+00  0.45593999997E+02  0.45594000000E+02  0.51100000000E-03 0. -1.
         11   -1    0    0    0    0 -0.00000000000E+00 -0.00000000000E+00 -0.45593999997E+02  0.45594000000E+02  0.51100000000E-03 0.  1.
    9900012    2    1    2    0    0 -0.42380758796E+01  0.28455653736E+02  0.13749027596E+02  0.59301932878E+02  0.49999979665E+02 0.  0.
        -12    1    1    2    0    0  0.42380758796E+01 -0.28455653736E+02 -0.13749027596E+02  0.31886067122E+02  0.00000000000E+00 0.  1.
         11    1    3    3    0    0 -0.85412898263E+01  0.24360043004E+02  0.94249207592E+01  0.27480801638E+02  0.51100000000E-03 0. -1.
        -11    1    3    3    0    0  0.39877820736E+01  0.14647822634E+02  0.11509668046E+02  0.19050815536E+02  0.51100000000E-03 0.  1.
        -12    1    3    3    0    0  0.31543187312E+00 -0.10552211903E+02 -0.71855612092E+01  0.12770315705E+02  0.00000000000E+00 0.  1.
</event>
<event>
 7    1  0.1220856E-011  0.5930197E+02  0.7816164E-02  0.1266605E+00
        -11   -1    0    0    0    0  0.00000000000E+00  0.00000000000E+00  0.45593999997E+02  0.45594000000E+02  0.51100000000E-03 0.  1.
         11   -1    0    0    0    0 -0.00000000000E+00 -0.00000000000E+00 -0.45593999997E+02  0.45594000000E+02  0.51100000000E-03 0. -1.
    9900012    2    1    2    0    0  0.33627201347E+01 -0.31436575069E+02  0.41415855995E+01  0.59301970614E+02  0.50000048486E+02 0.  0.
        -12    1    1    2    0    0 -0.33627201347E+01  0.31436575069E+02 -0.41415855995E+01  0.31886029386E+02  0.00000000000E+00 0.  1.
         11    1    3    3    0    0  0.28065739802E+01 -0.10148820234E+02 -0.87359422666E+01  0.13681816297E+02  0.51100000000E-03 0. -1.
        -11    1    3    3    0    0  0.49059746098E+01 -0.29792551741E+02  0.17615915065E+02  0.34956904753E+02  0.51100000000E-03 0.  1.
        -12    1    3    3    0    0 -0.43498284553E+01  0.85047969057E+01 -0.47383871991E+01  0.10663249563E+02  0.00000000000E+00 0.  1.
</event>
<event>
 7    1  0.1220856E-011  0.5930199E+02  0.7816164E-02  0.1266605E+00
        -11   -1    0    0    0    0  0.00000000000E+00  0.00000000000E+00  0.45593999997E+02  0.45594000000E+02  0.51100000000E-03 0. -1.
         11   -1    0    0    0    0 -0.00000000000E+00 -0.00000000000E+00 -0.45593999997E+02  0.45594000000E+02  0.51100000000E-03 0.  1.
    9900012    2    1    2    0    0  0.18451694123E+01 -0.31716032579E+02  0.27214964729E+01  0.59301985577E+02  0.50000075776E+02 0.  0.
        -12    1    1    2    0    0 -0.18451694123E+01  0.31716032579E+02 -0.27214964729E+01  0.31886014423E+02  0.00000000000E+00 0.  1.
         11    1    3    3    0    0  0.16778632762E+02 -0.26103912704E+02  0.10681516214E+02  0.32818159070E+02  0.51100000000E-03 0. -1.
        -11    1    3    3    0    0  0.12544120386E+01 -0.43972382905E+01 -0.91271429344E+01  0.10208525484E+02  0.51100000000E-03 0.  1.
        -12    1    3    3    0    0 -0.16187875389E+02 -0.12148815846E+01  0.11671231933E+01  0.16275301024E+02  0.00000000000E+00 0.  1.
</event>
<event>
 7    1  0.1220856E-011  0.5930194E+02  0.7816164E-02  0.1266605E+00
        -11   -1    0    0    0    0  0.00000000000E+00  0.00000000000E+00  0.45593999997E+02  0.45594000000E+02  0.51100000000E-03 0.  1.
         11   -1    0    0    0    0 -0.00000000000E+00 -0.00000000000E+00 -0.45593999997E+02  0.45594000000E+02  0.51100000000E-03 0. -1.
    9900012    2    1    2    0    0  0.95008103738E+00  0.31012079614E+02  0.73531841694E+01  0.59301936376E+02  0.49999986046E+02 0.  0.
        -12    1    1    2    0    0 -0.95008103738E+00 -0.31012079614E+02 -0.73531841694E+01  0.31886063624E+02  0.00000000000E+00 0.  1.
         11    1    3    3    0    0  0.93642111394E+01  0.16776509445E+02 -0.21139743819E+01  0.19328957742E+02  0.51100000000E-03 0. -1.
        -11    1    3    3    0    0 -0.90919508117E+01  0.25649668783E+02  0.48523039985E+01  0.27642610813E+02  0.51100000000E-03 0.  1.
        -12    1    3    3    0    0  0.67782070968E+00 -0.11414098613E+02  0.46148545528E+01  0.12330367822E+02  0.00000000000E+00 0.  1.
</event>
<event>
 7    1  0.1220856E-011  0.5930201E+02  0.7816164E-02  0.1266605E+00
        -11   -1    0    0    0    0  0.00000000000E+00  0.00000000000E+00  0.45593999997E+02  0.45594000000E+02  0.51100000000E-03 0.  1.
         11   -1    0    0    0    0 -0.00000000000E+00 -0.00000000000E+00 -0.45593999997E+02  0.45594000000E+02  0.51100000000E-03 0. -1.
    9900012    2    1    2    0    0 -0.29206814846E+02  0.45041452709E+01 -0.11974607269E+02  0.59302006566E+02  0.50000114054E+02 0.  0.
        -12    1    1    2    0    0  0.29206814846E+02 -0.45041452709E+01  0.11974607269E+02  0.31885993434E+02  0.00000000000E+00 0.  1.
         11    1    3    3    0    0 -0.19962085357E+02 -0.15101831148E+02 -0.14777133886E+02  0.29067401706E+02  0.51100000000E-03 0. -1.
        -11    1    3    3    0    0 -0.42312594196E+01  0.30731271787E+01  0.10183428849E+02  0.11447702404E+02  0.51100000000E-03 0.  1.
        -12    1    3    3    0    0 -0.50134700694E+01  0.16532849240E+02 -0.73809022318E+01  0.18786902456E+02  0.00000000000E+00 0.  1.
</event>
<event>
 7    1  0.1220856E-011  0.5930192E+02  0.7816164E-02  0.1266605E+00
        -11   -1    0    0    0    0  0.00000000000E+00  0.00000000000E+00  0.45593999997E+02  0.45594000000E+02  0.51100000000E-03 0.  1.
         11   -1    0    0    0    0 -0.00000000000E+00 -0.00000000000E+00 -0.45593999997E+02  0.45594000000E+02  0.51100000000E-03 0. -1.
    9900012    2    1    2    0    0  0.80986849628E+00  0.25460210831E+02 -0.19179248584E+02  0.59301924689E+02  0.49999964730E+02 0.  0.
        -12    1    1    2    0    0 -0.80986849628E+00 -0.25460210831E+02  0.19179248584E+02  0.31886075311E+02  0.00000000000E+00 0.  1.
         11    1    3    3    0    0 -0.78893042684E+01  0.36737543427E+01 -0.12415817395E+02  0.15162127643E+02  0.51100000000E-03 0. -1.
        -11    1    3    3    0    0  0.19158189906E+01 -0.97807692490E+01 -0.64101185869E+01  0.11850039243E+02  0.51100000000E-03 0.  1.
        -12    1    3    3    0    0  0.67833537741E+01  0.31567225737E+02 -0.35331260158E+00  0.32289757802E+02  0.00000000000E+00 0.  1.
</event>
<event>
 7    1  0.1220856E-011  0.5930195E+02  0.7816164E-02  0.1266605E+00
        -11   -1    0    0    0    0  0.00000000000E+00  0.00000000000E+00  0.45593999997E+02  0.45594000000E+02  0.51100000000E-03 0.  1.
         11   -1    0    0    0    0 -0.00000000000E+00 -0.00000000000E+00 -0.45593999997E+02  0.45594000000E+02  0.51100000000E-03 0. -1.
    9900012    2    1    2    0    0  0.16655232803E+02 -0.27143115710E+02 -0.16046720987E+01  0.59301945325E+02  0.50000002367E+02 0.  0.
        -12    1    1    2    0    0 -0.16655232803E+02  0.27143115710E+02  0.16046720987E+01  0.31886054675E+02  0.00000000000E+00 0.  1.
         11    1    3    3    0    0  0.21168228520E+02 -0.34719543912E+01  0.13146498041E+02  0.25159069478E+02  0.51100000000E-03 0. -1.
        -11    1    3    3    0    0 -0.24326637136E+01 -0.87277797111E+01  0.41439715903E+01  0.99631567403E+01  0.51100000000E-03 0.  1.
         12    1    3    3    0    0 -0.20803320028E+01 -0.14943381607E+02 -0.18895141730E+02  0.24179719108E+02  0.00000000000E+00 0. -1.
</event>
<event>
 7    1  0.1220856E-011  0.5930194E+02  0.7816164E-02  0.1266605E+00
        -11   -1    0    0    0    0  0.00000000000E+00  0.00000000000E+00  0.45593999997E+02  0.45594000000E+02  0.51100000000E-03 0.  1.
         11   -1    0    0    0    0 -0.00000000000E+00 -0.00000000000E+00 -0.45593999997E+02  0.45594000000E+02  0.51100000000E-03 0. -1.
    9900012    2    1    2    0    0  0.30612612727E+02 -0.87195352471E+01 -0.18864050577E+01  0.59301939144E+02  0.49999991093E+02 0.  0.
        -12    1    1    2    0    0 -0.30612612727E+02  0.87195352471E+01  0.18864050577E+01  0.31886060856E+02  0.00000000000E+00 0.  1.
         11    1    3    3    0    0  0.32318472673E+02  0.34757745674E+01 -0.62166274806E+01  0.33093974410E+02  0.51100000000E-03 0. -1.
        -11    1    3    3    0    0 -0.58319643529E+01 -0.25708766369E+01 -0.78719109672E+01  0.10128583190E+02  0.51100000000E-03 0.  1.
        -12    1    3    3    0    0  0.41261044063E+01 -0.96244331776E+01  0.12202133390E+02  0.16079381544E+02  0.00000000000E+00 0.  1.
</event>
<event>
 7    1  0.1220856E-011  0.5930183E+02  0.7816164E-02  0.1266605E+00
        -11   -1    0    0    0    0  0.00000000000E+00  0.00000000000E+00  0.45593999997E+02  0.45594000000E+02  0.51100000000E-03 0.  1.
         11   -1    0    0    0    0 -0.00000000000E+00 -0.00000000000E+00 -0.45593999997E+02  0.45594000000E+02  0.51100000000E-03 0. -1.
    9900012    2    1    2    0    0 -0.20171696118E+02  0.21090640257E+02 -0.12845836553E+02  0.59301828272E+02  0.49999788888E+02 0.  0.
        -12    1    1    2    0    0  0.20171696118E+02 -0.21090640257E+02  0.12845836553E+02  0.31886171728E+02  0.00000000000E+00 0.  1.
         11    1    3    3    0    0  0.67975888695E+01 -0.85136228926E+01 -0.84122276138E+01  0.13764249449E+02  0.51100000000E-03 0. -1.
        -11    1    3    3    0    0  0.23758580013E+01  0.85847681999E+01 -0.30479339007E+01  0.94145019843E+01  0.51100000000E-03 0.  1.
        -12    1    3    3    0    0 -0.29345142989E+02  0.21019494950E+02 -0.13856750384E+01  0.36123076839E+02  0.00000000000E+00 0.  1.
</event>
<event>
 7    1  0.1220856E-011  0.5930195E+02  0.7816164E-02  0.1266605E+00
        -11   -1    0    0    0    0  0.00000000000E+00  0.00000000000E+00  0.45593999997E+02  0.45594000000E+02  0.51100000000E-03 0.  1.
         11   -1    0    0    0    0 -0.00000000000E+00 -0.00000000000E+00 -0.45593999997E+02  0.45594000000E+02  0.51100000000E-03 0. -1.
    9900012    2    1    2    0    0  0.23552577327E+02 -0.18262316785E+02 -0.11335080987E+02  0.59301950165E+02  0.50000011192E+02 0.  0.
        -12    1    1    2    0    0 -0.23552577327E+02  0.18262316785E+02  0.11335080987E+02  0.31886049835E+02  0.00000000000E+00 0.  1.
         11    1    3    3    0    0 -0.49498239837E+01 -0.11568788956E+02  0.10118111859E+02  0.16146635043E+02  0.51100000000E-03 0. -1.
        -11    1    3    3    0    0  0.10094112405E+02  0.71045456984E+01 -0.10199820436E+01  0.12385719134E+02  0.51100000000E-03 0.  1.
         12    1    3    3    0    0  0.18408288906E+02 -0.13798073528E+02 -0.20433210803E+02  0.30769595988E+02  0.00000000000E+00 0. -1.
</event>
<event>
 7    1  0.1220856E-011  0.5930191E+02  0.7816164E-02  0.1266605E+00
        -11   -1    0    0    0    0  0.00000000000E+00  0.00000000000E+00  0.45593999997E+02  0.45594000000E+02  0.51100000000E-03 0.  1.
         11   -1    0    0    0    0 -0.00000000000E+00 -0.00000000000E+00 -0.45593999997E+02  0.45594000000E+02  0.51100000000E-03 0. -1.
    9900012    2    1    2    0    0  0.24297112035E+02 -0.99308485672E+00 -0.20624913218E+02  0.59301907169E+02  0.49999932778E+02 0.  0.
        -12    1    1    2    0    0 -0.24297112035E+02  0.99308485672E+00  0.20624913218E+02  0.31886092831E+02  0.00000000000E+00 0.  1.
         11    1    3    3    0    0  0.46534307178E+01 -0.12861440729E+02 -0.18508212065E+02  0.23013582711E+02  0.51100000000E-03 0. -1.
        -11    1    3    3    0    0  0.22604808680E+02 -0.13515115064E+01 -0.56403846399E+00  0.22652198535E+02  0.51100000000E-03 0.  1.
         12    1    3    3    0    0 -0.29611273629E+01  0.13219867379E+02 -0.15526626890E+01  0.13636125923E+02  0.00000000000E+00 0. -1.
</event>
<event>
 7    1  0.1220856E-011  0.5930196E+02  0.7816164E-02  0.1266605E+00
        -11   -1    0    0    0    0  0.00000000000E+00  0.00000000000E+00  0.45593999997E+02  0.45594000000E+02  0.51100000000E-03 0. -1.
         11   -1    0    0    0    0 -0.00000000000E+00 -0.00000000000E+00 -0.45593999997E+02  0.45594000000E+02  0.51100000000E-03 0.  1.
    9900012    2    1    2    0    0 -0.39091887114E+01  0.31643178724E+02 -0.38369620967E+00  0.59301956989E+02  0.50000023638E+02 0.  0.
        -12    1    1    2    0    0  0.39091887114E+01 -0.31643178724E+02  0.38369620967E+00  0.31886043011E+02  0.00000000000E+00 0.  1.
         11    1    3    3    0    0  0.11494836933E+01  0.19997187210E+02 -0.18408747436E+02  0.27204609747E+02  0.51100000000E-03 0. -1.
        -11    1    3    3    0    0 -0.85166178916E+01 -0.46624895533E+01  0.84548818210E+01  0.12874650132E+02  0.51100000000E-03 0.  1.
        -12    1    3    3    0    0  0.34579454869E+01  0.16308481067E+02  0.95701694057E+01  0.19222697110E+02  0.00000000000E+00 0.  1.
</event>
<event>
 7    1  0.1220856E-011  0.5930192E+02  0.7816164E-02  0.1266605E+00
        -11   -1    0    0    0    0  0.00000000000E+00  0.00000000000E+00  0.45593999997E+02  0.45594000000E+02  0.51100000000E-03 0.  1.
         11   -1    0    0    0    0 -0.00000000000E+00 -0.00000000000E+00 -0.45593999997E+02  0.45594000000E+02  0.51100000000E-03 0. -1.
    9900012    2    1    2    0    0  0.28190865619E+02 -0.20847733348E+01 -0.14752999912E+02  0.59301918544E+02  0.49999953523E+02 0.  0.
        -12    1    1    2    0    0 -0.28190865619E+02  0.20847733348E+01  0.14752999912E+02  0.31886081456E+02  0.00000000000E+00 0.  1.
         11    1    3    3    0    0  0.23396906367E+02 -0.21752663426E+02 -0.17087433636E+02  0.36229462902E+02  0.51100000000E-03 0. -1.
        -11    1    3    3    0    0  0.50928660244E+01  0.99676664783E+01  0.59980396438E+01  0.12699139309E+02  0.51100000000E-03 0.  1.
        -12    1    3    3    0    0 -0.29890677207E+00  0.97002236125E+01 -0.36636059205E+01  0.10373316332E+02  0.00000000000E+00 0.  1.
</event>
<event>
 7    1  0.1220856E-011  0.5930196E+02  0.7816164E-02  0.1266605E+00
        -11   -1    0    0    0    0  0.00000000000E+00  0.00000000000E+00  0.45593999997E+02  0.45594000000E+02  0.51100000000E-03 0. -1.
         11   -1    0    0    0    0 -0.00000000000E+00 -0.00000000000E+00 -0.45593999997E+02  0.45594000000E+02  0.51100000000E-03 0.  1.
    9900012    2    1    2    0    0  0.70054121453E+01  0.46066723038E+01  0.30763979362E+02  0.59301958301E+02  0.50000026031E+02 0.  0.
        -12    1    1    2    0    0 -0.70054121453E+01 -0.46066723038E+01 -0.30763979362E+02  0.31886041699E+02  0.00000000000E+00 0.  1.
         11    1    3    3    0    0  0.94827507992E+01 -0.19611090114E+01  0.39228590697E+00  0.96913569622E+01  0.51100000000E-03 0. -1.
        -11    1    3    3    0    0  0.17457436319E+02  0.16113303096E+01  0.81004430611E+01  0.19312577411E+02  0.51100000000E-03 0.  1.
        -12    1    3    3    0    0 -0.19934774973E+02  0.49564510056E+01  0.22271250394E+02  0.30298023928E+02  0.00000000000E+00 0.  1.
</event>
<event>
 7    1  0.1220856E-011  0.5930193E+02  0.7816164E-02  0.1266605E+00
        -11   -1    0    0    0    0  0.00000000000E+00  0.00000000000E+00  0.45593999997E+02  0.45594000000E+02  0.51100000000E-03 0. -1.
         11   -1    0    0    0    0 -0.00000000000E+00 -0.00000000000E+00 -0.45593999997E+02  0.45594000000E+02  0.51100000000E-03 0.  1.
    9900012    2    1    2    0    0  0.16517882600E+02 -0.27192791569E+02  0.21054602462E+01  0.59301932169E+02  0.49999978372E+02 0.  0.
        -12    1    1    2    0    0 -0.16517882600E+02  0.27192791569E+02 -0.21054602462E+01  0.31886067831E+02  0.00000000000E+00 0.  1.
         11    1    3    3    0    0  0.15880873611E+02 -0.18101165713E+02  0.13184336287E+02  0.27453252456E+02  0.51100000000E-03 0. -1.
        -11    1    3    3    0    0  0.10040093090E+02 -0.15173185487E+02 -0.40895518662E+01  0.18648149019E+02  0.51100000000E-03 0.  1.
        -12    1    3    3    0    0 -0.94030841011E+01  0.60815596320E+01 -0.69893241749E+01  0.13200530694E+02  0.00000000000E+00 0.  1.
</event>
<event>
 7    1  0.1220856E-011  0.5930195E+02  0.7816164E-02  0.1266605E+00
        -11   -1    0    0    0    0  0.00000000000E+00  0.00000000000E+00  0.45593999997E+02  0.45594000000E+02  0.51100000000E-03 0. -1.
         11   -1    0    0    0    0 -0.00000000000E+00 -0.00000000000E+00 -0.45593999997E+02  0.45594000000E+02  0.51100000000E-03 0.  1.
    9900012    2    1    2    0    0 -0.26262784166E+02 -0.11829929700E+02  0.13676234072E+02  0.59301945882E+02  0.50000003381E+02 0.  0.
        -12    1    1    2    0    0  0.26262784166E+02  0.11829929700E+02 -0.13676234072E+02  0.31886054118E+02  0.00000000000E+00 0.  1.
         11    1    3    3    0    0 -0.20157859933E+02 -0.24575699005E+02  0.14192364627E+02  0.34809876653E+02  0.51100000000E-03 0. -1.
        -11    1    3    3    0    0 -0.79782844175E+01  0.13109933777E+01  0.69884489599E+01  0.10686914663E+02  0.51100000000E-03 0.  1.
        -12    1    3    3    0    0  0.18733601851E+01  0.11434775928E+02 -0.75045795140E+01  0.13805154566E+02  0.00000000000E+00 0.  1.
</event>
<event>
 7    1  0.1220856E-011  0.5930196E+02  0.7816164E-02  0.1266605E+00
        -11   -1    0    0    0    0  0.00000000000E+00  0.00000000000E+00  0.45593999997E+02  0.45594000000E+02  0.51100000000E-03 0. -1.
         11   -1    0    0    0    0 -0.00000000000E+00 -0.00000000000E+00 -0.45593999997E+02  0.45594000000E+02  0.51100000000E-03 0.  1.
    9900012    2    1    2    0    0 -0.80636289515E+01  0.84518987004E+01  0.29669228423E+02  0.59301955737E+02  0.50000021356E+02 0.  0.
        -12    1    1    2    0    0  0.80636289515E+01 -0.84518987004E+01 -0.29669228423E+02  0.31886044263E+02  0.00000000000E+00 0.  1.
         11    1    3    3    0    0 -0.15817687891E+02 -0.58601027216E+01  0.10982672431E+01  0.16904030447E+02  0.51100000000E-03 0. -1.
        -11    1    3    3    0    0 -0.95696481974E+01  0.17945645821E+01  0.11323879480E+02  0.14934151312E+02  0.51100000000E-03 0.  1.
        -12    1    3    3    0    0  0.17323707137E+02  0.12517436840E+02  0.17247081700E+02  0.27463773979E+02  0.00000000000E+00 0.  1.
</event>
<event>
 7    1  0.1220856E-011  0.5930193E+02  0.7816164E-02  0.1266605E+00
        -11   -1    0    0    0    0  0.00000000000E+00  0.00000000000E+00  0.45593999997E+02  0.45594000000E+02  0.51100000000E-03 0.  1.
         11   -1    0    0    0    0 -0.00000000000E+00 -0.00000000000E+00 -0.45593999997E+02  0.45594000000E+02  0.51100000000E-03 0. -1.
    9900012    2    1    2    0    0 -0.14827201520E+02  0.17311846439E+02 -0.22297430739E+02  0.59301931732E+02  0.49999977576E+02 0.  0.
        -12    1    1    2    0    0  0.14827201520E+02 -0.17311846439E+02  0.22297430739E+02  0.31886068268E+02  0.00000000000E+00 0.  1.
         11    1    3    3    0    0 -0.12475872257E+02 -0.89458863820E+01 -0.72834475805E+01  0.16991906328E+02  0.51100000000E-03 0. -1.
        -11    1    3    3    0    0 -0.41258693686E+00 -0.55771354492E+01  0.22681519313E+01  0.60348306724E+01  0.51100000000E-03 0.  1.
        -12    1    3    3    0    0 -0.19387423258E+01  0.31834868270E+02 -0.17282135089E+02  0.36275194732E+02  0.00000000000E+00 0.  1.
</event>
<event>
 7    1  0.1220856E-011  0.5930192E+02  0.7816164E-02  0.1266605E+00
        -11   -1    0    0    0    0  0.00000000000E+00  0.00000000000E+00  0.45593999997E+02  0.45594000000E+02  0.51100000000E-03 0. -1.
         11   -1    0    0    0    0 -0.00000000000E+00 -0.00000000000E+00 -0.45593999997E+02  0.45594000000E+02  0.51100000000E-03 0.  1.
    9900012    2    1    2    0    0  0.78537116787E+01  0.30770514686E+02  0.28665315985E+01  0.59301915816E+02  0.49999948549E+02 0.  0.
        -12    1    1    2    0    0 -0.78537116787E+01 -0.30770514686E+02 -0.28665315985E+01  0.31886084184E+02  0.00000000000E+00 0.  1.
         11    1    3    3    0    0  0.83507363006E+01  0.73216500848E+01 -0.37254731625E+01  0.11714115727E+02  0.51100000000E-03 0. -1.
        -11    1    3    3    0    0  0.68430064908E+01 -0.42943531045E+01 -0.11209309843E+02  0.13817265787E+02  0.51100000000E-03 0.  1.
         12    1    3    3    0    0 -0.73400311127E+01  0.27743217705E+02  0.17801314604E+02  0.33770534302E+02  0.00000000000E+00 0. -1.
</event>
<event>
 7    1  0.1220856E-011  0.5930193E+02  0.7816164E-02  0.1266605E+00
        -11   -1    0    0    0    0  0.00000000000E+00  0.00000000000E+00  0.45593999997E+02  0.45594000000E+02  0.51100000000E-03 0.  1.
         11   -1    0    0    0    0 -0.00000000000E+00 -0.00000000000E+00 -0.45593999997E+02  0.45594000000E+02  0.51100000000E-03 0. -1.
    9900012    2    1    2    0    0  0.19805693831E+02  0.18612667225E+02 -0.16674064153E+02  0.59301932435E+02  0.49999978858E+02 0.  0.
        -12    1    1    2    0    0 -0.19805693831E+02 -0.18612667225E+02  0.16674064153E+02  0.31886067565E+02  0.00000000000E+00 0.  1.
         11    1    3    3    0    0  0.23200331085E+02 -0.61042933960E+01 -0.71853538572E+01  0.25042904597E+02  0.51100000000E-03 0. -1.
        -11    1    3    3    0    0  0.76133956518E+01  0.80690073835E+01  0.19370532168E+01  0.11261653916E+02  0.51100000000E-03 0.  1.
        -12    1    3    3    0    0 -0.11008032906E+02  0.16647953238E+02 -0.11425763513E+02  0.22997373922E+02  0.00000000000E+00 0.  1.
</event>
<event>
 7    1  0.1220856E-011  0.5930194E+02  0.7816164E-02  0.1266605E+00
        -11   -1    0    0    0    0  0.00000000000E+00  0.00000000000E+00  0.45593999997E+02  0.45594000000E+02  0.51100000000E-03 0. -1.
         11   -1    0    0    0    0 -0.00000000000E+00 -0.00000000000E+00 -0.45593999997E+02  0.45594000000E+02  0.51100000000E-03 0.  1.
    9900012    2    1    2    0    0  0.44548054140E+00 -0.28816418964E+02  0.13643175326E+02  0.59301942110E+02  0.49999996502E+02 0.  0.
        -12    1    1    2    0    0 -0.44548054140E+00  0.28816418964E+02 -0.13643175326E+02  0.31886057890E+02  0.00000000000E+00 0.  1.
         11    1    3    3    0    0 -0.25996876745E+01 -0.24420348830E+02  0.56526791587E+01  0.25200487990E+02  0.51100000000E-03 0. -1.
        -11    1    3    3    0    0  0.16841547926E+02 -0.20003541095E+01 -0.17411216679E+01  0.17049066192E+02  0.51100000000E-03 0.  1.
         12    1    3    3    0    0 -0.13796379710E+02 -0.23957160246E+01  0.97316178348E+01  0.17052387928E+02  0.00000000000E+00 0. -1.
</event>
<event>
 7    1  0.1220856E-011  0.5930195E+02  0.7816164E-02  0.1266605E+00
        -11   -1    0    0    0    0  0.00000000000E+00  0.00000000000E+00  0.45593999997E+02  0.45594000000E+02  0.51100000000E-03 0.  1.
         11   -1    0    0    0    0 -0.00000000000E+00 -0.00000000000E+00 -0.45593999997E+02  0.45594000000E+02  0.51100000000E-03 0. -1.
    9900012    2    1    2    0    0 -0.12388663172E+01  0.22339252045E+02 -0.22718787643E+02  0.59301948447E+02  0.50000008060E+02 0.  0.
        -12    1    1    2    0    0  0.12388663172E+01 -0.22339252045E+02  0.22718787643E+02  0.31886051553E+02  0.00000000000E+00 0.  1.
         11    1    3    3    0    0 -0.19506896569E+01  0.92672316486E+01 -0.26439422617E+02  0.28084334444E+02  0.51100000000E-03 0. -1.
        -11    1    3    3    0    0  0.12458473430E+02  0.11167888458E+02 -0.37774401530E+01  0.17152386049E+02  0.51100000000E-03 0.  1.
         12    1    3    3    0    0 -0.11746650090E+02  0.19041319389E+01  0.74980751277E+01  0.14065227954E+02  0.00000000000E+00 0. -1.
</event>
<event>
 7    1  0.1220856E-011  0.5930198E+02  0.7816164E-02  0.1266605E+00
        -11   -1    0    0    0    0  0.00000000000E+00  0.00000000000E+00  0.45593999997E+02  0.45594000000E+02  0.51100000000E-03 0.  1.
         11   -1    0    0    0    0 -0.00000000000E+00 -0.00000000000E+00 -0.45593999997E+02  0.45594000000E+02  0.51100000000E-03 0. -1.
    9900012    2    1    2    0    0 -0.23112641036E+02  0.44692806472E+01 -0.21506966535E+02  0.59301980263E+02  0.50000066084E+02 0.  0.
        -12    1    1    2    0    0  0.23112641036E+02 -0.44692806472E+01  0.21506966535E+02  0.31886019737E+02  0.00000000000E+00 0.  1.
         11    1    3    3    0    0 -0.21027781490E+02  0.16196899412E+01 -0.83736064901E+01  0.22691590420E+02  0.51100000000E-03 0. -1.
        -11    1    3    3    0    0 -0.59926393496E+01 -0.48462809354E+01  0.95899528744E+01  0.12303063101E+02  0.51100000000E-03 0.  1.
         12    1    3    3    0    0  0.39077798035E+01  0.76958716413E+01 -0.22723312919E+02  0.24307326742E+02  0.00000000000E+00 0. -1.
</event>
<event>
 7    1  0.1220856E-011  0.5930194E+02  0.7816164E-02  0.1266605E+00
        -11   -1    0    0    0    0  0.00000000000E+00  0.00000000000E+00  0.45593999997E+02  0.45594000000E+02  0.51100000000E-03 0.  1.
         11   -1    0    0    0    0 -0.00000000000E+00 -0.00000000000E+00 -0.45593999997E+02  0.45594000000E+02  0.51100000000E-03 0. -1.
    9900012    2    1    2    0    0  0.53212227080E+01 -0.21619596035E+02 -0.22825390020E+02  0.59301940768E+02  0.49999994054E+02 0.  0.
        -12    1    1    2    0    0 -0.53212227080E+01  0.21619596035E+02  0.22825390020E+02  0.31886059232E+02  0.00000000000E+00 0.  1.
         11    1    3    3    0    0  0.18745168787E+02  0.29206674378E+00 -0.17058581683E+02  0.25346831461E+02  0.51100000000E-03 0. -1.
        -11    1    3    3    0    0  0.20852096495E+01 -0.13714826803E+02 -0.83987327379E+01  0.16216759398E+02  0.51100000000E-03 0.  1.
        -12    1    3    3    0    0 -0.15509155728E+02 -0.81968359757E+01  0.26319244011E+01  0.17738349908E+02  0.00000000000E+00 0.  1.
</event>
<event>
 7    1  0.1220856E-011  0.5930193E+02  0.7816164E-02  0.1266605E+00
        -11   -1    0    0    0    0  0.00000000000E+00  0.00000000000E+00  0.45593999997E+02  0.45594000000E+02  0.51100000000E-03 0. -1.
         11   -1    0    0    0    0 -0.00000000000E+00 -0.00000000000E+00 -0.45593999997E+02  0.45594000000E+02  0.51100000000E-03 0.  1.
    9900012    2    1    2    0    0 -0.28551317270E+02 -0.26865470203E+01  0.13940090537E+02  0.59301931304E+02  0.49999976794E+02 0.  0.
        -12    1    1    2    0    0  0.28551317270E+02  0.26865470203E+01 -0.13940090537E+02  0.31886068696E+02  0.00000000000E+00 0.  1.
         11    1    3    3    0    0 -0.46743710655E+01 -0.50182202229E+01 -0.79752576025E+00  0.69042252761E+01  0.51100000000E-03 0. -1.
        -11    1    3    3    0    0  0.11803123636E+02 -0.64279947509E+01  0.54453605851E+01  0.14501199821E+02  0.51100000000E-03 0.  1.
         12    1    3    3    0    0 -0.35680069840E+02  0.87596679536E+01  0.92922557122E+01  0.37896506207E+02  0.00000000000E+00 0. -1.
</event>
<event>
 7    1  0.1220856E-011  0.5930196E+02  0.7816164E-02  0.1266605E+00
        -11   -1    0    0    0    0  0.00000000000E+00  0.00000000000E+00  0.45593999997E+02  0.45594000000E+02  0.51100000000E-03 0.  1.
         11   -1    0    0    0    0 -0.00000000000E+00 -0.00000000000E+00 -0.45593999997E+02  0.45594000000E+02  0.51100000000E-03 0. -1.
    9900012    2    1    2    0    0  0.17455534861E+02 -0.13103046205E+02 -0.23245086714E+02  0.59301959583E+02  0.50000028369E+02 0.  0.
        -12    1    1    2    0    0 -0.17455534861E+02  0.13103046205E+02  0.23245086714E+02  0.31886040417E+02  0.00000000000E+00 0.  1.
         11    1    3    3    0    0 -0.16823722130E+02 -0.13020992869E+01 -0.69592002733E+01  0.18252768490E+02  0.51100000000E-03 0. -1.
        -11    1    3    3    0    0  0.13874717817E+02  0.43060902916E+00 -0.55674577525E+01  0.14956263060E+02  0.51100000000E-03 0.  1.
        -12    1    3    3    0    0  0.20404539174E+02 -0.12231555947E+02 -0.10718428688E+02  0.26092928033E+02  0.00000000000E+00 0.  1.
</event>
<event>
 7    1  0.1220856E-011  0.5930197E+02  0.7816164E-02  0.1266605E+00
        -11   -1    0    0    0    0  0.00000000000E+00  0.00000000000E+00  0.45593999997E+02  0.45594000000E+02  0.51100000000E-03 0.  1.
         11   -1    0    0    0    0 -0.00000000000E+00 -0.00000000000E+00 -0.45593999997E+02  0.45594000000E+02  0.51100000000E-03 0. -1.
    9900012    2    1    2    0    0 -0.20214584670E+02 -0.13204825256E+02 -0.20826001405E+02  0.59301965785E+02  0.50000039680E+02 0.  0.
        -12    1    1    2    0    0  0.20214584670E+02  0.13204825256E+02  0.20826001405E+02  0.31886034215E+02  0.00000000000E+00 0.  1.
         11    1    3    3    0    0 -0.68743388182E+01  0.94075823103E+01 -0.91534383844E+01  0.14817036601E+02  0.51100000000E-03 0. -1.
        -11    1    3    3    0    0 -0.44839699707E+01 -0.55696101507E+01  0.12019592243E+02  0.13985604809E+02  0.51100000000E-03 0.  1.
         12    1    3    3    0    0 -0.88562758815E+01 -0.17042797415E+02 -0.23692155264E+02  0.30499324375E+02  0.00000000000E+00 0. -1.
</event>
<event>
 7    1  0.1220856E-011  0.5930194E+02  0.7816164E-02  0.1266605E+00
        -11   -1    0    0    0    0  0.00000000000E+00  0.00000000000E+00  0.45593999997E+02  0.45594000000E+02  0.51100000000E-03 0.  1.
         11   -1    0    0    0    0 -0.00000000000E+00 -0.00000000000E+00 -0.45593999997E+02  0.45594000000E+02  0.51100000000E-03 0. -1.
    9900012    2    1    2    0    0  0.44306558142E+01  0.15636101500E+02 -0.27433594997E+02  0.59301944811E+02  0.50000001429E+02 0.  0.
        -12    1    1    2    0    0 -0.44306558142E+01 -0.15636101500E+02  0.27433594997E+02  0.31886055189E+02  0.00000000000E+00 0.  1.
         11    1    3    3    0    0 -0.68881062765E+01 -0.12462417568E+01 -0.71998331364E+00  0.70368674014E+01  0.51100000000E-03 0. -1.
        -11    1    3    3    0    0  0.12491737894E+02 -0.11213046395E+02 -0.10670248048E+02  0.19890452954E+02  0.51100000000E-03 0.  1.
         12    1    3    3    0    0 -0.11729758034E+01  0.28095389652E+02 -0.16043363635E+02  0.32374624455E+02  0.00000000000E+00 0. -1.
</event>
<event>
 7    1  0.1220856E-011  0.5930194E+02  0.7816164E-02  0.1266605E+00
        -11   -1    0    0    0    0  0.00000000000E+00  0.00000000000E+00  0.45593999997E+02  0.45594000000E+02  0.51100000000E-03 0. -1.
         11   -1    0    0    0    0 -0.00000000000E+00 -0.00000000000E+00 -0.45593999997E+02  0.45594000000E+02  0.51100000000E-03 0.  1.
    9900012    2    1    2    0    0  0.63774889215E+01 -0.28747222177E+02  0.12232971937E+02  0.59301941130E+02  0.49999994716E+02 0.  0.
        -12    1    1    2    0    0 -0.63774889215E+01  0.28747222177E+02 -0.12232971937E+02  0.31886058870E+02  0.00000000000E+00 0.  1.
         11    1    3    3    0    0 -0.66851281797E+01  0.36262476018E+01 -0.65028016424E+01  0.10006349979E+02  0.51100000000E-03 0. -1.
        -11    1    3    3    0    0 -0.31504980199E+01  0.40055369203E+01  0.50685833561E+01  0.71875240029E+01  0.51100000000E-03 0.  1.
         12    1    3    3    0    0  0.16213115121E+02 -0.36379006699E+02  0.13667190223E+02  0.42108067148E+02  0.00000000000E+00 0. -1.
</event>
<event>
 7    1  0.1220856E-011  0.5930199E+02  0.7816164E-02  0.1266605E+00
        -11   -1    0    0    0    0  0.00000000000E+00  0.00000000000E+00  0.45593999997E+02  0.45594000000E+02  0.51100000000E-03 0.  1.
         11   -1    0    0    0    0 -0.00000000000E+00 -0.00000000000E+00 -0.45593999997E+02  0.45594000000E+02  0.51100000000E-03 0. -1.
    9900012    2    1    2    0    0 -0.20313026976E+02 -0.23109379601E+02 -0.83698989384E+01  0.59301988981E+02  0.50000081984E+02 0.  0.
        -12    1    1    2    0    0  0.20313026976E+02  0.23109379601E+02  0.83698989384E+01  0.31886011019E+02  0.00000000000E+00 0.  1.
         11    1    3    3    0    0  0.49750459755E+00 -0.19390988090E+02  0.16422118691E+02  0.25415426664E+02  0.51100000000E-03 0.  1.
        -11    1    3    3    0    0 -0.99751802139E+01 -0.28107283067E+01 -0.54783652791E+01  0.11722495481E+02  0.51100000000E-03 0. -1.
        -12    1    3    3    0    0 -0.10835351360E+02 -0.90766320352E+00 -0.19313652351E+02  0.22164066836E+02  0.00000000000E+00 0.  1.
</event>
<event>
 7    1  0.1220856E-011  0.5930184E+02  0.7816164E-02  0.1266605E+00
        -11   -1    0    0    0    0  0.00000000000E+00  0.00000000000E+00  0.45593999997E+02  0.45594000000E+02  0.51100000000E-03 0. -1.
         11   -1    0    0    0    0 -0.00000000000E+00 -0.00000000000E+00 -0.45593999997E+02  0.45594000000E+02  0.51100000000E-03 0.  1.
    9900012    2    1    2    0    0  0.11460036046E+02  0.75497646905E+01  0.28781870053E+02  0.59301836594E+02  0.49999804066E+02 0.  0.
        -12    1    1    2    0    0 -0.11460036046E+02 -0.75497646905E+01 -0.28781870053E+02  0.31886163406E+02  0.00000000000E+00 0.  1.
         11    1    3    3    0    0  0.30645999383E+01 -0.19175370721E+01  0.11465509113E+02  0.12021922504E+02  0.51100000000E-03 0. -1.
        -11    1    3    3    0    0 -0.17158628301E+02  0.18903330050E+01  0.81926953366E+01  0.19107907818E+02  0.51100000000E-03 0.  1.
        -12    1    3    3    0    0  0.25554064408E+02  0.75769687576E+01  0.91236656025E+01  0.28172006272E+02  0.00000000000E+00 0.  1.
</event>
<event>
 7    1  0.1220856E-011  0.5930193E+02  0.7816164E-02  0.1266605E+00
        -11   -1    0    0    0    0  0.00000000000E+00  0.00000000000E+00  0.45593999997E+02  0.45594000000E+02  0.51100000000E-03 0.  1.
         11   -1    0    0    0    0 -0.00000000000E+00 -0.00000000000E+00 -0.45593999997E+02  0.45594000000E+02  0.51100000000E-03 0. -1.
    9900012    2    1    2    0    0 -0.13798507583E+02  0.28728353559E+02  0.10022250979E+01  0.59301928356E+02  0.49999971419E+02 0.  0.
        -12    1    1    2    0    0  0.13798507583E+02 -0.28728353559E+02 -0.10022250979E+01  0.31886071644E+02  0.00000000000E+00 0.  1.
         11    1    3    3    0    0 -0.14189505949E+02  0.10653353080E+02 -0.15802917251E+02  0.23760644032E+02  0.51100000000E-03 0. -1.
        -11    1    3    3    0    0 -0.66952179758E+01  0.16959735538E+02  0.10896067485E+01  0.18265974280E+02  0.51100000000E-03 0.  1.
        -12    1    3    3    0    0  0.70862163420E+01  0.11152649409E+01  0.15715535600E+02  0.17275310044E+02  0.00000000000E+00 0.  1.
</event>
<event>
 7    1  0.1220856E-011  0.5930196E+02  0.7816164E-02  0.1266605E+00
        -11   -1    0    0    0    0  0.00000000000E+00  0.00000000000E+00  0.45593999997E+02  0.45594000000E+02  0.51100000000E-03 0. -1.
         11   -1    0    0    0    0 -0.00000000000E+00 -0.00000000000E+00 -0.45593999997E+02  0.45594000000E+02  0.51100000000E-03 0.  1.
    9900012    2    1    2    0    0  0.27850901719E+02  0.14810139179E+02 -0.46590388805E+01  0.59301959287E+02  0.50000027830E+02 0.  0.
        -12    1    1    2    0    0 -0.27850901719E+02 -0.14810139179E+02  0.46590388805E+01  0.31886040713E+02  0.00000000000E+00 0.  1.
         11    1    3    3    0    0 -0.58221503479E+01  0.18500740781E+02 -0.13412083704E+01  0.19441545316E+02  0.51100000000E-03 0. -1.
        -11    1    3    3    0    0  0.20068165570E+02  0.81418547702E+01 -0.26392628027E+01  0.21817121186E+02  0.51100000000E-03 0.  1.
        -12    1    3    3    0    0  0.13604886497E+02 -0.11832456373E+02 -0.67856770736E+00  0.18043292785E+02  0.00000000000E+00 0.  1.
</event>
<event>
 7    1  0.1220856E-011  0.5930204E+02  0.7816164E-02  0.1266604E+00
        -11   -1    0    0    0    0  0.00000000000E+00  0.00000000000E+00  0.45593999997E+02  0.45594000000E+02  0.51100000000E-03 0.  1.
         11   -1    0    0    0    0 -0.00000000000E+00 -0.00000000000E+00 -0.45593999997E+02  0.45594000000E+02  0.51100000000E-03 0. -1.
    9900012    2    1    2    0    0  0.18238861720E+02  0.10443669191E+02  0.23978910479E+02  0.59302039911E+02  0.50000174868E+02 0.  0.
        -12    1    1    2    0    0 -0.18238861720E+02 -0.10443669191E+02 -0.23978910479E+02  0.31885960089E+02  0.00000000000E+00 0.  1.
         11    1    3    3    0    0 -0.10005109138E+02 -0.42695751557E+00  0.18881016643E+02  0.21372348755E+02  0.51100000000E-03 0. -1.
        -11    1    3    3    0    0 -0.19175067909E+01  0.47226908836E+01 -0.32387778476E+01  0.60390664579E+01  0.51100000000E-03 0.  1.
         12    1    3    3    0    0  0.30161477649E+02  0.61479358233E+01  0.83366716835E+01  0.31890624698E+02  0.00000000000E+00 0. -1.
</event>
<event>
 7    1  0.1220856E-011  0.5930192E+02  0.7816164E-02  0.1266605E+00
        -11   -1    0    0    0    0  0.00000000000E+00  0.00000000000E+00  0.45593999997E+02  0.45594000000E+02  0.51100000000E-03 0.  1.
         11   -1    0    0    0    0 -0.00000000000E+00 -0.00000000000E+00 -0.45593999997E+02  0.45594000000E+02  0.51100000000E-03 0. -1.
    9900012    2    1    2    0    0 -0.15790923056E+02 -0.25593508101E+02  0.10599107550E+02  0.59301921710E+02  0.49999959298E+02 0.  0.
        -12    1    1    2    0    0  0.15790923056E+02  0.25593508101E+02 -0.10599107550E+02  0.31886078290E+02  0.00000000000E+00 0.  1.
         11    1    3    3    0    0 -0.17967165661E+02 -0.13175294231E+02  0.50034464299E+01  0.22835102286E+02  0.51100000000E-03 0. -1.
        -11    1    3    3    0    0  0.71315064987E+01 -0.23056741839E+02  0.53902138574E+01  0.24729054468E+02  0.51100000000E-03 0.  1.
         12    1    3    3    0    0 -0.49552638932E+01  0.10638527969E+02  0.20544726249E+00  0.11737764956E+02  0.00000000000E+00 0. -1.
</event>
<event>
 7    1  0.1220856E-011  0.5930194E+02  0.7816164E-02  0.1266605E+00
        -11   -1    0    0    0    0  0.00000000000E+00  0.00000000000E+00  0.45593999997E+02  0.45594000000E+02  0.51100000000E-03 0. -1.
         11   -1    0    0    0    0 -0.00000000000E+00 -0.00000000000E+00 -0.45593999997E+02  0.45594000000E+02  0.51100000000E-03 0.  1.
    9900012    2    1    2    0    0  0.45450023907E+01  0.14025821043E+02  0.28272606798E+02  0.59301937248E+02  0.49999987636E+02 0.  0.
        -12    1    1    2    0    0 -0.45450023907E+01 -0.14025821043E+02 -0.28272606798E+02  0.31886062752E+02  0.00000000000E+00 0.  1.
         11    1    3    3    0    0 -0.15768290937E+01  0.84833514961E+01 -0.28296668858E+01  0.90807850731E+01  0.51100000000E-03 0.  1.
        -11    1    3    3    0    0 -0.29908585337E+01 -0.14137063440E+02  0.22812242217E+02  0.27003707018E+02  0.51100000000E-03 0. -1.
         12    1    3    3    0    0  0.91126900181E+01  0.19679532986E+02  0.82900314662E+01  0.23217445157E+02  0.00000000000E+00 0. -1.
</event>
<event>
 7    1  0.1220856E-011  0.5930195E+02  0.7816164E-02  0.1266605E+00
        -11   -1    0    0    0    0  0.00000000000E+00  0.00000000000E+00  0.45593999997E+02  0.45594000000E+02  0.51100000000E-03 0.  1.
         11   -1    0    0    0    0 -0.00000000000E+00 -0.00000000000E+00 -0.45593999997E+02  0.45594000000E+02  0.51100000000E-03 0. -1.
    9900012    2    1    2    0    0 -0.63052094955E+01 -0.67731967783E+01 -0.30513735528E+02  0.59301954193E+02  0.50000018538E+02 0.  0.
        -12    1    1    2    0    0  0.63052094955E+01  0.67731967783E+01  0.30513735528E+02  0.31886045807E+02  0.00000000000E+00 0.  1.
         11    1    3    3    0    0  0.13011914951E+02  0.20665806403E+01  0.47585338564E+01  0.14008009528E+02  0.51100000000E-03 0. -1.
        -11    1    3    3    0    0 -0.25286821529E+01  0.27492755031E+01  0.83024476099E+00  0.38264939366E+01  0.51100000000E-03 0.  1.
         12    1    3    3    0    0 -0.16788442293E+02 -0.11589052922E+02 -0.36102514145E+02  0.41467450728E+02  0.00000000000E+00 0. -1.
</event>
<event>
 7    1  0.1220856E-011  0.5930197E+02  0.7816164E-02  0.1266605E+00
        -11   -1    0    0    0    0  0.00000000000E+00  0.00000000000E+00  0.45593999997E+02  0.45594000000E+02  0.51100000000E-03 0. -1.
         11   -1    0    0    0    0 -0.00000000000E+00 -0.00000000000E+00 -0.45593999997E+02  0.45594000000E+02  0.51100000000E-03 0.  1.
    9900012    2    1    2    0    0  0.94194480493E+00 -0.98125142391E+00  0.31857000819E+02  0.59301974604E+02  0.50000055764E+02 0.  0.
        -12    1    1    2    0    0 -0.94194480493E+00  0.98125142391E+00 -0.31857000819E+02  0.31886025396E+02  0.00000000000E+00 0.  1.
         11    1    3    3    0    0 -0.14764082861E+02  0.32663305644E+01  0.23730662304E+02  0.28138788029E+02  0.51100000000E-03 0. -1.
        -11    1    3    3    0    0  0.46738230503E+01 -0.14361289292E+02  0.35768490102E+01  0.15520473611E+02  0.51100000000E-03 0.  1.
         12    1    3    3    0    0  0.11032204616E+02  0.10113707303E+02  0.45494895048E+01  0.15642712964E+02  0.00000000000E+00 0. -1.
</event>
<event>
 7    1  0.1220856E-011  0.5930197E+02  0.7816164E-02  0.1266605E+00
        -11   -1    0    0    0    0  0.00000000000E+00  0.00000000000E+00  0.45593999997E+02  0.45594000000E+02  0.51100000000E-03 0. -1.
         11   -1    0    0    0    0 -0.00000000000E+00 -0.00000000000E+00 -0.45593999997E+02  0.45594000000E+02  0.51100000000E-03 0.  1.
    9900012    2    1    2    0    0  0.21330659731E+02 -0.23298984594E+02  0.43450475900E+01  0.59301965969E+02  0.50000040016E+02 0.  0.
        -12    1    1    2    0    0 -0.21330659731E+02  0.23298984594E+02 -0.43450475900E+01  0.31886034031E+02  0.00000000000E+00 0.  1.
         11    1    3    3    0    0  0.41062933177E+01  0.90994294329E+01 -0.84112692174E+01  0.13054145354E+02  0.51100000000E-03 0. -1.
        -11    1    3    3    0    0  0.10349587351E+02  0.66410856558E+00  0.71482908619E+00  0.10395478797E+02  0.51100000000E-03 0.  1.
         12    1    3    3    0    0  0.68747790620E+01 -0.33062522592E+02  0.12041487721E+02  0.35852341818E+02  0.00000000000E+00 0. -1.
</event>
<event>
 7    1  0.1220856E-011  0.5930196E+02  0.7816164E-02  0.1266605E+00
        -11   -1    0    0    0    0  0.00000000000E+00  0.00000000000E+00  0.45593999997E+02  0.45594000000E+02  0.51100000000E-03 0.  1.
         11   -1    0    0    0    0 -0.00000000000E+00 -0.00000000000E+00 -0.45593999997E+02  0.45594000000E+02  0.51100000000E-03 0. -1.
    9900012    2    1    2    0    0  0.26138466067E+02 -0.11355316460E+02 -0.14302349915E+02  0.59301955508E+02  0.50000020937E+02 0.  0.
        -12    1    1    2    0    0 -0.26138466067E+02  0.11355316460E+02  0.14302349915E+02  0.31886044492E+02  0.00000000000E+00 0.  1.
         11    1    3    3    0    0  0.29365487774E+02 -0.79301145631E+01 -0.21185966375E+01  0.30491097736E+02  0.51100000000E-03 0. -1.
        -11    1    3    3    0    0 -0.67860590646E+01 -0.34431945796E+00  0.65842190998E+01  0.94615588004E+01  0.51100000000E-03 0.  1.
        -12    1    3    3    0    0  0.35590373577E+01 -0.30808824392E+01 -0.18767972377E+02  0.19349298971E+02  0.00000000000E+00 0.  1.
</event>
<event>
 7    1  0.1220856E-011  0.5930195E+02  0.7816164E-02  0.1266605E+00
        -11   -1    0    0    0    0  0.00000000000E+00  0.00000000000E+00  0.45593999997E+02  0.45594000000E+02  0.51100000000E-03 0.  1.
         11   -1    0    0    0    0 -0.00000000000E+00 -0.00000000000E+00 -0.45593999997E+02  0.45594000000E+02  0.51100000000E-03 0. -1.
    9900012    2    1    2    0    0  0.23480271657E+02  0.21159842060E+02  0.42021258817E+01  0.59301953914E+02  0.50000018030E+02 0.  0.
        -12    1    1    2    0    0 -0.23480271657E+02 -0.21159842060E+02 -0.42021258817E+01  0.31886046086E+02  0.00000000000E+00 0.  1.
         11    1    3    3    0    0 -0.56507871685E+01  0.69273368567E+00 -0.30462401479E+01  0.64568455830E+01  0.51100000000E-03 0. -1.
        -11    1    3    3    0    0  0.14891123362E+02 -0.10405072928E+02  0.43703059587E+00  0.18171463717E+02  0.51100000000E-03 0.  1.
         12    1    3    3    0    0  0.14239935464E+02  0.30872181303E+02  0.68113354337E+01  0.34673644613E+02  0.00000000000E+00 0. -1.
</event>
<event>
 7    1  0.1220856E-011  0.5930195E+02  0.7816164E-02  0.1266605E+00
        -11   -1    0    0    0    0  0.00000000000E+00  0.00000000000E+00  0.45593999997E+02  0.45594000000E+02  0.51100000000E-03 0.  1.
         11   -1    0    0    0    0 -0.00000000000E+00 -0.00000000000E+00 -0.45593999997E+02  0.45594000000E+02  0.51100000000E-03 0. -1.
    9900012    2    1    2    0    0 -0.17235053926E+02  0.18164164455E+02 -0.19741730461E+02  0.59301954843E+02  0.50000019724E+02 0.  0.
        -12    1    1    2    0    0  0.17235053926E+02 -0.18164164455E+02  0.19741730461E+02  0.31886045157E+02  0.00000000000E+00 0.  1.
         11    1    3    3    0    0 -0.89315695077E+01 -0.71760541695E+01 -0.60490648511E+01  0.12956074759E+02  0.51100000000E-03 0. -1.
        -11    1    3    3    0    0  0.84347976969E+01  0.19879739591E+02  0.33365466391E+01  0.21851370715E+02  0.51100000000E-03 0.  1.
         12    1    3    3    0    0 -0.16738282115E+02  0.54604790335E+01 -0.17029212249E+02  0.24494509370E+02  0.00000000000E+00 0. -1.
</event>
<event>
 7    1  0.1220856E-011  0.5930195E+02  0.7816164E-02  0.1266605E+00
        -11   -1    0    0    0    0  0.00000000000E+00  0.00000000000E+00  0.45593999997E+02  0.45594000000E+02  0.51100000000E-03 0.  1.
         11   -1    0    0    0    0 -0.00000000000E+00 -0.00000000000E+00 -0.45593999997E+02  0.45594000000E+02  0.51100000000E-03 0. -1.
    9900012    2    1    2    0    0 -0.81573432383E+01 -0.26826118042E+02 -0.15183465171E+02  0.59301945485E+02  0.50000002657E+02 0.  0.
        -12    1    1    2    0    0  0.81573432383E+01  0.26826118042E+02  0.15183465171E+02  0.31886054515E+02  0.00000000000E+00 0.  1.
         11    1    3    3    0    0 -0.31814055025E+01  0.23499338717E+01 -0.16219772869E+02  0.16695046042E+02  0.51100000000E-03 0. -1.
        -11    1    3    3    0    0 -0.57555544623E+01  0.52917037036E+01 -0.17699344848E+01  0.80163086016E+01  0.51100000000E-03 0.  1.
        -12    1    3    3    0    0  0.77961672645E+00 -0.34467755618E+02  0.28062421820E+01  0.34590590841E+02  0.00000000000E+00 0.  1.
</event>
<event>
 7    1  0.1220856E-011  0.5930193E+02  0.7816164E-02  0.1266605E+00
        -11   -1    0    0    0    0  0.00000000000E+00  0.00000000000E+00  0.45593999997E+02  0.45594000000E+02  0.51100000000E-03 0. -1.
         11   -1    0    0    0    0 -0.00000000000E+00 -0.00000000000E+00 -0.45593999997E+02  0.45594000000E+02  0.51100000000E-03 0.  1.
    9900012    2    1    2    0    0 -0.12236267164E+02 -0.29428678704E+02 -0.97367207168E+00  0.59301930915E+02  0.49999976086E+02 0.  0.
        -12    1    1    2    0    0  0.12236267164E+02  0.29428678704E+02  0.97367207168E+00  0.31886069085E+02  0.00000000000E+00 0.  1.
         11    1    3    3    0    0 -0.79809624243E+01 -0.23908557595E+01  0.97438766478E+01  0.12820104714E+02  0.51100000000E-03 0. -1.
        -11    1    3    3    0    0 -0.51277105171E+01 -0.54797964348E+01  0.12630107171E+02  0.14691534689E+02  0.51100000000E-03 0.  1.
        -12    1    3    3    0    0  0.87240577759E+00 -0.21558026510E+02 -0.23347655891E+02  0.31790291512E+02  0.00000000000E+00 0.  1.
</event>
<event>
 7    1  0.1220856E-011  0.5930190E+02  0.7816164E-02  0.1266605E+00
        -11   -1    0    0    0    0  0.00000000000E+00  0.00000000000E+00  0.45593999997E+02  0.45594000000E+02  0.51100000000E-03 0. -1.
         11   -1    0    0    0    0 -0.00000000000E+00 -0.00000000000E+00 -0.45593999997E+02  0.45594000000E+02  0.51100000000E-03 0.  1.
    9900012    2    1    2    0    0  0.68808776603E+01 -0.22167620519E+02  0.21862599131E+02  0.59301904008E+02  0.49999927013E+02 0.  0.
        -12    1    1    2    0    0 -0.68808776603E+01  0.22167620519E+02 -0.21862599131E+02  0.31886095992E+02  0.00000000000E+00 0.  1.
         11    1    3    3    0    0  0.29964268165E+01 -0.20070305115E+02  0.12171906238E+01  0.20329222178E+02  0.51100000000E-03 0. -1.
        -11    1    3    3    0    0 -0.12757283515E+02 -0.83761226748E+01  0.99320930563E+01  0.18208629451E+02  0.51100000000E-03 0.  1.
         12    1    3    3    0    0  0.16641734359E+02  0.62788072713E+01  0.10713315451E+02  0.20764052379E+02  0.00000000000E+00 0. -1.
</event>
<event>
 7    1  0.1220856E-011  0.5930196E+02  0.7816164E-02  0.1266605E+00
        -11   -1    0    0    0    0  0.00000000000E+00  0.00000000000E+00  0.45593999997E+02  0.45594000000E+02  0.51100000000E-03 0.  1.
         11   -1    0    0    0    0 -0.00000000000E+00 -0.00000000000E+00 -0.45593999997E+02  0.45594000000E+02  0.51100000000E-03 0. -1.
    9900012    2    1    2    0    0  0.78233687929E+01  0.18844834805E+02 -0.24502787217E+02  0.59301961056E+02  0.50000031056E+02 0.  0.
        -12    1    1    2    0    0 -0.78233687929E+01 -0.18844834805E+02  0.24502787217E+02  0.31886038944E+02  0.00000000000E+00 0.  1.
         11    1    3    3    0    0 -0.53714536254E+01 -0.65182163976E+00 -0.33729818394E+01  0.63760796929E+01  0.51100000000E-03 0. -1.
        -11    1    3    3    0    0  0.15555670488E+02 -0.19579692540E+01 -0.26402784984E+02  0.30706995671E+02  0.51100000000E-03 0.  1.
        -12    1    3    3    0    0 -0.23608480693E+01  0.21454625699E+02  0.52729796068E+01  0.22218885693E+02  0.00000000000E+00 0.  1.
</event>
<event>
 7    1  0.1220856E-011  0.5930196E+02  0.7816164E-02  0.1266605E+00
        -11   -1    0    0    0    0  0.00000000000E+00  0.00000000000E+00  0.45593999997E+02  0.45594000000E+02  0.51100000000E-03 0. -1.
         11   -1    0    0    0    0 -0.00000000000E+00 -0.00000000000E+00 -0.45593999997E+02  0.45594000000E+02  0.51100000000E-03 0.  1.
    9900012    2    1    2    0    0  0.27196542027E+02  0.72631881323E+01  0.14977110938E+02  0.59301958350E+02  0.50000026121E+02 0.  0.
        -12    1    1    2    0    0 -0.27196542027E+02 -0.72631881323E+01 -0.14977110938E+02  0.31886041650E+02  0.00000000000E+00 0.  1.
         11    1    3    3    0    0  0.54171252563E+01 -0.46751358200E+01 -0.27736620978E+01  0.76743301123E+01  0.51100000000E-03 0. -1.
        -11    1    3    3    0    0  0.28145730369E+02  0.52494039697E+01 -0.31245799474E+01  0.28801065607E+02  0.51100000000E-03 0.  1.
         12    1    3    3    0    0 -0.63663135982E+01  0.66889199826E+01  0.20875352983E+02  0.22826562630E+02  0.00000000000E+00 0. -1.
</event>
<event>
 7    1  0.1220856E-011  0.5930195E+02  0.7816164E-02  0.1266605E+00
        -11   -1    0    0    0    0  0.00000000000E+00  0.00000000000E+00  0.45593999997E+02  0.45594000000E+02  0.51100000000E-03 0.  1.
         11   -1    0    0    0    0 -0.00000000000E+00 -0.00000000000E+00 -0.45593999997E+02  0.45594000000E+02  0.51100000000E-03 0. -1.
    9900012    2    1    2    0    0 -0.12766981387E+02  0.27379198103E+01 -0.29090004319E+02  0.59301947094E+02  0.50000005592E+02 0.  0.
        -12    1    1    2    0    0  0.12766981387E+02 -0.27379198103E+01  0.29090004319E+02  0.31886052906E+02  0.00000000000E+00 0.  1.
         11    1    3    3    0    0 -0.12901361580E+01  0.16565015389E+02 -0.25271302961E+02  0.30244056272E+02  0.51100000000E-03 0. -1.
        -11    1    3    3    0    0 -0.24542716963E+01 -0.42362320546E+00 -0.11070911569E+02  0.11347598398E+02  0.51100000000E-03 0.  1.
        -12    1    3    3    0    0 -0.90225735325E+01 -0.13403472374E+02  0.72522102103E+01  0.17710292424E+02  0.00000000000E+00 0.  1.
</event>
<event>
 7    1  0.1220856E-011  0.5930194E+02  0.7816164E-02  0.1266605E+00
        -11   -1    0    0    0    0  0.00000000000E+00  0.00000000000E+00  0.45593999997E+02  0.45594000000E+02  0.51100000000E-03 0. -1.
         11   -1    0    0    0    0 -0.00000000000E+00 -0.00000000000E+00 -0.45593999997E+02  0.45594000000E+02  0.51100000000E-03 0.  1.
    9900012    2    1    2    0    0  0.19264576381E+02  0.21619715108E+02  0.13348592090E+02  0.59301938856E+02  0.49999990568E+02 0.  0.
        -12    1    1    2    0    0 -0.19264576381E+02 -0.21619715108E+02 -0.13348592090E+02  0.31886061144E+02  0.00000000000E+00 0.  1.
         11    1    3    3    0    0  0.11698261697E+02 -0.13650685243E+01 -0.28333963416E+01  0.12113664760E+02  0.51100000000E-03 0. -1.
        -11    1    3    3    0    0  0.62674397006E+01 -0.94645725101E+01  0.73854530679E+01  0.13542667776E+02  0.51100000000E-03 0.  1.
         12    1    3    3    0    0  0.12988749834E+01  0.32449356143E+02  0.87965353632E+01  0.33645606321E+02  0.00000000000E+00 0. -1.
</event>
<event>
 7    1  0.1220856E-011  0.5930195E+02  0.7816164E-02  0.1266605E+00
        -11   -1    0    0    0    0  0.00000000000E+00  0.00000000000E+00  0.45593999997E+02  0.45594000000E+02  0.51100000000E-03 0.  1.
         11   -1    0    0    0    0 -0.00000000000E+00 -0.00000000000E+00 -0.45593999997E+02  0.45594000000E+02  0.51100000000E-03 0. -1.
    9900012    2    1    2    0    0 -0.79194666709E+01  0.30876537728E+02 -0.80122231108E+00  0.59301945186E+02  0.50000002112E+02 0.  0.
        -12    1    1    2    0    0  0.79194666709E+01 -0.30876537728E+02  0.80122231108E+00  0.31886054814E+02  0.00000000000E+00 0.  1.
         11    1    3    3    0    0 -0.26580974088E+02  0.24848813562E+02  0.15063061836E+01  0.36418136656E+02  0.51100000000E-03 0. -1.
        -11    1    3    3    0    0  0.13304423012E+01 -0.11237556054E+01 -0.36940922594E+01  0.40840202325E+01  0.51100000000E-03 0.  1.
        -12    1    3    3    0    0  0.17331065116E+02  0.71514797709E+01  0.13865637648E+01  0.18799788297E+02  0.00000000000E+00 0.  1.
</event>
<event>
 7    1  0.1220856E-011  0.5930192E+02  0.7816164E-02  0.1266605E+00
        -11   -1    0    0    0    0  0.00000000000E+00  0.00000000000E+00  0.45593999997E+02  0.45594000000E+02  0.51100000000E-03 0.  1.
         11   -1    0    0    0    0 -0.00000000000E+00 -0.00000000000E+00 -0.45593999997E+02  0.45594000000E+02  0.51100000000E-03 0. -1.
    9900012    2    1    2    0    0 -0.19395588740E+02 -0.82259950931E+01 -0.23934630833E+02  0.59301915089E+02  0.49999947223E+02 0.  0.
        -12    1    1    2    0    0  0.19395588740E+02  0.82259950931E+01  0.23934630833E+02  0.31886084911E+02  0.00000000000E+00 0.  1.
         11    1    3    3    0    0 -0.13859694910E+02 -0.22258316719E+02 -0.24457364054E+02  0.35856470307E+02  0.51100000000E-03 0. -1.
        -11    1    3    3    0    0 -0.62009001943E+01 -0.15787246746E+01 -0.35237011370E+01  0.73047932744E+01  0.51100000000E-03 0.  1.
        -12    1    3    3    0    0  0.66500636420E+00  0.15611046301E+02  0.40464343578E+01  0.16140651507E+02  0.00000000000E+00 0.  1.
</event>
<event>
 7    1  0.1220856E-011  0.5930178E+02  0.7816164E-02  0.1266605E+00
        -11   -1    0    0    0    0  0.00000000000E+00  0.00000000000E+00  0.45593999997E+02  0.45594000000E+02  0.51100000000E-03 0.  1.
         11   -1    0    0    0    0 -0.00000000000E+00 -0.00000000000E+00 -0.45593999997E+02  0.45594000000E+02  0.51100000000E-03 0. -1.
    9900012    2    1    2    0    0  0.27693711066E+02  0.15799262837E+02  0.41517311514E+00  0.59301784993E+02  0.49999709957E+02 0.  0.
        -12    1    1    2    0    0 -0.27693711066E+02 -0.15799262837E+02 -0.41517311514E+00  0.31886215007E+02  0.00000000000E+00 0.  1.
         11    1    3    3    0    0  0.90900599739E+01  0.71047570358E+01  0.19632264454E+02  0.22771310255E+02  0.51100000000E-03 0. -1.
        -11    1    3    3    0    0 -0.26836946662E+00 -0.64270685822E+01 -0.16515785694E+01  0.66413059531E+01  0.51100000000E-03 0.  1.
         12    1    3    3    0    0  0.18872020559E+02  0.15121574383E+02 -0.17565512769E+02  0.29889168785E+02  0.00000000000E+00 0. -1.
</event>
<event>
 7    1  0.1220856E-011  0.5930194E+02  0.7816164E-02  0.1266605E+00
        -11   -1    0    0    0    0  0.00000000000E+00  0.00000000000E+00  0.45593999997E+02  0.45594000000E+02  0.51100000000E-03 0.  1.
         11   -1    0    0    0    0 -0.00000000000E+00 -0.00000000000E+00 -0.45593999997E+02  0.45594000000E+02  0.51100000000E-03 0. -1.
    9900012    2    1    2    0    0  0.21134135227E+02 -0.27970929361E+01 -0.23711710808E+02  0.59301943014E+02  0.49999998152E+02 0.  0.
        -12    1    1    2    0    0 -0.21134135227E+02  0.27970929361E+01  0.23711710808E+02  0.31886056986E+02  0.00000000000E+00 0.  1.
         11    1    3    3    0    0  0.21716641270E+02 -0.11208585934E+02 -0.27036682699E+02  0.36444850368E+02  0.51100000000E-03 0. -1.
        -11    1    3    3    0    0  0.42653148600E+01 -0.56691373911E+01 -0.14047569689E+01  0.72322452957E+01  0.51100000000E-03 0.  1.
        -12    1    3    3    0    0 -0.48478209030E+01  0.14080630389E+02  0.47297288605E+01  0.15624847351E+02  0.00000000000E+00 0.  1.
</event>
<event>
 7    1  0.1220856E-011  0.5930191E+02  0.7816164E-02  0.1266605E+00
        -11   -1    0    0    0    0  0.00000000000E+00  0.00000000000E+00  0.45593999997E+02  0.45594000000E+02  0.51100000000E-03 0.  1.
         11   -1    0    0    0    0 -0.00000000000E+00 -0.00000000000E+00 -0.45593999997E+02  0.45594000000E+02  0.51100000000E-03 0. -1.
    9900012    2    1    2    0    0  0.14453672492E+02  0.19848041775E+02 -0.20343771448E+02  0.59301914515E+02  0.49999946176E+02 0.  0.
        -12    1    1    2    0    0 -0.14453672492E+02 -0.19848041775E+02  0.20343771448E+02  0.31886085485E+02  0.00000000000E+00 0.  1.
         11    1    3    3    0    0 -0.90125940581E+01 -0.90472513736E+01 -0.70426217722E+01  0.14583488292E+02  0.51100000000E-03 0. -1.
        -11    1    3    3    0    0  0.82472218673E+01 -0.30768367158E+00  0.18682637715E+01  0.84617815826E+01  0.51100000000E-03 0.  1.
         12    1    3    3    0    0  0.15219044683E+02  0.29202976821E+02 -0.15169413447E+02  0.36256644640E+02  0.00000000000E+00 0. -1.
</event>
<event>
 7    1  0.1220856E-011  0.5930195E+02  0.7816164E-02  0.1266605E+00
        -11   -1    0    0    0    0  0.00000000000E+00  0.00000000000E+00  0.45593999997E+02  0.45594000000E+02  0.51100000000E-03 0.  1.
         11   -1    0    0    0    0 -0.00000000000E+00 -0.00000000000E+00 -0.45593999997E+02  0.45594000000E+02  0.51100000000E-03 0. -1.
    9900012    2    1    2    0    0  0.26945934991E+02 -0.77399011295E+01 -0.15189816057E+02  0.59301952991E+02  0.50000016347E+02 0.  0.
        -12    1    1    2    0    0 -0.26945934991E+02  0.77399011295E+01  0.15189816057E+02  0.31886047009E+02  0.00000000000E+00 0.  1.
         11    1    3    3    0    0  0.60741764464E+01  0.89501886377E+01 -0.53866875114E+00  0.10830127443E+02  0.51100000000E-03 0. -1.
        -11    1    3    3    0    0 -0.93731735652E+00 -0.13258039757E+02  0.90510826205E+01  0.16080307177E+02  0.51100000000E-03 0.  1.
         12    1    3    3    0    0  0.21809075901E+02 -0.34320500098E+01 -0.23702229926E+02  0.32391518371E+02  0.00000000000E+00 0. -1.
</event>
<event>
 7    1  0.1220856E-011  0.5930197E+02  0.7816164E-02  0.1266605E+00
        -11   -1    0    0    0    0  0.00000000000E+00  0.00000000000E+00  0.45593999997E+02  0.45594000000E+02  0.51100000000E-03 0. -1.
         11   -1    0    0    0    0 -0.00000000000E+00 -0.00000000000E+00 -0.45593999997E+02  0.45594000000E+02  0.51100000000E-03 0.  1.
    9900012    2    1    2    0    0 -0.72015937231E+01  0.38533185155E+01  0.30822195081E+02  0.59301972882E+02  0.50000052624E+02 0.  0.
        -12    1    1    2    0    0  0.72015937231E+01 -0.38533185155E+01 -0.30822195081E+02  0.31886027118E+02  0.00000000000E+00 0.  1.
         11    1    3    3    0    0  0.13088097136E+02 -0.11526085644E+02  0.18804634881E+02  0.25646895137E+02  0.51100000000E-03 0. -1.
        -11    1    3    3    0    0 -0.13937677042E+02  0.84356746340E+01  0.16538103893E+02  0.23214829926E+02  0.51100000000E-03 0.  1.
        -12    1    3    3    0    0 -0.63520138176E+01  0.69437295251E+01 -0.45205436923E+01  0.10440247819E+02  0.00000000000E+00 0.  1.
</event>
<event>
 7    1  0.1220856E-011  0.5930193E+02  0.7816164E-02  0.1266605E+00
        -11   -1    0    0    0    0  0.00000000000E+00  0.00000000000E+00  0.45593999997E+02  0.45594000000E+02  0.51100000000E-03 0.  1.
         11   -1    0    0    0    0 -0.00000000000E+00 -0.00000000000E+00 -0.45593999997E+02  0.45594000000E+02  0.51100000000E-03 0. -1.
    9900012    2    1    2    0    0 -0.14363246248E+02  0.20278175439E+02 -0.19980342277E+02  0.59301932205E+02  0.49999978437E+02 0.  0.
        -12    1    1    2    0    0  0.14363246248E+02 -0.20278175439E+02  0.19980342277E+02  0.31886067795E+02  0.00000000000E+00 0.  1.
         11    1    3    3    0    0 -0.55612890997E+01  0.28104327703E+02 -0.10189745560E+02  0.30407434731E+02  0.51100000000E-03 0. -1.
        -11    1    3    3    0    0  0.80230222264E+01 -0.10091604844E+01  0.36290380805E+00  0.80943801470E+01  0.51100000000E-03 0.  1.
        -12    1    3    3    0    0 -0.16824979375E+02 -0.68169917792E+01 -0.10153500525E+02  0.20800117326E+02  0.00000000000E+00 0.  1.
</event>
<event>
 7    1  0.1220856E-011  0.5930193E+02  0.7816164E-02  0.1266605E+00
        -11   -1    0    0    0    0  0.00000000000E+00  0.00000000000E+00  0.45593999997E+02  0.45594000000E+02  0.51100000000E-03 0.  1.
         11   -1    0    0    0    0 -0.00000000000E+00 -0.00000000000E+00 -0.45593999997E+02  0.45594000000E+02  0.51100000000E-03 0. -1.
    9900012    2    1    2    0    0  0.52748828407E+01  0.39505703611E+01 -0.31197596374E+02  0.59301930711E+02  0.49999975714E+02 0.  0.
        -12    1    1    2    0    0 -0.52748828407E+01 -0.39505703611E+01  0.31197596374E+02  0.31886069289E+02  0.00000000000E+00 0.  1.
         11    1    3    3    0    0 -0.61484929942E+00 -0.11616414004E+02 -0.21524199372E+02  0.24466513296E+02  0.51100000000E-03 0. -1.
        -11    1    3    3    0    0 -0.84087598848E+01 -0.14549260670E+01  0.32381757654E+01  0.91274221558E+01  0.51100000000E-03 0.  1.
        -12    1    3    3    0    0  0.14298492025E+02  0.17021910432E+02 -0.12911572767E+02  0.25707995260E+02  0.00000000000E+00 0.  1.
</event>
<event>
 7    1  0.1220856E-011  0.5930195E+02  0.7816164E-02  0.1266605E+00
        -11   -1    0    0    0    0  0.00000000000E+00  0.00000000000E+00  0.45593999997E+02  0.45594000000E+02  0.51100000000E-03 0.  1.
         11   -1    0    0    0    0 -0.00000000000E+00 -0.00000000000E+00 -0.45593999997E+02  0.45594000000E+02  0.51100000000E-03 0. -1.
    9900012    2    1    2    0    0  0.21165119699E+02  0.64646559102E+01 -0.22955738865E+02  0.59301952663E+02  0.50000015749E+02 0.  0.
        -12    1    1    2    0    0 -0.21165119699E+02 -0.64646559102E+01  0.22955738865E+02  0.31886047337E+02  0.00000000000E+00 0.  1.
         11    1    3    3    0    0 -0.24600412251E+01  0.11452216733E+02 -0.50127329570E+00  0.11724177844E+02  0.51100000000E-03 0. -1.
        -11    1    3    3    0    0 -0.76814177897E+01 -0.71000709020E+01 -0.71198426421E+01  0.12653353136E+02  0.51100000000E-03 0.  1.
        -12    1    3    3    0    0  0.31306578714E+02  0.21125100791E+01 -0.15334622927E+02  0.34924421684E+02  0.00000000000E+00 0.  1.
</event>
<event>
 7    1  0.1220856E-011  0.5930195E+02  0.7816164E-02  0.1266605E+00
        -11   -1    0    0    0    0  0.00000000000E+00  0.00000000000E+00  0.45593999997E+02  0.45594000000E+02  0.51100000000E-03 0.  1.
         11   -1    0    0    0    0 -0.00000000000E+00 -0.00000000000E+00 -0.45593999997E+02  0.45594000000E+02  0.51100000000E-03 0. -1.
    9900012    2    1    2    0    0 -0.19991887209E+02  0.19539188181E+02 -0.15338338818E+02  0.59301951850E+02  0.50000014266E+02 0.  0.
        -12    1    1    2    0    0  0.19991887209E+02 -0.19539188181E+02  0.15338338818E+02  0.31886048150E+02  0.00000000000E+00 0.  1.
         11    1    3    3    0    0  0.20135359447E+01 -0.13386129957E+01 -0.41128631309E+01  0.47709386023E+01  0.51100000000E-03 0. -1.
        -11    1    3    3    0    0  0.83704828757E+01  0.61179855039E+01  0.10193365786E+02  0.14539581717E+02  0.51100000000E-03 0.  1.
         12    1    3    3    0    0 -0.30375906030E+02  0.14759815672E+02 -0.21418841473E+02  0.39991431530E+02  0.00000000000E+00 0. -1.
</event>
<event>
 7    1  0.1220856E-011  0.5930195E+02  0.7816164E-02  0.1266605E+00
        -11   -1    0    0    0    0  0.00000000000E+00  0.00000000000E+00  0.45593999997E+02  0.45594000000E+02  0.51100000000E-03 0. -1.
         11   -1    0    0    0    0 -0.00000000000E+00 -0.00000000000E+00 -0.45593999997E+02  0.45594000000E+02  0.51100000000E-03 0.  1.
    9900012    2    1    2    0    0  0.76595990916E+01 -0.25334980451E+02  0.17781726325E+02  0.59301945308E+02  0.50000002335E+02 0.  0.
        -12    1    1    2    0    0 -0.76595990916E+01  0.25334980451E+02 -0.17781726325E+02  0.31886054692E+02  0.00000000000E+00 0.  1.
         11    1    3    3    0    0  0.14328109734E+02 -0.23929082298E+02  0.14764902506E+01  0.27929835873E+02  0.51100000000E-03 0. -1.
        -11    1    3    3    0    0 -0.81146152961E+00 -0.12970237781E+02  0.42580572406E+01  0.13675400895E+02  0.51100000000E-03 0.  1.
        -12    1    3    3    0    0 -0.58570491124E+01  0.11564339627E+02  0.12047178834E+02  0.17696708541E+02  0.00000000000E+00 0.  1.
</event>
<event>
 7    1  0.1220856E-011  0.5930194E+02  0.7816164E-02  0.1266605E+00
        -11   -1    0    0    0    0  0.00000000000E+00  0.00000000000E+00  0.45593999997E+02  0.45594000000E+02  0.51100000000E-03 0. -1.
         11   -1    0    0    0    0 -0.00000000000E+00 -0.00000000000E+00 -0.45593999997E+02  0.45594000000E+02  0.51100000000E-03 0.  1.
    9900012    2    1    2    0    0  0.24501443727E+02 -0.93881986311E+01  0.18117991520E+02  0.59301942937E+02  0.49999998011E+02 0.  0.
        -12    1    1    2    0    0 -0.24501443727E+02  0.93881986311E+01 -0.18117991520E+02  0.31886057063E+02  0.00000000000E+00 0.  1.
         11    1    3    3    0    0  0.12543418871E+02  0.46461699478E+01  0.93048206131E+01  0.16294291610E+02  0.51100000000E-03 0. -1.
        -11    1    3    3    0    0 -0.43054499013E+01  0.11095419672E+02  0.46873984464E+01  0.12791283791E+02  0.51100000000E-03 0.  1.
        -12    1    3    3    0    0  0.16263474757E+02 -0.25129788251E+02  0.41257724609E+01  0.30216367537E+02  0.00000000000E+00 0.  1.
</event>
<event>
 7    1  0.1220856E-011  0.5930196E+02  0.7816164E-02  0.1266605E+00
        -11   -1    0    0    0    0  0.00000000000E+00  0.00000000000E+00  0.45593999997E+02  0.45594000000E+02  0.51100000000E-03 0.  1.
         11   -1    0    0    0    0 -0.00000000000E+00 -0.00000000000E+00 -0.45593999997E+02  0.45594000000E+02  0.51100000000E-03 0. -1.
    9900012    2    1    2    0    0  0.11359324539E+02 -0.19651991151E+01 -0.29729160628E+02  0.59301964605E+02  0.50000037528E+02 0.  0.
        -12    1    1    2    0    0 -0.11359324539E+02  0.19651991151E+01  0.29729160628E+02  0.31886035395E+02  0.00000000000E+00 0.  1.
         11    1    3    3    0    0  0.49790746823E+01  0.11490267409E+02 -0.10489453528E+02  0.16335423637E+02  0.51100000000E-03 0.  1.
        -11    1    3    3    0    0  0.14788447814E+02 -0.10220327615E+01 -0.23119431108E+02  0.27463627487E+02  0.51100000000E-03 0. -1.
        -12    1    3    3    0    0 -0.84081979577E+01 -0.12433433763E+02  0.38797240081E+01  0.15502913481E+02  0.00000000000E+00 0.  1.
</event>
<event>
 7    1  0.1220856E-011  0.5930193E+02  0.7816164E-02  0.1266605E+00
        -11   -1    0    0    0    0  0.00000000000E+00  0.00000000000E+00  0.45593999997E+02  0.45594000000E+02  0.51100000000E-03 0.  1.
         11   -1    0    0    0    0 -0.00000000000E+00 -0.00000000000E+00 -0.45593999997E+02  0.45594000000E+02  0.51100000000E-03 0. -1.
    9900012    2    1    2    0    0  0.25696828882E+02  0.65792136684E+01 -0.17694860961E+02  0.59301934524E+02  0.49999982668E+02 0.  0.
        -12    1    1    2    0    0 -0.25696828882E+02 -0.65792136684E+01  0.17694860961E+02  0.31886065476E+02  0.00000000000E+00 0.  1.
         11    1    3    3    0    0  0.53836917589E+01 -0.12538940827E+02 -0.45243021913E+01  0.14376316795E+02  0.51100000000E-03 0. -1.
        -11    1    3    3    0    0  0.42271501977E+00  0.14587722813E+02  0.70455050025E+01  0.16205538740E+02  0.51100000000E-03 0.  1.
         12    1    3    3    0    0  0.19890422104E+02  0.45304316821E+01 -0.20216063772E+02  0.28720078989E+02  0.00000000000E+00 0. -1.
</event>
<event>
 7    1  0.1220856E-011  0.5930195E+02  0.7816164E-02  0.1266605E+00
        -11   -1    0    0    0    0  0.00000000000E+00  0.00000000000E+00  0.45593999997E+02  0.45594000000E+02  0.51100000000E-03 0.  1.
         11   -1    0    0    0    0 -0.00000000000E+00 -0.00000000000E+00 -0.45593999997E+02  0.45594000000E+02  0.51100000000E-03 0. -1.
    9900012    2    1    2    0    0 -0.23802928373E+02 -0.21342526310E+01 -0.21108905729E+02  0.59301947650E+02  0.50000006606E+02 0.  0.
        -12    1    1    2    0    0  0.23802928373E+02  0.21342526310E+01  0.21108905729E+02  0.31886052350E+02  0.00000000000E+00 0.  1.
         11    1    3    3    0    0  0.54740612916E+01  0.55570418368E+01  0.35760641500E+01  0.85810428309E+01  0.51100000000E-03 0. -1.
        -11    1    3    3    0    0 -0.59351315691E+01  0.50853537069E+01  0.61835904039E+01  0.99661125626E+01  0.51100000000E-03 0.  1.
         12    1    3    3    0    0 -0.23341858096E+02 -0.12776648175E+02 -0.30868560282E+02  0.40754792256E+02  0.00000000000E+00 0. -1.
</event>
<event>
 7    1  0.1220856E-011  0.5930194E+02  0.7816164E-02  0.1266605E+00
        -11   -1    0    0    0    0  0.00000000000E+00  0.00000000000E+00  0.45593999997E+02  0.45594000000E+02  0.51100000000E-03 0.  1.
         11   -1    0    0    0    0 -0.00000000000E+00 -0.00000000000E+00 -0.45593999997E+02  0.45594000000E+02  0.51100000000E-03 0. -1.
    9900012    2    1    2    0    0  0.19960000909E+02 -0.24286724037E+02 -0.53361415364E+01  0.59301937100E+02  0.49999987366E+02 0.  0.
        -12    1    1    2    0    0 -0.19960000909E+02  0.24286724037E+02  0.53361415364E+01  0.31886062900E+02  0.00000000000E+00 0.  1.
         11    1    3    3    0    0  0.55201880306E+01 -0.15605952486E+02  0.37522007749E+01  0.16973427462E+02  0.51100000000E-03 0. -1.
        -11    1    3    3    0    0 -0.12895705514E+02 -0.25047800586E+01 -0.10739071788E+01  0.13180531883E+02  0.51100000000E-03 0.  1.
         12    1    3    3    0    0  0.27335518392E+02 -0.61759914927E+01 -0.80144351325E+01  0.29147977755E+02  0.00000000000E+00 0. -1.
</event>
<event>
 7    1  0.1220856E-011  0.5930205E+02  0.7816164E-02  0.1266604E+00
        -11   -1    0    0    0    0  0.00000000000E+00  0.00000000000E+00  0.45593999997E+02  0.45594000000E+02  0.51100000000E-03 0.  1.
         11   -1    0    0    0    0 -0.00000000000E+00 -0.00000000000E+00 -0.45593999997E+02  0.45594000000E+02  0.51100000000E-03 0. -1.
    9900012    2    1    2    0    0 -0.31036920828E+02  0.72623837442E+01  0.82521431562E+00  0.59302052456E+02  0.50000197747E+02 0.  0.
        -12    1    1    2    0    0  0.31036920828E+02 -0.72623837442E+01 -0.82521431562E+00  0.31885947544E+02  0.00000000000E+00 0.  1.
         11    1    3    3    0    0 -0.79785215428E+01  0.12525665381E+02 -0.54218977183E+01  0.15809682931E+02  0.51100000000E-03 0. -1.
        -11    1    3    3    0    0  0.40487759611E+01 -0.11975023645E+02 -0.47156524785E+01  0.13491892256E+02  0.51100000000E-03 0.  1.
        -12    1    3    3    0    0 -0.27107175246E+02  0.67117420080E+01  0.10962764512E+02  0.30000477269E+02  0.00000000000E+00 0.  1.
</event>
<event>
 7    1  0.1220856E-011  0.5930194E+02  0.7816164E-02  0.1266605E+00
        -11   -1    0    0    0    0  0.00000000000E+00  0.00000000000E+00  0.45593999997E+02  0.45594000000E+02  0.51100000000E-03 0.  1.
         11   -1    0    0    0    0 -0.00000000000E+00 -0.00000000000E+00 -0.45593999997E+02  0.45594000000E+02  0.51100000000E-03 0. -1.
    9900012    2    1    2    0    0  0.28761121110E+01 -0.31037514336E+02 -0.67172418047E+01  0.59301942632E+02  0.49999997455E+02 0.  0.
        -12    1    1    2    0    0 -0.28761121110E+01  0.31037514336E+02  0.67172418047E+01  0.31886057368E+02  0.00000000000E+00 0.  1.
         11    1    3    3    0    0  0.15013733042E+01 -0.27075662435E+02  0.70142939523E+01  0.28009747196E+02  0.51100000000E-03 0. -1.
        -11    1    3    3    0    0 -0.11624878580E+02  0.14133522005E+01 -0.11021590062E+00  0.11710999712E+02  0.51100000000E-03 0.  1.
         12    1    3    3    0    0  0.12999617387E+02 -0.53752041013E+01 -0.13621319856E+02  0.19581195724E+02  0.00000000000E+00 0. -1.
</event>
<event>
 7    1  0.1461016E-011  0.5930195E+02  0.7816164E-02  0.1266605E+00
        -11   -1    0    0    0    0  0.00000000000E+00  0.00000000000E+00  0.45593999997E+02  0.45594000000E+02  0.51100000000E-03 0.  1.
         11   -1    0    0    0    0 -0.00000000000E+00 -0.00000000000E+00 -0.45593999997E+02  0.45594000000E+02  0.51100000000E-03 0. -1.
    9900012    2    1    2    0    0 -0.16662948912E+02  0.20517043944E+02 -0.17835836133E+02  0.59301952750E+02  0.50000015908E+02 0.  0.
        -12    1    1    2    0    0  0.16662948912E+02 -0.20517043944E+02  0.17835836133E+02  0.31886047250E+02  0.00000000000E+00 0.  1.
         11    1    3    3    0    0 -0.20383518278E+02  0.18023914008E+02 -0.14154797278E+02  0.30670956617E+02  0.51100000000E-03 0. -1.
        -11    1    3    3    0    0 -0.10638067917E+02 -0.52639734250E+01  0.13834210159E+00  0.11870006066E+02  0.51100000000E-03 0.  1.
        -12    1    3    3    0    0  0.14358637282E+02  0.77571033612E+01 -0.38193809561E+01  0.16760990067E+02  0.00000000000E+00 0.  1.
</event>
<event>
 7    1  0.1220856E-011  0.5930190E+02  0.7816164E-02  0.1266605E+00
        -11   -1    0    0    0    0  0.00000000000E+00  0.00000000000E+00  0.45593999997E+02  0.45594000000E+02  0.51100000000E-03 0.  1.
         11   -1    0    0    0    0 -0.00000000000E+00 -0.00000000000E+00 -0.45593999997E+02  0.45594000000E+02  0.51100000000E-03 0. -1.
    9900012    2    1    2    0    0 -0.26942922963E+02 -0.90466492659E+01 -0.14455461013E+02  0.59301900931E+02  0.49999921402E+02 0.  0.
        -12    1    1    2    0    0  0.26942922963E+02  0.90466492659E+01  0.14455461013E+02  0.31886099069E+02  0.00000000000E+00 0.  1.
         11    1    3    3    0    0 -0.42333921771E+01  0.16269685152E+02  0.15131187999E+01  0.16879389593E+02  0.51100000000E-03 0. -1.
        -11    1    3    3    0    0  0.12087001878E+01 -0.11320812637E+02 -0.66536514500E+01  0.13186843170E+02  0.51100000000E-03 0.  1.
         12    1    3    3    0    0 -0.23918230974E+02 -0.13995521781E+02 -0.93149283628E+01  0.29235668168E+02  0.00000000000E+00 0. -1.
</event>
<event>
 7    1  0.1220856E-011  0.5930195E+02  0.7816164E-02  0.1266605E+00
        -11   -1    0    0    0    0  0.00000000000E+00  0.00000000000E+00  0.45593999997E+02  0.45594000000E+02  0.51100000000E-03 0. -1.
         11   -1    0    0    0    0 -0.00000000000E+00 -0.00000000000E+00 -0.45593999997E+02  0.45594000000E+02  0.51100000000E-03 0.  1.
    9900012    2    1    2    0    0  0.31757331545E+02  0.24604829130E+01  0.14622920342E+01  0.59301946920E+02  0.50000005275E+02 0.  0.
        -12    1    1    2    0    0 -0.31757331545E+02 -0.24604829130E+01 -0.14622920342E+01  0.31886053080E+02  0.00000000000E+00 0.  1.
         11    1    3    3    0    0 -0.33217210796E+01  0.74118594298E+01 -0.43381456862E+01  0.92080942325E+01  0.51100000000E-03 0. -1.
        -11    1    3    3    0    0  0.17427610183E+02  0.22298653336E+01 -0.14109601465E+02  0.22533857855E+02  0.51100000000E-03 0.  1.
         12    1    3    3    0    0  0.17651442442E+02 -0.71812418505E+01  0.19910039185E+02  0.27559994832E+02  0.00000000000E+00 0. -1.
</event>
<event>
 7    1  0.1220856E-011  0.5930192E+02  0.7816164E-02  0.1266605E+00
        -11   -1    0    0    0    0  0.00000000000E+00  0.00000000000E+00  0.45593999997E+02  0.45594000000E+02  0.51100000000E-03 0.  1.
         11   -1    0    0    0    0 -0.00000000000E+00 -0.00000000000E+00 -0.45593999997E+02  0.45594000000E+02  0.51100000000E-03 0. -1.
    9900012    2    1    2    0    0  0.22154646296E+02  0.13837952143E+02 -0.18286731248E+02  0.59301924485E+02  0.49999964358E+02 0.  0.
        -12    1    1    2    0    0 -0.22154646296E+02 -0.13837952143E+02  0.18286731248E+02  0.31886075515E+02  0.00000000000E+00 0.  1.
         11    1    3    3    0    0  0.86698584584E+01  0.56861517232E+01 -0.16669508806E+01  0.10501309090E+02  0.51100000000E-03 0. -1.
        -11    1    3    3    0    0  0.74707407675E+01  0.13369082613E+01  0.14507897098E+02  0.16373098967E+02  0.51100000000E-03 0.  1.
         12    1    3    3    0    0  0.60140470704E+01  0.68148921586E+01 -0.31127677465E+02  0.32427516428E+02  0.00000000000E+00 0. -1.
</event>
<event>
 7    1  0.1220856E-011  0.5930206E+02  0.7816164E-02  0.1266604E+00
        -11   -1    0    0    0    0  0.00000000000E+00  0.00000000000E+00  0.45593999997E+02  0.45594000000E+02  0.51100000000E-03 0. -1.
         11   -1    0    0    0    0 -0.00000000000E+00 -0.00000000000E+00 -0.45593999997E+02  0.45594000000E+02  0.51100000000E-03 0.  1.
    9900012    2    1    2    0    0 -0.26756985824E+02  0.96206196806E-01 -0.17342650957E+02  0.59302061277E+02  0.50000213835E+02 0.  0.
        -12    1    1    2    0    0  0.26756985824E+02 -0.96206196806E-01  0.17342650957E+02  0.31885938723E+02  0.00000000000E+00 0.  1.
         11    1    3    3    0    0 -0.25912299636E+02  0.13178773144E+02  0.28224976222E+01  0.29207769979E+02  0.51100000000E-03 0. -1.
        -11    1    3    3    0    0 -0.11638959596E+01  0.35822619468E+01  0.20712313851E+00  0.37722877297E+01  0.51100000000E-03 0.  1.
        -12    1    3    3    0    0  0.31920977254E+00 -0.16664828894E+02 -0.20372271718E+02  0.26322003569E+02  0.00000000000E+00 0.  1.
</event>
<event>
 7    1  0.1220856E-011  0.5930195E+02  0.7816164E-02  0.1266605E+00
        -11   -1    0    0    0    0  0.00000000000E+00  0.00000000000E+00  0.45593999997E+02  0.45594000000E+02  0.51100000000E-03 0.  1.
         11   -1    0    0    0    0 -0.00000000000E+00 -0.00000000000E+00 -0.45593999997E+02  0.45594000000E+02  0.51100000000E-03 0. -1.
    9900012    2    1    2    0    0 -0.39256716613E+00 -0.28752372573E+02 -0.13779233349E+02  0.59301948045E+02  0.50000007327E+02 0.  0.
        -12    1    1    2    0    0  0.39256716613E+00  0.28752372573E+02  0.13779233349E+02  0.31886051955E+02  0.00000000000E+00 0.  1.
         11    1    3    3    0    0  0.80004659655E+01 -0.16019846369E+01 -0.15613344392E+01  0.83073206231E+01  0.51100000000E-03 0. -1.
        -11    1    3    3    0    0  0.11691157450E+02 -0.26941714505E+02 -0.84339362799E+01  0.30556021083E+02  0.51100000000E-03 0.  1.
        -12    1    3    3    0    0 -0.20084190581E+02 -0.20867343101E+00 -0.37839626301E+01  0.20438606339E+02  0.00000000000E+00 0.  1.
</event>
<event>
 7    1  0.1220856E-011  0.5930194E+02  0.7816164E-02  0.1266605E+00
        -11   -1    0    0    0    0  0.00000000000E+00  0.00000000000E+00  0.45593999997E+02  0.45594000000E+02  0.51100000000E-03 0.  1.
         11   -1    0    0    0    0 -0.00000000000E+00 -0.00000000000E+00 -0.45593999997E+02  0.45594000000E+02  0.51100000000E-03 0. -1.
    9900012    2    1    2    0    0 -0.14317430931E+02  0.10152478936E+02 -0.26620658692E+02  0.59301935235E+02  0.49999983963E+02 0.  0.
        -12    1    1    2    0    0  0.14317430931E+02 -0.10152478936E+02  0.26620658692E+02  0.31886064765E+02  0.00000000000E+00 0.  1.
         11    1    3    3    0    0  0.67436587461E+01  0.52757938392E+01 -0.25082223234E+01  0.89220016477E+01  0.51100000000E-03 0. -1.
        -11    1    3    3    0    0 -0.42615898129E+01 -0.16295716958E+02 -0.61671503890E+01  0.17937259632E+02  0.51100000000E-03 0.  1.
         12    1    3    3    0    0 -0.16799499864E+02  0.21172402055E+02 -0.17945285980E+02  0.32442673955E+02  0.00000000000E+00 0. -1.
</event>
<event>
 7    1  0.1220856E-011  0.5930193E+02  0.7816164E-02  0.1266605E+00
        -11   -1    0    0    0    0  0.00000000000E+00  0.00000000000E+00  0.45593999997E+02  0.45594000000E+02  0.51100000000E-03 0.  1.
         11   -1    0    0    0    0 -0.00000000000E+00 -0.00000000000E+00 -0.45593999997E+02  0.45594000000E+02  0.51100000000E-03 0. -1.
    9900012    2    1    2    0    0 -0.26200217919E+02  0.63515712965E+01 -0.17027252156E+02  0.59301934188E+02  0.49999982056E+02 0.  0.
        -12    1    1    2    0    0  0.26200217919E+02 -0.63515712965E+01  0.17027252156E+02  0.31886065812E+02  0.00000000000E+00 0.  1.
         11    1    3    3    0    0 -0.22947013604E+02  0.57875920019E+01 -0.65990453480E+01  0.24568456490E+02  0.51100000000E-03 0. -1.
        -11    1    3    3    0    0 -0.14435131634E+02  0.25522031293E+01  0.50773438609E+01  0.15513419579E+02  0.51100000000E-03 0.  1.
         12    1    3    3    0    0  0.11181927318E+02 -0.19882238348E+01 -0.15505550669E+02  0.19220058120E+02  0.00000000000E+00 0. -1.
</event>
<event>
 7    1  0.1220856E-011  0.5930190E+02  0.7816164E-02  0.1266605E+00
        -11   -1    0    0    0    0  0.00000000000E+00  0.00000000000E+00  0.45593999997E+02  0.45594000000E+02  0.51100000000E-03 0.  1.
         11   -1    0    0    0    0 -0.00000000000E+00 -0.00000000000E+00 -0.45593999997E+02  0.45594000000E+02  0.51100000000E-03 0. -1.
    9900012    2    1    2    0    0 -0.31676737930E+02 -0.11920132479E+01 -0.34476885321E+01  0.59301903066E+02  0.49999925295E+02 0.  0.
        -12    1    1    2    0    0  0.31676737930E+02  0.11920132479E+01  0.34476885321E+01  0.31886096934E+02  0.00000000000E+00 0.  1.
         11    1    3    3    0    0 -0.83521289800E+01  0.22137082680E+01  0.20653546370E+02  0.22388111593E+02  0.51100000000E-03 0.  1.
        -11    1    3    3    0    0 -0.12166418400E+02  0.49411163186E+01 -0.70880735293E+01  0.14922370916E+02  0.51100000000E-03 0. -1.
        -12    1    3    3    0    0 -0.11158190551E+02 -0.83468378345E+01 -0.17013161372E+02  0.21991420556E+02  0.00000000000E+00 0.  1.
</event>
<event>
 7    1  0.1220856E-011  0.5930194E+02  0.7816164E-02  0.1266605E+00
        -11   -1    0    0    0    0  0.00000000000E+00  0.00000000000E+00  0.45593999997E+02  0.45594000000E+02  0.51100000000E-03 0. -1.
         11   -1    0    0    0    0 -0.00000000000E+00 -0.00000000000E+00 -0.45593999997E+02  0.45594000000E+02  0.51100000000E-03 0.  1.
    9900012    2    1    2    0    0 -0.14722257251E+02  0.26087796234E+02 -0.10927158574E+02  0.59301940892E+02  0.49999994281E+02 0.  0.
        -12    1    1    2    0    0  0.14722257251E+02 -0.26087796234E+02  0.10927158574E+02  0.31886059108E+02  0.00000000000E+00 0.  1.
         11    1    3    3    0    0  0.62451456040E+01 -0.71389475599E+00 -0.87560007779E+01  0.10778638097E+02  0.51100000000E-03 0. -1.
        -11    1    3    3    0    0 -0.13173129157E+02 -0.60968961217E+01 -0.24032099362E+01  0.14713221685E+02  0.51100000000E-03 0.  1.
         12    1    3    3    0    0 -0.77942736983E+01  0.32898587112E+02  0.23205214011E+00  0.33810081110E+02  0.00000000000E+00 0. -1.
</event>
<event>
 7    1  0.1220856E-011  0.5930204E+02  0.7816164E-02  0.1266604E+00
        -11   -1    0    0    0    0  0.00000000000E+00  0.00000000000E+00  0.45593999997E+02  0.45594000000E+02  0.51100000000E-03 0.  1.
         11   -1    0    0    0    0 -0.00000000000E+00 -0.00000000000E+00 -0.45593999997E+02  0.45594000000E+02  0.51100000000E-03 0. -1.
    9900012    2    1    2    0    0 -0.31680068941E+02 -0.22620661814E+01  0.28232654424E+01  0.59302038524E+02  0.50000172338E+02 0.  0.
        -12    1    1    2    0    0  0.31680068941E+02  0.22620661814E+01 -0.28232654424E+01  0.31885961476E+02  0.00000000000E+00 0.  1.
         11    1    3    3    0    0 -0.78504185686E+01  0.34349762892E+01 -0.13590955942E+02  0.16066804832E+02  0.51100000000E-03 0. -1.
        -11    1    3    3    0    0 -0.21605095483E+02 -0.72757335846E+01 -0.35617734949E+01  0.23073852749E+02  0.51100000000E-03 0.  1.
        -12    1    3    3    0    0 -0.22245548895E+01  0.15786911140E+01  0.19975994880E+02  0.20161380943E+02  0.00000000000E+00 0.  1.
</event>
<event>
 7    1  0.1220856E-011  0.5930196E+02  0.7816164E-02  0.1266605E+00
        -11   -1    0    0    0    0  0.00000000000E+00  0.00000000000E+00  0.45593999997E+02  0.45594000000E+02  0.51100000000E-03 0.  1.
         11   -1    0    0    0    0 -0.00000000000E+00 -0.00000000000E+00 -0.45593999997E+02  0.45594000000E+02  0.51100000000E-03 0. -1.
    9900012    2    1    2    0    0  0.15864188094E+02 -0.27103505594E+02 -0.55178671192E+01  0.59301963293E+02  0.50000035135E+02 0.  0.
        -12    1    1    2    0    0 -0.15864188094E+02  0.27103505594E+02  0.55178671192E+01  0.31886036707E+02  0.00000000000E+00 0.  1.
         11    1    3    3    0    0  0.13192115372E+02 -0.13732215328E+01 -0.18098285694E+02  0.22438038923E+02  0.51100000000E-03 0. -1.
        -11    1    3    3    0    0 -0.77101769034E+01 -0.14276579732E+02 -0.10425487580E+01  0.16258981054E+02  0.51100000000E-03 0.  1.
        -12    1    3    3    0    0  0.10382249625E+02 -0.11453704328E+02  0.13622967333E+02  0.20604943316E+02  0.00000000000E+00 0.  1.
</event>
<event>
 7    1  0.1220856E-011  0.5930193E+02  0.7816164E-02  0.1266605E+00
        -11   -1    0    0    0    0  0.00000000000E+00  0.00000000000E+00  0.45593999997E+02  0.45594000000E+02  0.51100000000E-03 0.  1.
         11   -1    0    0    0    0 -0.00000000000E+00 -0.00000000000E+00 -0.45593999997E+02  0.45594000000E+02  0.51100000000E-03 0. -1.
    9900012    2    1    2    0    0 -0.39592802686E+01 -0.25518573031E+02 -0.18704222405E+02  0.59301930855E+02  0.49999975975E+02 0.  0.
        -12    1    1    2    0    0  0.39592802686E+01  0.25518573031E+02  0.18704222405E+02  0.31886069145E+02  0.00000000000E+00 0.  1.
         11    1    3    3    0    0 -0.13153628792E+02 -0.11217207748E+02 -0.31000451422E+02  0.35494671271E+02  0.51100000000E-03 0. -1.
        -11    1    3    3    0    0  0.19538286668E+01 -0.54165151661E+01 -0.14220255907E+01  0.59311246864E+01  0.51100000000E-03 0.  1.
        -12    1    3    3    0    0  0.72405198566E+01 -0.88848501168E+01  0.13718254607E+02  0.17876134897E+02  0.00000000000E+00 0.  1.
</event>
<event>
 7    1  0.1220856E-011  0.5930196E+02  0.7816164E-02  0.1266605E+00
        -11   -1    0    0    0    0  0.00000000000E+00  0.00000000000E+00  0.45593999997E+02  0.45594000000E+02  0.51100000000E-03 0.  1.
         11   -1    0    0    0    0 -0.00000000000E+00 -0.00000000000E+00 -0.45593999997E+02  0.45594000000E+02  0.51100000000E-03 0. -1.
    9900012    2    1    2    0    0 -0.46653399197E+01 -0.26609272525E+02 -0.16938140316E+02  0.59301962645E+02  0.50000033953E+02 0.  0.
        -12    1    1    2    0    0  0.46653399197E+01  0.26609272525E+02  0.16938140316E+02  0.31886037355E+02  0.00000000000E+00 0.  1.
         11    1    3    3    0    0 -0.62695665727E+01 -0.54163698620E+01 -0.72303155778E+01  0.10996453570E+02  0.51100000000E-03 0. -1.
        -11    1    3    3    0    0 -0.15587995506E+02 -0.17886172072E+02  0.63378260773E+01  0.24557459049E+02  0.51100000000E-03 0.  1.
        -12    1    3    3    0    0  0.17192222159E+02 -0.33067305910E+01 -0.16045650816E+02  0.23748050027E+02  0.00000000000E+00 0.  1.
</event>
<event>
 7    1  0.1220856E-011  0.5930194E+02  0.7816164E-02  0.1266605E+00
        -11   -1    0    0    0    0  0.00000000000E+00  0.00000000000E+00  0.45593999997E+02  0.45594000000E+02  0.51100000000E-03 0.  1.
         11   -1    0    0    0    0 -0.00000000000E+00 -0.00000000000E+00 -0.45593999997E+02  0.45594000000E+02  0.51100000000E-03 0. -1.
    9900012    2    1    2    0    0  0.47375702311E+01  0.10922592702E+02 -0.29579941333E+02  0.59301944548E+02  0.50000000949E+02 0.  0.
        -12    1    1    2    0    0 -0.47375702311E+01 -0.10922592702E+02  0.29579941333E+02  0.31886055452E+02  0.00000000000E+00 0.  1.
         11    1    3    3    0    0 -0.34806470356E+01  0.12169814585E+01 -0.99276590292E+01  0.10590295639E+02  0.51100000000E-03 0. -1.
        -11    1    3    3    0    0 -0.74750259242E+01 -0.13753948398E+02 -0.11201970024E+02  0.19249188081E+02  0.51100000000E-03 0.  1.
         12    1    3    3    0    0  0.15693243191E+02  0.23459559641E+02 -0.84503122800E+01  0.29462460828E+02  0.00000000000E+00 0. -1.
</event>
<event>
 7    1  0.1220856E-011  0.5930197E+02  0.7816164E-02  0.1266605E+00
        -11   -1    0    0    0    0  0.00000000000E+00  0.00000000000E+00  0.45593999997E+02  0.45594000000E+02  0.51100000000E-03 0.  1.
         11   -1    0    0    0    0 -0.00000000000E+00 -0.00000000000E+00 -0.45593999997E+02  0.45594000000E+02  0.51100000000E-03 0. -1.
    9900012    2    1    2    0    0 -0.29471914703E+02 -0.12077415076E+02  0.15038228419E+01  0.59301965528E+02  0.50000039212E+02 0.  0.
        -12    1    1    2    0    0  0.29471914703E+02  0.12077415076E+02 -0.15038228419E+01  0.31886034472E+02  0.00000000000E+00 0.  1.
         11    1    3    3    0    0 -0.15215871908E+02 -0.26708588210E+02  0.40335631895E+01  0.31002275309E+02  0.51100000000E-03 0. -1.
        -11    1    3    3    0    0  0.17571932066E+01 -0.32549502043E+01 -0.21729737886E+01  0.42900168000E+01  0.51100000000E-03 0.  1.
         12    1    3    3    0    0 -0.16013236002E+02  0.17886123338E+02 -0.35676655902E+00  0.24009673419E+02  0.00000000000E+00 0. -1.
</event>
<event>
 7    1  0.1220856E-011  0.5930195E+02  0.7816164E-02  0.1266605E+00
        -11   -1    0    0    0    0  0.00000000000E+00  0.00000000000E+00  0.45593999997E+02  0.45594000000E+02  0.51100000000E-03 0. -1.
         11   -1    0    0    0    0 -0.00000000000E+00 -0.00000000000E+00 -0.45593999997E+02  0.45594000000E+02  0.51100000000E-03 0.  1.
    9900012    2    1    2    0    0  0.21067000217E+02  0.23934567575E+02  0.19512842075E+00  0.59301951354E+02  0.50000013361E+02 0.  0.
        -12    1    1    2    0    0 -0.21067000217E+02 -0.23934567575E+02 -0.19512842075E+00  0.31886048646E+02  0.00000000000E+00 0.  1.
         11    1    3    3    0    0  0.17509863202E+02  0.95887853045E+00  0.87027888514E+01  0.19576856016E+02  0.51100000000E-03 0. -1.
        -11    1    3    3    0    0  0.84242915620E+01  0.26735364248E+02  0.13973816365E+01  0.28066012640E+02  0.51100000000E-03 0.  1.
         12    1    3    3    0    0 -0.48671545469E+01 -0.37596752031E+01 -0.99050420671E+01  0.11659082698E+02  0.00000000000E+00 0. -1.
</event>
<event>
 7    1  0.2096249E-011  0.5930194E+02  0.7816164E-02  0.1266605E+00
        -11   -1    0    0    0    0  0.00000000000E+00  0.00000000000E+00  0.45593999997E+02  0.45594000000E+02  0.51100000000E-03 0. -1.
         11   -1    0    0    0    0 -0.00000000000E+00 -0.00000000000E+00 -0.45593999997E+02  0.45594000000E+02  0.51100000000E-03 0.  1.
    9900012    2    1    2    0    0  0.19410459793E+02  0.14758459478E+02  0.20546104985E+02  0.59301944966E+02  0.50000001712E+02 0.  0.
        -12    1    1    2    0    0 -0.19410459793E+02 -0.14758459478E+02 -0.20546104985E+02  0.31886055034E+02  0.00000000000E+00 0.  1.
         11    1    3    3    0    0  0.61875567657E+01  0.14266498714E+02  0.41835130953E+01  0.16103435235E+02  0.51100000000E-03 0. -1.
        -11    1    3    3    0    0  0.98795300235E+01 -0.27887418854E+00 -0.11478246091E+02  0.15147046507E+02  0.51100000000E-03 0.  1.
         12    1    3    3    0    0  0.33433730040E+01  0.77083495287E+00  0.27840837981E+02  0.28051463224E+02  0.00000000000E+00 0. -1.
</event>
<event>
 7    1  0.1220856E-011  0.5930199E+02  0.7816164E-02  0.1266605E+00
        -11   -1    0    0    0    0  0.00000000000E+00  0.00000000000E+00  0.45593999997E+02  0.45594000000E+02  0.51100000000E-03 0.  1.
         11   -1    0    0    0    0 -0.00000000000E+00 -0.00000000000E+00 -0.45593999997E+02  0.45594000000E+02  0.51100000000E-03 0. -1.
    9900012    2    1    2    0    0  0.19114828360E+02  0.26016006239E+01 -0.25388435663E+02  0.59301989675E+02  0.50000083249E+02 0.  0.
        -12    1    1    2    0    0 -0.19114828360E+02 -0.26016006239E+01  0.25388435663E+02  0.31886010325E+02  0.00000000000E+00 0.  1.
         11    1    3    3    0    0  0.86509340824E+01  0.78943164081E+01 -0.15469460791E+02  0.19402657279E+02  0.51100000000E-03 0. -1.
        -11    1    3    3    0    0 -0.11659692406E+02  0.11716264523E+00 -0.12361633809E+02  0.16993297055E+02  0.51100000000E-03 0.  1.
         12    1    3    3    0    0  0.22123586684E+02 -0.54098784294E+01  0.24426589375E+01  0.22906035341E+02  0.00000000000E+00 0. -1.
</event>
<event>
 7    1  0.1220856E-011  0.5930194E+02  0.7816164E-02  0.1266605E+00
        -11   -1    0    0    0    0  0.00000000000E+00  0.00000000000E+00  0.45593999997E+02  0.45594000000E+02  0.51100000000E-03 0. -1.
         11   -1    0    0    0    0 -0.00000000000E+00 -0.00000000000E+00 -0.45593999997E+02  0.45594000000E+02  0.51100000000E-03 0.  1.
    9900012    2    1    2    0    0  0.62753766257E+01  0.28620094564E+02  0.12578968065E+02  0.59301943451E+02  0.49999998948E+02 0.  0.
        -12    1    1    2    0    0 -0.62753766257E+01 -0.28620094564E+02 -0.12578968065E+02  0.31886056549E+02  0.00000000000E+00 0.  1.
         11    1    3    3    0    0 -0.91395394383E+01 -0.13827261626E+01  0.47611223941E+00  0.92557979619E+01  0.51100000000E-03 0. -1.
        -11    1    3    3    0    0  0.88803303828E+01  0.18349123317E+01 -0.10111777913E+02  0.13582165652E+02  0.51100000000E-03 0.  1.
         12    1    3    3    0    0  0.65345856812E+01  0.28167908395E+02  0.22214633739E+02  0.36463979837E+02  0.00000000000E+00 0. -1.
</event>
<event>
 7    1  0.1220856E-011  0.5930196E+02  0.7816164E-02  0.1266605E+00
        -11   -1    0    0    0    0  0.00000000000E+00  0.00000000000E+00  0.45593999997E+02  0.45594000000E+02  0.51100000000E-03 0.  1.
         11   -1    0    0    0    0 -0.00000000000E+00 -0.00000000000E+00 -0.45593999997E+02  0.45594000000E+02  0.51100000000E-03 0. -1.
    9900012    2    1    2    0    0  0.12886979844E+02  0.24298464667E+02  0.16131641312E+02  0.59301960953E+02  0.50000030868E+02 0.  0.
        -12    1    1    2    0    0 -0.12886979844E+02 -0.24298464667E+02 -0.16131641312E+02  0.31886039047E+02  0.00000000000E+00 0.  1.
         11    1    3    3    0    0  0.26768979200E+02  0.10083627204E+02  0.37706471133E+00  0.28607690628E+02  0.51100000000E-03 0. -1.
        -11    1    3    3    0    0 -0.29449580537E+01  0.28874210637E+01  0.14298368814E+02  0.14881308052E+02  0.51100000000E-03 0.  1.
        -12    1    3    3    0    0 -0.10937041302E+02  0.11327416399E+02  0.14562077872E+01  0.15812962273E+02  0.00000000000E+00 0.  1.
</event>
<event>
 7    1  0.1220856E-011  0.5930194E+02  0.7816164E-02  0.1266605E+00
        -11   -1    0    0    0    0  0.00000000000E+00  0.00000000000E+00  0.45593999997E+02  0.45594000000E+02  0.51100000000E-03 0.  1.
         11   -1    0    0    0    0 -0.00000000000E+00 -0.00000000000E+00 -0.45593999997E+02  0.45594000000E+02  0.51100000000E-03 0. -1.
    9900012    2    1    2    0    0  0.23271421418E+02  0.21698754164E+02 -0.20798585847E+01  0.59301940369E+02  0.49999993327E+02 0.  0.
        -12    1    1    2    0    0 -0.23271421418E+02 -0.21698754164E+02  0.20798585847E+01  0.31886059631E+02  0.00000000000E+00 0.  1.
         11    1    3    3    0    0  0.12826574716E+01  0.23523987957E+01  0.12346815023E+02  0.12634192960E+02  0.51100000000E-03 0. -1.
        -11    1    3    3    0    0  0.11263276586E+02  0.14985224264E+02  0.88047879649E+01  0.20710930377E+02  0.51100000000E-03 0.  1.
         12    1    3    3    0    0  0.10725487360E+02  0.43611311040E+01 -0.23231461573E+02  0.25956817032E+02  0.00000000000E+00 0. -1.
</event>
<event>
 7    1  0.1220856E-011  0.5930194E+02  0.7816164E-02  0.1266605E+00
        -11   -1    0    0    0    0  0.00000000000E+00  0.00000000000E+00  0.45593999997E+02  0.45594000000E+02  0.51100000000E-03 0. -1.
         11   -1    0    0    0    0 -0.00000000000E+00 -0.00000000000E+00 -0.45593999997E+02  0.45594000000E+02  0.51100000000E-03 0.  1.
    9900012    2    1    2    0    0 -0.24633888500E+02  0.71644311541E+01  0.18935775686E+02  0.59301935063E+02  0.49999983650E+02 0.  0.
        -12    1    1    2    0    0  0.24633888500E+02 -0.71644311541E+01 -0.18935775686E+02  0.31886064937E+02  0.00000000000E+00 0.  1.
         11    1    3    3    0    0 -0.18194223106E+02  0.62619281135E+01  0.22751897930E+02  0.29797489119E+02  0.51100000000E-03 0. -1.
        -11    1    3    3    0    0  0.47058849274E+01  0.10017132863E+02  0.54966222071E+01  0.12357231069E+02  0.51100000000E-03 0.  1.
         12    1    3    3    0    0 -0.11145550321E+02 -0.91146298223E+01 -0.93127444510E+01  0.17147214875E+02  0.00000000000E+00 0. -1.
</event>
<event>
 7    1  0.1220856E-011  0.5930202E+02  0.7816164E-02  0.1266604E+00
        -11   -1    0    0    0    0  0.00000000000E+00  0.00000000000E+00  0.45593999997E+02  0.45594000000E+02  0.51100000000E-03 0.  1.
         11   -1    0    0    0    0 -0.00000000000E+00 -0.00000000000E+00 -0.45593999997E+02  0.45594000000E+02  0.51100000000E-03 0. -1.
    9900012    2    1    2    0    0 -0.56758048972E+01 -0.13561890229E+02 -0.28294448725E+02  0.59302024141E+02  0.50000146107E+02 0.  0.
        -12    1    1    2    0    0  0.56758048972E+01  0.13561890229E+02  0.28294448725E+02  0.31885975859E+02  0.00000000000E+00 0.  1.
         11    1    3    3    0    0  0.87896508826E+01 -0.18746292683E+02  0.22274505172E+01  0.20824096333E+02  0.51100000000E-03 0. -1.
        -11    1    3    3    0    0  0.37129098322E+01  0.29029265173E+01 -0.94145313988E+01  0.10528346665E+02  0.51100000000E-03 0.  1.
        -12    1    3    3    0    0 -0.18178365612E+02  0.22814759375E+01 -0.21107367844E+02  0.27949581143E+02  0.00000000000E+00 0.  1.
</event>
<event>
 7    1  0.1220856E-011  0.5930197E+02  0.7816164E-02  0.1266605E+00
        -11   -1    0    0    0    0  0.00000000000E+00  0.00000000000E+00  0.45593999997E+02  0.45594000000E+02  0.51100000000E-03 0. -1.
         11   -1    0    0    0    0 -0.00000000000E+00 -0.00000000000E+00 -0.45593999997E+02  0.45594000000E+02  0.51100000000E-03 0.  1.
    9900012    2    1    2    0    0 -0.14258994158E+02 -0.83416330644E+01  0.27273007665E+02  0.59301973222E+02  0.50000053244E+02 0.  0.
        -12    1    1    2    0    0  0.14258994158E+02  0.83416330644E+01 -0.27273007665E+02  0.31886026778E+02  0.00000000000E+00 0.  1.
         11    1    3    3    0    0 -0.80743093150E+01 -0.78488608152E+00  0.11287391676E+02  0.13900206048E+02  0.51100000000E-03 0. -1.
        -11    1    3    3    0    0  0.48708240484E+01 -0.16509185111E+02  0.23643854803E+02  0.29245683273E+02  0.51100000000E-03 0.  1.
        -12    1    3    3    0    0 -0.11055508892E+02  0.89524381276E+01 -0.76582388136E+01  0.16156083901E+02  0.00000000000E+00 0.  1.
</event>
<event>
 7    1  0.1220856E-011  0.5930192E+02  0.7816164E-02  0.1266605E+00
        -11   -1    0    0    0    0  0.00000000000E+00  0.00000000000E+00  0.45593999997E+02  0.45594000000E+02  0.51100000000E-03 0. -1.
         11   -1    0    0    0    0 -0.00000000000E+00 -0.00000000000E+00 -0.45593999997E+02  0.45594000000E+02  0.51100000000E-03 0.  1.
    9900012    2    1    2    0    0  0.33843135309E+01 -0.26422634571E+02  0.17524639354E+02  0.59301918707E+02  0.49999953821E+02 0.  0.
        -12    1    1    2    0    0 -0.33843135309E+01  0.26422634571E+02 -0.17524639354E+02  0.31886081293E+02  0.00000000000E+00 0.  1.
         11    1    3    3    0    0 -0.13950412624E+02 -0.51846261585E+01  0.10586512185E+02  0.18263860526E+02  0.51100000000E-03 0. -1.
        -11    1    3    3    0    0 -0.73541541585E+01 -0.10674914716E+02  0.56861946532E+01  0.14155218030E+02  0.51100000000E-03 0.  1.
        -12    1    3    3    0    0  0.24688880314E+02 -0.10563093696E+02  0.12519325156E+01  0.26882840151E+02  0.00000000000E+00 0.  1.
</event>
<event>
 7    1  0.1220856E-011  0.5930195E+02  0.7816164E-02  0.1266605E+00
        -11   -1    0    0    0    0  0.00000000000E+00  0.00000000000E+00  0.45593999997E+02  0.45594000000E+02  0.51100000000E-03 0. -1.
         11   -1    0    0    0    0 -0.00000000000E+00 -0.00000000000E+00 -0.45593999997E+02  0.45594000000E+02  0.51100000000E-03 0.  1.
    9900012    2    1    2    0    0  0.41482686763E+00 -0.68957893489E+00  0.31875890794E+02  0.59301952669E+02  0.50000015760E+02 0.  0.
        -12    1    1    2    0    0 -0.41482686763E+00  0.68957893489E+00 -0.31875890794E+02  0.31886047331E+02  0.00000000000E+00 0.  1.
         11    1    3    3    0    0  0.20244760984E+01 -0.13736074202E+02  0.13689372700E+02  0.19498132299E+02  0.51100000000E-03 0. -1.
        -11    1    3    3    0    0 -0.17248892755E+02  0.64878947181E+01  0.10115513944E+02  0.21022385730E+02  0.51100000000E-03 0.  1.
         12    1    3    3    0    0  0.15639243525E+02  0.65586005489E+01  0.80710041503E+01  0.18781434641E+02  0.00000000000E+00 0. -1.
</event>
<event>
 7    1  0.1220856E-011  0.5930188E+02  0.7816164E-02  0.1266605E+00
        -11   -1    0    0    0    0  0.00000000000E+00  0.00000000000E+00  0.45593999997E+02  0.45594000000E+02  0.51100000000E-03 0.  1.
         11   -1    0    0    0    0 -0.00000000000E+00 -0.00000000000E+00 -0.45593999997E+02  0.45594000000E+02  0.51100000000E-03 0. -1.
    9900012    2    1    2    0    0 -0.10005970065E+02  0.29278960114E+02 -0.77037571532E+01  0.59301877367E+02  0.49999878426E+02 0.  0.
        -12    1    1    2    0    0  0.10005970065E+02 -0.29278960114E+02  0.77037571532E+01  0.31886122633E+02  0.00000000000E+00 0.  1.
         11    1    3    3    0    0 -0.83538789023E+01  0.48790843891E+01  0.27321969047E+01  0.10052743774E+02  0.51100000000E-03 0. -1.
        -11    1    3    3    0    0 -0.70030042409E+01 -0.10230446399E+02  0.87225242796E+00  0.12428391951E+02  0.51100000000E-03 0.  1.
         12    1    3    3    0    0  0.53509130783E+01  0.34630322124E+02 -0.11308206486E+02  0.36820741643E+02  0.00000000000E+00 0. -1.
</event>
<event>
 7    1  0.1220856E-011  0.5930189E+02  0.7816164E-02  0.1266605E+00
        -11   -1    0    0    0    0  0.00000000000E+00  0.00000000000E+00  0.45593999997E+02  0.45594000000E+02  0.51100000000E-03 0. -1.
         11   -1    0    0    0    0 -0.00000000000E+00 -0.00000000000E+00 -0.45593999997E+02  0.45594000000E+02  0.51100000000E-03 0.  1.
    9900012    2    1    2    0    0  0.98165937807E+01  0.16795750249E+02  0.25263831421E+02  0.59301891458E+02  0.49999904125E+02 0.  0.
        -12    1    1    2    0    0 -0.98165937807E+01 -0.16795750249E+02 -0.25263831421E+02  0.31886108542E+02  0.00000000000E+00 0.  1.
         11    1    3    3    0    0  0.24597704625E+01 -0.53025521709E+01  0.19745346494E+02  0.20592383025E+02  0.51100000000E-03 0. -1.
        -11    1    3    3    0    0  0.14814611414E+02 -0.15648127929E+00  0.14213541582E+01  0.14883462153E+02  0.51100000000E-03 0.  1.
         12    1    3    3    0    0 -0.74577880960E+01  0.22254783699E+02  0.40971307695E+01  0.23826046280E+02  0.00000000000E+00 0. -1.
</event>
<event>
 7    1  0.1220856E-011  0.5930194E+02  0.7816164E-02  0.1266605E+00
        -11   -1    0    0    0    0  0.00000000000E+00  0.00000000000E+00  0.45593999997E+02  0.45594000000E+02  0.51100000000E-03 0.  1.
         11   -1    0    0    0    0 -0.00000000000E+00 -0.00000000000E+00 -0.45593999997E+02  0.45594000000E+02  0.51100000000E-03 0. -1.
    9900012    2    1    2    0    0  0.19811495629E+00 -0.94901802975E+01 -0.30440399146E+02  0.59301942361E+02  0.49999996960E+02 0.  0.
        -12    1    1    2    0    0 -0.19811495629E+00  0.94901802975E+01  0.30440399146E+02  0.31886057639E+02  0.00000000000E+00 0.  1.
         11    1    3    3    0    0 -0.17132440039E+02 -0.37340525422E+01 -0.28212556394E+02  0.33217645741E+02  0.51100000000E-03 0. -1.
        -11    1    3    3    0    0 -0.16764827099E+01  0.42042906503E+01 -0.56245495521E+00  0.45610316801E+01  0.51100000000E-03 0.  1.
        -12    1    3    3    0    0  0.19007037705E+02 -0.99604184056E+01 -0.16653877969E+01  0.21523264939E+02  0.00000000000E+00 0.  1.
</event>
<event>
 7    1  0.1220856E-011  0.5930195E+02  0.7816164E-02  0.1266605E+00
        -11   -1    0    0    0    0  0.00000000000E+00  0.00000000000E+00  0.45593999997E+02  0.45594000000E+02  0.51100000000E-03 0.  1.
         11   -1    0    0    0    0 -0.00000000000E+00 -0.00000000000E+00 -0.45593999997E+02  0.45594000000E+02  0.51100000000E-03 0. -1.
    9900012    2    1    2    0    0  0.30060312536E+02  0.79109034161E+01  0.71074340290E+01  0.59301946605E+02  0.50000004701E+02 0.  0.
        -12    1    1    2    0    0 -0.30060312536E+02 -0.79109034161E+01 -0.71074340290E+01  0.31886053395E+02  0.00000000000E+00 0.  1.
         11    1    3    3    0    0  0.14912698018E+02  0.89061206103E+01 -0.16103841876E+02  0.23686309758E+02  0.51100000000E-03 0. -1.
        -11    1    3    3    0    0  0.73401691887E+01 -0.96382843932E+01  0.33141676023E+01  0.12560187774E+02  0.51100000000E-03 0.  1.
        -12    1    3    3    0    0  0.78074453294E+01  0.86430671990E+01  0.19897108303E+02  0.23055449074E+02  0.00000000000E+00 0.  1.
</event>
<event>
 7    1  0.1220856E-011  0.5930209E+02  0.7816164E-02  0.1266604E+00
        -11   -1    0    0    0    0  0.00000000000E+00  0.00000000000E+00  0.45593999997E+02  0.45594000000E+02  0.51100000000E-03 0. -1.
         11   -1    0    0    0    0 -0.00000000000E+00 -0.00000000000E+00 -0.45593999997E+02  0.45594000000E+02  0.51100000000E-03 0.  1.
    9900012    2    1    2    0    0  0.29693837873E+02 -0.48970148776E+01 -0.10535946927E+02  0.59302094964E+02  0.50000275270E+02 0.  0.
        -12    1    1    2    0    0 -0.29693837873E+02  0.48970148776E+01  0.10535946927E+02  0.31885905036E+02  0.00000000000E+00 0.  1.
         11    1    3    3    0    0  0.30017554819E+02 -0.13917260498E+02 -0.14464372008E+02  0.36110411171E+02  0.51100000000E-03 0. -1.
        -11    1    3    3    0    0 -0.34403311985E+01 -0.42207823924E+01  0.73669564412E+01  0.91609459243E+01  0.51100000000E-03 0.  1.
        -12    1    3    3    0    0  0.31166142522E+01  0.13241028012E+02 -0.34385313601E+01  0.14030737869E+02  0.00000000000E+00 0.  1.
</event>
<event>
 7    1  0.1220856E-011  0.5930194E+02  0.7816164E-02  0.1266605E+00
        -11   -1    0    0    0    0  0.00000000000E+00  0.00000000000E+00  0.45593999997E+02  0.45594000000E+02  0.51100000000E-03 0.  1.
         11   -1    0    0    0    0 -0.00000000000E+00 -0.00000000000E+00 -0.45593999997E+02  0.45594000000E+02  0.51100000000E-03 0. -1.
    9900012    2    1    2    0    0 -0.19172158748E+02 -0.36348392990E+01 -0.25217794996E+02  0.59301938590E+02  0.49999990083E+02 0.  0.
        -12    1    1    2    0    0  0.19172158748E+02  0.36348392990E+01  0.25217794996E+02  0.31886061410E+02  0.00000000000E+00 0.  1.
         11    1    3    3    0    0 -0.76728408110E+01  0.21166302678E+01 -0.11394871517E+02  0.13899485852E+02  0.51100000000E-03 0. -1.
        -11    1    3    3    0    0 -0.74113469584E+01 -0.13581373953E+02 -0.26062223798E+02  0.30308765922E+02  0.51100000000E-03 0.  1.
        -12    1    3    3    0    0 -0.40879709786E+01  0.78299043858E+01  0.12239300319E+02  0.15093686816E+02  0.00000000000E+00 0.  1.
</event>
<event>
 7    1  0.1220856E-011  0.5930193E+02  0.7816164E-02  0.1266605E+00
        -11   -1    0    0    0    0  0.00000000000E+00  0.00000000000E+00  0.45593999997E+02  0.45594000000E+02  0.51100000000E-03 0.  1.
         11   -1    0    0    0    0 -0.00000000000E+00 -0.00000000000E+00 -0.45593999997E+02  0.45594000000E+02  0.51100000000E-03 0. -1.
    9900012    2    1    2    0    0 -0.66722471776E+01 -0.31177494184E+02 -0.40758301221E+00  0.59301934863E+02  0.49999983286E+02 0.  0.
        -12    1    1    2    0    0  0.66722471776E+01  0.31177494184E+02  0.40758301221E+00  0.31886065137E+02  0.00000000000E+00 0.  1.
         11    1    3    3    0    0 -0.11635938977E+02 -0.18652789232E+02  0.13886486845E+02  0.26003002503E+02  0.51100000000E-03 0. -1.
        -11    1    3    3    0    0  0.16193275444E+01 -0.71308901364E+01  0.75743672857E+01  0.10528193381E+02  0.51100000000E-03 0.  1.
         12    1    3    3    0    0  0.33443642553E+01 -0.53938148158E+01 -0.21868437143E+02  0.22770738978E+02  0.00000000000E+00 0. -1.
</event>
<event>
 7    1  0.1220856E-011  0.5930196E+02  0.7816164E-02  0.1266605E+00
        -11   -1    0    0    0    0  0.00000000000E+00  0.00000000000E+00  0.45593999997E+02  0.45594000000E+02  0.51100000000E-03 0.  1.
         11   -1    0    0    0    0 -0.00000000000E+00 -0.00000000000E+00 -0.45593999997E+02  0.45594000000E+02  0.51100000000E-03 0. -1.
    9900012    2    1    2    0    0  0.26152928013E+01  0.21377289739E+02 -0.23513645897E+02  0.59301955774E+02  0.50000021422E+02 0.  0.
        -12    1    1    2    0    0 -0.26152928013E+01 -0.21377289739E+02  0.23513645897E+02  0.31886044226E+02  0.00000000000E+00 0.  1.
         11    1    3    3    0    0  0.39256040303E+01 -0.82710711497E+01 -0.10070875258E+01  0.92106031568E+01  0.51100000000E-03 0. -1.
        -11    1    3    3    0    0 -0.19904210419E+01 -0.43924042653E+01 -0.14268446472E+02  0.15061326507E+02  0.51100000000E-03 0.  1.
         12    1    3    3    0    0  0.68010981293E+00  0.34040765154E+02 -0.82381118985E+01  0.35030026110E+02  0.00000000000E+00 0. -1.
</event>
<event>
 7    1  0.1220856E-011  0.5930195E+02  0.7816164E-02  0.1266605E+00
        -11   -1    0    0    0    0  0.00000000000E+00  0.00000000000E+00  0.45593999997E+02  0.45594000000E+02  0.51100000000E-03 0.  1.
         11   -1    0    0    0    0 -0.00000000000E+00 -0.00000000000E+00 -0.45593999997E+02  0.45594000000E+02  0.51100000000E-03 0. -1.
    9900012    2    1    2    0    0  0.24916317309E+02 -0.90829794985E+01 -0.17703013592E+02  0.59301951718E+02  0.50000014025E+02 0.  0.
        -12    1    1    2    0    0 -0.24916317309E+02  0.90829794985E+01  0.17703013592E+02  0.31886048282E+02  0.00000000000E+00 0.  1.
         11    1    3    3    0    0  0.11074474232E+02  0.75309645485E+01 -0.35054713923E+01  0.13843689410E+02  0.51100000000E-03 0.  1.
        -11    1    3    3    0    0  0.92830919281E+01  0.10819311352E+01  0.10934930491E+02  0.14384681986E+02  0.51100000000E-03 0. -1.
         12    1    3    3    0    0  0.45587511488E+01 -0.17695875182E+02 -0.25132472690E+02  0.31073580322E+02  0.00000000000E+00 0. -1.
</event>
<event>
 7    1  0.1220856E-011  0.5930199E+02  0.7816164E-02  0.1266605E+00
        -11   -1    0    0    0    0  0.00000000000E+00  0.00000000000E+00  0.45593999997E+02  0.45594000000E+02  0.51100000000E-03 0.  1.
         11   -1    0    0    0    0 -0.00000000000E+00 -0.00000000000E+00 -0.45593999997E+02  0.45594000000E+02  0.51100000000E-03 0. -1.
    9900012    2    1    2    0    0  0.11520463257E+02  0.10874653731E+02 -0.27671975370E+02  0.59301993849E+02  0.50000090861E+02 0.  0.
        -12    1    1    2    0    0 -0.11520463257E+02 -0.10874653731E+02  0.27671975370E+02  0.31886006151E+02  0.00000000000E+00 0.  1.
         11    1    3    3    0    0  0.56280974075E+00  0.71008301593E+01 -0.35946472144E+01  0.79787237459E+01  0.51100000000E-03 0. -1.
        -11    1    3    3    0    0  0.51962741605E+01  0.28268928003E+01  0.12739733198E+02  0.14046116555E+02  0.51100000000E-03 0.  1.
         12    1    3    3    0    0  0.57613793554E+01  0.94693077116E+00 -0.36817061353E+02  0.37277153548E+02  0.00000000000E+00 0. -1.
</event>
<event>
 7    1  0.1220856E-011  0.5930193E+02  0.7816164E-02  0.1266605E+00
        -11   -1    0    0    0    0  0.00000000000E+00  0.00000000000E+00  0.45593999997E+02  0.45594000000E+02  0.51100000000E-03 0.  1.
         11   -1    0    0    0    0 -0.00000000000E+00 -0.00000000000E+00 -0.45593999997E+02  0.45594000000E+02  0.51100000000E-03 0. -1.
    9900012    2    1    2    0    0 -0.10126284724E+02  0.26907509544E+01 -0.30115439382E+02  0.59301929809E+02  0.49999974069E+02 0.  0.
        -12    1    1    2    0    0  0.10126284724E+02 -0.26907509544E+01  0.30115439382E+02  0.31886070191E+02  0.00000000000E+00 0.  1.
         11    1    3    3    0    0  0.50962236194E+01 -0.13073893104E+02 -0.14188442909E+02  0.19955202041E+02  0.51100000000E-03 0. -1.
        -11    1    3    3    0    0 -0.89625507323E+01 -0.76185667812E+01 -0.56315941780E+01  0.13041653602E+02  0.51100000000E-03 0.  1.
        -12    1    3    3    0    0 -0.62599576111E+01  0.23383210839E+02 -0.10295402296E+02  0.26305074166E+02  0.00000000000E+00 0.  1.
</event>
<event>
 7    1  0.1220856E-011  0.5930193E+02  0.7816164E-02  0.1266605E+00
        -11   -1    0    0    0    0  0.00000000000E+00  0.00000000000E+00  0.45593999997E+02  0.45594000000E+02  0.51100000000E-03 0.  1.
         11   -1    0    0    0    0 -0.00000000000E+00 -0.00000000000E+00 -0.45593999997E+02  0.45594000000E+02  0.51100000000E-03 0. -1.
    9900012    2    1    2    0    0  0.28597505669E+02  0.81865539837E+01 -0.11484088084E+02  0.59301932890E+02  0.49999979687E+02 0.  0.
        -12    1    1    2    0    0 -0.28597505669E+02 -0.81865539837E+01  0.11484088084E+02  0.31886067110E+02  0.00000000000E+00 0.  1.
         11    1    3    3    0    0 -0.62931504680E+01 -0.36971404630E+01 -0.11996672428E+02  0.14042533248E+02  0.51100000000E-03 0. -1.
        -11    1    3    3    0    0  0.34544219457E+01 -0.74977991598E+01 -0.88240328393E+00  0.83023285310E+01  0.51100000000E-03 0.  1.
        -12    1    3    3    0    0  0.31436234192E+02  0.19381493607E+02  0.13949876279E+01  0.36957071110E+02  0.00000000000E+00 0.  1.
</event>
<event>
 7    1  0.1220856E-011  0.5930198E+02  0.7816164E-02  0.1266605E+00
        -11   -1    0    0    0    0  0.00000000000E+00  0.00000000000E+00  0.45593999997E+02  0.45594000000E+02  0.51100000000E-03 0.  1.
         11   -1    0    0    0    0 -0.00000000000E+00 -0.00000000000E+00 -0.45593999997E+02  0.45594000000E+02  0.51100000000E-03 0. -1.
    9900012    2    1    2    0    0 -0.24182902010E+02  0.17889419027E+02 -0.10577061155E+02  0.59301979780E+02  0.50000065204E+02 0.  0.
        -12    1    1    2    0    0  0.24182902010E+02 -0.17889419027E+02  0.10577061155E+02  0.31886020220E+02  0.00000000000E+00 0.  1.
         11    1    3    3    0    0  0.20861199141E+01 -0.22926546612E+01 -0.88220418405E+01  0.93507531348E+01  0.51100000000E-03 0. -1.
        -11    1    3    3    0    0 -0.14397176824E+02 -0.99688911612E+01 -0.94334308530E+00  0.17537029050E+02  0.51100000000E-03 0.  1.
        -12    1    3    3    0    0 -0.11871845101E+02  0.30150964849E+02 -0.81167622943E+00  0.32414197595E+02  0.00000000000E+00 0.  1.
</event>
<event>
 7    1  0.1220856E-011  0.5930195E+02  0.7816164E-02  0.1266605E+00
        -11   -1    0    0    0    0  0.00000000000E+00  0.00000000000E+00  0.45593999997E+02  0.45594000000E+02  0.51100000000E-03 0. -1.
         11   -1    0    0    0    0 -0.00000000000E+00 -0.00000000000E+00 -0.45593999997E+02  0.45594000000E+02  0.51100000000E-03 0.  1.
    9900012    2    1    2    0    0  0.58872882742E+00 -0.24315265101E+02  0.20618962147E+02  0.59301947899E+02  0.50000007061E+02 0.  0.
        -12    1    1    2    0    0 -0.58872882742E+00  0.24315265101E+02 -0.20618962147E+02  0.31886052101E+02  0.00000000000E+00 0.  1.
         11    1    3    3    0    0  0.47929780657E+01  0.55513810567E+01 -0.17382718540E+00  0.73362583464E+01  0.51100000000E-03 0. -1.
        -11    1    3    3    0    0  0.80284589442E+01 -0.13164370302E+02  0.26350044731E+02  0.30530012382E+02  0.51100000000E-03 0.  1.
        -12    1    3    3    0    0 -0.12232708182E+02 -0.16702275856E+02 -0.55572553984E+01  0.21435677171E+02  0.00000000000E+00 0.  1.
</event>
<event>
 7    1  0.1220856E-011  0.5930195E+02  0.7816164E-02  0.1266605E+00
        -11   -1    0    0    0    0  0.00000000000E+00  0.00000000000E+00  0.45593999997E+02  0.45594000000E+02  0.51100000000E-03 0.  1.
         11   -1    0    0    0    0 -0.00000000000E+00 -0.00000000000E+00 -0.45593999997E+02  0.45594000000E+02  0.51100000000E-03 0. -1.
    9900012    2    1    2    0    0  0.17944924002E+02  0.19590463397E+01 -0.26284251595E+02  0.59301952237E+02  0.50000014973E+02 0.  0.
        -12    1    1    2    0    0 -0.17944924002E+02 -0.19590463397E+01  0.26284251595E+02  0.31886047763E+02  0.00000000000E+00 0.  1.
         11    1    3    3    0    0  0.81224143006E+01 -0.11886802903E+02 -0.88539364590E+01  0.16901535090E+02  0.51100000000E-03 0. -1.
        -11    1    3    3    0    0 -0.10278840257E+01 -0.33829430083E+01  0.86317859027E+01  0.93278388226E+01  0.51100000000E-03 0.  1.
         12    1    3    3    0    0  0.10850393727E+02  0.17228792251E+02 -0.26062101039E+02  0.33072578324E+02  0.00000000000E+00 0. -1.
</event>
<event>
 7    1  0.1220856E-011  0.5930193E+02  0.7816164E-02  0.1266605E+00
        -11   -1    0    0    0    0  0.00000000000E+00  0.00000000000E+00  0.45593999997E+02  0.45594000000E+02  0.51100000000E-03 0.  1.
         11   -1    0    0    0    0 -0.00000000000E+00 -0.00000000000E+00 -0.45593999997E+02  0.45594000000E+02  0.51100000000E-03 0. -1.
    9900012    2    1    2    0    0  0.96585148826E+01 -0.17330410336E+02 -0.24961800169E+02  0.59301929376E+02  0.49999973280E+02 0.  0.
        -12    1    1    2    0    0 -0.96585148826E+01  0.17330410336E+02  0.24961800169E+02  0.31886070624E+02  0.00000000000E+00 0.  1.
         11    1    3    3    0    0  0.97532699199E+01 -0.17993394286E+02 -0.82508192068E+01  0.22067272824E+02  0.51100000000E-03 0. -1.
        -11    1    3    3    0    0  0.97050795748E+01 -0.13034812951E+02 -0.62706959607E+01  0.17418856057E+02  0.51100000000E-03 0.  1.
        -12    1    3    3    0    0 -0.97998346121E+01  0.13697796901E+02 -0.10440285001E+02  0.19815800496E+02  0.00000000000E+00 0.  1.
</event>
<event>
 7    1  0.1220856E-011  0.5930197E+02  0.7816164E-02  0.1266605E+00
        -11   -1    0    0    0    0  0.00000000000E+00  0.00000000000E+00  0.45593999997E+02  0.45594000000E+02  0.51100000000E-03 0.  1.
         11   -1    0    0    0    0 -0.00000000000E+00 -0.00000000000E+00 -0.45593999997E+02  0.45594000000E+02  0.51100000000E-03 0. -1.
    9900012    2    1    2    0    0 -0.49356294720E+01  0.11132838828E+02 -0.29468935950E+02  0.59301972893E+02  0.50000052643E+02 0.  0.
        -12    1    1    2    0    0  0.49356294720E+01 -0.11132838828E+02  0.29468935950E+02  0.31886027107E+02  0.00000000000E+00 0.  1.
         11    1    3    3    0    0  0.61090636004E+01  0.15603590716E+02 -0.22326481751E+02  0.27915309222E+02  0.51100000000E-03 0. -1.
        -11    1    3    3    0    0 -0.91485004751E+01 -0.86339192674E+01 -0.16631197434E+02  0.20852730066E+02  0.51100000000E-03 0.  1.
        -12    1    3    3    0    0 -0.18961925972E+01  0.41631673798E+01  0.94887432358E+01  0.10533933605E+02  0.00000000000E+00 0.  1.
</event>
<event>
 7    1  0.1220856E-011  0.5930199E+02  0.7816164E-02  0.1266605E+00
        -11   -1    0    0    0    0  0.00000000000E+00  0.00000000000E+00  0.45593999997E+02  0.45594000000E+02  0.51100000000E-03 0.  1.
         11   -1    0    0    0    0 -0.00000000000E+00 -0.00000000000E+00 -0.45593999997E+02  0.45594000000E+02  0.51100000000E-03 0. -1.
    9900012    2    1    2    0    0 -0.26017331624E+02  0.18398264858E+02 -0.11488132156E+01  0.59301992624E+02  0.50000088627E+02 0.  0.
        -12    1    1    2    0    0  0.26017331624E+02 -0.18398264858E+02  0.11488132156E+01  0.31886007376E+02  0.00000000000E+00 0.  1.
         11    1    3    3    0    0 -0.20129960039E+01  0.28063046800E+01 -0.11845765495E+02  0.12338948873E+02  0.51100000000E-03 0. -1.
        -11    1    3    3    0    0 -0.26139798512E+02 -0.21732690315E+01  0.22527612994E+00  0.26230953359E+02  0.51100000000E-03 0.  1.
        -12    1    3    3    0    0  0.21354628923E+01  0.17765229209E+02  0.10471676149E+02  0.20732090391E+02  0.00000000000E+00 0.  1.
</event>
<event>
 7    1  0.1220856E-011  0.5930195E+02  0.7816164E-02  0.1266605E+00
        -11   -1    0    0    0    0  0.00000000000E+00  0.00000000000E+00  0.45593999997E+02  0.45594000000E+02  0.51100000000E-03 0.  1.
         11   -1    0    0    0    0 -0.00000000000E+00 -0.00000000000E+00 -0.45593999997E+02  0.45594000000E+02  0.51100000000E-03 0. -1.
    9900012    2    1    2    0    0  0.12406631969E+02 -0.27582040574E+02 -0.10100829776E+02  0.59301949112E+02  0.50000009273E+02 0.  0.
        -12    1    1    2    0    0 -0.12406631969E+02  0.27582040574E+02  0.10100829776E+02  0.31886050888E+02  0.00000000000E+00 0.  1.
         11    1    3    3    0    0 -0.31962313003E+01 -0.92694165629E+01 -0.68803073552E+01  0.11978172127E+02  0.51100000000E-03 0. -1.
        -11    1    3    3    0    0 -0.71919180639E+01 -0.22049779642E+02  0.30397681023E+01  0.23391379995E+02  0.51100000000E-03 0.  1.
         12    1    3    3    0    0  0.22794781334E+02  0.37371556306E+01 -0.62602905229E+01  0.23932396990E+02  0.00000000000E+00 0. -1.
</event>
<event>
 7    1  0.1220856E-011  0.5930208E+02  0.7816164E-02  0.1266604E+00
        -11   -1    0    0    0    0  0.00000000000E+00  0.00000000000E+00  0.45593999997E+02  0.45594000000E+02  0.51100000000E-03 0.  1.
         11   -1    0    0    0    0 -0.00000000000E+00 -0.00000000000E+00 -0.45593999997E+02  0.45594000000E+02  0.51100000000E-03 0. -1.
    9900012    2    1    2    0    0  0.10838312757E+02  0.25043858341E+02  0.16493882009E+02  0.59302078221E+02  0.50000244735E+02 0.  0.
        -12    1    1    2    0    0 -0.10838312757E+02 -0.25043858341E+02 -0.16493882009E+02  0.31885921779E+02  0.00000000000E+00 0.  1.
         11    1    3    3    0    0  0.69460099895E+01  0.14218655568E+02 -0.13154063178E+02  0.20577818137E+02  0.51100000000E-03 0. -1.
        -11    1    3    3    0    0  0.64352473393E+01  0.98035102850E+00 -0.86039848043E+00  0.65661086089E+01  0.51100000000E-03 0.  1.
        -12    1    3    3    0    0 -0.25429445723E+01  0.98448517441E+01  0.30508343667E+02  0.32158151475E+02  0.00000000000E+00 0.  1.
</event>
<event>
 7    1  0.1220856E-011  0.5930195E+02  0.7816164E-02  0.1266605E+00
        -11   -1    0    0    0    0  0.00000000000E+00  0.00000000000E+00  0.45593999997E+02  0.45594000000E+02  0.51100000000E-03 0.  1.
         11   -1    0    0    0    0 -0.00000000000E+00 -0.00000000000E+00 -0.45593999997E+02  0.45594000000E+02  0.51100000000E-03 0. -1.
    9900012    2    1    2    0    0 -0.73419157570E+01  0.30815565534E+02  0.36355885345E+01  0.59301948031E+02  0.50000007302E+02 0.  0.
        -12    1    1    2    0    0  0.73419157570E+01 -0.30815565534E+02 -0.36355885345E+01  0.31886051969E+02  0.00000000000E+00 0.  1.
         11    1    3    3    0    0 -0.80489226438E+00  0.92994329967E+01  0.60037288544E+01  0.11098291131E+02  0.51100000000E-03 0. -1.
        -11    1    3    3    0    0  0.11287057896E+01 -0.17690403158E+00  0.17661818187E+02  0.17698731416E+02  0.51100000000E-03 0.  1.
         12    1    3    3    0    0 -0.76657292822E+01  0.21693036569E+02 -0.20029958507E+02  0.30504925484E+02  0.00000000000E+00 0. -1.
</event>
<event>
 7    1  0.1220856E-011  0.5930189E+02  0.7816164E-02  0.1266605E+00
        -11   -1    0    0    0    0  0.00000000000E+00  0.00000000000E+00  0.45593999997E+02  0.45594000000E+02  0.51100000000E-03 0.  1.
         11   -1    0    0    0    0 -0.00000000000E+00 -0.00000000000E+00 -0.45593999997E+02  0.45594000000E+02  0.51100000000E-03 0. -1.
    9900012    2    1    2    0    0 -0.10023532082E+02  0.36341259147E+01 -0.30050719932E+02  0.59301892759E+02  0.49999906499E+02 0.  0.
        -12    1    1    2    0    0  0.10023532082E+02 -0.36341259147E+01  0.30050719932E+02  0.31886107241E+02  0.00000000000E+00 0.  1.
         11    1    3    3    0    0 -0.15373280874E+01  0.79563485670E+01  0.29895666471E+01  0.86373820783E+01  0.51100000000E-03 0.  1.
        -11    1    3    3    0    0  0.23799454032E+01 -0.18125550536E+02 -0.77139832156E+01  0.19842007450E+02  0.51100000000E-03 0. -1.
         12    1    3    3    0    0 -0.10866149397E+02  0.13803327883E+02 -0.25326303363E+02  0.30822503231E+02  0.00000000000E+00 0. -1.
</event>
<event>
 7    1  0.1220856E-011  0.5930195E+02  0.7816164E-02  0.1266605E+00
        -11   -1    0    0    0    0  0.00000000000E+00  0.00000000000E+00  0.45593999997E+02  0.45594000000E+02  0.51100000000E-03 0. -1.
         11   -1    0    0    0    0 -0.00000000000E+00 -0.00000000000E+00 -0.45593999997E+02  0.45594000000E+02  0.51100000000E-03 0.  1.
    9900012    2    1    2    0    0  0.10002218641E+02 -0.27007724506E+02  0.13684244399E+02  0.59301951240E+02  0.50000013154E+02 0.  0.
        -12    1    1    2    0    0 -0.10002218641E+02  0.27007724506E+02 -0.13684244399E+02  0.31886048760E+02  0.00000000000E+00 0.  1.
         11    1    3    3    0    0  0.18993015162E+02 -0.12146514329E+02 -0.46419475704E+01  0.23017821635E+02  0.51100000000E-03 0. -1.
        -11    1    3    3    0    0  0.28121648117E+01  0.55616574583E+01 -0.28367922508E+00  0.62386519999E+01  0.51100000000E-03 0.  1.
        -12    1    3    3    0    0 -0.11802961333E+02 -0.20422867635E+02  0.18609871195E+02  0.30045477606E+02  0.00000000000E+00 0.  1.
</event>
<event>
 7    1  0.1220856E-011  0.5930194E+02  0.7816164E-02  0.1266605E+00
        -11   -1    0    0    0    0  0.00000000000E+00  0.00000000000E+00  0.45593999997E+02  0.45594000000E+02  0.51100000000E-03 0. -1.
         11   -1    0    0    0    0 -0.00000000000E+00 -0.00000000000E+00 -0.45593999997E+02  0.45594000000E+02  0.51100000000E-03 0.  1.
    9900012    2    1    2    0    0 -0.24824817427E+02 -0.19958761096E+02 -0.14482278729E+01  0.59301936136E+02  0.49999985607E+02 0.  0.
        -12    1    1    2    0    0  0.24824817427E+02  0.19958761096E+02  0.14482278729E+01  0.31886063864E+02  0.00000000000E+00 0.  1.
         11    1    3    3    0    0  0.39788830272E+01  0.11722051608E+01  0.11231822224E+01  0.42973379724E+01  0.51100000000E-03 0. -1.
        -11    1    3    3    0    0  0.72381065959E+01 -0.72024529009E+01 -0.11466887586E+02  0.15354316203E+02  0.51100000000E-03 0.  1.
         12    1    3    3    0    0 -0.36041807050E+02 -0.13928513356E+02  0.88954774907E+01  0.39650281960E+02  0.00000000000E+00 0. -1.
</event>
<event>
 7    1  0.1220856E-011  0.5930195E+02  0.7816164E-02  0.1266605E+00
        -11   -1    0    0    0    0  0.00000000000E+00  0.00000000000E+00  0.45593999997E+02  0.45594000000E+02  0.51100000000E-03 0.  1.
         11   -1    0    0    0    0 -0.00000000000E+00 -0.00000000000E+00 -0.45593999997E+02  0.45594000000E+02  0.51100000000E-03 0. -1.
    9900012    2    1    2    0    0  0.21311427333E+02  0.85496327079E+01 -0.22123452615E+02  0.59301948034E+02  0.50000007306E+02 0.  0.
        -12    1    1    2    0    0 -0.21311427333E+02 -0.85496327079E+01  0.22123452615E+02  0.31886051966E+02  0.00000000000E+00 0.  1.
         11    1    3    3    0    0 -0.63759937108E+01  0.35118408785E+01 -0.73993342272E+01  0.10379617981E+02  0.51100000000E-03 0. -1.
        -11    1    3    3    0    0  0.28323101936E+01  0.76044576266E+01  0.10597660385E+02  0.13347665066E+02  0.51100000000E-03 0.  1.
         12    1    3    3    0    0  0.24855110850E+02 -0.25666657971E+01 -0.25321778773E+02  0.35574664986E+02  0.00000000000E+00 0. -1.
</event>
<event>
 7    1  0.1220856E-011  0.5930195E+02  0.7816164E-02  0.1266605E+00
        -11   -1    0    0    0    0  0.00000000000E+00  0.00000000000E+00  0.45593999997E+02  0.45594000000E+02  0.51100000000E-03 0.  1.
         11   -1    0    0    0    0 -0.00000000000E+00 -0.00000000000E+00 -0.45593999997E+02  0.45594000000E+02  0.51100000000E-03 0. -1.
    9900012    2    1    2    0    0  0.45458264179E+01  0.22139319023E+01 -0.31482598473E+02  0.59301952285E+02  0.50000015059E+02 0.  0.
        -12    1    1    2    0    0 -0.45458264179E+01 -0.22139319023E+01  0.31482598473E+02  0.31886047715E+02  0.00000000000E+00 0.  1.
         11    1    3    3    0    0 -0.89817045496E+01 -0.34053651760E+01  0.36012524641E+00  0.96123472187E+01  0.51100000000E-03 0. -1.
        -11    1    3    3    0    0  0.49304063801E+01  0.13315577841E+02  0.16220157378E+01  0.14291411953E+02  0.51100000000E-03 0.  1.
        -12    1    3    3    0    0  0.85971245874E+01 -0.76962807623E+01 -0.33464739457E+02  0.35398193113E+02  0.00000000000E+00 0.  1.
</event>
<event>
 7    1  0.1220856E-011  0.5930196E+02  0.7816164E-02  0.1266605E+00
        -11   -1    0    0    0    0  0.00000000000E+00  0.00000000000E+00  0.45593999997E+02  0.45594000000E+02  0.51100000000E-03 0.  1.
         11   -1    0    0    0    0 -0.00000000000E+00 -0.00000000000E+00 -0.45593999997E+02  0.45594000000E+02  0.51100000000E-03 0. -1.
    9900012    2    1    2    0    0  0.53446721847E+01  0.23534491287E+02 -0.20839424068E+02  0.59301962360E+02  0.50000033433E+02 0.  0.
        -12    1    1    2    0    0 -0.53446721847E+01 -0.23534491287E+02  0.20839424068E+02  0.31886037640E+02  0.00000000000E+00 0.  1.
         11    1    3    3    0    0 -0.15930250262E+01  0.48640034223E+01 -0.20479670568E+02  0.21109551507E+02  0.51100000000E-03 0. -1.
        -11    1    3    3    0    0  0.11078925139E+02  0.20862734171E+02 -0.11377887103E+02  0.26219316820E+02  0.51100000000E-03 0.  1.
        -12    1    3    3    0    0 -0.41412279280E+01 -0.21922463063E+01  0.11018133602E+02  0.11973094032E+02  0.00000000000E+00 0.  1.
</event>
<event>
 7    1  0.1220856E-011  0.5930207E+02  0.7816164E-02  0.1266604E+00
        -11   -1    0    0    0    0  0.00000000000E+00  0.00000000000E+00  0.45593999997E+02  0.45594000000E+02  0.51100000000E-03 0.  1.
         11   -1    0    0    0    0 -0.00000000000E+00 -0.00000000000E+00 -0.45593999997E+02  0.45594000000E+02  0.51100000000E-03 0. -1.
    9900012    2    1    2    0    0  0.28493329472E+02  0.70088531865E+00 -0.14295149120E+02  0.59302072807E+02  0.50000234861E+02 0.  0.
        -12    1    1    2    0    0 -0.28493329472E+02 -0.70088531865E+00  0.14295149120E+02  0.31885927193E+02  0.00000000000E+00 0.  1.
         11    1    3    3    0    0  0.43164527067E+01 -0.12226003819E+02 -0.11278588442E+02  0.17184687686E+02  0.51100000000E-03 0. -1.
        -11    1    3    3    0    0  0.54048895265E+00  0.97797395662E+01  0.10782877123E+02  0.14567287792E+02  0.51100000000E-03 0.  1.
        -12    1    3    3    0    0  0.23636387812E+02  0.31471495716E+01 -0.13799437801E+02  0.27550097330E+02  0.00000000000E+00 0.  1.
</event>
<event>
 7    1  0.1220856E-011  0.5930193E+02  0.7816164E-02  0.1266605E+00
        -11   -1    0    0    0    0  0.00000000000E+00  0.00000000000E+00  0.45593999997E+02  0.45594000000E+02  0.51100000000E-03 0.  1.
         11   -1    0    0    0    0 -0.00000000000E+00 -0.00000000000E+00 -0.45593999997E+02  0.45594000000E+02  0.51100000000E-03 0. -1.
    9900012    2    1    2    0    0 -0.81509131846E+01  0.11283971389E+02 -0.28687205850E+02  0.59301934461E+02  0.49999982553E+02 0.  0.
        -12    1    1    2    0    0  0.81509131846E+01 -0.11283971389E+02  0.28687205850E+02  0.31886065539E+02  0.00000000000E+00 0.  1.
         11    1    3    3    0    0 -0.47146259118E+01  0.18273604821E+01  0.21637195442E+01  0.54998751210E+01  0.51100000000E-03 0. -1.
        -11    1    3    3    0    0 -0.22080998252E+02 -0.11511191275E+01 -0.11549758151E+02  0.24945790681E+02  0.51100000000E-03 0.  1.
         12    1    3    3    0    0  0.18644710980E+02  0.10607730035E+02 -0.19301167243E+02  0.28856268659E+02  0.00000000000E+00 0. -1.
</event>
<event>
 7    1  0.1220856E-011  0.5930189E+02  0.7816164E-02  0.1266605E+00
        -11   -1    0    0    0    0  0.00000000000E+00  0.00000000000E+00  0.45593999997E+02  0.45594000000E+02  0.51100000000E-03 0.  1.
         11   -1    0    0    0    0 -0.00000000000E+00 -0.00000000000E+00 -0.45593999997E+02  0.45594000000E+02  0.51100000000E-03 0. -1.
    9900012    2    1    2    0    0  0.25189168734E+02  0.12772357540E+02 -0.14801919282E+02  0.59301887771E+02  0.49999897402E+02 0.  0.
        -12    1    1    2    0    0 -0.25189168734E+02 -0.12772357540E+02  0.14801919282E+02  0.31886112229E+02  0.00000000000E+00 0.  1.
         11    1    3    3    0    0  0.15732206182E+02 -0.43921908219E+01 -0.49658003117E+01  0.17071989473E+02  0.51100000000E-03 0. -1.
        -11    1    3    3    0    0  0.63912971416E+01 -0.98852915624E+01 -0.92994834468E+01  0.15001601950E+02  0.51100000000E-03 0.  1.
        -12    1    3    3    0    0  0.30656654104E+01  0.27049839925E+02 -0.53663552341E+00  0.27228296349E+02  0.00000000000E+00 0.  1.
</event>
<event>
 7    1  0.1220856E-011  0.5930193E+02  0.7816164E-02  0.1266605E+00
        -11   -1    0    0    0    0  0.00000000000E+00  0.00000000000E+00  0.45593999997E+02  0.45594000000E+02  0.51100000000E-03 0.  1.
         11   -1    0    0    0    0 -0.00000000000E+00 -0.00000000000E+00 -0.45593999997E+02  0.45594000000E+02  0.51100000000E-03 0. -1.
    9900012    2    1    2    0    0  0.10726578526E+02  0.15756426280E+02 -0.25561625898E+02  0.59301934477E+02  0.49999982582E+02 0.  0.
        -12    1    1    2    0    0 -0.10726578526E+02 -0.15756426280E+02  0.25561625898E+02  0.31886065523E+02  0.00000000000E+00 0.  1.
         11    1    3    3    0    0 -0.69074357492E+01 -0.46255516936E+01 -0.68086624989E+00  0.83409817295E+01  0.51100000000E-03 0. -1.
        -11    1    3    3    0    0 -0.51127089299E+00  0.89228361121E+01 -0.27892955986E+02  0.29289851419E+02  0.51100000000E-03 0.  1.
        -12    1    3    3    0    0  0.18145285168E+02  0.11459141861E+02  0.30121963379E+01  0.21671101329E+02  0.00000000000E+00 0.  1.
</event>
<event>
 7    1  0.1220856E-011  0.5930200E+02  0.7816164E-02  0.1266605E+00
        -11   -1    0    0    0    0  0.00000000000E+00  0.00000000000E+00  0.45593999997E+02  0.45594000000E+02  0.51100000000E-03 0. -1.
         11   -1    0    0    0    0 -0.00000000000E+00 -0.00000000000E+00 -0.45593999997E+02  0.45594000000E+02  0.51100000000E-03 0.  1.
    9900012    2    1    2    0    0 -0.16474387843E+02 -0.27231472382E+02 -0.19387139342E+01  0.59301997513E+02  0.50000097544E+02 0.  0.
        -12    1    1    2    0    0  0.16474387843E+02  0.27231472382E+02  0.19387139342E+01  0.31886002487E+02  0.00000000000E+00 0.  1.
         11    1    3    3    0    0 -0.65542608715E+01 -0.77409125879E+00 -0.37957014735E+01  0.76134685122E+01  0.51100000000E-03 0.  1.
        -11    1    3    3    0    0 -0.85797643376E+01  0.54732802102E+01  0.14164845345E+02  0.17441674124E+02  0.51100000000E-03 0. -1.
         12    1    3    3    0    0 -0.13403626338E+01 -0.31930661333E+02 -0.12307857806E+02  0.34246854877E+02  0.00000000000E+00 0. -1.
</event>
<event>
 7    1  0.1220856E-011  0.5930189E+02  0.7816164E-02  0.1266605E+00
        -11   -1    0    0    0    0  0.00000000000E+00  0.00000000000E+00  0.45593999997E+02  0.45594000000E+02  0.51100000000E-03 0.  1.
         11   -1    0    0    0    0 -0.00000000000E+00 -0.00000000000E+00 -0.45593999997E+02  0.45594000000E+02  0.51100000000E-03 0. -1.
    9900012    2    1    2    0    0  0.23077582360E+02  0.12150565078E+02 -0.18344286996E+02  0.59301891666E+02  0.49999904504E+02 0.  0.
        -12    1    1    2    0    0 -0.23077582360E+02 -0.12150565078E+02  0.18344286996E+02  0.31886108334E+02  0.00000000000E+00 0.  1.
         11    1    3    3    0    0  0.29444346165E+02  0.68269216505E+01 -0.17890829651E+02  0.35123470304E+02  0.51100000000E-03 0. -1.
        -11    1    3    3    0    0  0.60185196998E+01 -0.39688662656E+01 -0.40687299686E+01  0.82782270221E+01  0.51100000000E-03 0.  1.
        -12    1    3    3    0    0 -0.12385283505E+02  0.92925096931E+01  0.36152726237E+01  0.15900194340E+02  0.00000000000E+00 0.  1.
</event>
<event>
 7    1  0.1220856E-011  0.5930193E+02  0.7816164E-02  0.1266605E+00
        -11   -1    0    0    0    0  0.00000000000E+00  0.00000000000E+00  0.45593999997E+02  0.45594000000E+02  0.51100000000E-03 0.  1.
         11   -1    0    0    0    0 -0.00000000000E+00 -0.00000000000E+00 -0.45593999997E+02  0.45594000000E+02  0.51100000000E-03 0. -1.
    9900012    2    1    2    0    0 -0.15705895253E+02 -0.77254625059E+01 -0.26652650518E+02  0.59301926296E+02  0.49999967662E+02 0.  0.
        -12    1    1    2    0    0  0.15705895253E+02  0.77254625059E+01  0.26652650518E+02  0.31886073704E+02  0.00000000000E+00 0.  1.
         11    1    3    3    0    0 -0.12557572980E+02 -0.99691343326E+01 -0.31564846062E+02  0.35403612608E+02  0.51100000000E-03 0. -1.
        -11    1    3    3    0    0 -0.99422278707E+01  0.92820357746E+01  0.26394689856E+01  0.13855355641E+02  0.51100000000E-03 0.  1.
        -12    1    3    3    0    0  0.67939055970E+01 -0.70383639479E+01  0.22727265593E+01  0.10042958047E+02  0.00000000000E+00 0.  1.
</event>
<event>
 7    1  0.1220856E-011  0.5930190E+02  0.7816164E-02  0.1266605E+00
        -11   -1    0    0    0    0  0.00000000000E+00  0.00000000000E+00  0.45593999997E+02  0.45594000000E+02  0.51100000000E-03 0.  1.
         11   -1    0    0    0    0 -0.00000000000E+00 -0.00000000000E+00 -0.45593999997E+02  0.45594000000E+02  0.51100000000E-03 0. -1.
    9900012    2    1    2    0    0 -0.19432109371E+02 -0.24869311312E+02 -0.45424268214E+01  0.59301903325E+02  0.49999925768E+02 0.  0.
        -12    1    1    2    0    0  0.19432109371E+02  0.24869311312E+02  0.45424268214E+01  0.31886096675E+02  0.00000000000E+00 0.  1.
         11    1    3    3    0    0 -0.18489111093E+02  0.17682717298E+01 -0.18764684553E+02  0.26402412779E+02  0.51100000000E-03 0. -1.
        -11    1    3    3    0    0  0.39832312414E+00 -0.41859078263E+01 -0.24825036429E+01  0.48829612163E+01  0.51100000000E-03 0.  1.
         12    1    3    3    0    0 -0.13413214019E+01 -0.22451675216E+02  0.16704761374E+02  0.28016529330E+02  0.00000000000E+00 0. -1.
</event>
<event>
 7    1  0.1220856E-011  0.5930193E+02  0.7816164E-02  0.1266605E+00
        -11   -1    0    0    0    0  0.00000000000E+00  0.00000000000E+00  0.45593999997E+02  0.45594000000E+02  0.51100000000E-03 0.  1.
         11   -1    0    0    0    0 -0.00000000000E+00 -0.00000000000E+00 -0.45593999997E+02  0.45594000000E+02  0.51100000000E-03 0. -1.
    9900012    2    1    2    0    0  0.11313232256E+01 -0.30632609163E+02 -0.87798062624E+01  0.59301927266E+02  0.49999969431E+02 0.  0.
        -12    1    1    2    0    0 -0.11313232256E+01  0.30632609163E+02  0.87798062624E+01  0.31886072734E+02  0.00000000000E+00 0.  1.
         11    1    3    3    0    0 -0.77778116409E+01 -0.30607336275E+02 -0.76453171046E+01  0.32492372361E+02  0.51100000000E-03 0. -1.
        -11    1    3    3    0    0 -0.44282659270E+01 -0.53644227270E+01  0.73541412834E+01  0.10122744914E+02  0.51100000000E-03 0.  1.
        -12    1    3    3    0    0  0.13337400793E+02  0.53391498386E+01 -0.84886304412E+01  0.16686809992E+02  0.00000000000E+00 0.  1.
</event>
<event>
 7    1  0.1220856E-011  0.5930194E+02  0.7816164E-02  0.1266605E+00
        -11   -1    0    0    0    0  0.00000000000E+00  0.00000000000E+00  0.45593999997E+02  0.45594000000E+02  0.51100000000E-03 0.  1.
         11   -1    0    0    0    0 -0.00000000000E+00 -0.00000000000E+00 -0.45593999997E+02  0.45594000000E+02  0.51100000000E-03 0. -1.
    9900012    2    1    2    0    0 -0.77302366329E+01  0.16736166278E+02 -0.26016631966E+02  0.59301937857E+02  0.49999988747E+02 0.  0.
        -12    1    1    2    0    0  0.77302366329E+01 -0.16736166278E+02  0.26016631966E+02  0.31886062143E+02  0.00000000000E+00 0.  1.
         11    1    3    3    0    0 -0.71129269288E+01  0.80448507444E+01 -0.15044613567E+02  0.18483878127E+02  0.51100000000E-03 0. -1.
        -11    1    3    3    0    0 -0.43240512671E+01 -0.13707305338E+02 -0.11025242027E+02  0.18114734362E+02  0.51100000000E-03 0.  1.
         12    1    3    3    0    0  0.37067415631E+01  0.22398620872E+02  0.53223627287E-01  0.22703325368E+02  0.00000000000E+00 0. -1.
</event>
<event>
 7    1  0.1220856E-011  0.5930196E+02  0.7816164E-02  0.1266605E+00
        -11   -1    0    0    0    0  0.00000000000E+00  0.00000000000E+00  0.45593999997E+02  0.45594000000E+02  0.51100000000E-03 0. -1.
         11   -1    0    0    0    0 -0.00000000000E+00 -0.00000000000E+00 -0.45593999997E+02  0.45594000000E+02  0.51100000000E-03 0.  1.
    9900012    2    1    2    0    0 -0.10727068061E+02 -0.37984961834E+01  0.29786253266E+02  0.59301961580E+02  0.50000032012E+02 0.  0.
        -12    1    1    2    0    0  0.10727068061E+02  0.37984961834E+01 -0.29786253266E+02  0.31886038420E+02  0.00000000000E+00 0.  1.
         11    1    3    3    0    0 -0.11718428429E+01 -0.20503388925E+01  0.59223736397E+01  0.63758619035E+01  0.51100000000E-03 0. -1.
        -11    1    3    3    0    0 -0.32246672216E+01  0.16117041413E+02  0.28960046349E+02  0.33299276079E+02  0.51100000000E-03 0.  1.
         12    1    3    3    0    0 -0.63305579967E+01 -0.17865198704E+02 -0.50961667223E+01  0.19626823598E+02  0.00000000000E+00 0. -1.
</event>
<event>
 7    1  0.1220856E-011  0.5930192E+02  0.7816164E-02  0.1266605E+00
        -11   -1    0    0    0    0  0.00000000000E+00  0.00000000000E+00  0.45593999997E+02  0.45594000000E+02  0.51100000000E-03 0. -1.
         11   -1    0    0    0    0 -0.00000000000E+00 -0.00000000000E+00 -0.45593999997E+02  0.45594000000E+02  0.51100000000E-03 0.  1.
    9900012    2    1    2    0    0 -0.42873254015E+01 -0.18803317086E+02  0.25392443359E+02  0.59301920400E+02  0.49999956908E+02 0.  0.
        -12    1    1    2    0    0  0.42873254015E+01  0.18803317086E+02 -0.25392443359E+02  0.31886079600E+02  0.00000000000E+00 0.  1.
         11    1    3    3    0    0  0.13022729715E+02 -0.10577077010E+02  0.10039081160E+02  0.19551194288E+02  0.51100000000E-03 0.  1.
        -11    1    3    3    0    0 -0.64730836770E+01 -0.14038751612E+02  0.21116025571E+02  0.26170095439E+02  0.51100000000E-03 0. -1.
        -12    1    3    3    0    0 -0.10836971439E+02  0.58125115361E+01 -0.57626633719E+01  0.13580630673E+02  0.00000000000E+00 0.  1.
</event>
<event>
 7    1  0.1220856E-011  0.5930193E+02  0.7816164E-02  0.1266605E+00
        -11   -1    0    0    0    0  0.00000000000E+00  0.00000000000E+00  0.45593999997E+02  0.45594000000E+02  0.51100000000E-03 0.  1.
         11   -1    0    0    0    0 -0.00000000000E+00 -0.00000000000E+00 -0.45593999997E+02  0.45594000000E+02  0.51100000000E-03 0. -1.
    9900012    2    1    2    0    0 -0.24053736390E+02 -0.76582429208E+01  0.19480515474E+02  0.59301930909E+02  0.49999976075E+02 0.  0.
        -12    1    1    2    0    0  0.24053736390E+02  0.76582429208E+01 -0.19480515474E+02  0.31886069091E+02  0.00000000000E+00 0.  1.
         11    1    3    3    0    0 -0.16886612335E+02  0.11111398935E+02 -0.45663163438E+01  0.20723708830E+02  0.51100000000E-03 0. -1.
        -11    1    3    3    0    0  0.53602020058E+01 -0.41617148478E+01 -0.11399637762E+01  0.68812174569E+01  0.51100000000E-03 0.  1.
        -12    1    3    3    0    0 -0.12527326061E+02 -0.14607927008E+02  0.25186795594E+02  0.31697004622E+02  0.00000000000E+00 0.  1.
</event>
<event>
 7    1  0.1220856E-011  0.5930195E+02  0.7816164E-02  0.1266605E+00
        -11   -1    0    0    0    0  0.00000000000E+00  0.00000000000E+00  0.45593999997E+02  0.45594000000E+02  0.51100000000E-03 0. -1.
         11   -1    0    0    0    0 -0.00000000000E+00 -0.00000000000E+00 -0.45593999997E+02  0.45594000000E+02  0.51100000000E-03 0.  1.
    9900012    2    1    2    0    0  0.22686750848E+02  0.16389639972E+01  0.22346029777E+02  0.59301954247E+02  0.50000018637E+02 0.  0.
        -12    1    1    2    0    0 -0.22686750848E+02 -0.16389639972E+01 -0.22346029777E+02  0.31886045753E+02  0.00000000000E+00 0.  1.
         11    1    3    3    0    0 -0.44924495786E+01  0.15650843117E+02  0.12021083259E+02  0.20239501883E+02  0.51100000000E-03 0. -1.
        -11    1    3    3    0    0  0.97703717754E+01 -0.78408693045E+01 -0.64686247285E+01  0.14099024868E+02  0.51100000000E-03 0.  1.
        -12    1    3    3    0    0  0.17408828651E+02 -0.61710098156E+01  0.16793571246E+02  0.24963427496E+02  0.00000000000E+00 0.  1.
</event>
<event>
 7    1  0.1220856E-011  0.5930195E+02  0.7816164E-02  0.1266605E+00
        -11   -1    0    0    0    0  0.00000000000E+00  0.00000000000E+00  0.45593999997E+02  0.45594000000E+02  0.51100000000E-03 0.  1.
         11   -1    0    0    0    0 -0.00000000000E+00 -0.00000000000E+00 -0.45593999997E+02  0.45594000000E+02  0.51100000000E-03 0. -1.
    9900012    2    1    2    0    0 -0.12848284360E+02  0.16638683567E+02 -0.23974906548E+02  0.59301947472E+02  0.50000006281E+02 0.  0.
        -12    1    1    2    0    0  0.12848284360E+02 -0.16638683567E+02  0.23974906548E+02  0.31886052528E+02  0.00000000000E+00 0.  1.
         11    1    3    3    0    0 -0.55810670484E+01  0.47343677360E+01 -0.24471852058E+02  0.25542789407E+02  0.51100000000E-03 0. -1.
        -11    1    3    3    0    0  0.87092539360E+01  0.12465143688E+01 -0.87811255385E+01  0.12430328563E+02  0.51100000000E-03 0.  1.
        -12    1    3    3    0    0 -0.15976471248E+02  0.10657801463E+02  0.92780710491E+01  0.21328829502E+02  0.00000000000E+00 0.  1.
</event>
<event>
 7    1  0.1220856E-011  0.5930195E+02  0.7816164E-02  0.1266605E+00
        -11   -1    0    0    0    0  0.00000000000E+00  0.00000000000E+00  0.45593999997E+02  0.45594000000E+02  0.51100000000E-03 0.  1.
         11   -1    0    0    0    0 -0.00000000000E+00 -0.00000000000E+00 -0.45593999997E+02  0.45594000000E+02  0.51100000000E-03 0. -1.
    9900012    2    1    2    0    0 -0.17351938735E+02 -0.19919127515E+02 -0.17856618305E+02  0.59301949192E+02  0.50000009419E+02 0.  0.
        -12    1    1    2    0    0  0.17351938735E+02  0.19919127515E+02  0.17856618305E+02  0.31886050808E+02  0.00000000000E+00 0.  1.
         11    1    3    3    0    0 -0.76679696832E+01  0.15205717600E+01 -0.19870262819E+02  0.21352687005E+02  0.51100000000E-03 0. -1.
        -11    1    3    3    0    0 -0.60580235111E+00  0.63585033778E+01 -0.47187456828E+01  0.79412922610E+01  0.51100000000E-03 0.  1.
        -12    1    3    3    0    0 -0.90781667012E+01 -0.27798202652E+02  0.67323901975E+01  0.30007969927E+02  0.00000000000E+00 0.  1.
</event>
<event>
 7    1  0.1220856E-011  0.5930198E+02  0.7816164E-02  0.1266605E+00
        -11   -1    0    0    0    0  0.00000000000E+00  0.00000000000E+00  0.45593999997E+02  0.45594000000E+02  0.51100000000E-03 0. -1.
         11   -1    0    0    0    0 -0.00000000000E+00 -0.00000000000E+00 -0.45593999997E+02  0.45594000000E+02  0.51100000000E-03 0.  1.
    9900012    2    1    2    0    0  0.12107725666E+02  0.55313565575E+01 -0.28974566017E+02  0.59301977952E+02  0.50000061869E+02 0.  0.
        -12    1    1    2    0    0 -0.12107725666E+02 -0.55313565575E+01  0.28974566017E+02  0.31886022048E+02  0.00000000000E+00 0.  1.
         11    1    3    3    0    0  0.19134197530E+02 -0.78728258378E+01 -0.44296553375E+01  0.21159412763E+02  0.51100000000E-03 0. -1.
        -11    1    3    3    0    0  0.26549977037E+01 -0.53132037832E+01 -0.12575177565E+02  0.13907344761E+02  0.51100000000E-03 0.  1.
         12    1    3    3    0    0 -0.96814695678E+01  0.18717386178E+02 -0.11969733114E+02  0.24235220427E+02  0.00000000000E+00 0. -1.
</event>
<event>
 7    1  0.1220856E-011  0.5930194E+02  0.7816164E-02  0.1266605E+00
        -11   -1    0    0    0    0  0.00000000000E+00  0.00000000000E+00  0.45593999997E+02  0.45594000000E+02  0.51100000000E-03 0.  1.
         11   -1    0    0    0    0 -0.00000000000E+00 -0.00000000000E+00 -0.45593999997E+02  0.45594000000E+02  0.51100000000E-03 0. -1.
    9900012    2    1    2    0    0  0.18960559159E+02 -0.16310967434E+02 -0.19778021747E+02  0.59301943385E+02  0.49999998827E+02 0.  0.
        -12    1    1    2    0    0 -0.18960559159E+02  0.16310967434E+02  0.19778021747E+02  0.31886056615E+02  0.00000000000E+00 0.  1.
         11    1    3    3    0    0  0.38363299099E+01  0.12164989272E+02 -0.28382835635E+01  0.13067526354E+02  0.51100000000E-03 0. -1.
        -11    1    3    3    0    0  0.33069900445E+01 -0.17212116408E+01  0.73329082071E+01  0.82261957004E+01  0.51100000000E-03 0.  1.
         12    1    3    3    0    0  0.11817239205E+02 -0.26754745065E+02 -0.24272646390E+02  0.38008221330E+02  0.00000000000E+00 0. -1.
</event>
<event>
 7    1  0.1220856E-011  0.5930193E+02  0.7816164E-02  0.1266605E+00
        -11   -1    0    0    0    0  0.00000000000E+00  0.00000000000E+00  0.45593999997E+02  0.45594000000E+02  0.51100000000E-03 0.  1.
         11   -1    0    0    0    0 -0.00000000000E+00 -0.00000000000E+00 -0.45593999997E+02  0.45594000000E+02  0.51100000000E-03 0. -1.
    9900012    2    1    2    0    0  0.77232240914E+01  0.29261466481E+02 -0.10041910900E+02  0.59301928033E+02  0.49999970829E+02 0.  0.
        -12    1    1    2    0    0 -0.77232240914E+01 -0.29261466481E+02  0.10041910900E+02  0.31886071967E+02  0.00000000000E+00 0.  1.
         11    1    3    3    0    0 -0.22179997862E+01  0.73634254210E-01  0.61399200666E+01  0.65286724332E+01  0.51100000000E-03 0.  1.
        -11    1    3    3    0    0 -0.12992873035E+02  0.22089504634E+01 -0.10628321744E+02  0.16930901784E+02  0.51100000000E-03 0. -1.
        -12    1    3    3    0    0  0.22934096913E+02  0.26978881763E+02 -0.55535092227E+01  0.35842353816E+02  0.00000000000E+00 0.  1.
</event>
<event>
 7    1  0.1220856E-011  0.5930191E+02  0.7816164E-02  0.1266605E+00
        -11   -1    0    0    0    0  0.00000000000E+00  0.00000000000E+00  0.45593999997E+02  0.45594000000E+02  0.51100000000E-03 0.  1.
         11   -1    0    0    0    0 -0.00000000000E+00 -0.00000000000E+00 -0.45593999997E+02  0.45594000000E+02  0.51100000000E-03 0. -1.
    9900012    2    1    2    0    0  0.26984934149E+02  0.15055829331E+02 -0.78649858341E+01  0.59301911026E+02  0.49999939813E+02 0.  0.
        -12    1    1    2    0    0 -0.26984934149E+02 -0.15055829331E+02  0.78649858341E+01  0.31886088974E+02  0.00000000000E+00 0.  1.
         11    1    3    3    0    0  0.23985865745E+02 -0.86276899082E+01 -0.12453875511E+02  0.28370015936E+02  0.51100000000E-03 0. -1.
        -11    1    3    3    0    0  0.93228799080E+01  0.69545205142E+01 -0.21349086695E+01  0.11825365984E+02  0.51100000000E-03 0.  1.
         12    1    3    3    0    0 -0.63238115041E+01  0.16728998725E+02  0.67237983468E+01  0.19106529107E+02  0.00000000000E+00 0. -1.
</event>
<event>
 7    1  0.1220856E-011  0.5930195E+02  0.7816164E-02  0.1266605E+00
        -11   -1    0    0    0    0  0.00000000000E+00  0.00000000000E+00  0.45593999997E+02  0.45594000000E+02  0.51100000000E-03 0.  1.
         11   -1    0    0    0    0 -0.00000000000E+00 -0.00000000000E+00 -0.45593999997E+02  0.45594000000E+02  0.51100000000E-03 0. -1.
    9900012    2    1    2    0    0 -0.20449080767E+02 -0.24807800426E+01 -0.24339284660E+02  0.59301953653E+02  0.50000017555E+02 0.  0.
        -12    1    1    2    0    0  0.20449080767E+02  0.24807800426E+01  0.24339284660E+02  0.31886046347E+02  0.00000000000E+00 0.  1.
         11    1    3    3    0    0 -0.13140601051E+01  0.10694214248E+02 -0.12213910282E+02  0.16287190580E+02  0.51100000000E-03 0. -1.
        -11    1    3    3    0    0  0.48562615327E+01 -0.11305610914E+02  0.52046753219E+01  0.13359968551E+02  0.51100000000E-03 0.  1.
         12    1    3    3    0    0 -0.23991282195E+02 -0.18693833768E+01 -0.17330049700E+02  0.29654794522E+02  0.00000000000E+00 0. -1.
</event>
<event>
 7    1  0.1220856E-011  0.5930195E+02  0.7816164E-02  0.1266605E+00
        -11   -1    0    0    0    0  0.00000000000E+00  0.00000000000E+00  0.45593999997E+02  0.45594000000E+02  0.51100000000E-03 0.  1.
         11   -1    0    0    0    0 -0.00000000000E+00 -0.00000000000E+00 -0.45593999997E+02  0.45594000000E+02  0.51100000000E-03 0. -1.
    9900012    2    1    2    0    0 -0.22455259016E+02 -0.13975150165E+02 -0.17809462327E+02  0.59301946183E+02  0.50000003931E+02 0.  0.
        -12    1    1    2    0    0  0.22455259016E+02  0.13975150165E+02  0.17809462327E+02  0.31886053817E+02  0.00000000000E+00 0.  1.
         11    1    3    3    0    0 -0.46215622845E+01  0.29027004800E+00 -0.59758743894E+01  0.75600376738E+01  0.51100000000E-03 0. -1.
        -11    1    3    3    0    0  0.12012199558E+02  0.45058907675E+01  0.34931008724E+01  0.13296531269E+02  0.51100000000E-03 0.  1.
         12    1    3    3    0    0 -0.29845896290E+02 -0.18771310981E+02 -0.15326688810E+02  0.38445377240E+02  0.00000000000E+00 0. -1.
</event>
<event>
 7    1  0.1220856E-011  0.5930194E+02  0.7816164E-02  0.1266605E+00
        -11   -1    0    0    0    0  0.00000000000E+00  0.00000000000E+00  0.45593999997E+02  0.45594000000E+02  0.51100000000E-03 0.  1.
         11   -1    0    0    0    0 -0.00000000000E+00 -0.00000000000E+00 -0.45593999997E+02  0.45594000000E+02  0.51100000000E-03 0. -1.
    9900012    2    1    2    0    0 -0.18911991647E+02 -0.20752058056E+01 -0.25588099481E+02  0.59301941256E+02  0.49999994945E+02 0.  0.
        -12    1    1    2    0    0  0.18911991647E+02  0.20752058056E+01  0.25588099481E+02  0.31886058744E+02  0.00000000000E+00 0.  1.
         11    1    3    3    0    0 -0.20753281790E+02  0.87394321334E+01 -0.50242018168E+01  0.23072038992E+02  0.51100000000E-03 0. -1.
        -11    1    3    3    0    0 -0.24879369604E+01  0.66645593332E+01 -0.16212072318E+02  0.17704165344E+02  0.51100000000E-03 0.  1.
         12    1    3    3    0    0  0.43292271032E+01 -0.17479197272E+02 -0.43518253459E+01  0.18525736920E+02  0.00000000000E+00 0. -1.
</event>
<event>
 7    1  0.1587965E-011  0.5930188E+02  0.7816164E-02  0.1266605E+00
        -11   -1    0    0    0    0  0.00000000000E+00  0.00000000000E+00  0.45593999997E+02  0.45594000000E+02  0.51100000000E-03 0. -1.
         11   -1    0    0    0    0 -0.00000000000E+00 -0.00000000000E+00 -0.45593999997E+02  0.45594000000E+02  0.51100000000E-03 0.  1.
    9900012    2    1    2    0    0 -0.71182134542E+01  0.15284393513E+02  0.27063689264E+02  0.59301875675E+02  0.49999875342E+02 0.  0.
        -12    1    1    2    0    0  0.71182134542E+01 -0.15284393513E+02 -0.27063689264E+02  0.31886124325E+02  0.00000000000E+00 0.  1.
         11    1    3    3    0    0 -0.31559930471E+01  0.34038504476E+01  0.27997637535E+02  0.28379820256E+02  0.51100000000E-03 0. -1.
        -11    1    3    3    0    0  0.18775671281E+01  0.15984610429E+02  0.91911214731E+01  0.18534015838E+02  0.51100000000E-03 0.  1.
        -12    1    3    3    0    0 -0.58397875352E+01 -0.41040673633E+01 -0.10125069743E+02  0.12388039582E+02  0.00000000000E+00 0.  1.
</event>
<event>
 7    1  0.1220856E-011  0.5930193E+02  0.7816164E-02  0.1266605E+00
        -11   -1    0    0    0    0  0.00000000000E+00  0.00000000000E+00  0.45593999997E+02  0.45594000000E+02  0.51100000000E-03 0.  1.
         11   -1    0    0    0    0 -0.00000000000E+00 -0.00000000000E+00 -0.45593999997E+02  0.45594000000E+02  0.51100000000E-03 0. -1.
    9900012    2    1    2    0    0 -0.24722716578E+02  0.15562379294E+02 -0.12779715975E+02  0.59301929300E+02  0.49999973140E+02 0.  0.
        -12    1    1    2    0    0  0.24722716578E+02 -0.15562379294E+02  0.12779715975E+02  0.31886070700E+02  0.00000000000E+00 0.  1.
         11    1    3    3    0    0 -0.25837786390E+02  0.74006135505E+01 -0.37759914602E+01  0.27140714770E+02  0.51100000000E-03 0. -1.
        -11    1    3    3    0    0 -0.22468531063E+01  0.15795785629E+01 -0.19295753030E+02  0.19490241214E+02  0.51100000000E-03 0.  1.
         12    1    3    3    0    0  0.33619229185E+01  0.65821871806E+01  0.10292028516E+02  0.12670973315E+02  0.00000000000E+00 0. -1.
</event>
<event>
 7    1  0.1220856E-011  0.5930194E+02  0.7816164E-02  0.1266605E+00
        -11   -1    0    0    0    0  0.00000000000E+00  0.00000000000E+00  0.45593999997E+02  0.45594000000E+02  0.51100000000E-03 0. -1.
         11   -1    0    0    0    0 -0.00000000000E+00 -0.00000000000E+00 -0.45593999997E+02  0.45594000000E+02  0.51100000000E-03 0.  1.
    9900012    2    1    2    0    0 -0.23500424506E+02  0.10871332773E+02  0.18608194209E+02  0.59301941605E+02  0.49999995582E+02 0.  0.
        -12    1    1    2    0    0  0.23500424506E+02 -0.10871332773E+02 -0.18608194209E+02  0.31886058395E+02  0.00000000000E+00 0.  1.
         11    1    3    3    0    0 -0.17013040227E+01 -0.28280256882E+01  0.26406832937E+01  0.42267449876E+01  0.51100000000E-03 0. -1.
        -11    1    3    3    0    0 -0.21371112332E+02 -0.38322230989E+01 -0.98685827129E+01  0.23849513647E+02  0.51100000000E-03 0.  1.
         12    1    3    3    0    0 -0.42800815133E+00  0.17531581560E+02  0.25836093629E+02  0.31225682970E+02  0.00000000000E+00 0. -1.
</event>
<event>
 7    1  0.1220856E-011  0.5930195E+02  0.7816164E-02  0.1266605E+00
        -11   -1    0    0    0    0  0.00000000000E+00  0.00000000000E+00  0.45593999997E+02  0.45594000000E+02  0.51100000000E-03 0. -1.
         11   -1    0    0    0    0 -0.00000000000E+00 -0.00000000000E+00 -0.45593999997E+02  0.45594000000E+02  0.51100000000E-03 0.  1.
    9900012    2    1    2    0    0 -0.47402588273E+01  0.34682425826E+01  0.31340412807E+02  0.59301949205E+02  0.50000009443E+02 0.  0.
        -12    1    1    2    0    0  0.47402588273E+01 -0.34682425826E+01 -0.31340412807E+02  0.31886050795E+02  0.00000000000E+00 0.  1.
         11    1    3    3    0    0  0.87814103179E+01  0.77059683544E-01  0.17872408295E+02  0.19913364454E+02  0.51100000000E-03 0. -1.
        -11    1    3    3    0    0 -0.79518319288E+01 -0.75516654926E+01  0.21900778054E+02  0.24492924741E+02  0.51100000000E-03 0.  1.
         12    1    3    3    0    0 -0.55698372164E+01  0.10942848392E+02 -0.84327735417E+01  0.14895660010E+02  0.00000000000E+00 0. -1.
</event>
<event>
 7    1  0.1220856E-011  0.5930193E+02  0.7816164E-02  0.1266605E+00
        -11   -1    0    0    0    0  0.00000000000E+00  0.00000000000E+00  0.45593999997E+02  0.45594000000E+02  0.51100000000E-03 0. -1.
         11   -1    0    0    0    0 -0.00000000000E+00 -0.00000000000E+00 -0.45593999997E+02  0.45594000000E+02  0.51100000000E-03 0.  1.
    9900012    2    1    2    0    0 -0.23456096600E+02 -0.10068812681E+02  0.19108955623E+02  0.59301927154E+02  0.49999969227E+02 0.  0.
        -12    1    1    2    0    0  0.23456096600E+02  0.10068812681E+02 -0.19108955623E+02  0.31886072846E+02  0.00000000000E+00 0.  1.
         11    1    3    3    0    0 -0.77779152819E+01 -0.46894378730E+01  0.82370709920E+00  0.91195003890E+01  0.51100000000E-03 0. -1.
        -11    1    3    3    0    0 -0.86365953334E+01 -0.24684054649E+02  0.11163947630E+02  0.28434610246E+02  0.51100000000E-03 0.  1.
         12    1    3    3    0    0 -0.70415859846E+01  0.19304679841E+02  0.71213008940E+01  0.21747816520E+02  0.00000000000E+00 0. -1.
</event>
<event>
 7    1  0.1220856E-011  0.5930220E+02  0.7816164E-02  0.1266604E+00
        -11   -1    0    0    0    0  0.00000000000E+00  0.00000000000E+00  0.45593999997E+02  0.45594000000E+02  0.51100000000E-03 0. -1.
         11   -1    0    0    0    0 -0.00000000000E+00 -0.00000000000E+00 -0.45593999997E+02  0.45594000000E+02  0.51100000000E-03 0.  1.
    9900012    2    1    2    0    0 -0.15397131280E+02  0.27297089929E+02  0.58738203517E+01  0.59302195388E+02  0.50000458418E+02 0.  0.
        -12    1    1    2    0    0  0.15397131280E+02 -0.27297089929E+02 -0.58738203517E+01  0.31885804612E+02  0.00000000000E+00 0.  1.
         11    1    3    3    0    0  0.41555450882E+01  0.12121765089E+02  0.67888339389E+01  0.14501517519E+02  0.51100000000E-03 0. -1.
        -11    1    3    3    0    0  0.85691591857E+01 -0.51342945989E+01 -0.15317281371E+01  0.10106317901E+02  0.51100000000E-03 0.  1.
        -12    1    3    3    0    0 -0.28121835554E+02  0.20309619439E+02  0.61671454988E+00  0.34694359967E+02  0.00000000000E+00 0.  1.
</event>
<event>
 7    1  0.1220856E-011  0.5930195E+02  0.7816164E-02  0.1266605E+00
        -11   -1    0    0    0    0  0.00000000000E+00  0.00000000000E+00  0.45593999997E+02  0.45594000000E+02  0.51100000000E-03 0.  1.
         11   -1    0    0    0    0 -0.00000000000E+00 -0.00000000000E+00 -0.45593999997E+02  0.45594000000E+02  0.51100000000E-03 0. -1.
    9900012    2    1    2    0    0 -0.12515391150E+02 -0.10338486680E+02  0.27444507229E+02  0.59301948198E+02  0.50000007606E+02 0.  0.
        -12    1    1    2    0    0  0.12515391150E+02  0.10338486680E+02 -0.27444507229E+02  0.31886051802E+02  0.00000000000E+00 0.  1.
         11    1    3    3    0    0  0.12263264872E+01  0.48268505135E+01 -0.62324150084E+01  0.79778041860E+01  0.51100000000E-03 0. -1.
        -11    1    3    3    0    0  0.10819660061E+02 -0.31381242916E+01  0.80569043185E+01  0.13850147124E+02  0.51100000000E-03 0.  1.
        -12    1    3    3    0    0 -0.24561377698E+02 -0.12027212901E+02  0.25620017919E+02  0.37473996888E+02  0.00000000000E+00 0.  1.
</event>
<event>
 7    1  0.1220856E-011  0.5930187E+02  0.7816164E-02  0.1266605E+00
        -11   -1    0    0    0    0  0.00000000000E+00  0.00000000000E+00  0.45593999997E+02  0.45594000000E+02  0.51100000000E-03 0.  1.
         11   -1    0    0    0    0 -0.00000000000E+00 -0.00000000000E+00 -0.45593999997E+02  0.45594000000E+02  0.51100000000E-03 0. -1.
    9900012    2    1    2    0    0  0.17766740486E+02 -0.15350835034E+02 -0.21573596323E+02  0.59301870382E+02  0.49999865687E+02 0.  0.
        -12    1    1    2    0    0 -0.17766740486E+02  0.15350835034E+02  0.21573596323E+02  0.31886129618E+02  0.00000000000E+00 0.  1.
         11    1    3    3    0    0 -0.11029485557E+02 -0.13292436600E+01 -0.12562679541E+02  0.16770132912E+02  0.51100000000E-03 0. -1.
        -11    1    3    3    0    0  0.11854438460E+02 -0.10790058688E+01 -0.16137185636E+02  0.20052449361E+02  0.51100000000E-03 0.  1.
        -12    1    3    3    0    0  0.16941787583E+02 -0.12942585506E+02  0.71262688545E+01  0.22479288109E+02  0.00000000000E+00 0.  1.
</event>
<event>
 7    1  0.1220856E-011  0.5930197E+02  0.7816164E-02  0.1266605E+00
        -11   -1    0    0    0    0  0.00000000000E+00  0.00000000000E+00  0.45593999997E+02  0.45594000000E+02  0.51100000000E-03 0. -1.
         11   -1    0    0    0    0 -0.00000000000E+00 -0.00000000000E+00 -0.45593999997E+02  0.45594000000E+02  0.51100000000E-03 0.  1.
    9900012    2    1    2    0    0  0.88624172650E+01  0.21995644686E+02  0.21315906174E+02  0.59301973579E+02  0.50000053894E+02 0.  0.
        -12    1    1    2    0    0 -0.88624172650E+01 -0.21995644686E+02 -0.21315906174E+02  0.31886026421E+02  0.00000000000E+00 0.  1.
         11    1    3    3    0    0  0.95632190597E+00 -0.41479174802E+01 -0.18758317756E+01  0.46517218449E+01  0.51100000000E-03 0.  1.
        -11    1    3    3    0    0  0.66355634273E+01  0.28272033170E+02 -0.22133501630E+01  0.29124516833E+02  0.51100000000E-03 0. -1.
         12    1    3    3    0    0  0.12705319317E+01 -0.21284710036E+01  0.25405088113E+02  0.25525734901E+02  0.00000000000E+00 0. -1.
</event>
<event>
 7    1  0.1220856E-011  0.5930195E+02  0.7816164E-02  0.1266605E+00
        -11   -1    0    0    0    0  0.00000000000E+00  0.00000000000E+00  0.45593999997E+02  0.45594000000E+02  0.51100000000E-03 0.  1.
         11   -1    0    0    0    0 -0.00000000000E+00 -0.00000000000E+00 -0.45593999997E+02  0.45594000000E+02  0.51100000000E-03 0. -1.
    9900012    2    1    2    0    0  0.12842443152E+00  0.31702039926E+02 -0.34182064123E+01  0.59301953468E+02  0.50000017218E+02 0.  0.
        -12    1    1    2    0    0 -0.12842443152E+00 -0.31702039926E+02  0.34182064123E+01  0.31886046532E+02  0.00000000000E+00 0.  1.
         11    1    3    3    0    0 -0.19338905872E+00 -0.20061761972E+01 -0.21540295609E+00  0.20269536148E+01  0.51100000000E-03 0. -1.
        -11    1    3    3    0    0  0.20001635397E+02  0.32049744142E+01  0.29049773891E+01  0.20464021438E+02  0.51100000000E-03 0.  1.
         12    1    3    3    0    0 -0.19679821906E+02  0.30503241709E+02 -0.61077808453E+01  0.36810978415E+02  0.00000000000E+00 0. -1.
</event>
<event>
 7    1  0.1220856E-011  0.5930194E+02  0.7816164E-02  0.1266605E+00
        -11   -1    0    0    0    0  0.00000000000E+00  0.00000000000E+00  0.45593999997E+02  0.45594000000E+02  0.51100000000E-03 0. -1.
         11   -1    0    0    0    0 -0.00000000000E+00 -0.00000000000E+00 -0.45593999997E+02  0.45594000000E+02  0.51100000000E-03 0.  1.
    9900012    2    1    2    0    0  0.64283798041E+01 -0.19122035725E+02  0.24693001578E+02  0.59301942794E+02  0.49999997750E+02 0.  0.
        -12    1    1    2    0    0 -0.64283798041E+01  0.19122035725E+02 -0.24693001578E+02  0.31886057206E+02  0.00000000000E+00 0.  1.
         11    1    3    3    0    0 -0.15921621082E+02 -0.11340694928E+02  0.26112921061E+02  0.32618921287E+02  0.51100000000E-03 0. -1.
        -11    1    3    3    0    0  0.12715522211E+01 -0.35795426021E+01  0.28761847876E+01  0.47647045538E+01  0.51100000000E-03 0.  1.
        -12    1    3    3    0    0  0.21078448665E+02 -0.42017981953E+01 -0.42961042697E+01  0.21918316954E+02  0.00000000000E+00 0.  1.
</event>
<event>
 7    1  0.1220856E-011  0.5930200E+02  0.7816164E-02  0.1266605E+00
        -11   -1    0    0    0    0  0.00000000000E+00  0.00000000000E+00  0.45593999997E+02  0.45594000000E+02  0.51100000000E-03 0. -1.
         11   -1    0    0    0    0 -0.00000000000E+00 -0.00000000000E+00 -0.45593999997E+02  0.45594000000E+02  0.51100000000E-03 0.  1.
    9900012    2    1    2    0    0  0.62485440203E+01  0.30952901032E+01  0.31114171882E+02  0.59302002837E+02  0.50000107254E+02 0.  0.
        -12    1    1    2    0    0 -0.62485440203E+01 -0.30952901032E+01 -0.31114171882E+02  0.31885997163E+02  0.00000000000E+00 0.  1.
         11    1    3    3    0    0  0.70558874486E+01  0.61532626919E+01 -0.16736462381E+01  0.95104827130E+01  0.51100000000E-03 0.  1.
        -11    1    3    3    0    0  0.46219749045E+01 -0.19322205590E+02  0.21440897759E+02  0.29230504236E+02  0.51100000000E-03 0. -1.
         12    1    3    3    0    0 -0.54293183329E+01  0.16264233002E+02  0.11346920361E+02  0.20561015888E+02  0.00000000000E+00 0. -1.
</event>
<event>
 7    1  0.1220856E-011  0.5930194E+02  0.7816164E-02  0.1266605E+00
        -11   -1    0    0    0    0  0.00000000000E+00  0.00000000000E+00  0.45593999997E+02  0.45594000000E+02  0.51100000000E-03 0.  1.
         11   -1    0    0    0    0 -0.00000000000E+00 -0.00000000000E+00 -0.45593999997E+02  0.45594000000E+02  0.51100000000E-03 0. -1.
    9900012    2    1    2    0    0 -0.70298591689E+01  0.15946098996E+02 -0.26702504312E+02  0.59301941453E+02  0.49999995305E+02 0.  0.
        -12    1    1    2    0    0  0.70298591689E+01 -0.15946098996E+02  0.26702504312E+02  0.31886058547E+02  0.00000000000E+00 0.  1.
         11    1    3    3    0    0 -0.77808405157E+01  0.37289982458E-01 -0.31047971932E+01  0.83775077169E+01  0.51100000000E-03 0. -1.
        -11    1    3    3    0    0 -0.60619365121E+01  0.16986722842E+02  0.71582114639E+01  0.19404530884E+02  0.51100000000E-03 0.  1.
         12    1    3    3    0    0  0.68129178589E+01 -0.10779138290E+01 -0.30755918583E+02  0.31519902852E+02  0.00000000000E+00 0. -1.
</event>
<event>
 7    1  0.1220856E-011  0.5930193E+02  0.7816164E-02  0.1266605E+00
        -11   -1    0    0    0    0  0.00000000000E+00  0.00000000000E+00  0.45593999997E+02  0.45594000000E+02  0.51100000000E-03 0. -1.
         11   -1    0    0    0    0 -0.00000000000E+00 -0.00000000000E+00 -0.45593999997E+02  0.45594000000E+02  0.51100000000E-03 0.  1.
    9900012    2    1    2    0    0  0.11838017036E+02  0.29605133694E+02 -0.34454261728E+00  0.59301932541E+02  0.49999979051E+02 0.  0.
        -12    1    1    2    0    0 -0.11838017036E+02 -0.29605133694E+02  0.34454261728E+00  0.31886067459E+02  0.00000000000E+00 0.  1.
         11    1    3    3    0    0  0.11777423588E+02 -0.30876328058E+01  0.87944325746E+01  0.15019428328E+02  0.51100000000E-03 0. -1.
        -11    1    3    3    0    0  0.13271178918E+02  0.21482773034E+02 -0.13529825983E+01  0.25287631152E+02  0.51100000000E-03 0.  1.
        -12    1    3    3    0    0 -0.13210585470E+02  0.11209993466E+02 -0.77859925936E+01  0.18994873062E+02  0.00000000000E+00 0.  1.
</event>
<event>
 7    1  0.1220856E-011  0.5930195E+02  0.7816164E-02  0.1266605E+00
        -11   -1    0    0    0    0  0.00000000000E+00  0.00000000000E+00  0.45593999997E+02  0.45594000000E+02  0.51100000000E-03 0. -1.
         11   -1    0    0    0    0 -0.00000000000E+00 -0.00000000000E+00 -0.45593999997E+02  0.45594000000E+02  0.51100000000E-03 0.  1.
    9900012    2    1    2    0    0  0.24013368374E+02  0.19646178865E+02  0.73556783455E+01  0.59301949624E+02  0.50000010207E+02 0.  0.
        -12    1    1    2    0    0 -0.24013368374E+02 -0.19646178865E+02 -0.73556783455E+01  0.31886050376E+02  0.00000000000E+00 0.  1.
         11    1    3    3    0    0  0.12167105918E+02 -0.71460429170E+01 -0.74260921500E+01  0.15945257623E+02  0.51100000000E-03 0. -1.
        -11    1    3    3    0    0 -0.24948403673E+01  0.86432244462E+01 -0.71421141720E+01  0.11486485641E+02  0.51100000000E-03 0.  1.
        -12    1    3    3    0    0  0.14341102823E+02  0.18148997336E+02  0.21923884667E+02  0.31870206359E+02  0.00000000000E+00 0.  1.
</event>
<event>
 7    1  0.1220856E-011  0.5930189E+02  0.7816164E-02  0.1266605E+00
        -11   -1    0    0    0    0  0.00000000000E+00  0.00000000000E+00  0.45593999997E+02  0.45594000000E+02  0.51100000000E-03 0. -1.
         11   -1    0    0    0    0 -0.00000000000E+00 -0.00000000000E+00 -0.45593999997E+02  0.45594000000E+02  0.51100000000E-03 0.  1.
    9900012    2    1    2    0    0 -0.17390728657E+02  0.20295648188E+02  0.17388877642E+02  0.59301892614E+02  0.49999906233E+02 0.  0.
        -12    1    1    2    0    0  0.17390728657E+02 -0.20295648188E+02 -0.17388877642E+02  0.31886107386E+02  0.00000000000E+00 0.  1.
         11    1    3    3    0    0 -0.13133186654E+02  0.94421020935E+01  0.38569497109E+00  0.16179698529E+02  0.51100000000E-03 0. -1.
        -11    1    3    3    0    0 -0.12030779182E+02  0.13695597996E+02 -0.55847972087E+01  0.19065650063E+02  0.51100000000E-03 0.  1.
         12    1    3    3    0    0  0.77732371787E+01 -0.28420519011E+01  0.22587979879E+02  0.24056544022E+02  0.00000000000E+00 0. -1.
</event>
<event>
 7    1  0.1220856E-011  0.5930194E+02  0.7816164E-02  0.1266605E+00
        -11   -1    0    0    0    0  0.00000000000E+00  0.00000000000E+00  0.45593999997E+02  0.45594000000E+02  0.51100000000E-03 0. -1.
         11   -1    0    0    0    0 -0.00000000000E+00 -0.00000000000E+00 -0.45593999997E+02  0.45594000000E+02  0.51100000000E-03 0.  1.
    9900012    2    1    2    0    0  0.98062158663E+01 -0.28957275441E+02  0.90573097333E+01  0.59301944581E+02  0.50000001010E+02 0.  0.
        -12    1    1    2    0    0 -0.98062158663E+01  0.28957275441E+02 -0.90573097333E+01  0.31886055419E+02  0.00000000000E+00 0.  1.
         11    1    3    3    0    0  0.12661254609E+02 -0.24888645307E+02  0.79244912969E+01  0.29026704878E+02  0.51100000000E-03 0. -1.
        -11    1    3    3    0    0  0.13263935740E+02 -0.47510584228E+01  0.12167622402E+01  0.14141607337E+02  0.51100000000E-03 0.  1.
        -12    1    3    3    0    0 -0.16118974483E+02  0.68242828949E+00 -0.83943803825E-01  0.16133632366E+02  0.00000000000E+00 0.  1.
</event>
<event>
 7    1  0.1220856E-011  0.5930193E+02  0.7816164E-02  0.1266605E+00
        -11   -1    0    0    0    0  0.00000000000E+00  0.00000000000E+00  0.45593999997E+02  0.45594000000E+02  0.51100000000E-03 0. -1.
         11   -1    0    0    0    0 -0.00000000000E+00 -0.00000000000E+00 -0.45593999997E+02  0.45594000000E+02  0.51100000000E-03 0.  1.
    9900012    2    1    2    0    0 -0.64056350067E+01  0.28437118334E+02  0.12923601603E+02  0.59301931923E+02  0.49999977925E+02 0.  0.
        -12    1    1    2    0    0  0.64056350067E+01 -0.28437118334E+02 -0.12923601603E+02  0.31886068077E+02  0.00000000000E+00 0.  1.
         11    1    3    3    0    0 -0.12634300831E+02  0.16261637134E+02 -0.44622207087E+00  0.20597706527E+02  0.51100000000E-03 0. -1.
        -11    1    3    3    0    0  0.82238094368E+01  0.31918052155E+01 -0.10150257699E+02  0.13447914106E+02  0.51100000000E-03 0.  1.
        -12    1    3    3    0    0 -0.19951436122E+01  0.89836759854E+01  0.23520081373E+02  0.25256311291E+02  0.00000000000E+00 0.  1.
</event>
<event>
 7    1  0.1220856E-011  0.5930197E+02  0.7816164E-02  0.1266605E+00
        -11   -1    0    0    0    0  0.00000000000E+00  0.00000000000E+00  0.45593999997E+02  0.45594000000E+02  0.51100000000E-03 0.  1.
         11   -1    0    0    0    0 -0.00000000000E+00 -0.00000000000E+00 -0.45593999997E+02  0.45594000000E+02  0.51100000000E-03 0. -1.
    9900012    2    1    2    0    0  0.77806100771E+01 -0.20114545616E+02 -0.23485864389E+02  0.59301973834E+02  0.50000054360E+02 0.  0.
        -12    1    1    2    0    0 -0.77806100771E+01  0.20114545616E+02  0.23485864389E+02  0.31886026166E+02  0.00000000000E+00 0.  1.
         11    1    3    3    0    0  0.91628048568E+01 -0.11294818029E+02 -0.91060691323E+01  0.17159557175E+02  0.51100000000E-03 0. -1.
        -11    1    3    3    0    0  0.12600660731E+02 -0.54666117415E+01  0.77352107262E+01  0.15763691827E+02  0.51100000000E-03 0.  1.
        -12    1    3    3    0    0 -0.13982855510E+02 -0.33531158460E+01 -0.22115005983E+02  0.26378724832E+02  0.00000000000E+00 0.  1.
</event>
<event>
 7    1  0.1220856E-011  0.5930175E+02  0.7816164E-02  0.1266605E+00
        -11   -1    0    0    0    0  0.00000000000E+00  0.00000000000E+00  0.45593999997E+02  0.45594000000E+02  0.51100000000E-03 0. -1.
         11   -1    0    0    0    0 -0.00000000000E+00 -0.00000000000E+00 -0.45593999997E+02  0.45594000000E+02  0.51100000000E-03 0.  1.
    9900012    2    1    2    0    0 -0.60853657820E+01 -0.25866834737E+02  0.17624078970E+02  0.59301749428E+02  0.49999645096E+02 0.  0.
        -12    1    1    2    0    0  0.60853657820E+01  0.25866834737E+02 -0.17624078970E+02  0.31886250572E+02  0.00000000000E+00 0.  1.
         11    1    3    3    0    0 -0.64753675268E+01  0.29222893188E+01  0.13343786442E+01  0.72284663724E+01  0.51100000000E-03 0. -1.
        -11    1    3    3    0    0  0.11050275577E+02 -0.20035439033E+01 -0.84738978929E+01  0.14068749918E+02  0.51100000000E-03 0.  1.
         12    1    3    3    0    0 -0.10660273832E+02 -0.26785580152E+02  0.24763598219E+02  0.38004533138E+02  0.00000000000E+00 0. -1.
</event>
<event>
 7    1  0.1220856E-011  0.5930193E+02  0.7816164E-02  0.1266605E+00
        -11   -1    0    0    0    0  0.00000000000E+00  0.00000000000E+00  0.45593999997E+02  0.45594000000E+02  0.51100000000E-03 0. -1.
         11   -1    0    0    0    0 -0.00000000000E+00 -0.00000000000E+00 -0.45593999997E+02  0.45594000000E+02  0.51100000000E-03 0.  1.
    9900012    2    1    2    0    0  0.20572443987E+02 -0.18308570251E+02  0.16071474095E+02  0.59301929753E+02  0.49999973966E+02 0.  0.
        -12    1    1    2    0    0 -0.20572443987E+02  0.18308570251E+02 -0.16071474095E+02  0.31886070247E+02  0.00000000000E+00 0.  1.
         11    1    3    3    0    0  0.68950316862E+01 -0.12442748917E+02  0.94482963340E+01  0.17077288029E+02  0.51100000000E-03 0. -1.
        -11    1    3    3    0    0  0.70879382470E+01  0.59322027402E+01 -0.14472317221E+02  0.17172008151E+02  0.51100000000E-03 0.  1.
         12    1    3    3    0    0  0.65894740535E+01 -0.11798024074E+02  0.21095494982E+02  0.25052633572E+02  0.00000000000E+00 0. -1.
</event>
<event>
 7    1  0.1220856E-011  0.5930191E+02  0.7816164E-02  0.1266605E+00
        -11   -1    0    0    0    0  0.00000000000E+00  0.00000000000E+00  0.45593999997E+02  0.45594000000E+02  0.51100000000E-03 0.  1.
         11   -1    0    0    0    0 -0.00000000000E+00 -0.00000000000E+00 -0.45593999997E+02  0.45594000000E+02  0.51100000000E-03 0. -1.
    9900012    2    1    2    0    0 -0.69810946070E+01 -0.26112029009E+02 -0.16915933356E+02  0.59301913031E+02  0.49999943470E+02 0.  0.
        -12    1    1    2    0    0  0.69810946070E+01  0.26112029009E+02  0.16915933356E+02  0.31886086969E+02  0.00000000000E+00 0.  1.
         11    1    3    3    0    0 -0.17061519756E+02 -0.19485821315E+02 -0.13528481127E+02  0.29220069996E+02  0.51100000000E-03 0. -1.
        -11    1    3    3    0    0  0.44306910209E+01 -0.16809304550E+02 -0.55282774874E+01  0.18241315595E+02  0.51100000000E-03 0.  1.
        -12    1    3    3    0    0  0.56497341280E+01  0.10183096856E+02  0.21408252585E+01  0.11840527441E+02  0.00000000000E+00 0.  1.
</event>
<event>
 7    1  0.1220856E-011  0.5930216E+02  0.7816164E-02  0.1266604E+00
        -11   -1    0    0    0    0  0.00000000000E+00  0.00000000000E+00  0.45593999997E+02  0.45594000000E+02  0.51100000000E-03 0.  1.
         11   -1    0    0    0    0 -0.00000000000E+00 -0.00000000000E+00 -0.45593999997E+02  0.45594000000E+02  0.51100000000E-03 0. -1.
    9900012    2    1    2    0    0  0.67015995382E+01 -0.15438527774E+02 -0.27082234865E+02  0.59302156409E+02  0.50000387331E+02 0.  0.
        -12    1    1    2    0    0 -0.67015995382E+01  0.15438527774E+02  0.27082234865E+02  0.31885843591E+02  0.00000000000E+00 0.  1.
         11    1    3    3    0    0 -0.10052452030E+02  0.37367172904E+00 -0.13159827307E+01  0.10145108831E+02  0.51100000000E-03 0. -1.
        -11    1    3    3    0    0 -0.59220874789E+00 -0.20283847755E+02 -0.35206756955E+01  0.20595639067E+02  0.51100000000E-03 0.  1.
         12    1    3    3    0    0  0.17346260316E+02  0.44716482524E+01 -0.22245576439E+02  0.28561408512E+02  0.00000000000E+00 0. -1.
</event>
<event>
 7    1  0.1220856E-011  0.5930195E+02  0.7816164E-02  0.1266605E+00
        -11   -1    0    0    0    0  0.00000000000E+00  0.00000000000E+00  0.45593999997E+02  0.45594000000E+02  0.51100000000E-03 0. -1.
         11   -1    0    0    0    0 -0.00000000000E+00 -0.00000000000E+00 -0.45593999997E+02  0.45594000000E+02  0.51100000000E-03 0.  1.
    9900012    2    1    2    0    0  0.10520164701E+02 -0.29847482015E+02  0.38954314334E+01  0.59301946089E+02  0.50000003758E+02 0.  0.
        -12    1    1    2    0    0 -0.10520164701E+02  0.29847482015E+02 -0.38954314334E+01  0.31886053911E+02  0.00000000000E+00 0.  1.
         11    1    3    3    0    0  0.89115743524E+01 -0.25178617619E+01 -0.59839611242E+00  0.92797555711E+01  0.51100000000E-03 0. -1.
        -11    1    3    3    0    0  0.17671233988E+01 -0.23547468722E+02 -0.16424538974E+02  0.28764065935E+02  0.51100000000E-03 0.  1.
         12    1    3    3    0    0 -0.15853305019E+00 -0.37821515313E+01  0.20918366520E+02  0.21258124583E+02  0.00000000000E+00 0. -1.
</event>
<event>
 7    1  0.1220856E-011  0.5930191E+02  0.7816164E-02  0.1266605E+00
        -11   -1    0    0    0    0  0.00000000000E+00  0.00000000000E+00  0.45593999997E+02  0.45594000000E+02  0.51100000000E-03 0.  1.
         11   -1    0    0    0    0 -0.00000000000E+00 -0.00000000000E+00 -0.45593999997E+02  0.45594000000E+02  0.51100000000E-03 0. -1.
    9900012    2    1    2    0    0 -0.24329901196E+02  0.10107125926E+02 -0.17961762288E+02  0.59301905991E+02  0.49999930629E+02 0.  0.
        -12    1    1    2    0    0  0.24329901196E+02 -0.10107125926E+02  0.17961762288E+02  0.31886094009E+02  0.00000000000E+00 0.  1.
         11    1    3    3    0    0  0.88582769162E+01  0.44758452375E+01  0.10785342758E+02  0.14656939625E+02  0.51100000000E-03 0.  1.
        -11    1    3    3    0    0 -0.18388973951E+02  0.51731120466E+00 -0.13787425531E+02  0.22989455776E+02  0.51100000000E-03 0. -1.
        -12    1    3    3    0    0 -0.14799204161E+02  0.51139694834E+01 -0.14959679515E+02  0.21655510589E+02  0.00000000000E+00 0.  1.
</event>
<event>
 7    1  0.1220856E-011  0.5930195E+02  0.7816164E-02  0.1266605E+00
        -11   -1    0    0    0    0  0.00000000000E+00  0.00000000000E+00  0.45593999997E+02  0.45594000000E+02  0.51100000000E-03 0.  1.
         11   -1    0    0    0    0 -0.00000000000E+00 -0.00000000000E+00 -0.45593999997E+02  0.45594000000E+02  0.51100000000E-03 0. -1.
    9900012    2    1    2    0    0 -0.30975084143E+02  0.71792593645E+01 -0.23921309813E+01  0.59301954568E+02  0.50000019223E+02 0.  0.
        -12    1    1    2    0    0  0.30975084143E+02 -0.71792593645E+01  0.23921309813E+01  0.31886045432E+02  0.00000000000E+00 0.  1.
         11    1    3    3    0    0 -0.85296837812E+01  0.12554920800E+02 -0.13837680837E+02  0.20539302640E+02  0.51100000000E-03 0. -1.
        -11    1    3    3    0    0 -0.36496597101E+01 -0.11083593535E+02 -0.54256212560E+01  0.12868699543E+02  0.51100000000E-03 0.  1.
        -12    1    3    3    0    0 -0.18795740651E+02  0.57079320987E+01  0.16871171112E+02  0.25893952386E+02  0.00000000000E+00 0.  1.
</event>
<event>
 7    1  0.1220856E-011  0.5930196E+02  0.7816164E-02  0.1266605E+00
        -11   -1    0    0    0    0  0.00000000000E+00  0.00000000000E+00  0.45593999997E+02  0.45594000000E+02  0.51100000000E-03 0.  1.
         11   -1    0    0    0    0 -0.00000000000E+00 -0.00000000000E+00 -0.45593999997E+02  0.45594000000E+02  0.51100000000E-03 0. -1.
    9900012    2    1    2    0    0  0.46874763670E+01 -0.10085711570E+02 -0.29883535438E+02  0.59301957555E+02  0.50000024670E+02 0.  0.
        -12    1    1    2    0    0 -0.46874763670E+01  0.10085711570E+02  0.29883535438E+02  0.31886042445E+02  0.00000000000E+00 0.  1.
         11    1    3    3    0    0  0.12939793733E+02  0.19092478000E+01 -0.17370618509E+02  0.21744467725E+02  0.51100000000E-03 0. -1.
        -11    1    3    3    0    0  0.40135191302E+01 -0.14874020074E+02  0.48081118726E+01  0.16138858355E+02  0.51100000000E-03 0.  1.
         12    1    3    3    0    0 -0.12265836496E+02  0.28790607039E+01 -0.17321028801E+02  0.21418631474E+02  0.00000000000E+00 0. -1.
</event>
<event>
 7    1  0.1220856E-011  0.5930193E+02  0.7816164E-02  0.1266605E+00
        -11   -1    0    0    0    0  0.00000000000E+00  0.00000000000E+00  0.45593999997E+02  0.45594000000E+02  0.51100000000E-03 0.  1.
         11   -1    0    0    0    0 -0.00000000000E+00 -0.00000000000E+00 -0.45593999997E+02  0.45594000000E+02  0.51100000000E-03 0. -1.
    9900012    2    1    2    0    0  0.63721907603E+01  0.93346009489E+01 -0.29815801579E+02  0.59301927590E+02  0.49999970021E+02 0.  0.
        -12    1    1    2    0    0 -0.63721907603E+01 -0.93346009489E+01  0.29815801579E+02  0.31886072410E+02  0.00000000000E+00 0.  1.
         11    1    3    3    0    0 -0.31476225629E+01  0.13347808709E+02 -0.28520236294E+02  0.31646096183E+02  0.51100000000E-03 0. -1.
        -11    1    3    3    0    0  0.10786127202E+01  0.92505140611E+01  0.51750199277E+01  0.10654400373E+02  0.51100000000E-03 0.  1.
        -12    1    3    3    0    0  0.84412006030E+01 -0.13263721822E+02 -0.64705852130E+01  0.17001431033E+02  0.00000000000E+00 0.  1.
</event>
<event>
 7    1  0.1220856E-011  0.5930194E+02  0.7816164E-02  0.1266605E+00
        -11   -1    0    0    0    0  0.00000000000E+00  0.00000000000E+00  0.45593999997E+02  0.45594000000E+02  0.51100000000E-03 0. -1.
         11   -1    0    0    0    0 -0.00000000000E+00 -0.00000000000E+00 -0.45593999997E+02  0.45594000000E+02  0.51100000000E-03 0.  1.
    9900012    2    1    2    0    0 -0.22537455881E+02 -0.21395764968E+02  0.71417738215E+01  0.59301943338E+02  0.49999998742E+02 0.  0.
        -12    1    1    2    0    0  0.22537455881E+02  0.21395764968E+02 -0.71417738215E+01  0.31886056662E+02  0.00000000000E+00 0.  1.
         11    1    3    3    0    0 -0.27837602694E+02 -0.17015119075E+02 -0.37140698676E+01  0.32836575890E+02  0.51100000000E-03 0. -1.
        -11    1    3    3    0    0 -0.64117586172E+01 -0.93334274169E+01  0.39343927682E+01  0.11987617054E+02  0.51100000000E-03 0.  1.
        -12    1    3    3    0    0  0.11711905430E+02  0.49527815239E+01  0.69214509210E+01  0.14477750395E+02  0.00000000000E+00 0.  1.
</event>
<event>
 7    1  0.1220856E-011  0.5930195E+02  0.7816164E-02  0.1266605E+00
        -11   -1    0    0    0    0  0.00000000000E+00  0.00000000000E+00  0.45593999997E+02  0.45594000000E+02  0.51100000000E-03 0.  1.
         11   -1    0    0    0    0 -0.00000000000E+00 -0.00000000000E+00 -0.45593999997E+02  0.45594000000E+02  0.51100000000E-03 0. -1.
    9900012    2    1    2    0    0  0.14264986495E+02  0.21329807839E+02 -0.18928018740E+02  0.59301946065E+02  0.50000003715E+02 0.  0.
        -12    1    1    2    0    0 -0.14264986495E+02 -0.21329807839E+02  0.18928018740E+02  0.31886053935E+02  0.00000000000E+00 0.  1.
         11    1    3    3    0    0  0.15752706521E+02  0.40708828915E+01 -0.66977311940E+01  0.17594870095E+02  0.51100000000E-03 0. -1.
        -11    1    3    3    0    0  0.17478350150E+01 -0.53613787335E+01  0.89315300575E+01  0.10562742948E+02  0.51100000000E-03 0.  1.
         12    1    3    3    0    0 -0.32355550411E+01  0.22620303681E+02 -0.21161817604E+02  0.31144333021E+02  0.00000000000E+00 0. -1.
</event>
<event>
 7    1  0.1220856E-011  0.5930221E+02  0.7816164E-02  0.1266604E+00
        -11   -1    0    0    0    0  0.00000000000E+00  0.00000000000E+00  0.45593999997E+02  0.45594000000E+02  0.51100000000E-03 0. -1.
         11   -1    0    0    0    0 -0.00000000000E+00 -0.00000000000E+00 -0.45593999997E+02  0.45594000000E+02  0.51100000000E-03 0.  1.
    9900012    2    1    2    0    0 -0.26277182936E+02  0.12717351177E+02 -0.12825063049E+02  0.59302209964E+02  0.50000485002E+02 0.  0.
        -12    1    1    2    0    0  0.26277182936E+02 -0.12717351177E+02  0.12825063049E+02  0.31885790036E+02  0.00000000000E+00 0.  1.
         11    1    3    3    0    0 -0.61873327655E+01  0.17002556361E+02  0.83489169596E+01  0.19926726380E+02  0.51100000000E-03 0. -1.
        -11    1    3    3    0    0 -0.13987265714E+02  0.45314460951E+01  0.10083250414E+01  0.14737514225E+02  0.51100000000E-03 0.  1.
        -12    1    3    3    0    0 -0.61025844558E+01 -0.88166512790E+01 -0.22182305050E+02  0.24637969359E+02  0.00000000000E+00 0.  1.
</event>
<event>
 7    1  0.1220856E-011  0.5930195E+02  0.7816164E-02  0.1266605E+00
        -11   -1    0    0    0    0  0.00000000000E+00  0.00000000000E+00  0.45593999997E+02  0.45594000000E+02  0.51100000000E-03 0.  1.
         11   -1    0    0    0    0 -0.00000000000E+00 -0.00000000000E+00 -0.45593999997E+02  0.45594000000E+02  0.51100000000E-03 0. -1.
    9900012    2    1    2    0    0  0.86775094677E+00  0.30204411324E+02 -0.10181403299E+02  0.59301946179E+02  0.50000003924E+02 0.  0.
        -12    1    1    2    0    0 -0.86775094677E+00 -0.30204411324E+02  0.10181403299E+02  0.31886053821E+02  0.00000000000E+00 0.  1.
         11    1    3    3    0    0 -0.75364956546E+01  0.10178358043E+02 -0.90803352205E+01  0.15583652562E+02  0.51100000000E-03 0. -1.
        -11    1    3    3    0    0  0.63082145188E+01  0.28934030261E+02 -0.96990775680E+01  0.31161575433E+02  0.51100000000E-03 0.  1.
         12    1    3    3    0    0  0.20960320825E+01 -0.89079769799E+01  0.85980094900E+01  0.12556718184E+02  0.00000000000E+00 0. -1.
</event>
<event>
 7    1  0.1220856E-011  0.5930195E+02  0.7816164E-02  0.1266605E+00
        -11   -1    0    0    0    0  0.00000000000E+00  0.00000000000E+00  0.45593999997E+02  0.45594000000E+02  0.51100000000E-03 0.  1.
         11   -1    0    0    0    0 -0.00000000000E+00 -0.00000000000E+00 -0.45593999997E+02  0.45594000000E+02  0.51100000000E-03 0. -1.
    9900012    2    1    2    0    0 -0.30639485958E+02 -0.24604033596E+01 -0.84787101986E+01  0.59301949585E+02  0.50000010135E+02 0.  0.
        -12    1    1    2    0    0  0.30639485958E+02  0.24604033596E+01  0.84787101986E+01  0.31886050415E+02  0.00000000000E+00 0.  1.
         11    1    3    3    0    0 -0.18078247055E+02  0.83796911307E+01 -0.13760567305E+02  0.24215603499E+02  0.51100000000E-03 0. -1.
        -11    1    3    3    0    0  0.36025650789E+01  0.91088832862E+00 -0.95188134194E+01  0.10218414841E+02  0.51100000000E-03 0.  1.
         12    1    3    3    0    0 -0.16163803982E+02 -0.11750982819E+02  0.14800670525E+02  0.24867931245E+02  0.00000000000E+00 0. -1.
</event>
<event>
 7    1  0.1220856E-011  0.5930195E+02  0.7816164E-02  0.1266605E+00
        -11   -1    0    0    0    0  0.00000000000E+00  0.00000000000E+00  0.45593999997E+02  0.45594000000E+02  0.51100000000E-03 0. -1.
         11   -1    0    0    0    0 -0.00000000000E+00 -0.00000000000E+00 -0.45593999997E+02  0.45594000000E+02  0.51100000000E-03 0.  1.
    9900012    2    1    2    0    0 -0.96062666727E+01 -0.20133058890E+02  0.22783760983E+02  0.59301950006E+02  0.50000010904E+02 0.  0.
        -12    1    1    2    0    0  0.96062666727E+01  0.20133058890E+02 -0.22783760983E+02  0.31886049994E+02  0.00000000000E+00 0.  1.
         11    1    3    3    0    0  0.20483560345E+01 -0.28024918495E+01  0.17455038989E+02  0.17796856728E+02  0.51100000000E-03 0.  1.
        -11    1    3    3    0    0 -0.14793175838E+02 -0.26559625886E+02  0.79243625639E+01  0.31417308938E+02  0.51100000000E-03 0. -1.
         12    1    3    3    0    0  0.31385531308E+01  0.92290588458E+01 -0.25956405699E+01  0.10087784341E+02  0.00000000000E+00 0. -1.
</event>
<event>
 7    1  0.1220856E-011  0.5930195E+02  0.7816164E-02  0.1266605E+00
        -11   -1    0    0    0    0  0.00000000000E+00  0.00000000000E+00  0.45593999997E+02  0.45594000000E+02  0.51100000000E-03 0.  1.
         11   -1    0    0    0    0 -0.00000000000E+00 -0.00000000000E+00 -0.45593999997E+02  0.45594000000E+02  0.51100000000E-03 0. -1.
    9900012    2    1    2    0    0 -0.20934991577E+02 -0.57823952928E+01 -0.23345452962E+02  0.59301950674E+02  0.50000012121E+02 0.  0.
        -12    1    1    2    0    0  0.20934991577E+02  0.57823952928E+01  0.23345452962E+02  0.31886049326E+02  0.00000000000E+00 0.  1.
         11    1    3    3    0    0  0.47671460731E+01 -0.33630683509E+01  0.17069780282E+01  0.60786252282E+01  0.51100000000E-03 0. -1.
        -11    1    3    3    0    0 -0.11403228163E+02  0.38536441481E+00  0.10057518531E+02  0.15209727069E+02  0.51100000000E-03 0.  1.
         12    1    3    3    0    0 -0.14298909487E+02 -0.28046913566E+01 -0.35109949521E+02  0.38013598376E+02  0.00000000000E+00 0. -1.
</event>
<event>
 7    1  0.1220856E-011  0.5930195E+02  0.7816164E-02  0.1266605E+00
        -11   -1    0    0    0    0  0.00000000000E+00  0.00000000000E+00  0.45593999997E+02  0.45594000000E+02  0.51100000000E-03 0.  1.
         11   -1    0    0    0    0 -0.00000000000E+00 -0.00000000000E+00 -0.45593999997E+02  0.45594000000E+02  0.51100000000E-03 0. -1.
    9900012    2    1    2    0    0 -0.25013575848E+02 -0.11977030891E+02 -0.15735044374E+02  0.59301954978E+02  0.50000019971E+02 0.  0.
        -12    1    1    2    0    0  0.25013575848E+02  0.11977030891E+02  0.15735044374E+02  0.31886045022E+02  0.00000000000E+00 0.  1.
         11    1    3    3    0    0  0.11323928849E+01 -0.97181778451E+00 -0.70109206223E+01  0.71679670538E+01  0.51100000000E-03 0. -1.
        -11    1    3    3    0    0 -0.81147336045E+01 -0.26119069856E+02 -0.83733922373E+01  0.28603643289E+02  0.51100000000E-03 0.  1.
        -12    1    3    3    0    0 -0.18031235128E+02  0.15113856749E+02 -0.35073151430E+00  0.23530344635E+02  0.00000000000E+00 0.  1.
</event>
<event>
 7    1  0.1220856E-011  0.5930193E+02  0.7816164E-02  0.1266605E+00
        -11   -1    0    0    0    0  0.00000000000E+00  0.00000000000E+00  0.45593999997E+02  0.45594000000E+02  0.51100000000E-03 0.  1.
         11   -1    0    0    0    0 -0.00000000000E+00 -0.00000000000E+00 -0.45593999997E+02  0.45594000000E+02  0.51100000000E-03 0. -1.
    9900012    2    1    2    0    0  0.11102453127E+02 -0.28770209760E+02 -0.81075483245E+01  0.59301925063E+02  0.49999965413E+02 0.  0.
        -12    1    1    2    0    0 -0.11102453127E+02  0.28770209760E+02  0.81075483245E+01  0.31886074937E+02  0.00000000000E+00 0.  1.
         11    1    3    3    0    0  0.26281231332E+02 -0.25986487870E+02 -0.20653257906E+01  0.37017107438E+02  0.51100000000E-03 0.  1.
        -11    1    3    3    0    0 -0.13983471197E+01 -0.62591927998E+01 -0.48153848183E+01  0.80200249614E+01  0.51100000000E-03 0. -1.
        -12    1    3    3    0    0 -0.13780431086E+02  0.34754709103E+01 -0.12268377156E+01  0.14264792663E+02  0.00000000000E+00 0.  1.
</event>
<event>
 7    1  0.1220856E-011  0.5930183E+02  0.7816164E-02  0.1266605E+00
        -11   -1    0    0    0    0  0.00000000000E+00  0.00000000000E+00  0.45593999997E+02  0.45594000000E+02  0.51100000000E-03 0. -1.
         11   -1    0    0    0    0 -0.00000000000E+00 -0.00000000000E+00 -0.45593999997E+02  0.45594000000E+02  0.51100000000E-03 0.  1.
    9900012    2    1    2    0    0 -0.28882929171E+00 -0.15633967959E+02  0.27788905008E+02  0.59301833438E+02  0.49999798310E+02 0.  0.
        -12    1    1    2    0    0  0.28882929171E+00  0.15633967959E+02 -0.27788905008E+02  0.31886166562E+02  0.00000000000E+00 0.  1.
         11    1    3    3    0    0 -0.16655063659E+01  0.31972515595E+00 -0.40872655505E+00  0.17444750753E+01  0.51100000000E-03 0. -1.
        -11    1    3    3    0    0  0.39496620656E+01  0.11898167148E+02  0.26758763900E+02  0.29549918065E+02  0.51100000000E-03 0.  1.
        -12    1    3    3    0    0 -0.25729849913E+01 -0.27851860263E+02  0.14388676630E+01  0.28007440297E+02  0.00000000000E+00 0.  1.
</event>
<event>
 7    1  0.1220856E-011  0.5930194E+02  0.7816164E-02  0.1266605E+00
        -11   -1    0    0    0    0  0.00000000000E+00  0.00000000000E+00  0.45593999997E+02  0.45594000000E+02  0.51100000000E-03 0. -1.
         11   -1    0    0    0    0 -0.00000000000E+00 -0.00000000000E+00 -0.45593999997E+02  0.45594000000E+02  0.51100000000E-03 0.  1.
    9900012    2    1    2    0    0 -0.31426272729E+02  0.76216764406E+00 -0.53412571190E+01  0.59301944352E+02  0.50000000591E+02 0.  0.
        -12    1    1    2    0    0  0.31426272729E+02 -0.76216764406E+00  0.53412571190E+01  0.31886055648E+02  0.00000000000E+00 0.  1.
         11    1    3    3    0    0 -0.18742752843E+02 -0.25052604649E+01  0.17681059481E+02  0.25887969769E+02  0.51100000000E-03 0. -1.
        -11    1    3    3    0    0  0.24686543800E+01 -0.41918731458E+01 -0.43450969133E-02  0.48647789322E+01  0.51100000000E-03 0.  1.
        -12    1    3    3    0    0 -0.15152174267E+02  0.74593012547E+01 -0.23017971503E+02  0.28549195651E+02  0.00000000000E+00 0.  1.
</event>
<event>
 7    1  0.1220856E-011  0.5930195E+02  0.7816164E-02  0.1266605E+00
        -11   -1    0    0    0    0  0.00000000000E+00  0.00000000000E+00  0.45593999997E+02  0.45594000000E+02  0.51100000000E-03 0. -1.
         11   -1    0    0    0    0 -0.00000000000E+00 -0.00000000000E+00 -0.45593999997E+02  0.45594000000E+02  0.51100000000E-03 0.  1.
    9900012    2    1    2    0    0 -0.29827443094E+02  0.49455251475E+01 -0.10128460935E+02  0.59301948168E+02  0.50000007551E+02 0.  0.
        -12    1    1    2    0    0  0.29827443094E+02 -0.49455251475E+01  0.10128460935E+02  0.31886051832E+02  0.00000000000E+00 0.  1.
         11    1    3    3    0    0  0.41373564514E+01  0.34130097711E+00 -0.13154386261E+02  0.13793914706E+02  0.51100000000E-03 0. -1.
        -11    1    3    3    0    0 -0.28737273610E+02 -0.59407614685E+01 -0.68615603356E+01  0.30136432302E+02  0.51100000000E-03 0.  1.
         12    1    3    3    0    0 -0.52275259352E+01  0.10544985639E+02  0.98874856614E+01  0.15371601160E+02  0.00000000000E+00 0. -1.
</event>
<event>
 7    1  0.1220856E-011  0.5930188E+02  0.7816164E-02  0.1266605E+00
        -11   -1    0    0    0    0  0.00000000000E+00  0.00000000000E+00  0.45593999997E+02  0.45594000000E+02  0.51100000000E-03 0.  1.
         11   -1    0    0    0    0 -0.00000000000E+00 -0.00000000000E+00 -0.45593999997E+02  0.45594000000E+02  0.51100000000E-03 0. -1.
    9900012    2    1    2    0    0  0.10342621000E+02  0.20190216756E+02 -0.22407808709E+02  0.59301881501E+02  0.49999885966E+02 0.  0.
        -12    1    1    2    0    0 -0.10342621000E+02 -0.20190216756E+02  0.22407808709E+02  0.31886118499E+02  0.00000000000E+00 0.  1.
         11    1    3    3    0    0 -0.66757779195E+01 -0.89262201797E+01 -0.56619445346E+01  0.12502041181E+02  0.51100000000E-03 0. -1.
        -11    1    3    3    0    0  0.16696136389E+02  0.95376810896E+01  0.24439914288E+01  0.19383018992E+02  0.51100000000E-03 0.  1.
         12    1    3    3    0    0  0.32226252990E+00  0.19578755846E+02 -0.19189855603E+02  0.27416821327E+02  0.00000000000E+00 0. -1.
</event>
<event>
 7    1  0.1220856E-011  0.5930195E+02  0.7816164E-02  0.1266605E+00
        -11   -1    0    0    0    0  0.00000000000E+00  0.00000000000E+00  0.45593999997E+02  0.45594000000E+02  0.51100000000E-03 0.  1.
         11   -1    0    0    0    0 -0.00000000000E+00 -0.00000000000E+00 -0.45593999997E+02  0.45594000000E+02  0.51100000000E-03 0. -1.
    9900012    2    1    2    0    0  0.22647640673E+02 -0.74873809151E+00 -0.22433096273E+02  0.59301952186E+02  0.50000014880E+02 0.  0.
        -12    1    1    2    0    0 -0.22647640673E+02  0.74873809151E+00  0.22433096273E+02  0.31886047814E+02  0.00000000000E+00 0.  1.
         11    1    3    3    0    0  0.63796972583E+01 -0.12653311905E+02  0.13794294497E+01  0.14237614447E+02  0.51100000000E-03 0. -1.
        -11    1    3    3    0    0  0.10373518793E+02 -0.10515198099E+02 -0.12086619542E+02  0.19085744823E+02  0.51100000000E-03 0.  1.
        -12    1    3    3    0    0  0.58944246210E+01  0.22419771912E+02 -0.11725906180E+02  0.25978592917E+02  0.00000000000E+00 0.  1.
</event>
<event>
 7    1  0.1220856E-011  0.5930195E+02  0.7816164E-02  0.1266605E+00
        -11   -1    0    0    0    0  0.00000000000E+00  0.00000000000E+00  0.45593999997E+02  0.45594000000E+02  0.51100000000E-03 0.  1.
         11   -1    0    0    0    0 -0.00000000000E+00 -0.00000000000E+00 -0.45593999997E+02  0.45594000000E+02  0.51100000000E-03 0. -1.
    9900012    2    1    2    0    0  0.29014101826E+02 -0.10951454560E+02  0.74140100907E+01  0.59301952779E+02  0.50000015960E+02 0.  0.
        -12    1    1    2    0    0 -0.29014101826E+02  0.10951454560E+02 -0.74140100907E+01  0.31886047221E+02  0.00000000000E+00 0.  1.
         11    1    3    3    0    0  0.14711379726E+02  0.13021872953E+02  0.10677859935E+02  0.22360915940E+02  0.51100000000E-03 0.  1.
        -11    1    3    3    0    0  0.13902175984E+02 -0.27919225378E+01  0.36753499521E+01  0.14648328440E+02  0.51100000000E-03 0. -1.
        -12    1    3    3    0    0  0.40054611605E+00 -0.21181404975E+02 -0.69391997966E+01  0.22292708398E+02  0.00000000000E+00 0.  1.
</event>
<event>
 7    1  0.1220856E-011  0.5930196E+02  0.7816164E-02  0.1266605E+00
        -11   -1    0    0    0    0  0.00000000000E+00  0.00000000000E+00  0.45593999997E+02  0.45594000000E+02  0.51100000000E-03 0. -1.
         11   -1    0    0    0    0 -0.00000000000E+00 -0.00000000000E+00 -0.45593999997E+02  0.45594000000E+02  0.51100000000E-03 0.  1.
    9900012    2    1    2    0    0  0.24714364690E+02 -0.19991786580E+02  0.24996672076E+01  0.59301957774E+02  0.50000025070E+02 0.  0.
        -12    1    1    2    0    0 -0.24714364690E+02  0.19991786580E+02 -0.24996672076E+01  0.31886042226E+02  0.00000000000E+00 0.  1.
         11    1    3    3    0    0  0.12612753639E+02 -0.12256039411E+02  0.11177483787E+02  0.20838142923E+02  0.51100000000E-03 0. -1.
        -11    1    3    3    0    0  0.22349454151E+02 -0.62898412498E+00 -0.12246175938E+02  0.25492401755E+02  0.51100000000E-03 0.  1.
        -12    1    3    3    0    0 -0.10247843101E+02 -0.71067630443E+01  0.35683593585E+01  0.12971413096E+02  0.00000000000E+00 0.  1.
</event>
<event>
 7    1  0.1220856E-011  0.5930193E+02  0.7816164E-02  0.1266605E+00
        -11   -1    0    0    0    0  0.00000000000E+00  0.00000000000E+00  0.45593999997E+02  0.45594000000E+02  0.51100000000E-03 0.  1.
         11   -1    0    0    0    0 -0.00000000000E+00 -0.00000000000E+00 -0.45593999997E+02  0.45594000000E+02  0.51100000000E-03 0. -1.
    9900012    2    1    2    0    0 -0.76489863318E+01  0.15971657520E+02 -0.26516422668E+02  0.59301929264E+02  0.49999973075E+02 0.  0.
        -12    1    1    2    0    0  0.76489863318E+01 -0.15971657520E+02  0.26516422668E+02  0.31886070736E+02  0.00000000000E+00 0.  1.
         11    1    3    3    0    0 -0.51598742257E+01  0.69941573364E+01  0.10798504577E+02  0.13861826728E+02  0.51100000000E-03 0. -1.
        -11    1    3    3    0    0  0.80263535598E+01 -0.11531041410E+01 -0.39492778247E+01  0.90193567523E+01  0.51100000000E-03 0.  1.
         12    1    3    3    0    0 -0.10515465666E+02  0.10130604324E+02 -0.33365649421E+02  0.36420745784E+02  0.00000000000E+00 0. -1.
</event>
<event>
 7    1  0.1220856E-011  0.5930195E+02  0.7816164E-02  0.1266605E+00
        -11   -1    0    0    0    0  0.00000000000E+00  0.00000000000E+00  0.45593999997E+02  0.45594000000E+02  0.51100000000E-03 0.  1.
         11   -1    0    0    0    0 -0.00000000000E+00 -0.00000000000E+00 -0.45593999997E+02  0.45594000000E+02  0.51100000000E-03 0. -1.
    9900012    2    1    2    0    0  0.78603702226E+01 -0.15835207807E+02 -0.26536411727E+02  0.59301947035E+02  0.50000005485E+02 0.  0.
        -12    1    1    2    0    0 -0.78603702226E+01  0.15835207807E+02  0.26536411727E+02  0.31886052965E+02  0.00000000000E+00 0.  1.
         11    1    3    3    0    0 -0.26936173871E+01 -0.12869503908E+02  0.21942449554E+01  0.13330206924E+02  0.51100000000E-03 0. -1.
        -11    1    3    3    0    0 -0.93322713419E+01 -0.19492873144E+01  0.16218270163E+01  0.96706428206E+01  0.51100000000E-03 0.  1.
        -12    1    3    3    0    0  0.19886258952E+02 -0.10164165851E+01 -0.30352483699E+02  0.36301097290E+02  0.00000000000E+00 0.  1.
</event>
<event>
 7    1  0.1220856E-011  0.5930194E+02  0.7816164E-02  0.1266605E+00
        -11   -1    0    0    0    0  0.00000000000E+00  0.00000000000E+00  0.45593999997E+02  0.45594000000E+02  0.51100000000E-03 0. -1.
         11   -1    0    0    0    0 -0.00000000000E+00 -0.00000000000E+00 -0.45593999997E+02  0.45594000000E+02  0.51100000000E-03 0.  1.
    9900012    2    1    2    0    0 -0.24230624527E+02  0.14562000518E+02  0.14749434139E+02  0.59301939856E+02  0.49999992391E+02 0.  0.
        -12    1    1    2    0    0  0.24230624527E+02 -0.14562000518E+02 -0.14749434139E+02  0.31886060144E+02  0.00000000000E+00 0.  1.
         11    1    3    3    0    0  0.10502250971E+01  0.13754302325E+02  0.25494857925E+01  0.14027960766E+02  0.51100000000E-03 0. -1.
        -11    1    3    3    0    0 -0.15814164004E+01  0.52070838876E+01 -0.10713721030E+02  0.12016589325E+02  0.51100000000E-03 0.  1.
         12    1    3    3    0    0 -0.23699433224E+02 -0.43993856939E+01  0.22913669377E+02  0.33257389764E+02  0.00000000000E+00 0. -1.
</event>
<event>
 7    1  0.1220856E-011  0.5930194E+02  0.7816164E-02  0.1266605E+00
        -11   -1    0    0    0    0  0.00000000000E+00  0.00000000000E+00  0.45593999997E+02  0.45594000000E+02  0.51100000000E-03 0.  1.
         11   -1    0    0    0    0 -0.00000000000E+00 -0.00000000000E+00 -0.45593999997E+02  0.45594000000E+02  0.51100000000E-03 0. -1.
    9900012    2    1    2    0    0  0.24138051670E+02  0.20514912750E+02  0.36350510408E+01  0.59301940670E+02  0.49999993876E+02 0.  0.
        -12    1    1    2    0    0 -0.24138051670E+02 -0.20514912750E+02 -0.36350510408E+01  0.31886059330E+02  0.00000000000E+00 0.  1.
         11    1    3    3    0    0  0.35268009959E+01 -0.14533099957E+02 -0.25436434557E+01  0.15169688261E+02  0.51100000000E-03 0. -1.
        -11    1    3    3    0    0  0.47718677293E+01 -0.33940023217E+00 -0.42722171794E+00  0.48029608369E+01  0.51100000000E-03 0.  1.
        -12    1    3    3    0    0  0.15839382944E+02  0.35387412939E+02  0.66059162145E+01  0.39329291573E+02  0.00000000000E+00 0.  1.
</event>
<event>
 7    1  0.1220856E-011  0.5930192E+02  0.7816164E-02  0.1266605E+00
        -11   -1    0    0    0    0  0.00000000000E+00  0.00000000000E+00  0.45593999997E+02  0.45594000000E+02  0.51100000000E-03 0.  1.
         11   -1    0    0    0    0 -0.00000000000E+00 -0.00000000000E+00 -0.45593999997E+02  0.45594000000E+02  0.51100000000E-03 0. -1.
    9900012    2    1    2    0    0 -0.10078417716E+02 -0.28976256274E+02 -0.86904625093E+01  0.59301920436E+02  0.49999956975E+02 0.  0.
        -12    1    1    2    0    0  0.10078417716E+02  0.28976256274E+02  0.86904625093E+01  0.31886079564E+02  0.00000000000E+00 0.  1.
         11    1    3    3    0    0  0.96012081705E+01  0.53361676172E+01 -0.64896954098E+01  0.12758292595E+02  0.51100000000E-03 0. -1.
        -11    1    3    3    0    0 -0.77857192387E+01 -0.55123580371E+01  0.93065659993E+01  0.13327253511E+02  0.51100000000E-03 0.  1.
        -12    1    3    3    0    0 -0.11893906648E+02 -0.28800065854E+02 -0.11507333099E+02  0.33216374330E+02  0.00000000000E+00 0.  1.
</event>
<event>
 7    1  0.1220856E-011  0.5930194E+02  0.7816164E-02  0.1266605E+00
        -11   -1    0    0    0    0  0.00000000000E+00  0.00000000000E+00  0.45593999997E+02  0.45594000000E+02  0.51100000000E-03 0.  1.
         11   -1    0    0    0    0 -0.00000000000E+00 -0.00000000000E+00 -0.45593999997E+02  0.45594000000E+02  0.51100000000E-03 0. -1.
    9900012    2    1    2    0    0 -0.14243202331E+02  0.18721623910E+01 -0.28466595578E+02  0.59301939276E+02  0.49999991334E+02 0.  0.
        -12    1    1    2    0    0  0.14243202331E+02 -0.18721623910E+01  0.28466595578E+02  0.31886060724E+02  0.00000000000E+00 0.  1.
         11    1    3    3    0    0 -0.79435086697E+01  0.87238333467E+01  0.40186572877E+00  0.11805341781E+02  0.51100000000E-03 0. -1.
        -11    1    3    3    0    0 -0.18532921009E+02 -0.11618046490E+02 -0.89351433461E+01  0.23628054347E+02  0.51100000000E-03 0.  1.
         12    1    3    3    0    0  0.12233227347E+02  0.47663755340E+01 -0.19933317961E+02  0.23868543148E+02  0.00000000000E+00 0. -1.
</event>
<event>
 7    1  0.1220856E-011  0.5930193E+02  0.7816164E-02  0.1266605E+00
        -11   -1    0    0    0    0  0.00000000000E+00  0.00000000000E+00  0.45593999997E+02  0.45594000000E+02  0.51100000000E-03 0.  1.
         11   -1    0    0    0    0 -0.00000000000E+00 -0.00000000000E+00 -0.45593999997E+02  0.45594000000E+02  0.51100000000E-03 0. -1.
    9900012    2    1    2    0    0 -0.29304765785E+02  0.64728453844E+01 -0.10772860620E+02  0.59301928574E+02  0.49999971815E+02 0.  0.
        -12    1    1    2    0    0  0.29304765785E+02 -0.64728453844E+01  0.10772860620E+02  0.31886071426E+02  0.00000000000E+00 0.  1.
         11    1    3    3    0    0  0.22459732170E+01  0.22550083155E+00 -0.13267426146E+02  0.13458077245E+02  0.51100000000E-03 0. -1.
        -11    1    3    3    0    0  0.28228845481E+01 -0.45854151668E+01  0.77349699373E+01  0.94246734487E+01  0.51100000000E-03 0.  1.
        -12    1    3    3    0    0 -0.34373623550E+02  0.10832759720E+02 -0.52404044114E+01  0.36419177880E+02  0.00000000000E+00 0.  1.
</event>
<event>
 7    1  0.1220856E-011  0.5930191E+02  0.7816164E-02  0.1266605E+00
        -11   -1    0    0    0    0  0.00000000000E+00  0.00000000000E+00  0.45593999997E+02  0.45594000000E+02  0.51100000000E-03 0. -1.
         11   -1    0    0    0    0 -0.00000000000E+00 -0.00000000000E+00 -0.45593999997E+02  0.45594000000E+02  0.51100000000E-03 0.  1.
    9900012    2    1    2    0    0  0.21557690146E+02  0.80880031178E+01  0.22058394472E+02  0.59301912665E+02  0.49999942802E+02 0.  0.
        -12    1    1    2    0    0 -0.21557690146E+02 -0.80880031178E+01 -0.22058394472E+02  0.31886087335E+02  0.00000000000E+00 0.  1.
         11    1    3    3    0    0  0.11989408430E+02 -0.19860764759E+01  0.18167443834E+02  0.21857411329E+02  0.51100000000E-03 0. -1.
        -11    1    3    3    0    0  0.16133054025E+02 -0.61655132965E+01 -0.47506932489E+01  0.17912511632E+02  0.51100000000E-03 0.  1.
        -12    1    3    3    0    0 -0.65647723093E+01  0.16239592890E+02  0.86416438878E+01  0.19531989704E+02  0.00000000000E+00 0.  1.
</event>
<event>
 7    1  0.1220856E-011  0.5930195E+02  0.7816164E-02  0.1266605E+00
        -11   -1    0    0    0    0  0.00000000000E+00  0.00000000000E+00  0.45593999997E+02  0.45594000000E+02  0.51100000000E-03 0.  1.
         11   -1    0    0    0    0 -0.00000000000E+00 -0.00000000000E+00 -0.45593999997E+02  0.45594000000E+02  0.51100000000E-03 0. -1.
    9900012    2    1    2    0    0 -0.66401600659E+01  0.20710188863E+02 -0.23317724429E+02  0.59301954134E+02  0.50000018431E+02 0.  0.
        -12    1    1    2    0    0  0.66401600659E+01 -0.20710188863E+02  0.23317724429E+02  0.31886045866E+02  0.00000000000E+00 0.  1.
         11    1    3    3    0    0  0.11123594078E+02  0.20904608678E+02  0.33733702272E+01  0.23918959763E+02  0.51100000000E-03 0. -1.
        -11    1    3    3    0    0 -0.54301605686E+01  0.51942201452E+01 -0.29118446171E+01  0.80588712642E+01  0.51100000000E-03 0.  1.
        -12    1    3    3    0    0 -0.12333593575E+02 -0.53886399611E+01 -0.23779250039E+02  0.27324123106E+02  0.00000000000E+00 0.  1.
</event>
<event>
 7    1  0.1220856E-011  0.5930187E+02  0.7816164E-02  0.1266605E+00
        -11   -1    0    0    0    0  0.00000000000E+00  0.00000000000E+00  0.45593999997E+02  0.45594000000E+02  0.51100000000E-03 0.  1.
         11   -1    0    0    0    0 -0.00000000000E+00 -0.00000000000E+00 -0.45593999997E+02  0.45594000000E+02  0.51100000000E-03 0. -1.
    9900012    2    1    2    0    0  0.10798165133E+01  0.25671720866E+02 -0.18881788102E+02  0.59301871702E+02  0.49999868095E+02 0.  0.
        -12    1    1    2    0    0 -0.10798165133E+01 -0.25671720866E+02  0.18881788102E+02  0.31886128298E+02  0.00000000000E+00 0.  1.
         11    1    3    3    0    0 -0.48913279737E+01  0.22036619062E-01 -0.52331348712E+01  0.71631889407E+01  0.51100000000E-03 0. -1.
        -11    1    3    3    0    0  0.69461010732E+01 -0.89969206219E+01 -0.13275162233E+02  0.17476350688E+02  0.51100000000E-03 0.  1.
         12    1    3    3    0    0 -0.97495658623E+00  0.34646604869E+02 -0.37349099762E+00  0.34662332074E+02  0.00000000000E+00 0. -1.
</event>
<event>
 7    1  0.1220856E-011  0.5930190E+02  0.7816164E-02  0.1266605E+00
        -11   -1    0    0    0    0  0.00000000000E+00  0.00000000000E+00  0.45593999997E+02  0.45594000000E+02  0.51100000000E-03 0.  1.
         11   -1    0    0    0    0 -0.00000000000E+00 -0.00000000000E+00 -0.45593999997E+02  0.45594000000E+02  0.51100000000E-03 0. -1.
    9900012    2    1    2    0    0  0.14706250600E+02  0.55562364255E+01 -0.27741263731E+02  0.59301901409E+02  0.49999922274E+02 0.  0.
        -12    1    1    2    0    0 -0.14706250600E+02 -0.55562364255E+01  0.27741263731E+02  0.31886098591E+02  0.00000000000E+00 0.  1.
         11    1    3    3    0    0  0.20744691774E+02  0.10601407852E+02  0.37004526948E+01  0.23588671765E+02  0.51100000000E-03 0.  1.
        -11    1    3    3    0    0 -0.27434998769E+01  0.38595354755E+01 -0.27157096505E+01  0.54587438874E+01  0.51100000000E-03 0. -1.
         12    1    3    3    0    0 -0.32949412965E+01 -0.89047069019E+01 -0.28726006775E+02  0.30254485757E+02  0.00000000000E+00 0. -1.
</event>
<event>
 7    1  0.1220856E-011  0.5930195E+02  0.7816164E-02  0.1266605E+00
        -11   -1    0    0    0    0  0.00000000000E+00  0.00000000000E+00  0.45593999997E+02  0.45594000000E+02  0.51100000000E-03 0.  1.
         11   -1    0    0    0    0 -0.00000000000E+00 -0.00000000000E+00 -0.45593999997E+02  0.45594000000E+02  0.51100000000E-03 0. -1.
    9900012    2    1    2    0    0 -0.83982293061E+01 -0.10024390558E+02 -0.29080947555E+02  0.59301950194E+02  0.50000011245E+02 0.  0.
        -12    1    1    2    0    0  0.83982293061E+01  0.10024390558E+02  0.29080947555E+02  0.31886049806E+02  0.00000000000E+00 0.  1.
         11    1    3    3    0    0  0.11557682384E+02 -0.12981023057E+02  0.10782740741E+01  0.17414064917E+02  0.51100000000E-03 0.  1.
        -11    1    3    3    0    0  0.48224573012E+00 -0.22099041163E+01 -0.16753267433E+02  0.16905271577E+02  0.51100000000E-03 0. -1.
        -12    1    3    3    0    0 -0.20438157420E+02  0.51665366153E+01 -0.13405954196E+02  0.24982613699E+02  0.00000000000E+00 0.  1.
</event>
<event>
 7    1  0.1220856E-011  0.5930194E+02  0.7816164E-02  0.1266605E+00
        -11   -1    0    0    0    0  0.00000000000E+00  0.00000000000E+00  0.45593999997E+02  0.45594000000E+02  0.51100000000E-03 0.  1.
         11   -1    0    0    0    0 -0.00000000000E+00 -0.00000000000E+00 -0.45593999997E+02  0.45594000000E+02  0.51100000000E-03 0. -1.
    9900012    2    1    2    0    0 -0.25632831145E+02 -0.17049566016E+02 -0.83060803175E+01  0.59301941854E+02  0.49999996035E+02 0.  0.
        -12    1    1    2    0    0  0.25632831145E+02  0.17049566016E+02  0.83060803175E+01  0.31886058146E+02  0.00000000000E+00 0.  1.
         11    1    3    3    0    0 -0.61360485708E+01 -0.81084876274E+01 -0.98042678627E+01  0.14125237423E+02  0.51100000000E-03 0. -1.
        -11    1    3    3    0    0 -0.90157860415E+01 -0.18674422334E+02  0.14932245971E+02  0.25553677181E+02  0.51100000000E-03 0.  1.
         12    1    3    3    0    0 -0.10480996533E+02  0.97333439452E+01 -0.13434058426E+02  0.19623027250E+02  0.00000000000E+00 0. -1.
</event>
<event>
 7    1  0.1220856E-011  0.5930194E+02  0.7816164E-02  0.1266605E+00
        -11   -1    0    0    0    0  0.00000000000E+00  0.00000000000E+00  0.45593999997E+02  0.45594000000E+02  0.51100000000E-03 0.  1.
         11   -1    0    0    0    0 -0.00000000000E+00 -0.00000000000E+00 -0.45593999997E+02  0.45594000000E+02  0.51100000000E-03 0. -1.
    9900012    2    1    2    0    0  0.19514396523E+02 -0.92183900847E+01 -0.23471904514E+02  0.59301942092E+02  0.49999996470E+02 0.  0.
        -12    1    1    2    0    0 -0.19514396523E+02  0.92183900847E+01  0.23471904514E+02  0.31886057908E+02  0.00000000000E+00 0.  1.
         11    1    3    3    0    0  0.19691503210E+01  0.36161941406E+01  0.19027395994E+01  0.45359487755E+01  0.51100000000E-03 0. -1.
        -11    1    3    3    0    0  0.29103132310E+02  0.26346977033E+01 -0.15150489068E+02  0.32916124642E+02  0.51100000000E-03 0.  1.
        -12    1    3    3    0    0 -0.11557886108E+02 -0.15469281929E+02 -0.10224155046E+02  0.21849868674E+02  0.00000000000E+00 0.  1.
</event>
<event>
 7    1  0.1220856E-011  0.5930197E+02  0.7816164E-02  0.1266605E+00
        -11   -1    0    0    0    0  0.00000000000E+00  0.00000000000E+00  0.45593999997E+02  0.45594000000E+02  0.51100000000E-03 0.  1.
         11   -1    0    0    0    0 -0.00000000000E+00 -0.00000000000E+00 -0.45593999997E+02  0.45594000000E+02  0.51100000000E-03 0. -1.
    9900012    2    1    2    0    0  0.15240572068E+02 -0.27933966793E+02 -0.20341203762E+01  0.59301965698E+02  0.50000039522E+02 0.  0.
        -12    1    1    2    0    0 -0.15240572068E+02  0.27933966793E+02  0.20341203762E+01  0.31886034302E+02  0.00000000000E+00 0.  1.
         11    1    3    3    0    0  0.15620624337E+02 -0.38433013570E+02 -0.61420372524E+01  0.41938348306E+02  0.51100000000E-03 0. -1.
        -11    1    3    3    0    0  0.34105279583E+01 -0.38474473306E+00 -0.23433889400E+01  0.41558635022E+01  0.51100000000E-03 0.  1.
        -12    1    3    3    0    0 -0.37905802268E+01  0.10883791510E+02  0.64513058161E+01  0.13207753890E+02  0.00000000000E+00 0.  1.
</event>
<event>
 7    1  0.1220856E-011  0.5930195E+02  0.7816164E-02  0.1266605E+00
        -11   -1    0    0    0    0  0.00000000000E+00  0.00000000000E+00  0.45593999997E+02  0.45594000000E+02  0.51100000000E-03 0. -1.
         11   -1    0    0    0    0 -0.00000000000E+00 -0.00000000000E+00 -0.45593999997E+02  0.45594000000E+02  0.51100000000E-03 0.  1.
    9900012    2    1    2    0    0 -0.31646234845E+02  0.12100837520E+01  0.37110064681E+01  0.59301952086E+02  0.50000014697E+02 0.  0.
        -12    1    1    2    0    0  0.31646234845E+02 -0.12100837520E+01 -0.37110064681E+01  0.31886047914E+02  0.00000000000E+00 0.  1.
         11    1    3    3    0    0 -0.75977012461E+01 -0.19593664951E+02  0.65943022135E+01  0.22025475985E+02  0.51100000000E-03 0. -1.
        -11    1    3    3    0    0 -0.62895904281E+01  0.13654946224E+01 -0.81915390733E+01  0.10417525424E+02  0.51100000000E-03 0.  1.
        -12    1    3    3    0    0 -0.17758943171E+02  0.19438254080E+02  0.53082433280E+01  0.26858950677E+02  0.00000000000E+00 0.  1.
</event>
<event>
 7    1  0.1220856E-011  0.5930194E+02  0.7816164E-02  0.1266605E+00
        -11   -1    0    0    0    0  0.00000000000E+00  0.00000000000E+00  0.45593999997E+02  0.45594000000E+02  0.51100000000E-03 0.  1.
         11   -1    0    0    0    0 -0.00000000000E+00 -0.00000000000E+00 -0.45593999997E+02  0.45594000000E+02  0.51100000000E-03 0. -1.
    9900012    2    1    2    0    0  0.21481698375E+02 -0.17981758672E+02 -0.15228714139E+02  0.59301941222E+02  0.49999994884E+02 0.  0.
        -12    1    1    2    0    0 -0.21481698375E+02  0.17981758672E+02  0.15228714139E+02  0.31886058778E+02  0.00000000000E+00 0.  1.
         11    1    3    3    0    0 -0.11518619485E+02  0.22206231515E+01 -0.60701828635E+01  0.13208212683E+02  0.51100000000E-03 0. -1.
        -11    1    3    3    0    0  0.18785009161E+02  0.13055511141E+01 -0.29861870484E+00  0.18832689831E+02  0.51100000000E-03 0.  1.
        -12    1    3    3    0    0  0.14215308700E+02 -0.21507932938E+02 -0.88599125706E+01  0.27261038708E+02  0.00000000000E+00 0.  1.
</event>
<event>
 7    1  0.1220856E-011  0.5930195E+02  0.7816164E-02  0.1266605E+00
        -11   -1    0    0    0    0  0.00000000000E+00  0.00000000000E+00  0.45593999997E+02  0.45594000000E+02  0.51100000000E-03 0.  1.
         11   -1    0    0    0    0 -0.00000000000E+00 -0.00000000000E+00 -0.45593999997E+02  0.45594000000E+02  0.51100000000E-03 0. -1.
    9900012    2    1    2    0    0  0.26597438951E+02  0.41620035847E+01 -0.17087250475E+02  0.59301950364E+02  0.50000011555E+02 0.  0.
        -12    1    1    2    0    0 -0.26597438951E+02 -0.41620035847E+01  0.17087250475E+02  0.31886049636E+02  0.00000000000E+00 0.  1.
         11    1    3    3    0    0  0.10866928661E+02 -0.18036940772E+02 -0.80647201950E+01  0.22549081645E+02  0.51100000000E-03 0. -1.
        -11    1    3    3    0    0 -0.28687875975E+01 -0.28204173471E+01 -0.29572285195E+01  0.49929847856E+01  0.51100000000E-03 0.  1.
        -12    1    3    3    0    0  0.18599297888E+02  0.25019361704E+02 -0.60653017609E+01  0.31759883933E+02  0.00000000000E+00 0.  1.
</event>
<event>
 7    1  0.1220856E-011  0.5930192E+02  0.7816164E-02  0.1266605E+00
        -11   -1    0    0    0    0  0.00000000000E+00  0.00000000000E+00  0.45593999997E+02  0.45594000000E+02  0.51100000000E-03 0.  1.
         11   -1    0    0    0    0 -0.00000000000E+00 -0.00000000000E+00 -0.45593999997E+02  0.45594000000E+02  0.51100000000E-03 0. -1.
    9900012    2    1    2    0    0 -0.11241137047E+01  0.17049634527E+02 -0.26921522418E+02  0.59301920930E+02  0.49999957876E+02 0.  0.
        -12    1    1    2    0    0  0.11241137047E+01 -0.17049634527E+02  0.26921522418E+02  0.31886079070E+02  0.00000000000E+00 0.  1.
         11    1    3    3    0    0  0.17559125565E+02  0.28806803285E+01 -0.11817004006E+02  0.21360308840E+02  0.51100000000E-03 0. -1.
        -11    1    3    3    0    0  0.19803203360E+01 -0.37230748847E+01 -0.89941792938E+01  0.99336909888E+01  0.51100000000E-03 0.  1.
        -12    1    3    3    0    0 -0.20663559606E+02  0.17892029083E+02 -0.61103391176E+01  0.28007921102E+02  0.00000000000E+00 0.  1.
</event>
<event>
 7    1  0.1220856E-011  0.5930196E+02  0.7816164E-02  0.1266605E+00
        -11   -1    0    0    0    0  0.00000000000E+00  0.00000000000E+00  0.45593999997E+02  0.45594000000E+02  0.51100000000E-03 0.  1.
         11   -1    0    0    0    0 -0.00000000000E+00 -0.00000000000E+00 -0.45593999997E+02  0.45594000000E+02  0.51100000000E-03 0. -1.
    9900012    2    1    2    0    0  0.61626017694E+01 -0.19458075595E+02 -0.24497448483E+02  0.59301963109E+02  0.50000034799E+02 0.  0.
        -12    1    1    2    0    0 -0.61626017694E+01  0.19458075595E+02  0.24497448483E+02  0.31886036891E+02  0.00000000000E+00 0.  1.
         11    1    3    3    0    0  0.37921387185E+01  0.54109513648E+01 -0.16350291581E+02  0.17634929707E+02  0.51100000000E-03 0. -1.
        -11    1    3    3    0    0  0.16467029790E+02 -0.68597097404E+01 -0.53661084635E+01  0.18628306636E+02  0.51100000000E-03 0.  1.
        -12    1    3    3    0    0 -0.14096566739E+02 -0.18009317220E+02 -0.27810484385E+01  0.23038726765E+02  0.00000000000E+00 0.  1.
</event>
<event>
 7    1  0.1220856E-011  0.5930195E+02  0.7816164E-02  0.1266605E+00
        -11   -1    0    0    0    0  0.00000000000E+00  0.00000000000E+00  0.45593999997E+02  0.45594000000E+02  0.51100000000E-03 0. -1.
         11   -1    0    0    0    0 -0.00000000000E+00 -0.00000000000E+00 -0.45593999997E+02  0.45594000000E+02  0.51100000000E-03 0.  1.
    9900012    2    1    2    0    0  0.23443476384E+02  0.97572483066E+01  0.19285227718E+02  0.59301945248E+02  0.50000002226E+02 0.  0.
        -12    1    1    2    0    0 -0.23443476384E+02 -0.97572483066E+01 -0.19285227718E+02  0.31886054752E+02  0.00000000000E+00 0.  1.
         11    1    3    3    0    0  0.90219515443E+01  0.36519686018E+01  0.12675990955E+02  0.15981652959E+02  0.51100000000E-03 0. -1.
        -11    1    3    3    0    0  0.27773237711E+02  0.68103120416E+01  0.45016298314E+00  0.28599575697E+02  0.51100000000E-03 0.  1.
         12    1    3    3    0    0 -0.13351712871E+02 -0.70503233675E+00  0.61590737797E+01  0.14720716593E+02  0.00000000000E+00 0. -1.
</event>
<event>
 7    1  0.1220856E-011  0.5930194E+02  0.7816164E-02  0.1266605E+00
        -11   -1    0    0    0    0  0.00000000000E+00  0.00000000000E+00  0.45593999997E+02  0.45594000000E+02  0.51100000000E-03 0.  1.
         11   -1    0    0    0    0 -0.00000000000E+00 -0.00000000000E+00 -0.45593999997E+02  0.45594000000E+02  0.51100000000E-03 0. -1.
    9900012    2    1    2    0    0 -0.11019367303E+02  0.23984992455E+02 -0.17888953695E+02  0.59301937478E+02  0.49999988056E+02 0.  0.
        -12    1    1    2    0    0  0.11019367303E+02 -0.23984992455E+02  0.17888953695E+02  0.31886062522E+02  0.00000000000E+00 0.  1.
         11    1    3    3    0    0  0.13308455291E+01  0.41561664200E+00 -0.16010361614E+02  0.16070954119E+02  0.51100000000E-03 0. -1.
        -11    1    3    3    0    0  0.91330257390E+01 -0.20735973479E+01  0.19293291416E+01  0.95621271853E+01  0.51100000000E-03 0.  1.
         12    1    3    3    0    0 -0.21483238572E+02  0.25642973161E+02 -0.38079212228E+01  0.33668856174E+02  0.00000000000E+00 0. -1.
</event>
<event>
 7    1  0.1220856E-011  0.5930193E+02  0.7816164E-02  0.1266605E+00
        -11   -1    0    0    0    0  0.00000000000E+00  0.00000000000E+00  0.45593999997E+02  0.45594000000E+02  0.51100000000E-03 0.  1.
         11   -1    0    0    0    0 -0.00000000000E+00 -0.00000000000E+00 -0.45593999997E+02  0.45594000000E+02  0.51100000000E-03 0. -1.
    9900012    2    1    2    0    0  0.28412277259E+02  0.71462213348E+01  0.12585515382E+02  0.59301934456E+02  0.49999982544E+02 0.  0.
        -12    1    1    2    0    0 -0.28412277259E+02 -0.71462213348E+01 -0.12585515382E+02  0.31886065544E+02  0.00000000000E+00 0.  1.
         11    1    3    3    0    0  0.26067646681E+02 -0.99451824750E+01  0.29097447878E+01  0.28051657223E+02  0.51100000000E-03 0. -1.
        -11    1    3    3    0    0  0.53235576978E+00 -0.49112863923E-01 -0.71460026995E+01  0.71659730380E+01  0.51100000000E-03 0.  1.
        -12    1    3    3    0    0  0.18122748082E+01  0.17140516674E+02  0.16821773294E+02  0.24084304195E+02  0.00000000000E+00 0.  1.
</event>
<event>
 7    1  0.1220856E-011  0.5930192E+02  0.7816164E-02  0.1266605E+00
        -11   -1    0    0    0    0  0.00000000000E+00  0.00000000000E+00  0.45593999997E+02  0.45594000000E+02  0.51100000000E-03 0.  1.
         11   -1    0    0    0    0 -0.00000000000E+00 -0.00000000000E+00 -0.45593999997E+02  0.45594000000E+02  0.51100000000E-03 0. -1.
    9900012    2    1    2    0    0 -0.14073925052E+02 -0.15277914308E+02 -0.24191572754E+02  0.59301918016E+02  0.49999952560E+02 0.  0.
        -12    1    1    2    0    0  0.14073925052E+02  0.15277914308E+02  0.24191572754E+02  0.31886081984E+02  0.00000000000E+00 0.  1.
         11    1    3    3    0    0  0.54845278934E+00  0.39767240952E+00 -0.12458717972E+02  0.12477122968E+02  0.51100000000E-03 0. -1.
        -11    1    3    3    0    0  0.33278691750E+01 -0.24919270877E+02 -0.65140591536E+01  0.25970709294E+02  0.51100000000E-03 0.  1.
         12    1    3    3    0    0 -0.17950247017E+02  0.92436841596E+01 -0.52187956290E+01  0.20854085754E+02  0.00000000000E+00 0. -1.
</event>
<event>
 7    1  0.1220856E-011  0.5930195E+02  0.7816164E-02  0.1266605E+00
        -11   -1    0    0    0    0  0.00000000000E+00  0.00000000000E+00  0.45593999997E+02  0.45594000000E+02  0.51100000000E-03 0. -1.
         11   -1    0    0    0    0 -0.00000000000E+00 -0.00000000000E+00 -0.45593999997E+02  0.45594000000E+02  0.51100000000E-03 0.  1.
    9900012    2    1    2    0    0 -0.22189026062E+02 -0.11425114463E+02  0.19845250160E+02  0.59301951766E+02  0.50000014113E+02 0.  0.
        -12    1    1    2    0    0  0.22189026062E+02  0.11425114463E+02 -0.19845250160E+02  0.31886048234E+02  0.00000000000E+00 0.  1.
         11    1    3    3    0    0 -0.15235631326E+02 -0.42443278528E+01  0.16960009893E+02  0.23190099539E+02  0.51100000000E-03 0. -1.
        -11    1    3    3    0    0 -0.13599439489E+02  0.81338940900E+01  0.91290972987E+01  0.18287848568E+02  0.51100000000E-03 0.  1.
        -12    1    3    3    0    0  0.66460447531E+01 -0.15314680701E+02 -0.62438570314E+01  0.17824003659E+02  0.00000000000E+00 0.  1.
</event>
<event>
 7    1  0.1220856E-011  0.5930194E+02  0.7816164E-02  0.1266605E+00
        -11   -1    0    0    0    0  0.00000000000E+00  0.00000000000E+00  0.45593999997E+02  0.45594000000E+02  0.51100000000E-03 0.  1.
         11   -1    0    0    0    0 -0.00000000000E+00 -0.00000000000E+00 -0.45593999997E+02  0.45594000000E+02  0.51100000000E-03 0. -1.
    9900012    2    1    2    0    0 -0.11573177931E+02 -0.94523862625E+01 -0.28167975499E+02  0.59301938826E+02  0.49999990513E+02 0.  0.
        -12    1    1    2    0    0  0.11573177931E+02  0.94523862625E+01  0.28167975499E+02  0.31886061174E+02  0.00000000000E+00 0.  1.
         11    1    3    3    0    0 -0.36864745952E+01 -0.21687278800E+02 -0.19311953321E+02  0.29272507546E+02  0.51100000000E-03 0. -1.
        -11    1    3    3    0    0 -0.83337554765E+01 -0.60860174383E+01 -0.23604419618E+01  0.10585970674E+02  0.51100000000E-03 0.  1.
        -12    1    3    3    0    0  0.44705214084E+00  0.18320909976E+02 -0.64955802160E+01  0.19443460605E+02  0.00000000000E+00 0.  1.
</event>
<event>
 7    1  0.1220856E-011  0.5930197E+02  0.7816164E-02  0.1266605E+00
        -11   -1    0    0    0    0  0.00000000000E+00  0.00000000000E+00  0.45593999997E+02  0.45594000000E+02  0.51100000000E-03 0. -1.
         11   -1    0    0    0    0 -0.00000000000E+00 -0.00000000000E+00 -0.45593999997E+02  0.45594000000E+02  0.51100000000E-03 0.  1.
    9900012    2    1    2    0    0 -0.22947086684E+02  0.20325933275E+02  0.87753210446E+01  0.59301974688E+02  0.50000055917E+02 0.  0.
        -12    1    1    2    0    0  0.22947086684E+02 -0.20325933275E+02 -0.87753210446E+01  0.31886025312E+02  0.00000000000E+00 0.  1.
         11    1    3    3    0    0 -0.13385760950E+02 -0.59518032721E+01 -0.53836305566E+01  0.15607243083E+02  0.51100000000E-03 0. -1.
        -11    1    3    3    0    0 -0.67569664117E+01  0.46216081114E+01 -0.87933635284E+01  0.12014120818E+02  0.51100000000E-03 0.  1.
        -12    1    3    3    0    0 -0.28043593215E+01  0.21656128436E+02  0.22952315130E+02  0.31680610787E+02  0.00000000000E+00 0.  1.
</event>
<event>
 7    1  0.1220856E-011  0.5930193E+02  0.7816164E-02  0.1266605E+00
        -11   -1    0    0    0    0  0.00000000000E+00  0.00000000000E+00  0.45593999997E+02  0.45594000000E+02  0.51100000000E-03 0.  1.
         11   -1    0    0    0    0 -0.00000000000E+00 -0.00000000000E+00 -0.45593999997E+02  0.45594000000E+02  0.51100000000E-03 0. -1.
    9900012    2    1    2    0    0  0.24370915686E+02 -0.11716110656E+02 -0.16897126962E+02  0.59301926553E+02  0.49999968130E+02 0.  0.
        -12    1    1    2    0    0 -0.24370915686E+02  0.11716110656E+02  0.16897126962E+02  0.31886073447E+02  0.00000000000E+00 0.  1.
         11    1    3    3    0    0 -0.30358664556E+01  0.84512808757E+01 -0.19885825626E+01  0.91975591569E+01  0.51100000000E-03 0.  1.
        -11    1    3    3    0    0  0.13312020467E+02  0.80328877570E+01 -0.91979768240E+01  0.18064881747E+02  0.51100000000E-03 0. -1.
         12    1    3    3    0    0  0.14094761675E+02 -0.28200279288E+02 -0.57105675755E+01  0.32039485649E+02  0.00000000000E+00 0. -1.
</event>
<event>
 7    1  0.1220856E-011  0.5930194E+02  0.7816164E-02  0.1266605E+00
        -11   -1    0    0    0    0  0.00000000000E+00  0.00000000000E+00  0.45593999997E+02  0.45594000000E+02  0.51100000000E-03 0.  1.
         11   -1    0    0    0    0 -0.00000000000E+00 -0.00000000000E+00 -0.45593999997E+02  0.45594000000E+02  0.51100000000E-03 0. -1.
    9900012    2    1    2    0    0  0.15449354150E+02  0.83032488230E+01 -0.26628829689E+02  0.59301936347E+02  0.49999985992E+02 0.  0.
        -12    1    1    2    0    0 -0.15449354150E+02 -0.83032488230E+01  0.26628829689E+02  0.31886063653E+02  0.00000000000E+00 0.  1.
         11    1    3    3    0    0  0.13042387704E+02  0.66774403188E+01 -0.10987966836E+01  0.14693516960E+02  0.51100000000E-03 0. -1.
        -11    1    3    3    0    0  0.51313999166E+01  0.15609125924E+02 -0.12766679076E+01  0.16480472032E+02  0.51100000000E-03 0.  1.
         12    1    3    3    0    0 -0.27244334712E+01 -0.13983317420E+02 -0.24253365098E+02  0.28127947355E+02  0.00000000000E+00 0. -1.
</event>
<event>
 7    1  0.1220856E-011  0.5930196E+02  0.7816164E-02  0.1266605E+00
        -11   -1    0    0    0    0  0.00000000000E+00  0.00000000000E+00  0.45593999997E+02  0.45594000000E+02  0.51100000000E-03 0. -1.
         11   -1    0    0    0    0 -0.00000000000E+00 -0.00000000000E+00 -0.45593999997E+02  0.45594000000E+02  0.51100000000E-03 0.  1.
    9900012    2    1    2    0    0 -0.32277445008E+01  0.20647499750E+02  0.24082811432E+02  0.59301962507E+02  0.50000033702E+02 0.  0.
        -12    1    1    2    0    0  0.32277445008E+01 -0.20647499750E+02 -0.24082811432E+02  0.31886037493E+02  0.00000000000E+00 0.  1.
         11    1    3    3    0    0 -0.80731093994E+01 -0.45599126677E+01  0.41930244661E+01  0.10175920270E+02  0.51100000000E-03 0. -1.
        -11    1    3    3    0    0 -0.75282211278E+01 -0.54445151245E+01 -0.19690788942E+01  0.94970590312E+01  0.51100000000E-03 0.  1.
        -12    1    3    3    0    0  0.12373586026E+02  0.30651927542E+02  0.21858865860E+02  0.39628983206E+02  0.00000000000E+00 0.  1.
</event>
<event>
 7    1  0.1220856E-011  0.5930195E+02  0.7816164E-02  0.1266605E+00
        -11   -1    0    0    0    0  0.00000000000E+00  0.00000000000E+00  0.45593999997E+02  0.45594000000E+02  0.51100000000E-03 0.  1.
         11   -1    0    0    0    0 -0.00000000000E+00 -0.00000000000E+00 -0.45593999997E+02  0.45594000000E+02  0.51100000000E-03 0. -1.
    9900012    2    1    2    0    0  0.12825263110E+02  0.28990753836E+02 -0.34306183067E+01  0.59301947818E+02  0.50000006912E+02 0.  0.
        -12    1    1    2    0    0 -0.12825263110E+02 -0.28990753836E+02  0.34306183067E+01  0.31886052182E+02  0.00000000000E+00 0.  1.
         11    1    3    3    0    0  0.10522870002E+02 -0.99744228236E-01 -0.88138664796E+01  0.13726798045E+02  0.51100000000E-03 0. -1.
        -11    1    3    3    0    0 -0.12552859131E+02  0.56016623227E+00 -0.15790488727E+01  0.12664179965E+02  0.51100000000E-03 0.  1.
        -12    1    3    3    0    0  0.14855252239E+02  0.28530331832E+02  0.69622970456E+01  0.32910969808E+02  0.00000000000E+00 0.  1.
</event>
<event>
 7    1  0.1220856E-011  0.5930198E+02  0.7816164E-02  0.1266605E+00
        -11   -1    0    0    0    0  0.00000000000E+00  0.00000000000E+00  0.45593999997E+02  0.45594000000E+02  0.51100000000E-03 0.  1.
         11   -1    0    0    0    0 -0.00000000000E+00 -0.00000000000E+00 -0.45593999997E+02  0.45594000000E+02  0.51100000000E-03 0. -1.
    9900012    2    1    2    0    0  0.24969074439E+02  0.41219439769E+01 -0.19397759314E+02  0.59301981639E+02  0.50000068594E+02 0.  0.
        -12    1    1    2    0    0 -0.24969074439E+02 -0.41219439769E+01  0.19397759314E+02  0.31886018361E+02  0.00000000000E+00 0.  1.
         11    1    3    3    0    0  0.98164680940E+01 -0.88801652466E+01 -0.13461090986E+01  0.13305351954E+02  0.51100000000E-03 0. -1.
        -11    1    3    3    0    0 -0.86946061859E+01  0.36184580585E+01  0.57394741373E+01  0.11028643574E+02  0.51100000000E-03 0.  1.
         12    1    3    3    0    0  0.23847212531E+02  0.93836511650E+01 -0.23791124353E+02  0.34967986111E+02  0.00000000000E+00 0. -1.
</event>
<event>
 7    1  0.1220856E-011  0.5930192E+02  0.7816164E-02  0.1266605E+00
        -11   -1    0    0    0    0  0.00000000000E+00  0.00000000000E+00  0.45593999997E+02  0.45594000000E+02  0.51100000000E-03 0. -1.
         11   -1    0    0    0    0 -0.00000000000E+00 -0.00000000000E+00 -0.45593999997E+02  0.45594000000E+02  0.51100000000E-03 0.  1.
    9900012    2    1    2    0    0 -0.11527694955E+01  0.15678989032E+02  0.27740984611E+02  0.59301924641E+02  0.49999964644E+02 0.  0.
        -12    1    1    2    0    0  0.11527694955E+01 -0.15678989032E+02 -0.27740984611E+02  0.31886075359E+02  0.00000000000E+00 0.  1.
         11    1    3    3    0    0  0.48495454402E+01 -0.10242565604E+02  0.95895914267E+01  0.14845487702E+02  0.51100000000E-03 0.  1.
        -11    1    3    3    0    0  0.49257499338E+01 -0.29155719930E+00  0.15108743898E+02  0.15894091998E+02  0.51100000000E-03 0. -1.
        -12    1    3    3    0    0 -0.10928064870E+02  0.26213111835E+02  0.30426492864E+01  0.28562344941E+02  0.00000000000E+00 0.  1.
</event>
<event>
 7    1  0.1220856E-011  0.5930193E+02  0.7816164E-02  0.1266605E+00
        -11   -1    0    0    0    0  0.00000000000E+00  0.00000000000E+00  0.45593999997E+02  0.45594000000E+02  0.51100000000E-03 0. -1.
         11   -1    0    0    0    0 -0.00000000000E+00 -0.00000000000E+00 -0.45593999997E+02  0.45594000000E+02  0.51100000000E-03 0.  1.
    9900012    2    1    2    0    0  0.11809661004E+02 -0.24620405354E+02  0.16464771191E+02  0.59301934969E+02  0.49999983478E+02 0.  0.
        -12    1    1    2    0    0 -0.11809661004E+02  0.24620405354E+02 -0.16464771191E+02  0.31886065031E+02  0.00000000000E+00 0.  1.
         11    1    3    3    0    0  0.27526124853E+01 -0.11633321969E+02  0.16395972429E+02  0.20291352042E+02  0.51100000000E-03 0. -1.
        -11    1    3    3    0    0  0.15559226859E+02  0.34364494035E+01  0.99353856580E+01  0.18777928890E+02  0.51100000000E-03 0.  1.
        -12    1    3    3    0    0 -0.65021783403E+01 -0.16423532788E+02 -0.98665868957E+01  0.20232654037E+02  0.00000000000E+00 0.  1.
</event>
<event>
 7    1  0.1220856E-011  0.5930195E+02  0.7816164E-02  0.1266605E+00
        -11   -1    0    0    0    0  0.00000000000E+00  0.00000000000E+00  0.45593999997E+02  0.45594000000E+02  0.51100000000E-03 0.  1.
         11   -1    0    0    0    0 -0.00000000000E+00 -0.00000000000E+00 -0.45593999997E+02  0.45594000000E+02  0.51100000000E-03 0. -1.
    9900012    2    1    2    0    0 -0.50752854916E+01 -0.29189732537E+01 -0.31343923538E+02  0.59301945518E+02  0.50000002718E+02 0.  0.
        -12    1    1    2    0    0  0.50752854916E+01  0.29189732537E+01  0.31343923538E+02  0.31886054482E+02  0.00000000000E+00 0.  1.
         11    1    3    3    0    0 -0.54162050252E+01  0.14372176675E+01 -0.35405185912E+02  0.35845893227E+02  0.51100000000E-03 0. -1.
        -11    1    3    3    0    0 -0.25586585222E+01  0.17381477388E+01 -0.85830009758E+01  0.91233654431E+01  0.51100000000E-03 0.  1.
        -12    1    3    3    0    0  0.28995780559E+01 -0.60943386600E+01  0.12644263350E+02  0.14332686848E+02  0.00000000000E+00 0.  1.
</event>
<event>
 7    1  0.1220856E-011  0.5930194E+02  0.7816164E-02  0.1266605E+00
        -11   -1    0    0    0    0  0.00000000000E+00  0.00000000000E+00  0.45593999997E+02  0.45594000000E+02  0.51100000000E-03 0.  1.
         11   -1    0    0    0    0 -0.00000000000E+00 -0.00000000000E+00 -0.45593999997E+02  0.45594000000E+02  0.51100000000E-03 0. -1.
    9900012    2    1    2    0    0  0.26240526301E+02  0.17728698723E+02  0.37214323070E+01  0.59301936628E+02  0.49999986504E+02 0.  0.
        -12    1    1    2    0    0 -0.26240526301E+02 -0.17728698723E+02 -0.37214323070E+01  0.31886063372E+02  0.00000000000E+00 0.  1.
         11    1    3    3    0    0  0.95043440305E+01  0.12657196906E+02 -0.40901279919E+01  0.16348282363E+02  0.51100000000E-03 0. -1.
        -11    1    3    3    0    0 -0.53835811390E+01  0.12052554943E+02 -0.74792255248E+01  0.15171876655E+02  0.51100000000E-03 0.  1.
        -12    1    3    3    0    0  0.22119763410E+02 -0.69810531258E+01  0.15290785824E+02  0.27781777610E+02  0.00000000000E+00 0.  1.
</event>
<event>
 7    1  0.1220856E-011  0.5930195E+02  0.7816164E-02  0.1266605E+00
        -11   -1    0    0    0    0  0.00000000000E+00  0.00000000000E+00  0.45593999997E+02  0.45594000000E+02  0.51100000000E-03 0.  1.
         11   -1    0    0    0    0 -0.00000000000E+00 -0.00000000000E+00 -0.45593999997E+02  0.45594000000E+02  0.51100000000E-03 0. -1.
    9900012    2    1    2    0    0  0.12287758886E+02  0.28136807160E+02 -0.86053127117E+01  0.59301947524E+02  0.50000006377E+02 0.  0.
        -12    1    1    2    0    0 -0.12287758886E+02 -0.28136807160E+02  0.86053127117E+01  0.31886052476E+02  0.00000000000E+00 0.  1.
         11    1    3    3    0    0  0.10451020004E+02  0.30664874741E+01  0.24943865572E+00  0.10894465772E+02  0.51100000000E-03 0.  1.
        -11    1    3    3    0    0  0.75166090095E+01  0.18832742929E+02 -0.23787045773E+02  0.31256921859E+02  0.51100000000E-03 0. -1.
         12    1    3    3    0    0 -0.56798701268E+01  0.62375767575E+01  0.14932294406E+02  0.17150559894E+02  0.00000000000E+00 0. -1.
</event>
<event>
 7    1  0.1220856E-011  0.5930194E+02  0.7816164E-02  0.1266605E+00
        -11   -1    0    0    0    0  0.00000000000E+00  0.00000000000E+00  0.45593999997E+02  0.45594000000E+02  0.51100000000E-03 0.  1.
         11   -1    0    0    0    0 -0.00000000000E+00 -0.00000000000E+00 -0.45593999997E+02  0.45594000000E+02  0.51100000000E-03 0. -1.
    9900012    2    1    2    0    0  0.25263258196E+01 -0.21824461922E+02 -0.23109119866E+02  0.59301939075E+02  0.49999990967E+02 0.  0.
        -12    1    1    2    0    0 -0.25263258196E+01  0.21824461922E+02  0.23109119866E+02  0.31886060925E+02  0.00000000000E+00 0.  1.
         11    1    3    3    0    0  0.67603803985E+01 -0.45814516841E+01 -0.87471939749E+01  0.11966864475E+02  0.51100000000E-03 0. -1.
        -11    1    3    3    0    0 -0.29921923992E+01 -0.25208896420E+02  0.54335404238E+01  0.25960836579E+02  0.51100000000E-03 0.  1.
        -12    1    3    3    0    0 -0.12418621798E+01  0.79658861818E+01 -0.19795466315E+02  0.21374238021E+02  0.00000000000E+00 0.  1.
</event>
<event>
 7    1  0.1220856E-011  0.5930195E+02  0.7816164E-02  0.1266605E+00
        -11   -1    0    0    0    0  0.00000000000E+00  0.00000000000E+00  0.45593999997E+02  0.45594000000E+02  0.51100000000E-03 0. -1.
         11   -1    0    0    0    0 -0.00000000000E+00 -0.00000000000E+00 -0.45593999997E+02  0.45594000000E+02  0.51100000000E-03 0.  1.
    9900012    2    1    2    0    0  0.14908448671E+02 -0.25443958734E+02  0.12126964362E+02  0.59301950661E+02  0.50000012097E+02 0.  0.
        -12    1    1    2    0    0 -0.14908448671E+02  0.25443958734E+02 -0.12126964362E+02  0.31886049339E+02  0.00000000000E+00 0.  1.
         11    1    3    3    0    0  0.57186931546E+01 -0.25362923259E+02 -0.21798597355E+01  0.26090862699E+02  0.51100000000E-03 0. -1.
        -11    1    3    3    0    0  0.11136007683E+02 -0.10970369496E+02  0.66258439607E+00  0.15646043984E+02  0.51100000000E-03 0.  1.
         12    1    3    3    0    0 -0.19462521666E+01  0.10889334021E+02  0.13644239701E+02  0.17565043978E+02  0.00000000000E+00 0. -1.
</event>
<event>
 7    1  0.1220856E-011  0.5930193E+02  0.7816164E-02  0.1266605E+00
        -11   -1    0    0    0    0  0.00000000000E+00  0.00000000000E+00  0.45593999997E+02  0.45594000000E+02  0.51100000000E-03 0.  1.
         11   -1    0    0    0    0 -0.00000000000E+00 -0.00000000000E+00 -0.45593999997E+02  0.45594000000E+02  0.51100000000E-03 0. -1.
    9900012    2    1    2    0    0 -0.27386436336E+02 -0.47819976163E+01 -0.15615275826E+02  0.59301933521E+02  0.49999980838E+02 0.  0.
        -12    1    1    2    0    0  0.27386436336E+02  0.47819976163E+01  0.15615275826E+02  0.31886066479E+02  0.00000000000E+00 0.  1.
         11    1    3    3    0    0 -0.14140387443E+02  0.72547398859E+01 -0.24693584327E+01  0.16083517625E+02  0.51100000000E-03 0. -1.
        -11    1    3    3    0    0 -0.12188747690E+02 -0.17188957546E+02  0.71501121630E+01  0.22251964767E+02  0.51100000000E-03 0.  1.
         12    1    3    3    0    0 -0.10573012029E+01  0.51522200441E+01 -0.20296029557E+02  0.20966451130E+02  0.00000000000E+00 0. -1.
</event>
<event>
 7    1  0.1352334E-011  0.5930192E+02  0.7816164E-02  0.1266605E+00
        -11   -1    0    0    0    0  0.00000000000E+00  0.00000000000E+00  0.45593999997E+02  0.45594000000E+02  0.51100000000E-03 0.  1.
         11   -1    0    0    0    0 -0.00000000000E+00 -0.00000000000E+00 -0.45593999997E+02  0.45594000000E+02  0.51100000000E-03 0. -1.
    9900012    2    1    2    0    0  0.22846271300E+02  0.17480973439E+02 -0.13754473451E+02  0.59301920207E+02  0.49999956556E+02 0.  0.
        -12    1    1    2    0    0 -0.22846271300E+02 -0.17480973439E+02  0.13754473451E+02  0.31886079793E+02  0.00000000000E+00 0.  1.
         11    1    3    3    0    0  0.28054744422E+02  0.21083327382E+02 -0.13235097865E+02  0.37506575342E+02  0.51100000000E-03 0. -1.
        -11    1    3    3    0    0  0.21902451238E+01  0.78309580910E+01 -0.82705734394E+00  0.81734388379E+01  0.51100000000E-03 0.  1.
        -12    1    3    3    0    0 -0.73987182464E+01 -0.11433312034E+02  0.30768175849E+00  0.13621906027E+02  0.00000000000E+00 0.  1.
</event>
<event>
 7    1  0.1220856E-011  0.5930191E+02  0.7816164E-02  0.1266605E+00
        -11   -1    0    0    0    0  0.00000000000E+00  0.00000000000E+00  0.45593999997E+02  0.45594000000E+02  0.51100000000E-03 0.  1.
         11   -1    0    0    0    0 -0.00000000000E+00 -0.00000000000E+00 -0.45593999997E+02  0.45594000000E+02  0.51100000000E-03 0. -1.
    9900012    2    1    2    0    0 -0.11611761996E+02 -0.28578833520E+02 -0.80709447425E+01  0.59301907561E+02  0.49999933493E+02 0.  0.
        -12    1    1    2    0    0  0.11611761996E+02  0.28578833520E+02  0.80709447425E+01  0.31886092439E+02  0.00000000000E+00 0.  1.
         11    1    3    3    0    0  0.70413236393E+01  0.95184073052E+00 -0.14970861288E+02  0.16571449162E+02  0.51100000000E-03 0. -1.
        -11    1    3    3    0    0  0.25612637673E+01  0.64544684752E+00  0.51668209238E+01  0.58028193526E+01  0.51100000000E-03 0.  1.
         12    1    3    3    0    0 -0.21214349403E+02 -0.30176121098E+02  0.17330956213E+01  0.36927639046E+02  0.00000000000E+00 0. -1.
</event>
<event>
 7    1  0.1220856E-011  0.5930193E+02  0.7816164E-02  0.1266605E+00
        -11   -1    0    0    0    0  0.00000000000E+00  0.00000000000E+00  0.45593999997E+02  0.45594000000E+02  0.51100000000E-03 0.  1.
         11   -1    0    0    0    0 -0.00000000000E+00 -0.00000000000E+00 -0.45593999997E+02  0.45594000000E+02  0.51100000000E-03 0. -1.
    9900012    2    1    2    0    0  0.81042704958E+01 -0.30838970464E+02 -0.14417875335E-01  0.59301929257E+02  0.49999973062E+02 0.  0.
        -12    1    1    2    0    0 -0.81042704958E+01  0.30838970464E+02  0.14417875335E-01  0.31886070743E+02  0.00000000000E+00 0.  1.
         11    1    3    3    0    0  0.75094157835E+01  0.21323134390E+01 -0.13384273606E+02  0.15494414034E+02  0.51100000000E-03 0. -1.
        -11    1    3    3    0    0  0.33056175433E+01 -0.69346769358E+01 -0.71895755466E+01  0.10521732193E+02  0.51100000000E-03 0.  1.
        -12    1    3    3    0    0 -0.27107628310E+01 -0.26036606967E+02  0.20559431278E+02  0.33285783030E+02  0.00000000000E+00 0.  1.
</event>
<event>
 7    1  0.1220856E-011  0.5930194E+02  0.7816164E-02  0.1266605E+00
        -11   -1    0    0    0    0  0.00000000000E+00  0.00000000000E+00  0.45593999997E+02  0.45594000000E+02  0.51100000000E-03 0.  1.
         11   -1    0    0    0    0 -0.00000000000E+00 -0.00000000000E+00 -0.45593999997E+02  0.45594000000E+02  0.51100000000E-03 0. -1.
    9900012    2    1    2    0    0 -0.16042901511E+02 -0.25719364363E+02 -0.98924475167E+01  0.59301938625E+02  0.49999990147E+02 0.  0.
        -12    1    1    2    0    0  0.16042901511E+02  0.25719364363E+02  0.98924475167E+01  0.31886061375E+02  0.00000000000E+00 0.  1.
         11    1    3    3    0    0  0.18189128217E+01  0.92932600960E+01 -0.51398653720E+01  0.10774569289E+02  0.51100000000E-03 0. -1.
        -11    1    3    3    0    0 -0.14291059026E+02 -0.43758334122E+01 -0.89161474201E+01  0.17403447108E+02  0.51100000000E-03 0.  1.
        -12    1    3    3    0    0 -0.35707553061E+01 -0.30636791047E+02  0.41635652753E+01  0.31123922229E+02  0.00000000000E+00 0.  1.
</event>
<event>
 7    1  0.1220856E-011  0.5930194E+02  0.7816164E-02  0.1266605E+00
        -11   -1    0    0    0    0  0.00000000000E+00  0.00000000000E+00  0.45593999997E+02  0.45594000000E+02  0.51100000000E-03 0. -1.
         11   -1    0    0    0    0 -0.00000000000E+00 -0.00000000000E+00 -0.45593999997E+02  0.45594000000E+02  0.51100000000E-03 0.  1.
    9900012    2    1    2    0    0 -0.11411482756E+02 -0.28473319462E+02  0.87045312769E+01  0.59301941532E+02  0.49999995449E+02 0.  0.
        -12    1    1    2    0    0  0.11411482756E+02  0.28473319462E+02 -0.87045312769E+01  0.31886058468E+02  0.00000000000E+00 0.  1.
         11    1    3    3    0    0 -0.12365222785E+01 -0.98957121088E+01 -0.19853400453E+01  0.10168366675E+02  0.51100000000E-03 0. -1.
        -11    1    3    3    0    0  0.11366651692E+02 -0.13039153782E+02 -0.89367562603E+01  0.19470128781E+02  0.51100000000E-03 0.  1.
        -12    1    3    3    0    0 -0.21541612169E+02 -0.55384535708E+01  0.19626627582E+02  0.29663446075E+02  0.00000000000E+00 0.  1.
</event>
<event>
 7    1  0.1220856E-011  0.5930195E+02  0.7816164E-02  0.1266605E+00
        -11   -1    0    0    0    0  0.00000000000E+00  0.00000000000E+00  0.45593999997E+02  0.45594000000E+02  0.51100000000E-03 0.  1.
         11   -1    0    0    0    0 -0.00000000000E+00 -0.00000000000E+00 -0.45593999997E+02  0.45594000000E+02  0.51100000000E-03 0. -1.
    9900012    2    1    2    0    0 -0.16964346032E+02  0.21375694725E+02 -0.16492743185E+02  0.59301953851E+02  0.50000017915E+02 0.  0.
        -12    1    1    2    0    0  0.16964346032E+02 -0.21375694725E+02  0.16492743185E+02  0.31886046149E+02  0.00000000000E+00 0.  1.
         11    1    3    3    0    0 -0.85129957908E+01  0.71333237123E+01 -0.24438395753E+02  0.26843818502E+02  0.51100000000E-03 0. -1.
        -11    1    3    3    0    0 -0.14618848777E+02 -0.13711229563E+01  0.37471061408E+01  0.15153597672E+02  0.51100000000E-03 0.  1.
        -12    1    3    3    0    0  0.61674985358E+01  0.15613493969E+02  0.41985464272E+01  0.17304537677E+02  0.00000000000E+00 0.  1.
</event>
<event>
 7    1  0.1220856E-011  0.5930195E+02  0.7816164E-02  0.1266605E+00
        -11   -1    0    0    0    0  0.00000000000E+00  0.00000000000E+00  0.45593999997E+02  0.45594000000E+02  0.51100000000E-03 0.  1.
         11   -1    0    0    0    0 -0.00000000000E+00 -0.00000000000E+00 -0.45593999997E+02  0.45594000000E+02  0.51100000000E-03 0. -1.
    9900012    2    1    2    0    0  0.13985026230E+01  0.21475563082E+01 -0.31782894366E+02  0.59301950041E+02  0.50000010967E+02 0.  0.
        -12    1    1    2    0    0 -0.13985026230E+01 -0.21475563082E+01  0.31782894366E+02  0.31886049959E+02  0.00000000000E+00 0.  1.
         11    1    3    3    0    0  0.17847467747E+00  0.19172097403E+02 -0.51491052469E+01  0.19852316166E+02  0.51100000000E-03 0. -1.
        -11    1    3    3    0    0 -0.60692966980E+01  0.63441401952E+00  0.65585800338E+00  0.61375071110E+01  0.51100000000E-03 0.  1.
        -12    1    3    3    0    0  0.72893246435E+01 -0.17658955114E+02 -0.27289647123E+02  0.33312126764E+02  0.00000000000E+00 0.  1.
</event>
<event>
 7    1  0.1220856E-011  0.5930196E+02  0.7816164E-02  0.1266605E+00
        -11   -1    0    0    0    0  0.00000000000E+00  0.00000000000E+00  0.45593999997E+02  0.45594000000E+02  0.51100000000E-03 0.  1.
         11   -1    0    0    0    0 -0.00000000000E+00 -0.00000000000E+00 -0.45593999997E+02  0.45594000000E+02  0.51100000000E-03 0. -1.
    9900012    2    1    2    0    0  0.22805587948E+02 -0.17179396772E+02 -0.14194826147E+02  0.59301959097E+02  0.50000027483E+02 0.  0.
        -12    1    1    2    0    0 -0.22805587948E+02  0.17179396772E+02  0.14194826147E+02  0.31886040903E+02  0.00000000000E+00 0.  1.
         11    1    3    3    0    0  0.17907033535E+02  0.81179795156E+00 -0.12635294305E+02  0.21931063093E+02  0.51100000000E-03 0. -1.
        -11    1    3    3    0    0  0.25463101146E+01  0.31516661360E+01 -0.12718635781E+02  0.13348422791E+02  0.51100000000E-03 0.  1.
        -12    1    3    3    0    0  0.23522442984E+01 -0.21142860860E+02  0.11159103939E+02  0.24022473213E+02  0.00000000000E+00 0.  1.
</event>
<event>
 7    1  0.1220856E-011  0.5930194E+02  0.7816164E-02  0.1266605E+00
        -11   -1    0    0    0    0  0.00000000000E+00  0.00000000000E+00  0.45593999997E+02  0.45594000000E+02  0.51100000000E-03 0. -1.
         11   -1    0    0    0    0 -0.00000000000E+00 -0.00000000000E+00 -0.45593999997E+02  0.45594000000E+02  0.51100000000E-03 0.  1.
    9900012    2    1    2    0    0 -0.75895844373E+01 -0.20713690052E+02  0.23023070763E+02  0.59301944508E+02  0.50000000875E+02 0.  0.
        -12    1    1    2    0    0  0.75895844373E+01  0.20713690052E+02 -0.23023070763E+02  0.31886055492E+02  0.00000000000E+00 0.  1.
         11    1    3    3    0    0  0.82469868413E+01 -0.80834372766E+01  0.17207079593E+01  0.11675426601E+02  0.51100000000E-03 0.  1.
        -11    1    3    3    0    0  0.65120551368E+01 -0.10325172599E+02  0.21987506333E+02  0.25148886383E+02  0.51100000000E-03 0. -1.
         12    1    3    3    0    0 -0.22348626415E+02 -0.23050801770E+01 -0.68514352897E+00  0.22477631524E+02  0.00000000000E+00 0. -1.
</event>
<event>
 7    1  0.1220856E-011  0.5930193E+02  0.7816164E-02  0.1266605E+00
        -11   -1    0    0    0    0  0.00000000000E+00  0.00000000000E+00  0.45593999997E+02  0.45594000000E+02  0.51100000000E-03 0. -1.
         11   -1    0    0    0    0 -0.00000000000E+00 -0.00000000000E+00 -0.45593999997E+02  0.45594000000E+02  0.51100000000E-03 0.  1.
    9900012    2    1    2    0    0 -0.19483417825E+02  0.22660845727E+02 -0.11117736393E+02  0.59301928406E+02  0.49999971509E+02 0.  0.
        -12    1    1    2    0    0  0.19483417825E+02 -0.22660845727E+02  0.11117736393E+02  0.31886071594E+02  0.00000000000E+00 0.  1.
         11    1    3    3    0    0  0.40370072453E+01  0.30499173709E+01  0.41571015822E+00  0.50766365504E+01  0.51100000000E-03 0. -1.
        -11    1    3    3    0    0 -0.15286048549E+02  0.30888799603E+02  0.23368140734E+01  0.34543333966E+02  0.51100000000E-03 0.  1.
        -12    1    3    3    0    0 -0.82343765214E+01 -0.11277871248E+02 -0.13870260625E+02  0.19681957890E+02  0.00000000000E+00 0.  1.
</event>
<event>
 7    1  0.1220856E-011  0.5930195E+02  0.7816164E-02  0.1266605E+00
        -11   -1    0    0    0    0  0.00000000000E+00  0.00000000000E+00  0.45593999997E+02  0.45594000000E+02  0.51100000000E-03 0.  1.
         11   -1    0    0    0    0 -0.00000000000E+00 -0.00000000000E+00 -0.45593999997E+02  0.45594000000E+02  0.51100000000E-03 0. -1.
    9900012    2    1    2    0    0  0.13944264448E+02 -0.28036353402E+02 -0.60200234332E+01  0.59301948109E+02  0.50000007443E+02 0.  0.
        -12    1    1    2    0    0 -0.13944264448E+02  0.28036353402E+02  0.60200234332E+01  0.31886051891E+02  0.00000000000E+00 0.  1.
         11    1    3    3    0    0  0.13029540590E+02  0.29937534038E+01 -0.10146265180E+02  0.16783270980E+02  0.51100000000E-03 0. -1.
        -11    1    3    3    0    0 -0.56104231704E+01 -0.21941891752E+02 -0.97810798314E+01  0.24669677435E+02  0.51100000000E-03 0.  1.
         12    1    3    3    0    0  0.65251470286E+01 -0.90882150532E+01  0.13907321578E+02  0.17848999694E+02  0.00000000000E+00 0. -1.
</event>
<event>
 7    1  0.1220856E-011  0.5930195E+02  0.7816164E-02  0.1266605E+00
        -11   -1    0    0    0    0  0.00000000000E+00  0.00000000000E+00  0.45593999997E+02  0.45594000000E+02  0.51100000000E-03 0.  1.
         11   -1    0    0    0    0 -0.00000000000E+00 -0.00000000000E+00 -0.45593999997E+02  0.45594000000E+02  0.51100000000E-03 0. -1.
    9900012    2    1    2    0    0 -0.27637552969E+02  0.82505792009E+01 -0.13594621484E+02  0.59301950942E+02  0.50000012610E+02 0.  0.
        -12    1    1    2    0    0  0.27637552969E+02 -0.82505792009E+01  0.13594621484E+02  0.31886049058E+02  0.00000000000E+00 0.  1.
         11    1    3    3    0    0  0.90558010454E+01  0.26511249809E+01  0.10142000424E+02  0.13852659279E+02  0.51100000000E-03 0. -1.
        -11    1    3    3    0    0 -0.14476004219E+02 -0.30770682962E+01 -0.74598252769E+01  0.16573232662E+02  0.51100000000E-03 0.  1.
        -12    1    3    3    0    0 -0.22217349796E+02  0.86765225162E+01 -0.16276796630E+02  0.28876059002E+02  0.00000000000E+00 0.  1.
</event>
<event>
 7    1  0.1220856E-011  0.5930196E+02  0.7816164E-02  0.1266605E+00
        -11   -1    0    0    0    0  0.00000000000E+00  0.00000000000E+00  0.45593999997E+02  0.45594000000E+02  0.51100000000E-03 0. -1.
         11   -1    0    0    0    0 -0.00000000000E+00 -0.00000000000E+00 -0.45593999997E+02  0.45594000000E+02  0.51100000000E-03 0.  1.
    9900012    2    1    2    0    0 -0.14182448602E+02 -0.17968620474E+02  0.22196989086E+02  0.59301960820E+02  0.50000030625E+02 0.  0.
        -12    1    1    2    0    0  0.14182448602E+02  0.17968620474E+02 -0.22196989086E+02  0.31886039180E+02  0.00000000000E+00 0.  1.
         11    1    3    3    0    0 -0.20470097693E+02  0.51562687158E+01  0.43760308764E+01  0.21558331409E+02  0.51100000000E-03 0. -1.
        -11    1    3    3    0    0 -0.15146294819E+01  0.20396233584E+01 -0.31665819185E+01  0.40597299441E+01  0.51100000000E-03 0.  1.
        -12    1    3    3    0    0  0.78022785725E+01 -0.25164512548E+02  0.20987540128E+02  0.33683899468E+02  0.00000000000E+00 0.  1.
</event>
<event>
 7    1  0.1220856E-011  0.5930195E+02  0.7816164E-02  0.1266605E+00
        -11   -1    0    0    0    0  0.00000000000E+00  0.00000000000E+00  0.45593999997E+02  0.45594000000E+02  0.51100000000E-03 0.  1.
         11   -1    0    0    0    0 -0.00000000000E+00 -0.00000000000E+00 -0.45593999997E+02  0.45594000000E+02  0.51100000000E-03 0. -1.
    9900012    2    1    2    0    0  0.21405195567E+02 -0.22538666703E+02 -0.71095924083E+01  0.59301949787E+02  0.50000010503E+02 0.  0.
        -12    1    1    2    0    0 -0.21405195567E+02  0.22538666703E+02  0.71095924083E+01  0.31886050213E+02  0.00000000000E+00 0.  1.
         11    1    3    3    0    0  0.10084388472E+02 -0.15411951732E+02  0.14178734122E+02  0.23243486155E+02  0.51100000000E-03 0. -1.
        -11    1    3    3    0    0 -0.61700493513E+01  0.46329918095E+01 -0.81461063239E+01  0.11220212592E+02  0.51100000000E-03 0.  1.
        -12    1    3    3    0    0  0.17490856445E+02 -0.11759706780E+02 -0.13142220207E+02  0.24838251040E+02  0.00000000000E+00 0.  1.
</event>
<event>
 7    1  0.1220856E-011  0.5930194E+02  0.7816164E-02  0.1266605E+00
        -11   -1    0    0    0    0  0.00000000000E+00  0.00000000000E+00  0.45593999997E+02  0.45594000000E+02  0.51100000000E-03 0.  1.
         11   -1    0    0    0    0 -0.00000000000E+00 -0.00000000000E+00 -0.45593999997E+02  0.45594000000E+02  0.51100000000E-03 0. -1.
    9900012    2    1    2    0    0 -0.78908770002E+01  0.30255170829E+02  0.62513694303E+01  0.59301938445E+02  0.49999989818E+02 0.  0.
        -12    1    1    2    0    0  0.78908770002E+01 -0.30255170829E+02 -0.62513694303E+01  0.31886061555E+02  0.00000000000E+00 0.  1.
         11    1    3    3    0    0 -0.10113523142E+02 -0.11033813285E+01 -0.12415144260E+02  0.16051062518E+02  0.51100000000E-03 0. -1.
        -11    1    3    3    0    0  0.40444186919E+01  0.15153761353E+00 -0.31516490700E+01  0.51296372508E+01  0.51100000000E-03 0.  1.
        -12    1    3    3    0    0 -0.18217725504E+01  0.31207014544E+02  0.21818162760E+02  0.38121238676E+02  0.00000000000E+00 0.  1.
</event>
<event>
 7    1  0.1220856E-011  0.5930193E+02  0.7816164E-02  0.1266605E+00
        -11   -1    0    0    0    0  0.00000000000E+00  0.00000000000E+00  0.45593999997E+02  0.45594000000E+02  0.51100000000E-03 0. -1.
         11   -1    0    0    0    0 -0.00000000000E+00 -0.00000000000E+00 -0.45593999997E+02  0.45594000000E+02  0.51100000000E-03 0.  1.
    9900012    2    1    2    0    0  0.19271371596E+02  0.19007613896E+02  0.16853668131E+02  0.59301932844E+02  0.49999979604E+02 0.  0.
        -12    1    1    2    0    0 -0.19271371596E+02 -0.19007613896E+02 -0.16853668131E+02  0.31886067156E+02  0.00000000000E+00 0.  1.
         11    1    3    3    0    0 -0.60229906075E+01  0.49259136363E+01  0.14830160122E+02  0.16747378616E+02  0.51100000000E-03 0. -1.
        -11    1    3    3    0    0 -0.16712675182E+01  0.12373181369E+01 -0.10105602284E+02  0.10317329551E+02  0.51100000000E-03 0.  1.
        -12    1    3    3    0    0  0.26965629721E+02  0.12844382123E+02  0.12129110292E+02  0.32237224677E+02  0.00000000000E+00 0.  1.
</event>
<event>
 7    1  0.1220856E-011  0.5930174E+02  0.7816164E-02  0.1266605E+00
        -11   -1    0    0    0    0  0.00000000000E+00  0.00000000000E+00  0.45593999997E+02  0.45594000000E+02  0.51100000000E-03 0. -1.
         11   -1    0    0    0    0 -0.00000000000E+00 -0.00000000000E+00 -0.45593999997E+02  0.45594000000E+02  0.51100000000E-03 0.  1.
    9900012    2    1    2    0    0 -0.28540920260E+02 -0.13379362671E+02  0.48106179112E+01  0.59301740899E+02  0.49999629540E+02 0.  0.
        -12    1    1    2    0    0  0.28540920260E+02  0.13379362671E+02 -0.48106179112E+01  0.31886259101E+02  0.00000000000E+00 0.  1.
         11    1    3    3    0    0 -0.86016409331E+01 -0.19990237848E+02  0.13413302337E+02  0.25563929976E+02  0.51100000000E-03 0. -1.
        -11    1    3    3    0    0 -0.19658214724E+02 -0.33120694821E+01 -0.11972924709E+02  0.23254378872E+02  0.51100000000E-03 0.  1.
        -12    1    3    3    0    0 -0.28106460347E+00  0.99229446585E+01  0.33702402828E+01  0.10483432051E+02  0.00000000000E+00 0.  1.
</event>
<event>
 7    1  0.1220856E-011  0.5930191E+02  0.7816164E-02  0.1266605E+00
        -11   -1    0    0    0    0  0.00000000000E+00  0.00000000000E+00  0.45593999997E+02  0.45594000000E+02  0.51100000000E-03 0. -1.
         11   -1    0    0    0    0 -0.00000000000E+00 -0.00000000000E+00 -0.45593999997E+02  0.45594000000E+02  0.51100000000E-03 0.  1.
    9900012    2    1    2    0    0 -0.16918405800E+02  0.89044703431E+01  0.25518628588E+02  0.59301914447E+02  0.49999946051E+02 0.  0.
        -12    1    1    2    0    0  0.16918405800E+02 -0.89044703431E+01 -0.25518628588E+02  0.31886085553E+02  0.00000000000E+00 0.  1.
         11    1    3    3    0    0 -0.44030296100E+01  0.11036913965E+02 -0.11896326988E+02  0.16814360996E+02  0.51100000000E-03 0. -1.
        -11    1    3    3    0    0 -0.10049101089E+02  0.45729391530E+01  0.13035366085E+02  0.17082651270E+02  0.51100000000E-03 0.  1.
        -12    1    3    3    0    0 -0.24662751012E+01 -0.67053827754E+01  0.24379589491E+02  0.25404902181E+02  0.00000000000E+00 0.  1.
</event>
<event>
 7    1  0.1220856E-011  0.5930194E+02  0.7816164E-02  0.1266605E+00
        -11   -1    0    0    0    0  0.00000000000E+00  0.00000000000E+00  0.45593999997E+02  0.45594000000E+02  0.51100000000E-03 0. -1.
         11   -1    0    0    0    0 -0.00000000000E+00 -0.00000000000E+00 -0.45593999997E+02  0.45594000000E+02  0.51100000000E-03 0.  1.
    9900012    2    1    2    0    0  0.29435701821E+02  0.12248158598E+02  0.49310704406E+00  0.59301935876E+02  0.49999985134E+02 0.  0.
        -12    1    1    2    0    0 -0.29435701821E+02 -0.12248158598E+02 -0.49310704406E+00  0.31886064124E+02  0.00000000000E+00 0.  1.
         11    1    3    3    0    0  0.10754229995E+02  0.19906193079E+01  0.16678493146E+02  0.19944627395E+02  0.51100000000E-03 0. -1.
        -11    1    3    3    0    0 -0.60966355227E+01 -0.26581097297E+01  0.73485346304E+00  0.66913766824E+01  0.51100000000E-03 0.  1.
        -12    1    3    3    0    0  0.24778107348E+02  0.12915649019E+02 -0.16920239565E+02  0.32665931799E+02  0.00000000000E+00 0.  1.
</event>
<event>
 7    1  0.1220856E-011  0.5930193E+02  0.7816164E-02  0.1266605E+00
        -11   -1    0    0    0    0  0.00000000000E+00  0.00000000000E+00  0.45593999997E+02  0.45594000000E+02  0.51100000000E-03 0. -1.
         11   -1    0    0    0    0 -0.00000000000E+00 -0.00000000000E+00 -0.45593999997E+02  0.45594000000E+02  0.51100000000E-03 0.  1.
    9900012    2    1    2    0    0  0.62764885361E+01  0.27771279461E+02  0.14355587323E+02  0.59301934727E+02  0.49999983037E+02 0.  0.
        -12    1    1    2    0    0 -0.62764885361E+01 -0.27771279461E+02 -0.14355587323E+02  0.31886065273E+02  0.00000000000E+00 0.  1.
         11    1    3    3    0    0 -0.11313494472E+02  0.22099145824E+02  0.64962085089E+01  0.25662582266E+02  0.51100000000E-03 0. -1.
        -11    1    3    3    0    0 -0.31470008524E+01 -0.48036471678E+01  0.86619173560E+01  0.10392663423E+02  0.51100000000E-03 0.  1.
         12    1    3    3    0    0  0.20736983861E+02  0.10475780805E+02 -0.80253854227E+00  0.23246689038E+02  0.00000000000E+00 0. -1.
</event>
<event>
 7    1  0.1220856E-011  0.5930193E+02  0.7816164E-02  0.1266605E+00
        -11   -1    0    0    0    0  0.00000000000E+00  0.00000000000E+00  0.45593999997E+02  0.45594000000E+02  0.51100000000E-03 0.  1.
         11   -1    0    0    0    0 -0.00000000000E+00 -0.00000000000E+00 -0.45593999997E+02  0.45594000000E+02  0.51100000000E-03 0. -1.
    9900012    2    1    2    0    0 -0.13414077255E+02 -0.89135243390E+01 -0.27519686959E+02  0.59301928510E+02  0.49999971699E+02 0.  0.
        -12    1    1    2    0    0  0.13414077255E+02  0.89135243390E+01  0.27519686959E+02  0.31886071490E+02  0.00000000000E+00 0.  1.
         11    1    3    3    0    0 -0.60994556562E+01  0.13341520225E+02 -0.31958780338E+01  0.15013765613E+02  0.51100000000E-03 0.  1.
        -11    1    3    3    0    0 -0.37778068162E+01  0.53069519414E+01 -0.12487170828E+02  0.14084210976E+02  0.51100000000E-03 0. -1.
         12    1    3    3    0    0 -0.35368147823E+01 -0.27561996506E+02 -0.11836638097E+02  0.30203951921E+02  0.00000000000E+00 0. -1.
</event>
<event>
 7    1  0.1220856E-011  0.5930195E+02  0.7816164E-02  0.1266605E+00
        -11   -1    0    0    0    0  0.00000000000E+00  0.00000000000E+00  0.45593999997E+02  0.45594000000E+02  0.51100000000E-03 0.  1.
         11   -1    0    0    0    0 -0.00000000000E+00 -0.00000000000E+00 -0.45593999997E+02  0.45594000000E+02  0.51100000000E-03 0. -1.
    9900012    2    1    2    0    0 -0.20377984734E+02  0.64477821325E+01 -0.23661872881E+02  0.59301946865E+02  0.50000005175E+02 0.  0.
        -12    1    1    2    0    0  0.20377984734E+02 -0.64477821325E+01  0.23661872881E+02  0.31886053135E+02  0.00000000000E+00 0.  1.
         11    1    3    3    0    0 -0.64283652418E+01  0.54238978438E+01 -0.36703548770E+01  0.91768214914E+01  0.51100000000E-03 0. -1.
        -11    1    3    3    0    0 -0.28149916914E+02 -0.58332012240E+01 -0.18717876554E+02  0.34304561821E+02  0.51100000000E-03 0.  1.
        -12    1    3    3    0    0  0.14200297421E+02  0.68570855128E+01 -0.12736414498E+01  0.15820563553E+02  0.00000000000E+00 0.  1.
</event>
<event>
 7    1  0.1220856E-011  0.5930195E+02  0.7816164E-02  0.1266605E+00
        -11   -1    0    0    0    0  0.00000000000E+00  0.00000000000E+00  0.45593999997E+02  0.45594000000E+02  0.51100000000E-03 0.  1.
         11   -1    0    0    0    0 -0.00000000000E+00 -0.00000000000E+00 -0.45593999997E+02  0.45594000000E+02  0.51100000000E-03 0. -1.
    9900012    2    1    2    0    0  0.35624110982E+01  0.64537355021E+01 -0.31022234295E+02  0.59301945126E+02  0.50000002004E+02 0.  0.
        -12    1    1    2    0    0 -0.35624110982E+01 -0.64537355021E+01  0.31022234295E+02  0.31886054874E+02  0.00000000000E+00 0.  1.
         11    1    3    3    0    0 -0.68487541038E+01  0.12240336509E+01 -0.15757310715E+02  0.17224881200E+02  0.51100000000E-03 0. -1.
        -11    1    3    3    0    0  0.11372288432E+02  0.19574800744E+02 -0.23663942038E+01  0.22761845051E+02  0.51100000000E-03 0.  1.
        -12    1    3    3    0    0 -0.96112322964E+00 -0.14345098893E+02 -0.12898529376E+02  0.19315218875E+02  0.00000000000E+00 0.  1.
</event>
<event>
 7    1  0.1220856E-011  0.5930187E+02  0.7816164E-02  0.1266605E+00
        -11   -1    0    0    0    0  0.00000000000E+00  0.00000000000E+00  0.45593999997E+02  0.45594000000E+02  0.51100000000E-03 0.  1.
         11   -1    0    0    0    0 -0.00000000000E+00 -0.00000000000E+00 -0.45593999997E+02  0.45594000000E+02  0.51100000000E-03 0. -1.
    9900012    2    1    2    0    0 -0.10846776546E+02  0.13324904182E+02 -0.26861120559E+02  0.59301867739E+02  0.49999860867E+02 0.  0.
        -12    1    1    2    0    0  0.10846776546E+02 -0.13324904182E+02  0.26861120559E+02  0.31886132261E+02  0.00000000000E+00 0.  1.
         11    1    3    3    0    0 -0.61392658660E+01  0.30965486107E+00 -0.25587468573E+02  0.26315490111E+02  0.51100000000E-03 0. -1.
        -11    1    3    3    0    0  0.24297026856E+01 -0.91579123934E+01 -0.19914994740E+01  0.96817810841E+01  0.51100000000E-03 0.  1.
         12    1    3    3    0    0 -0.71372133658E+01  0.22173161715E+02  0.71784748864E+00  0.23304596544E+02  0.00000000000E+00 0. -1.
</event>
<event>
 7    1  0.1220856E-011  0.5930200E+02  0.7816164E-02  0.1266605E+00
        -11   -1    0    0    0    0  0.00000000000E+00  0.00000000000E+00  0.45593999997E+02  0.45594000000E+02  0.51100000000E-03 0. -1.
         11   -1    0    0    0    0 -0.00000000000E+00 -0.00000000000E+00 -0.45593999997E+02  0.45594000000E+02  0.51100000000E-03 0.  1.
    9900012    2    1    2    0    0  0.15852444326E+01  0.31798556124E+02  0.17480686198E+01  0.59302001264E+02  0.50000104386E+02 0.  0.
        -12    1    1    2    0    0 -0.15852444326E+01 -0.31798556124E+02 -0.17480686198E+01  0.31885998736E+02  0.00000000000E+00 0.  1.
         11    1    3    3    0    0 -0.96723504773E+01  0.15133776827E+01 -0.10144547180E+02  0.14098103188E+02  0.51100000000E-03 0. -1.
        -11    1    3    3    0    0 -0.60494530070E+01  0.12048664013E+02 -0.55755735670E+01  0.14589489609E+02  0.51100000000E-03 0.  1.
         12    1    3    3    0    0  0.17307047917E+02  0.18236514428E+02  0.17468189366E+02  0.30614408468E+02  0.00000000000E+00 0. -1.
</event>
<event>
 7    1  0.1220856E-011  0.5930190E+02  0.7816164E-02  0.1266605E+00
        -11   -1    0    0    0    0  0.00000000000E+00  0.00000000000E+00  0.45593999997E+02  0.45594000000E+02  0.51100000000E-03 0.  1.
         11   -1    0    0    0    0 -0.00000000000E+00 -0.00000000000E+00 -0.45593999997E+02  0.45594000000E+02  0.51100000000E-03 0. -1.
    9900012    2    1    2    0    0 -0.26037328585E+02  0.18353072476E+02  0.13949028384E+01  0.59301897963E+02  0.49999915989E+02 0.  0.
        -12    1    1    2    0    0  0.26037328585E+02 -0.18353072476E+02 -0.13949028384E+01  0.31886102037E+02  0.00000000000E+00 0.  1.
         11    1    3    3    0    0 -0.57636537039E+01 -0.14464892704E+02 -0.95364795433E+01  0.18259169403E+02  0.51100000000E-03 0. -1.
        -11    1    3    3    0    0 -0.13005653530E+01  0.36071797673E+01  0.39752413622E+01  0.55232019934E+01  0.51100000000E-03 0.  1.
        -12    1    3    3    0    0 -0.18973109528E+02  0.29210785413E+02  0.69561410195E+01  0.35519526566E+02  0.00000000000E+00 0.  1.
</event>
<event>
 7    1  0.1220856E-011  0.5930195E+02  0.7816164E-02  0.1266605E+00
        -11   -1    0    0    0    0  0.00000000000E+00  0.00000000000E+00  0.45593999997E+02  0.45594000000E+02  0.51100000000E-03 0. -1.
         11   -1    0    0    0    0 -0.00000000000E+00 -0.00000000000E+00 -0.45593999997E+02  0.45594000000E+02  0.51100000000E-03 0.  1.
    9900012    2    1    2    0    0  0.28878714873E+02 -0.11273594798E+02  0.74596488574E+01  0.59301945470E+02  0.50000002631E+02 0.  0.
        -12    1    1    2    0    0 -0.28878714873E+02  0.11273594798E+02 -0.74596488574E+01  0.31886054530E+02  0.00000000000E+00 0.  1.
         11    1    3    3    0    0  0.37944589230E+02 -0.69115224363E+01  0.46780600645E+01  0.38851579639E+02  0.51100000000E-03 0. -1.
        -11    1    3    3    0    0  0.38981136449E+01  0.16240591434E+01  0.43772187630E+01  0.60821790874E+01  0.51100000000E-03 0.  1.
        -12    1    3    3    0    0 -0.12963988002E+02 -0.59861315047E+01 -0.15956299702E+01  0.14368186744E+02  0.00000000000E+00 0.  1.
</event>
<event>
 7    1  0.1220856E-011  0.5930194E+02  0.7816164E-02  0.1266605E+00
        -11   -1    0    0    0    0  0.00000000000E+00  0.00000000000E+00  0.45593999997E+02  0.45594000000E+02  0.51100000000E-03 0.  1.
         11   -1    0    0    0    0 -0.00000000000E+00 -0.00000000000E+00 -0.45593999997E+02  0.45594000000E+02  0.51100000000E-03 0. -1.
    9900012    2    1    2    0    0  0.43855935945E+01  0.20691710454E+02 -0.23860851833E+02  0.59301944068E+02  0.50000000073E+02 0.  0.
        -12    1    1    2    0    0 -0.43855935945E+01 -0.20691710454E+02  0.23860851833E+02  0.31886055932E+02  0.00000000000E+00 0.  1.
         11    1    3    3    0    0 -0.71856763246E+01  0.14970025867E+02 -0.23683545019E+02  0.28924832301E+02  0.51100000000E-03 0. -1.
        -11    1    3    3    0    0  0.96733406137E+01 -0.28122204690E+01 -0.12003380115E+02  0.15670457461E+02  0.51100000000E-03 0.  1.
        -12    1    3    3    0    0  0.18979293054E+01  0.85339050567E+01  0.11826073301E+02  0.14706654306E+02  0.00000000000E+00 0.  1.
</event>
<event>
 7    1  0.1220856E-011  0.5930195E+02  0.7816164E-02  0.1266605E+00
        -11   -1    0    0    0    0  0.00000000000E+00  0.00000000000E+00  0.45593999997E+02  0.45594000000E+02  0.51100000000E-03 0. -1.
         11   -1    0    0    0    0 -0.00000000000E+00 -0.00000000000E+00 -0.45593999997E+02  0.45594000000E+02  0.51100000000E-03 0.  1.
    9900012    2    1    2    0    0  0.68212849431E+01 -0.23094817107E+02  0.20900236582E+02  0.59301946706E+02  0.50000004884E+02 0.  0.
        -12    1    1    2    0    0 -0.68212849431E+01  0.23094817107E+02 -0.20900236582E+02  0.31886053294E+02  0.00000000000E+00 0.  1.
         11    1    3    3    0    0  0.97340485991E+01 -0.25263564501E+02  0.13240222706E+02  0.30138063823E+02  0.51100000000E-03 0. -1.
        -11    1    3    3    0    0 -0.27657860454E+01 -0.12310669606E+02 -0.33732192156E+00  0.12622042027E+02  0.51100000000E-03 0.  1.
         12    1    3    3    0    0 -0.14697761058E+00  0.14479416999E+02  0.79973357972E+01  0.16541840856E+02  0.00000000000E+00 0. -1.
</event>
<event>
 7    1  0.1220856E-011  0.5930193E+02  0.7816164E-02  0.1266605E+00
        -11   -1    0    0    0    0  0.00000000000E+00  0.00000000000E+00  0.45593999997E+02  0.45594000000E+02  0.51100000000E-03 0.  1.
         11   -1    0    0    0    0 -0.00000000000E+00 -0.00000000000E+00 -0.45593999997E+02  0.45594000000E+02  0.51100000000E-03 0. -1.
    9900012    2    1    2    0    0  0.28398514508E-01  0.29333303185E+02 -0.12501117730E+02  0.59301930522E+02  0.49999975370E+02 0.  0.
        -12    1    1    2    0    0 -0.28398514508E-01 -0.29333303185E+02  0.12501117730E+02  0.31886069478E+02  0.00000000000E+00 0.  1.
         11    1    3    3    0    0  0.33256996179E+01  0.24185425022E+02 -0.37846295181E+01  0.24704624714E+02  0.51100000000E-03 0. -1.
        -11    1    3    3    0    0 -0.25545401993E+00 -0.53964617619E+01  0.10874157080E+02  0.12142254682E+02  0.51100000000E-03 0.  1.
         12    1    3    3    0    0 -0.30418470835E+01  0.10544339925E+02 -0.19590645292E+02  0.22455051126E+02  0.00000000000E+00 0. -1.
</event>
<event>
 7    1  0.1220856E-011  0.5930188E+02  0.7816164E-02  0.1266605E+00
        -11   -1    0    0    0    0  0.00000000000E+00  0.00000000000E+00  0.45593999997E+02  0.45594000000E+02  0.51100000000E-03 0. -1.
         11   -1    0    0    0    0 -0.00000000000E+00 -0.00000000000E+00 -0.45593999997E+02  0.45594000000E+02  0.51100000000E-03 0.  1.
    9900012    2    1    2    0    0  0.12649725649E+02  0.87108192268E+00  0.29256630877E+02  0.59301877737E+02  0.49999879101E+02 0.  0.
        -12    1    1    2    0    0 -0.12649725649E+02 -0.87108192268E+00 -0.29256630877E+02  0.31886122263E+02  0.00000000000E+00 0.  1.
         11    1    3    3    0    0  0.12267132837E+02 -0.81266467950E+01  0.94128136949E+01  0.17467856139E+02  0.51100000000E-03 0. -1.
        -11    1    3    3    0    0 -0.34507603822E+01 -0.58461076217E+01  0.24807573580E+02  0.25719650634E+02  0.51100000000E-03 0.  1.
        -12    1    3    3    0    0  0.38333531944E+01  0.14843836339E+02 -0.49637563985E+01  0.16114370964E+02  0.00000000000E+00 0.  1.
</event>
<event>
 7    1  0.1220856E-011  0.5930195E+02  0.7816164E-02  0.1266605E+00
        -11   -1    0    0    0    0  0.00000000000E+00  0.00000000000E+00  0.45593999997E+02  0.45594000000E+02  0.51100000000E-03 0.  1.
         11   -1    0    0    0    0 -0.00000000000E+00 -0.00000000000E+00 -0.45593999997E+02  0.45594000000E+02  0.51100000000E-03 0. -1.
    9900012    2    1    2    0    0 -0.22171845304E+02  0.57993797950E+01 -0.22169728585E+02  0.59301946689E+02  0.50000004854E+02 0.  0.
        -12    1    1    2    0    0  0.22171845304E+02 -0.57993797950E+01  0.22169728585E+02  0.31886053311E+02  0.00000000000E+00 0.  1.
         11    1    3    3    0    0 -0.11440936758E+02  0.42131157295E+01 -0.91640851776E+00  0.12226413329E+02  0.51100000000E-03 0. -1.
        -11    1    3    3    0    0  0.15259991273E+01  0.22119860247E+01  0.11651008287E+02  0.11956903858E+02  0.51100000000E-03 0.  1.
         12    1    3    3    0    0 -0.12256907673E+02 -0.62572195922E+00 -0.32904328354E+02  0.35118629502E+02  0.00000000000E+00 0. -1.
</event>
<event>
 7    1  0.1220856E-011  0.5930196E+02  0.7816164E-02  0.1266605E+00
        -11   -1    0    0    0    0  0.00000000000E+00  0.00000000000E+00  0.45593999997E+02  0.45594000000E+02  0.51100000000E-03 0. -1.
         11   -1    0    0    0    0 -0.00000000000E+00 -0.00000000000E+00 -0.45593999997E+02  0.45594000000E+02  0.51100000000E-03 0.  1.
    9900012    2    1    2    0    0  0.24757552463E+02  0.11680333023E+02  0.16350933244E+02  0.59301959144E+02  0.50000027569E+02 0.  0.
        -12    1    1    2    0    0 -0.24757552463E+02 -0.11680333023E+02 -0.16350933244E+02  0.31886040856E+02  0.00000000000E+00 0.  1.
         11    1    3    3    0    0  0.27143414033E+02 -0.10632169263E+02  0.10895931294E+02  0.31121202863E+02  0.51100000000E-03 0. -1.
        -11    1    3    3    0    0 -0.15151794520E+00 -0.21840326379E+01 -0.14570829306E+01  0.26298378617E+01  0.51100000000E-03 0.  1.
        -12    1    3    3    0    0 -0.22343436244E+01  0.24496534924E+02  0.69120848813E+01  0.25550918420E+02  0.00000000000E+00 0.  1.
</event>
<event>
 7    1  0.1220856E-011  0.5930190E+02  0.7816164E-02  0.1266605E+00
        -11   -1    0    0    0    0  0.00000000000E+00  0.00000000000E+00  0.45593999997E+02  0.45594000000E+02  0.51100000000E-03 0.  1.
         11   -1    0    0    0    0 -0.00000000000E+00 -0.00000000000E+00 -0.45593999997E+02  0.45594000000E+02  0.51100000000E-03 0. -1.
    9900012    2    1    2    0    0 -0.14328879233E+02 -0.28366242802E+02  0.26005415074E+01  0.59301900726E+02  0.49999921028E+02 0.  0.
        -12    1    1    2    0    0  0.14328879233E+02  0.28366242802E+02 -0.26005415074E+01  0.31886099274E+02  0.00000000000E+00 0.  1.
         11    1    3    3    0    0 -0.13402119251E+02 -0.17637784935E+02 -0.95030704625E+01  0.24104286057E+02  0.51100000000E-03 0. -1.
        -11    1    3    3    0    0  0.55913046132E+01 -0.14881602813E+02 -0.48039504336E+01  0.16607309523E+02  0.51100000000E-03 0.  1.
        -12    1    3    3    0    0 -0.65180645955E+01  0.41531449460E+01  0.16907562404E+02  0.18590305147E+02  0.00000000000E+00 0.  1.
</event>
<event>
 7    1  0.1220856E-011  0.5930187E+02  0.7816164E-02  0.1266605E+00
        -11   -1    0    0    0    0  0.00000000000E+00  0.00000000000E+00  0.45593999997E+02  0.45594000000E+02  0.51100000000E-03 0.  1.
         11   -1    0    0    0    0 -0.00000000000E+00 -0.00000000000E+00 -0.45593999997E+02  0.45594000000E+02  0.51100000000E-03 0. -1.
    9900012    2    1    2    0    0 -0.99059107627E+01  0.23810415179E+02  0.18752654051E+02  0.59301874914E+02  0.49999873953E+02 0.  0.
        -12    1    1    2    0    0  0.99059107627E+01 -0.23810415179E+02 -0.18752654051E+02  0.31886125086E+02  0.00000000000E+00 0.  1.
         11    1    3    3    0    0  0.42860197105E+01  0.25461307877E+01  0.23177448370E+01  0.54976984582E+01  0.51100000000E-03 0. -1.
        -11    1    3    3    0    0  0.38729020653E+01  0.16564060917E+02  0.27329521478E+02  0.32191151408E+02  0.51100000000E-03 0.  1.
         12    1    3    3    0    0 -0.18064832538E+02  0.47002234739E+01 -0.10894612264E+02  0.21613025048E+02  0.00000000000E+00 0. -1.
</event>
<event>
 7    1  0.1220856E-011  0.5930193E+02  0.7816164E-02  0.1266605E+00
        -11   -1    0    0    0    0  0.00000000000E+00  0.00000000000E+00  0.45593999997E+02  0.45594000000E+02  0.51100000000E-03 0. -1.
         11   -1    0    0    0    0 -0.00000000000E+00 -0.00000000000E+00 -0.45593999997E+02  0.45594000000E+02  0.51100000000E-03 0.  1.
    9900012    2    1    2    0    0  0.30841048914E+02 -0.41697940738E+01 -0.69400166658E+01  0.59301932321E+02  0.49999978649E+02 0.  0.
        -12    1    1    2    0    0 -0.30841048914E+02  0.41697940738E+01  0.69400166658E+01  0.31886067679E+02  0.00000000000E+00 0.  1.
         11    1    3    3    0    0 -0.22210509143E+01  0.74241848087E+01  0.11604401259E+02  0.13953985670E+02  0.51100000000E-03 0. -1.
        -11    1    3    3    0    0 -0.33485964859E+00 -0.46665681773E+01  0.24655110395E+01  0.52884529386E+01  0.51100000000E-03 0.  1.
         12    1    3    3    0    0  0.33396959477E+02 -0.69274107052E+01 -0.21009928964E+02  0.40059493712E+02  0.00000000000E+00 0. -1.
</event>
<event>
 7    1  0.1220856E-011  0.5930193E+02  0.7816164E-02  0.1266605E+00
        -11   -1    0    0    0    0  0.00000000000E+00  0.00000000000E+00  0.45593999997E+02  0.45594000000E+02  0.51100000000E-03 0. -1.
         11   -1    0    0    0    0 -0.00000000000E+00 -0.00000000000E+00 -0.45593999997E+02  0.45594000000E+02  0.51100000000E-03 0.  1.
    9900012    2    1    2    0    0 -0.72944223305E+01 -0.14322526972E+02  0.27538661756E+02  0.59301933022E+02  0.49999979928E+02 0.  0.
        -12    1    1    2    0    0  0.72944223305E+01  0.14322526972E+02 -0.27538661756E+02  0.31886066978E+02  0.00000000000E+00 0.  1.
         11    1    3    3    0    0 -0.12871030119E+02  0.82321389459E+01  0.69186657284E+01  0.16771984488E+02  0.51100000000E-03 0.  1.
        -11    1    3    3    0    0 -0.73060124085E+01 -0.20372957636E+02  0.19968192700E+02  0.29447647446E+02  0.51100000000E-03 0. -1.
        -12    1    3    3    0    0  0.12882620197E+02 -0.21817082825E+01  0.65180332806E+00  0.13082301088E+02  0.00000000000E+00 0.  1.
</event>
<event>
 7    1  0.1220856E-011  0.5930200E+02  0.7816164E-02  0.1266605E+00
        -11   -1    0    0    0    0  0.00000000000E+00  0.00000000000E+00  0.45593999997E+02  0.45594000000E+02  0.51100000000E-03 0.  1.
         11   -1    0    0    0    0 -0.00000000000E+00 -0.00000000000E+00 -0.45593999997E+02  0.45594000000E+02  0.51100000000E-03 0. -1.
    9900012    2    1    2    0    0  0.11238315047E+02  0.25954236566E+02 -0.14723955176E+02  0.59302000300E+02  0.50000102628E+02 0.  0.
        -12    1    1    2    0    0 -0.11238315047E+02 -0.25954236566E+02  0.14723955176E+02  0.31885999700E+02  0.00000000000E+00 0.  1.
         11    1    3    3    0    0  0.16323083295E+01  0.10646583450E+02  0.84447956793E+00  0.10804041635E+02  0.51100000000E-03 0. -1.
        -11    1    3    3    0    0  0.19204000474E+02 -0.74424856551E+00 -0.21538045642E+02  0.28865809369E+02  0.51100000000E-03 0.  1.
         12    1    3    3    0    0 -0.95979937569E+01  0.16051901681E+02  0.59696108981E+01  0.19632149297E+02  0.00000000000E+00 0. -1.
</event>
<event>
 7    1  0.1220856E-011  0.5930190E+02  0.7816164E-02  0.1266605E+00
        -11   -1    0    0    0    0  0.00000000000E+00  0.00000000000E+00  0.45593999997E+02  0.45594000000E+02  0.51100000000E-03 0. -1.
         11   -1    0    0    0    0 -0.00000000000E+00 -0.00000000000E+00 -0.45593999997E+02  0.45594000000E+02  0.51100000000E-03 0.  1.
    9900012    2    1    2    0    0 -0.30351872432E+02  0.55347545054E+01  0.80531785564E+01  0.59301900326E+02  0.49999920299E+02 0.  0.
        -12    1    1    2    0    0  0.30351872432E+02 -0.55347545054E+01 -0.80531785564E+01  0.31886099674E+02  0.00000000000E+00 0.  1.
         11    1    3    3    0    0 -0.74344901176E+01 -0.25948562997E+01  0.20903980346E+02  0.22337889719E+02  0.51100000000E-03 0. -1.
        -11    1    3    3    0    0 -0.16231048190E+02  0.16519552313E+02 -0.50604133704E+01  0.23705491299E+02  0.51100000000E-03 0.  1.
        -12    1    3    3    0    0 -0.66863341237E+01 -0.83899415083E+01 -0.77903884191E+01  0.13258519308E+02  0.00000000000E+00 0.  1.
</event>
<event>
 7    1  0.1220856E-011  0.5930196E+02  0.7816164E-02  0.1266605E+00
        -11   -1    0    0    0    0  0.00000000000E+00  0.00000000000E+00  0.45593999997E+02  0.45594000000E+02  0.51100000000E-03 0.  1.
         11   -1    0    0    0    0 -0.00000000000E+00 -0.00000000000E+00 -0.45593999997E+02  0.45594000000E+02  0.51100000000E-03 0. -1.
    9900012    2    1    2    0    0  0.15996445277E+02  0.20217221770E+02 -0.18764260084E+02  0.59301956437E+02  0.50000022632E+02 0.  0.
        -12    1    1    2    0    0 -0.15996445277E+02 -0.20217221770E+02  0.18764260084E+02  0.31886043563E+02  0.00000000000E+00 0.  1.
         11    1    3    3    0    0  0.20347953623E+02  0.64363539062E+01 -0.25360853635E+02  0.33145720170E+02  0.51100000000E-03 0. -1.
        -11    1    3    3    0    0  0.65922899442E+01  0.11994889698E+01  0.67073511862E+01  0.94808027452E+01  0.51100000000E-03 0.  1.
        -12    1    3    3    0    0 -0.10943798291E+02  0.12581378894E+02 -0.11075763606E+00  0.16675433522E+02  0.00000000000E+00 0.  1.
</event>
<event>
 7    1  0.1220856E-011  0.5930196E+02  0.7816164E-02  0.1266605E+00
        -11   -1    0    0    0    0  0.00000000000E+00  0.00000000000E+00  0.45593999997E+02  0.45594000000E+02  0.51100000000E-03 0.  1.
         11   -1    0    0    0    0 -0.00000000000E+00 -0.00000000000E+00 -0.45593999997E+02  0.45594000000E+02  0.51100000000E-03 0. -1.
    9900012    2    1    2    0    0 -0.26005112676E+02  0.14382677607E+02 -0.11558224292E+02  0.59301955259E+02  0.50000020482E+02 0.  0.
        -12    1    1    2    0    0  0.26005112676E+02 -0.14382677607E+02  0.11558224292E+02  0.31886044741E+02  0.00000000000E+00 0.  1.
         11    1    3    3    0    0 -0.14344872402E+02  0.89423116592E+01 -0.33222317602E+01  0.17227232110E+02  0.51100000000E-03 0.  1.
        -11    1    3    3    0    0 -0.28147613983E+01  0.17330148703E+02  0.86799308568E+01  0.19585661483E+02  0.51100000000E-03 0. -1.
        -12    1    3    3    0    0 -0.88454788760E+01 -0.11889782755E+02 -0.16915923389E+02  0.22489061666E+02  0.00000000000E+00 0.  1.
</event>
<event>
 7    1  0.1220856E-011  0.5930194E+02  0.7816164E-02  0.1266605E+00
        -11   -1    0    0    0    0  0.00000000000E+00  0.00000000000E+00  0.45593999997E+02  0.45594000000E+02  0.51100000000E-03 0. -1.
         11   -1    0    0    0    0 -0.00000000000E+00 -0.00000000000E+00 -0.45593999997E+02  0.45594000000E+02  0.51100000000E-03 0.  1.
    9900012    2    1    2    0    0  0.16302145799E+02 -0.23574611406E+02  0.13971346336E+02  0.59301940679E+02  0.49999993893E+02 0.  0.
        -12    1    1    2    0    0 -0.16302145799E+02  0.23574611406E+02 -0.13971346336E+02  0.31886059321E+02  0.00000000000E+00 0.  1.
         11    1    3    3    0    0  0.87923048018E+01 -0.36636037332E+02  0.95758044431E+01  0.38874154474E+02  0.51100000000E-03 0. -1.
        -11    1    3    3    0    0 -0.28361421917E+01 -0.24675699012E+00  0.18111871332E+01  0.33741651762E+01  0.51100000000E-03 0.  1.
        -12    1    3    3    0    0  0.10345983189E+02  0.13308182916E+02  0.25843547593E+01  0.17053621028E+02  0.00000000000E+00 0.  1.
</event>
<event>
 7    1  0.1220856E-011  0.5930187E+02  0.7816164E-02  0.1266605E+00
        -11   -1    0    0    0    0  0.00000000000E+00  0.00000000000E+00  0.45593999997E+02  0.45594000000E+02  0.51100000000E-03 0. -1.
         11   -1    0    0    0    0 -0.00000000000E+00 -0.00000000000E+00 -0.45593999997E+02  0.45594000000E+02  0.51100000000E-03 0.  1.
    9900012    2    1    2    0    0  0.29928501166E+02  0.72212541273E+01  0.82984132365E+01  0.59301868917E+02  0.49999863016E+02 0.  0.
        -12    1    1    2    0    0 -0.29928501166E+02 -0.72212541273E+01 -0.82984132365E+01  0.31886131083E+02  0.00000000000E+00 0.  1.
         11    1    3    3    0    0  0.32655954720E+02  0.39108430366E+01 -0.21169731747E+01  0.32957361053E+02  0.51100000000E-03 0. -1.
        -11    1    3    3    0    0  0.58407270655E+01 -0.42191053440E+01 -0.37780934900E+01  0.81356581318E+01  0.51100000000E-03 0.  1.
         12    1    3    3    0    0 -0.85681806195E+01  0.75295164347E+01  0.14193479901E+02  0.18208849732E+02  0.00000000000E+00 0. -1.
</event>
<event>
 7    1  0.1220856E-011  0.5930195E+02  0.7816164E-02  0.1266605E+00
        -11   -1    0    0    0    0  0.00000000000E+00  0.00000000000E+00  0.45593999997E+02  0.45594000000E+02  0.51100000000E-03 0.  1.
         11   -1    0    0    0    0 -0.00000000000E+00 -0.00000000000E+00 -0.45593999997E+02  0.45594000000E+02  0.51100000000E-03 0. -1.
    9900012    2    1    2    0    0 -0.22211681022E+02  0.22830873218E+02  0.14534695918E+01  0.59301951020E+02  0.50000012752E+02 0.  0.
        -12    1    1    2    0    0  0.22211681022E+02 -0.22830873218E+02 -0.14534695918E+01  0.31886048980E+02  0.00000000000E+00 0.  1.
         11    1    3    3    0    0 -0.31223700053E+02  0.84941503220E+01  0.58614989426E+01  0.32885060511E+02  0.51100000000E-03 0. -1.
        -11    1    3    3    0    0 -0.30850787414E+01  0.12868276694E+02 -0.51704278330E+01  0.14207166507E+02  0.51100000000E-03 0.  1.
        -12    1    3    3    0    0  0.12097097772E+02  0.14684462023E+01  0.76239848215E+00  0.12209724002E+02  0.00000000000E+00 0.  1.
</event>
<event>
 7    1  0.1220856E-011  0.5930197E+02  0.7816164E-02  0.1266605E+00
        -11   -1    0    0    0    0  0.00000000000E+00  0.00000000000E+00  0.45593999997E+02  0.45594000000E+02  0.51100000000E-03 0. -1.
         11   -1    0    0    0    0 -0.00000000000E+00 -0.00000000000E+00 -0.45593999997E+02  0.45594000000E+02  0.51100000000E-03 0.  1.
    9900012    2    1    2    0    0 -0.19714219436E+02  0.23981759621E+02 -0.72762434158E+01  0.59301969191E+02  0.50000045892E+02 0.  0.
        -12    1    1    2    0    0  0.19714219436E+02 -0.23981759621E+02  0.72762434158E+01  0.31886030809E+02  0.00000000000E+00 0.  1.
         11    1    3    3    0    0 -0.24581935795E+02  0.79053914218E+01  0.48131496120E+01  0.26266579343E+02  0.51100000000E-03 0. -1.
        -11    1    3    3    0    0  0.17235614594E+01  0.12766474994E+02  0.61202421365E+01  0.14262219741E+02  0.51100000000E-03 0.  1.
        -12    1    3    3    0    0  0.31441548991E+01  0.33098932055E+01 -0.18209635164E+02  0.18773170107E+02  0.00000000000E+00 0.  1.
</event>
<event>
 7    1  0.1220856E-011  0.5930196E+02  0.7816164E-02  0.1266605E+00
        -11   -1    0    0    0    0  0.00000000000E+00  0.00000000000E+00  0.45593999997E+02  0.45594000000E+02  0.51100000000E-03 0. -1.
         11   -1    0    0    0    0 -0.00000000000E+00 -0.00000000000E+00 -0.45593999997E+02  0.45594000000E+02  0.51100000000E-03 0.  1.
    9900012    2    1    2    0    0 -0.26497964700E+02  0.27702513411E+01  0.17518659411E+02  0.59301955195E+02  0.50000020367E+02 0.  0.
        -12    1    1    2    0    0  0.26497964700E+02 -0.27702513411E+01 -0.17518659411E+02  0.31886044805E+02  0.00000000000E+00 0.  1.
         11    1    3    3    0    0  0.52826977093E+01 -0.80214393583E+01  0.14984198315E+02  0.17798218559E+02  0.51100000000E-03 0. -1.
        -11    1    3    3    0    0 -0.17679439705E+01  0.20673184990E+01  0.91589616653E+01  0.95543712879E+01  0.51100000000E-03 0.  1.
         12    1    3    3    0    0 -0.30012718439E+02  0.87243722003E+01 -0.66245005699E+01  0.31949365349E+02  0.00000000000E+00 0. -1.
</event>
<event>
 7    1  0.1220856E-011  0.5930196E+02  0.7816164E-02  0.1266605E+00
        -11   -1    0    0    0    0  0.00000000000E+00  0.00000000000E+00  0.45593999997E+02  0.45594000000E+02  0.51100000000E-03 0. -1.
         11   -1    0    0    0    0 -0.00000000000E+00 -0.00000000000E+00 -0.45593999997E+02  0.45594000000E+02  0.51100000000E-03 0.  1.
    9900012    2    1    2    0    0  0.26464027688E+01  0.21457484574E+02  0.23436994500E+02  0.59301955983E+02  0.50000021803E+02 0.  0.
        -12    1    1    2    0    0 -0.26464027688E+01 -0.21457484574E+02 -0.23436994500E+02  0.31886044017E+02  0.00000000000E+00 0.  1.
         11    1    3    3    0    0 -0.74278182957E+01  0.14126011303E+02  0.85002836959E+01  0.18082353363E+02  0.51100000000E-03 0. -1.
        -11    1    3    3    0    0 -0.82827098427E+01 -0.95376420231E+01  0.10338994340E+01  0.12674338089E+02  0.51100000000E-03 0.  1.
         12    1    3    3    0    0  0.18356930907E+02  0.16869115293E+02  0.13902811371E+02  0.28545264531E+02  0.00000000000E+00 0. -1.
</event>
<event>
 7    1  0.1220856E-011  0.5930193E+02  0.7816164E-02  0.1266605E+00
        -11   -1    0    0    0    0  0.00000000000E+00  0.00000000000E+00  0.45593999997E+02  0.45594000000E+02  0.51100000000E-03 0. -1.
         11   -1    0    0    0    0 -0.00000000000E+00 -0.00000000000E+00 -0.45593999997E+02  0.45594000000E+02  0.51100000000E-03 0.  1.
    9900012    2    1    2    0    0  0.24291636799E+02 -0.20647251375E+02  0.57331594683E+00  0.59301932527E+02  0.49999979026E+02 0.  0.
        -12    1    1    2    0    0 -0.24291636799E+02  0.20647251375E+02 -0.57331594683E+00  0.31886067473E+02  0.00000000000E+00 0.  1.
         11    1    3    3    0    0 -0.18971120084E+01  0.43823128046E+01  0.89297310877E+01  0.10126391117E+02  0.51100000000E-03 0. -1.
        -11    1    3    3    0    0  0.78772950727E+01 -0.36798065426E+01  0.11738583505E+02  0.14607775218E+02  0.51100000000E-03 0.  1.
         12    1    3    3    0    0  0.18311453734E+02 -0.21349757637E+02 -0.20094998646E+02  0.34567766193E+02  0.00000000000E+00 0. -1.
</event>
<event>
 7    1  0.1220856E-011  0.5930196E+02  0.7816164E-02  0.1266605E+00
        -11   -1    0    0    0    0  0.00000000000E+00  0.00000000000E+00  0.45593999997E+02  0.45594000000E+02  0.51100000000E-03 0. -1.
         11   -1    0    0    0    0 -0.00000000000E+00 -0.00000000000E+00 -0.45593999997E+02  0.45594000000E+02  0.51100000000E-03 0.  1.
    9900012    2    1    2    0    0 -0.30095927747E+02 -0.81036719043E+01 -0.67294409106E+01  0.59301956968E+02  0.50000023600E+02 0.  0.
        -12    1    1    2    0    0  0.30095927747E+02  0.81036719043E+01  0.67294409106E+01  0.31886043032E+02  0.00000000000E+00 0.  1.
         11    1    3    3    0    0 -0.18398802340E+02  0.10106182774E+02 -0.13288621648E+02  0.24844281503E+02  0.51100000000E-03 0. -1.
        -11    1    3    3    0    0 -0.34844588242E+01  0.66911231967E+01  0.59433981706E+00  0.75674185169E+01  0.51100000000E-03 0.  1.
        -12    1    3    3    0    0 -0.82126665822E+01 -0.24900977875E+02  0.59648409206E+01  0.26890256948E+02  0.00000000000E+00 0.  1.
</event>
<event>
 7    1  0.2247469E-011  0.5930195E+02  0.7816164E-02  0.1266605E+00
        -11   -1    0    0    0    0  0.00000000000E+00  0.00000000000E+00  0.45593999997E+02  0.45594000000E+02  0.51100000000E-03 0. -1.
         11   -1    0    0    0    0 -0.00000000000E+00 -0.00000000000E+00 -0.45593999997E+02  0.45594000000E+02  0.51100000000E-03 0.  1.
    9900012    2    1    2    0    0 -0.10347768167E+02  0.10727341916E+02  0.28188086195E+02  0.59301947031E+02  0.50000005477E+02 0.  0.
        -12    1    1    2    0    0  0.10347768167E+02 -0.10727341916E+02 -0.28188086195E+02  0.31886052969E+02  0.00000000000E+00 0.  1.
         11    1    3    3    0    0  0.56835854654E+01 -0.49846805842E+01  0.18777191848E+02  0.20241865483E+02  0.51100000000E-03 0. -1.
        -11    1    3    3    0    0 -0.43473053908E+01  0.21244102533E+02  0.13449186942E+02  0.25516496355E+02  0.51100000000E-03 0.  1.
        -12    1    3    3    0    0 -0.11684048242E+02 -0.55320800322E+01 -0.40382925945E+01  0.13543585193E+02  0.00000000000E+00 0.  1.
</event>
<event>
 7    1  0.1220856E-011  0.5930175E+02  0.7816164E-02  0.1266605E+00
        -11   -1    0    0    0    0  0.00000000000E+00  0.00000000000E+00  0.45593999997E+02  0.45594000000E+02  0.51100000000E-03 0.  1.
         11   -1    0    0    0    0 -0.00000000000E+00 -0.00000000000E+00 -0.45593999997E+02  0.45594000000E+02  0.51100000000E-03 0. -1.
    9900012    2    1    2    0    0 -0.11724477036E+02  0.12555698009E+02 -0.26863063242E+02  0.59301747774E+02  0.49999642079E+02 0.  0.
        -12    1    1    2    0    0  0.11724477036E+02 -0.12555698009E+02  0.26863063242E+02  0.31886252226E+02  0.00000000000E+00 0.  1.
         11    1    3    3    0    0  0.73833991461E+00  0.45274956353E+01 -0.35283336680E+01  0.57872706254E+01  0.51100000000E-03 0. -1.
        -11    1    3    3    0    0  0.15565765094E+02 -0.14497173907E+01  0.31528772257E+00  0.15636308071E+02  0.51100000000E-03 0.  1.
        -12    1    3    3    0    0 -0.28028582046E+02  0.94779197648E+01 -0.23650017296E+02  0.37878169078E+02  0.00000000000E+00 0.  1.
</event>
<event>
 7    1  0.1220856E-011  0.5930194E+02  0.7816164E-02  0.1266605E+00
        -11   -1    0    0    0    0  0.00000000000E+00  0.00000000000E+00  0.45593999997E+02  0.45594000000E+02  0.51100000000E-03 0.  1.
         11   -1    0    0    0    0 -0.00000000000E+00 -0.00000000000E+00 -0.45593999997E+02  0.45594000000E+02  0.51100000000E-03 0. -1.
    9900012    2    1    2    0    0  0.31013506296E+01  0.21524341598E+02 -0.23319628846E+02  0.59301941190E+02  0.49999994825E+02 0.  0.
        -12    1    1    2    0    0 -0.31013506296E+01 -0.21524341598E+02  0.23319628846E+02  0.31886058810E+02  0.00000000000E+00 0.  1.
         11    1    3    3    0    0  0.61258397157E+01  0.51351602933E+01 -0.12696003752E+02  0.15002809570E+02  0.51100000000E-03 0. -1.
        -11    1    3    3    0    0  0.71477555293E+01  0.23425965931E+02 -0.17542564268E+02  0.30126530670E+02  0.51100000000E-03 0.  1.
        -12    1    3    3    0    0 -0.10172244615E+02 -0.70367846264E+01  0.69189391738E+01  0.14172600950E+02  0.00000000000E+00 0.  1.
</event>
<event>
 7    1  0.1220856E-011  0.5930196E+02  0.7816164E-02  0.1266605E+00
        -11   -1    0    0    0    0  0.00000000000E+00  0.00000000000E+00  0.45593999997E+02  0.45594000000E+02  0.51100000000E-03 0.  1.
         11   -1    0    0    0    0 -0.00000000000E+00 -0.00000000000E+00 -0.45593999997E+02  0.45594000000E+02  0.51100000000E-03 0. -1.
    9900012    2    1    2    0    0 -0.17752490074E+01 -0.24195655802E+02 -0.20691505054E+02  0.59301958381E+02  0.50000026177E+02 0.  0.
        -12    1    1    2    0    0  0.17752490074E+01  0.24195655802E+02  0.20691505054E+02  0.31886041619E+02  0.00000000000E+00 0.  1.
         11    1    3    3    0    0  0.72506799698E+01 -0.17971991827E+02 -0.11081040452E+02  0.22323850654E+02  0.51100000000E-03 0. -1.
        -11    1    3    3    0    0 -0.53924689021E-01 -0.98061660970E+01 -0.20315452959E+02  0.22558400444E+02  0.51100000000E-03 0.  1.
        -12    1    3    3    0    0 -0.89720042881E+01  0.35825021216E+01  0.10704988357E+02  0.14419707283E+02  0.00000000000E+00 0.  1.
</event>
<event>
 7    1  0.1220856E-011  0.5930195E+02  0.7816164E-02  0.1266605E+00
        -11   -1    0    0    0    0  0.00000000000E+00  0.00000000000E+00  0.45593999997E+02  0.45594000000E+02  0.51100000000E-03 0.  1.
         11   -1    0    0    0    0 -0.00000000000E+00 -0.00000000000E+00 -0.45593999997E+02  0.45594000000E+02  0.51100000000E-03 0. -1.
    9900012    2    1    2    0    0 -0.28468147641E+02 -0.63571519938E+01 -0.12879107231E+02  0.59301949529E+02  0.50000010032E+02 0.  0.
        -12    1    1    2    0    0  0.28468147641E+02  0.63571519938E+01  0.12879107231E+02  0.31886050471E+02  0.00000000000E+00 0.  1.
         11    1    3    3    0    0 -0.10745756270E+02  0.31167476589E-01 -0.19956404180E+02  0.22665619720E+02  0.51100000000E-03 0. -1.
        -11    1    3    3    0    0 -0.20318688375E+02 -0.87642269723E+01 -0.61352871031E+01  0.22963068606E+02  0.51100000000E-03 0.  1.
        -12    1    3    3    0    0  0.25962970031E+01  0.23759075019E+01  0.13212584052E+02  0.13673261203E+02  0.00000000000E+00 0.  1.
</event>
<event>
 7    1  0.1220856E-011  0.5930194E+02  0.7816164E-02  0.1266605E+00
        -11   -1    0    0    0    0  0.00000000000E+00  0.00000000000E+00  0.45593999997E+02  0.45594000000E+02  0.51100000000E-03 0. -1.
         11   -1    0    0    0    0 -0.00000000000E+00 -0.00000000000E+00 -0.45593999997E+02  0.45594000000E+02  0.51100000000E-03 0.  1.
    9900012    2    1    2    0    0  0.23866403947E+02  0.13524085887E+02  0.16254691232E+02  0.59301935278E+02  0.49999984042E+02 0.  0.
        -12    1    1    2    0    0 -0.23866403947E+02 -0.13524085887E+02 -0.16254691232E+02  0.31886064722E+02  0.00000000000E+00 0.  1.
         11    1    3    3    0    0  0.68533852101E+01  0.44335947382E+01  0.20462191696E+02  0.22030137094E+02  0.51100000000E-03 0. -1.
        -11    1    3    3    0    0  0.34421082471E+01 -0.76117711470E+01  0.87934800875E+01  0.12128992600E+02  0.51100000000E-03 0.  1.
         12    1    3    3    0    0  0.13570910490E+02  0.16702262296E+02 -0.13000980551E+02  0.25142805584E+02  0.00000000000E+00 0. -1.
</event>
<event>
 7    1  0.1220856E-011  0.5930195E+02  0.7816164E-02  0.1266605E+00
        -11   -1    0    0    0    0  0.00000000000E+00  0.00000000000E+00  0.45593999997E+02  0.45594000000E+02  0.51100000000E-03 0. -1.
         11   -1    0    0    0    0 -0.00000000000E+00 -0.00000000000E+00 -0.45593999997E+02  0.45594000000E+02  0.51100000000E-03 0.  1.
    9900012    2    1    2    0    0 -0.13126590146E+02 -0.27140501999E+02  0.10382966673E+02  0.59301949530E+02  0.50000010035E+02 0.  0.
        -12    1    1    2    0    0  0.13126590146E+02  0.27140501999E+02 -0.10382966673E+02  0.31886050470E+02  0.00000000000E+00 0.  1.
         11    1    3    3    0    0  0.33048883580E+01 -0.55649161118E+01  0.14906974587E+02  0.16251414400E+02  0.51100000000E-03 0. -1.
        -11    1    3    3    0    0  0.43621337504E+01 -0.18472431139E+02 -0.98193301383E+01  0.21370029660E+02  0.51100000000E-03 0.  1.
        -12    1    3    3    0    0 -0.20793612254E+02 -0.31031547484E+01  0.52953222234E+01  0.21680505470E+02  0.00000000000E+00 0.  1.
</event>
<event>
 7    1  0.1220856E-011  0.5930195E+02  0.7816164E-02  0.1266605E+00
        -11   -1    0    0    0    0  0.00000000000E+00  0.00000000000E+00  0.45593999997E+02  0.45594000000E+02  0.51100000000E-03 0.  1.
         11   -1    0    0    0    0 -0.00000000000E+00 -0.00000000000E+00 -0.45593999997E+02  0.45594000000E+02  0.51100000000E-03 0. -1.
    9900012    2    1    2    0    0 -0.10596743386E+02 -0.14194723668E+02 -0.26512999915E+02  0.59301947957E+02  0.50000007166E+02 0.  0.
        -12    1    1    2    0    0  0.10596743386E+02  0.14194723668E+02  0.26512999915E+02  0.31886052043E+02  0.00000000000E+00 0.  1.
         11    1    3    3    0    0 -0.69752865283E+01 -0.28503062979E+01 -0.18881053740E+02  0.20329118494E+02  0.51100000000E-03 0. -1.
        -11    1    3    3    0    0  0.11259339110E+02  0.64922160210E+01 -0.88304352952E+01  0.15712993789E+02  0.51100000000E-03 0.  1.
         12    1    3    3    0    0 -0.14880795968E+02 -0.17836633391E+02  0.11984891209E+01  0.23259835674E+02  0.00000000000E+00 0. -1.
</event>
<event>
 7    1  0.1220856E-011  0.5930181E+02  0.7816164E-02  0.1266605E+00
        -11   -1    0    0    0    0  0.00000000000E+00  0.00000000000E+00  0.45593999997E+02  0.45594000000E+02  0.51100000000E-03 0.  1.
         11   -1    0    0    0    0 -0.00000000000E+00 -0.00000000000E+00 -0.45593999997E+02  0.45594000000E+02  0.51100000000E-03 0. -1.
    9900012    2    1    2    0    0  0.46372903093E+01 -0.30011037557E+02  0.97243250468E+01  0.59301806526E+02  0.49999749229E+02 0.  0.
        -12    1    1    2    0    0 -0.46372903093E+01  0.30011037557E+02 -0.97243250468E+01  0.31886193474E+02  0.00000000000E+00 0.  1.
         11    1    3    3    0    0  0.77863715747E+00 -0.22875374255E+02 -0.12946110613E+00  0.22888988260E+02  0.51100000000E-03 0. -1.
        -11    1    3    3    0    0  0.41344166401E+01  0.82872079978E+00 -0.12229281394E+02  0.12935822463E+02  0.51100000000E-03 0.  1.
        -12    1    3    3    0    0 -0.27576348828E+00 -0.79643841015E+01  0.22083067547E+02  0.23476995802E+02  0.00000000000E+00 0.  1.
</event>
<event>
 7    1  0.1220856E-011  0.5930190E+02  0.7816164E-02  0.1266605E+00
        -11   -1    0    0    0    0  0.00000000000E+00  0.00000000000E+00  0.45593999997E+02  0.45594000000E+02  0.51100000000E-03 0. -1.
         11   -1    0    0    0    0 -0.00000000000E+00 -0.00000000000E+00 -0.45593999997E+02  0.45594000000E+02  0.51100000000E-03 0.  1.
    9900012    2    1    2    0    0  0.29591743022E+02  0.73868914715E+01  0.92997812964E+01  0.59301900319E+02  0.49999920286E+02 0.  0.
        -12    1    1    2    0    0 -0.29591743022E+02 -0.73868914715E+01 -0.92997812964E+01  0.31886099681E+02  0.00000000000E+00 0.  1.
         11    1    3    3    0    0 -0.19103762111E+01 -0.14197446179E+02 -0.50987708934E+01  0.15205738396E+02  0.51100000000E-03 0. -1.
        -11    1    3    3    0    0 -0.18065756622E+01  0.28377862857E+01  0.20004236139E+01  0.39138780669E+01  0.51100000000E-03 0.  1.
         12    1    3    3    0    0  0.33308694896E+02  0.18746551365E+02  0.12398128576E+02  0.40182283856E+02  0.00000000000E+00 0. -1.
</event>
<event>
 7    1  0.1220856E-011  0.5930195E+02  0.7816164E-02  0.1266605E+00
        -11   -1    0    0    0    0  0.00000000000E+00  0.00000000000E+00  0.45593999997E+02  0.45594000000E+02  0.51100000000E-03 0. -1.
         11   -1    0    0    0    0 -0.00000000000E+00 -0.00000000000E+00 -0.45593999997E+02  0.45594000000E+02  0.51100000000E-03 0.  1.
    9900012    2    1    2    0    0  0.26762289281E+02  0.43774353017E+01  0.16773136650E+02  0.59301950065E+02  0.50000011011E+02 0.  0.
        -12    1    1    2    0    0 -0.26762289281E+02 -0.43774353017E+01 -0.16773136650E+02  0.31886049935E+02  0.00000000000E+00 0.  1.
         11    1    3    3    0    0  0.14368542634E+02  0.14373757398E+02  0.12547959498E+01  0.20362574305E+02  0.51100000000E-03 0.  1.
        -11    1    3    3    0    0  0.20000653846E+02 -0.62611016825E+01  0.20326593162E+02  0.29195854815E+02  0.51100000000E-03 0. -1.
         12    1    3    3    0    0 -0.76069071994E+01 -0.37352204138E+01 -0.48082524617E+01  0.97435209455E+01  0.00000000000E+00 0. -1.
</event>
<event>
 7    1  0.1220856E-011  0.5930195E+02  0.7816164E-02  0.1266605E+00
        -11   -1    0    0    0    0  0.00000000000E+00  0.00000000000E+00  0.45593999997E+02  0.45594000000E+02  0.51100000000E-03 0.  1.
         11   -1    0    0    0    0 -0.00000000000E+00 -0.00000000000E+00 -0.45593999997E+02  0.45594000000E+02  0.51100000000E-03 0. -1.
    9900012    2    1    2    0    0  0.15394013516E+02  0.92138822929E+01 -0.26359985542E+02  0.59301951063E+02  0.50000012831E+02 0.  0.
        -12    1    1    2    0    0 -0.15394013516E+02 -0.92138822929E+01  0.26359985542E+02  0.31886048937E+02  0.00000000000E+00 0.  1.
         11    1    3    3    0    0  0.20703173671E+02 -0.54718609982E+01  0.14886052214E+01  0.21465754321E+02  0.51100000000E-03 0.  1.
        -11    1    3    3    0    0 -0.42117544287E+01  0.15380893923E+02 -0.78124002629E+01  0.17757938263E+02  0.51100000000E-03 0. -1.
        -12    1    3    3    0    0 -0.10974057265E+01 -0.69515063188E+00 -0.20036190501E+02  0.20078258478E+02  0.00000000000E+00 0.  1.
</event>
<event>
 7    1  0.1220856E-011  0.5930188E+02  0.7816164E-02  0.1266605E+00
        -11   -1    0    0    0    0  0.00000000000E+00  0.00000000000E+00  0.45593999997E+02  0.45594000000E+02  0.51100000000E-03 0. -1.
         11   -1    0    0    0    0 -0.00000000000E+00 -0.00000000000E+00 -0.45593999997E+02  0.45594000000E+02  0.51100000000E-03 0.  1.
    9900012    2    1    2    0    0  0.65713189735E+01  0.27683444716E+01  0.31078592777E+02  0.59301876166E+02  0.49999876236E+02 0.  0.
        -12    1    1    2    0    0 -0.65713189735E+01 -0.27683444716E+01 -0.31078592777E+02  0.31886123834E+02  0.00000000000E+00 0.  1.
         11    1    3    3    0    0 -0.12020892817E+02  0.61323118758E+01  0.20894520427E+02  0.24873441603E+02  0.51100000000E-03 0. -1.
        -11    1    3    3    0    0  0.11499281104E+02  0.10636295638E+02  0.10275525634E+02  0.18733677645E+02  0.51100000000E-03 0.  1.
        -12    1    3    3    0    0  0.70929306868E+01 -0.14000263043E+02 -0.91453283414E-01  0.15694756917E+02  0.00000000000E+00 0.  1.
</event>
<event>
 7    1  0.1220856E-011  0.5930194E+02  0.7816164E-02  0.1266605E+00
        -11   -1    0    0    0    0  0.00000000000E+00  0.00000000000E+00  0.45593999997E+02  0.45594000000E+02  0.51100000000E-03 0. -1.
         11   -1    0    0    0    0 -0.00000000000E+00 -0.00000000000E+00 -0.45593999997E+02  0.45594000000E+02  0.51100000000E-03 0.  1.
    9900012    2    1    2    0    0 -0.23387118985E+01 -0.30873714408E+02  0.76200395669E+01  0.59301940072E+02  0.49999992787E+02 0.  0.
        -12    1    1    2    0    0  0.23387118985E+01  0.30873714408E+02 -0.76200395669E+01  0.31886059928E+02  0.00000000000E+00 0.  1.
         11    1    3    3    0    0  0.75876855199E+01 -0.52017951122E+01 -0.25466838625E+01  0.95455352336E+01  0.51100000000E-03 0. -1.
        -11    1    3    3    0    0 -0.11501215453E+02  0.62129461255E+01 -0.55164227794E+01  0.14188360617E+02  0.51100000000E-03 0.  1.
         12    1    3    3    0    0  0.15748180343E+01 -0.31884865421E+02  0.15683146209E+02  0.35568044222E+02  0.00000000000E+00 0. -1.
</event>
<event>
 7    1  0.1220856E-011  0.5930183E+02  0.7816164E-02  0.1266605E+00
        -11   -1    0    0    0    0  0.00000000000E+00  0.00000000000E+00  0.45593999997E+02  0.45594000000E+02  0.51100000000E-03 0.  1.
         11   -1    0    0    0    0 -0.00000000000E+00 -0.00000000000E+00 -0.45593999997E+02  0.45594000000E+02  0.51100000000E-03 0. -1.
    9900012    2    1    2    0    0 -0.17865077396E+02  0.25483096648E+02  0.69410703363E+01  0.59301832739E+02  0.49999797036E+02 0.  0.
        -12    1    1    2    0    0  0.17865077396E+02 -0.25483096648E+02 -0.69410703363E+01  0.31886167261E+02  0.00000000000E+00 0.  1.
         11    1    3    3    0    0 -0.22187423215E+02 -0.81157095747E+01 -0.74109324272E-01  0.23625240385E+02  0.51100000000E-03 0.  1.
        -11    1    3    3    0    0 -0.18871170799E+01  0.85658018615E+01 -0.57858854086E+00  0.87902751587E+01  0.51100000000E-03 0. -1.
        -12    1    3    3    0    0  0.62094628982E+01  0.25033004361E+02  0.75937682014E+01  0.26886317195E+02  0.00000000000E+00 0.  1.
</event>
<event>
 7    1  0.1220856E-011  0.5930196E+02  0.7816164E-02  0.1266605E+00
        -11   -1    0    0    0    0  0.00000000000E+00  0.00000000000E+00  0.45593999997E+02  0.45594000000E+02  0.51100000000E-03 0.  1.
         11   -1    0    0    0    0 -0.00000000000E+00 -0.00000000000E+00 -0.45593999997E+02  0.45594000000E+02  0.51100000000E-03 0. -1.
    9900012    2    1    2    0    0  0.27807944586E+02 -0.15593371204E+02  0.53344309020E+00  0.59301959651E+02  0.50000028494E+02 0.  0.
        -12    1    1    2    0    0 -0.27807944586E+02  0.15593371204E+02 -0.53344309020E+00  0.31886040349E+02  0.00000000000E+00 0.  1.
         11    1    3    3    0    0  0.60992205200E+01  0.44166957574E+01  0.66982513763E+01  0.10078405833E+02  0.51100000000E-03 0.  1.
        -11    1    3    3    0    0  0.22589409843E+02 -0.25358664075E+02  0.72753488300E+01  0.34731455219E+02  0.51100000000E-03 0. -1.
        -12    1    3    3    0    0 -0.88068577766E+00  0.53485971139E+01 -0.13440157116E+02  0.14492098600E+02  0.00000000000E+00 0.  1.
</event>
<event>
 7    1  0.1220856E-011  0.5930193E+02  0.7816164E-02  0.1266605E+00
        -11   -1    0    0    0    0  0.00000000000E+00  0.00000000000E+00  0.45593999997E+02  0.45594000000E+02  0.51100000000E-03 0.  1.
         11   -1    0    0    0    0 -0.00000000000E+00 -0.00000000000E+00 -0.45593999997E+02  0.45594000000E+02  0.51100000000E-03 0. -1.
    9900012    2    1    2    0    0  0.31615841279E+02  0.59103964678E+00 -0.41000683234E+01  0.59301932386E+02  0.49999978768E+02 0.  0.
        -12    1    1    2    0    0 -0.31615841279E+02 -0.59103964678E+00  0.41000683234E+01  0.31886067614E+02  0.00000000000E+00 0.  1.
         11    1    3    3    0    0  0.48923057011E+01 -0.50573649927E+01  0.43553588646E+01  0.82753094712E+01  0.51100000000E-03 0. -1.
        -11    1    3    3    0    0 -0.30996822025E+01 -0.87929378607E+01 -0.14602990841E+02  0.17325447404E+02  0.51100000000E-03 0.  1.
         12    1    3    3    0    0  0.29823217780E+02  0.14441342500E+02  0.61475636528E+01  0.33701175511E+02  0.00000000000E+00 0. -1.
</event>
<event>
 7    1  0.1220856E-011  0.5930184E+02  0.7816164E-02  0.1266605E+00
        -11   -1    0    0    0    0  0.00000000000E+00  0.00000000000E+00  0.45593999997E+02  0.45594000000E+02  0.51100000000E-03 0.  1.
         11   -1    0    0    0    0 -0.00000000000E+00 -0.00000000000E+00 -0.45593999997E+02  0.45594000000E+02  0.51100000000E-03 0. -1.
    9900012    2    1    2    0    0 -0.21378166885E+01  0.27154972772E+02 -0.16576020832E+02  0.59301838847E+02  0.49999808175E+02 0.  0.
        -12    1    1    2    0    0  0.21378166885E+01 -0.27154972772E+02  0.16576020832E+02  0.31886161153E+02  0.00000000000E+00 0.  1.
         11    1    3    3    0    0 -0.22089172146E+01 -0.76362300224E+01 -0.66126909338E+01  0.10340164692E+02  0.51100000000E-03 0. -1.
        -11    1    3    3    0    0  0.66772033927E+01  0.13179935190E+02  0.10777576692E+02  0.18288026038E+02  0.51100000000E-03 0.  1.
         12    1    3    3    0    0 -0.66061028667E+01  0.21611267604E+02 -0.20740906591E+02  0.30673648116E+02  0.00000000000E+00 0. -1.
</event>
<event>
 7    1  0.1220856E-011  0.5930197E+02  0.7816164E-02  0.1266605E+00
        -11   -1    0    0    0    0  0.00000000000E+00  0.00000000000E+00  0.45593999997E+02  0.45594000000E+02  0.51100000000E-03 0.  1.
         11   -1    0    0    0    0 -0.00000000000E+00 -0.00000000000E+00 -0.45593999997E+02  0.45594000000E+02  0.51100000000E-03 0. -1.
    9900012    2    1    2    0    0  0.20351204849E+02  0.16116684032E+02 -0.18514852980E+02  0.59301971337E+02  0.50000049806E+02 0.  0.
        -12    1    1    2    0    0 -0.20351204849E+02 -0.16116684032E+02  0.18514852980E+02  0.31886028663E+02  0.00000000000E+00 0.  1.
         11    1    3    3    0    0  0.19578616015E+02  0.21260177006E+02 -0.20157250099E+02  0.35236799843E+02  0.51100000000E-03 0. -1.
        -11    1    3    3    0    0  0.59398194674E+01 -0.45217104318E-01 -0.92396000895E+01  0.10984248266E+02  0.51100000000E-03 0.  1.
        -12    1    3    3    0    0 -0.51672306330E+01 -0.50982758699E+01  0.10881997208E+02  0.13080923228E+02  0.00000000000E+00 0.  1.
</event>
<event>
 7    1  0.1220856E-011  0.5930201E+02  0.7816164E-02  0.1266605E+00
        -11   -1    0    0    0    0  0.00000000000E+00  0.00000000000E+00  0.45593999997E+02  0.45594000000E+02  0.51100000000E-03 0.  1.
         11   -1    0    0    0    0 -0.00000000000E+00 -0.00000000000E+00 -0.45593999997E+02  0.45594000000E+02  0.51100000000E-03 0. -1.
    9900012    2    1    2    0    0  0.11645415259E+02 -0.27569173131E+02 -0.11001869702E+02  0.59302013413E+02  0.50000126542E+02 0.  0.
        -12    1    1    2    0    0 -0.11645415259E+02  0.27569173131E+02  0.11001869702E+02  0.31885986587E+02  0.00000000000E+00 0.  1.
         11    1    3    3    0    0  0.60733560602E+00 -0.88530911956E+01  0.10111092145E+02  0.13452890577E+02  0.51100000000E-03 0. -1.
        -11    1    3    3    0    0  0.52204092578E+01 -0.18827746504E+02  0.41083058315E+01  0.19965342178E+02  0.51100000000E-03 0.  1.
         12    1    3    3    0    0  0.58176703951E+01  0.11166456783E+00 -0.25221267679E+02  0.25883780657E+02  0.00000000000E+00 0. -1.
</event>
<event>
 7    1  0.1220856E-011  0.5930198E+02  0.7816164E-02  0.1266605E+00
        -11   -1    0    0    0    0  0.00000000000E+00  0.00000000000E+00  0.45593999997E+02  0.45594000000E+02  0.51100000000E-03 0.  1.
         11   -1    0    0    0    0 -0.00000000000E+00 -0.00000000000E+00 -0.45593999997E+02  0.45594000000E+02  0.51100000000E-03 0. -1.
    9900012    2    1    2    0    0  0.59219559037E+01 -0.26497998278E+02 -0.16718403703E+02  0.59301976466E+02  0.50000059159E+02 0.  0.
        -12    1    1    2    0    0 -0.59219559037E+01  0.26497998278E+02  0.16718403703E+02  0.31886023534E+02  0.00000000000E+00 0.  1.
         11    1    3    3    0    0  0.62045564110E+01  0.92476627317E+01 -0.34013489420E+01  0.11644095549E+02  0.51100000000E-03 0. -1.
        -11    1    3    3    0    0 -0.12240177168E+02 -0.59035758272E+01 -0.32936203785E+01  0.13982921015E+02  0.51100000000E-03 0.  1.
        -12    1    3    3    0    0  0.11957576660E+02 -0.29842085182E+02 -0.10023434382E+02  0.33674959903E+02  0.00000000000E+00 0.  1.
</event>
<event>
 7    1  0.1220856E-011  0.5930195E+02  0.7816164E-02  0.1266605E+00
        -11   -1    0    0    0    0  0.00000000000E+00  0.00000000000E+00  0.45593999997E+02  0.45594000000E+02  0.51100000000E-03 0. -1.
         11   -1    0    0    0    0 -0.00000000000E+00 -0.00000000000E+00 -0.45593999997E+02  0.45594000000E+02  0.51100000000E-03 0.  1.
    9900012    2    1    2    0    0 -0.21931284710E+02  0.22703493637E+02  0.45044820792E+01  0.59301949270E+02  0.50000009561E+02 0.  0.
        -12    1    1    2    0    0  0.21931284710E+02 -0.22703493637E+02 -0.45044820792E+01  0.31886050730E+02  0.00000000000E+00 0.  1.
         11    1    3    3    0    0 -0.20913248083E+02 -0.45002576839E+01  0.11983534345E+01  0.21425506198E+02  0.51100000000E-03 0.  1.
        -11    1    3    3    0    0  0.41437533950E+01  0.47670179106E+01 -0.95934847291E+01  0.11486082947E+02  0.51100000000E-03 0. -1.
         12    1    3    3    0    0 -0.51617900216E+01  0.22436733410E+02  0.12899613374E+02  0.26390360125E+02  0.00000000000E+00 0. -1.
</event>
<event>
 7    1  0.1220856E-011  0.5930197E+02  0.7816164E-02  0.1266605E+00
        -11   -1    0    0    0    0  0.00000000000E+00  0.00000000000E+00  0.45593999997E+02  0.45594000000E+02  0.51100000000E-03 0.  1.
         11   -1    0    0    0    0 -0.00000000000E+00 -0.00000000000E+00 -0.45593999997E+02  0.45594000000E+02  0.51100000000E-03 0. -1.
    9900012    2    1    2    0    0  0.71022219402E+01  0.25794509329E+02 -0.17347073332E+02  0.59301965107E+02  0.50000038444E+02 0.  0.
        -12    1    1    2    0    0 -0.71022219402E+01 -0.25794509329E+02  0.17347073332E+02  0.31886034893E+02  0.00000000000E+00 0.  1.
         11    1    3    3    0    0 -0.85745677922E+01  0.23210334817E+01 -0.33433828126E+01  0.94915024174E+01  0.51100000000E-03 0. -1.
        -11    1    3    3    0    0 -0.43451337810E+01 -0.78144466780E+01 -0.83555618101E+01  0.12237694958E+02  0.51100000000E-03 0.  1.
         12    1    3    3    0    0  0.20021923513E+02  0.31287922525E+02 -0.56481287092E+01  0.37572767732E+02  0.00000000000E+00 0. -1.
</event>
<event>
 7    1  0.1220856E-011  0.5930195E+02  0.7816164E-02  0.1266605E+00
        -11   -1    0    0    0    0  0.00000000000E+00  0.00000000000E+00  0.45593999997E+02  0.45594000000E+02  0.51100000000E-03 0. -1.
         11   -1    0    0    0    0 -0.00000000000E+00 -0.00000000000E+00 -0.45593999997E+02  0.45594000000E+02  0.51100000000E-03 0.  1.
    9900012    2    1    2    0    0  0.86514931068E+01 -0.30444079351E+02  0.38768544320E+01  0.59301948178E+02  0.50000007569E+02 0.  0.
        -12    1    1    2    0    0 -0.86514931068E+01  0.30444079351E+02 -0.38768544320E+01  0.31886051822E+02  0.00000000000E+00 0.  1.
         11    1    3    3    0    0  0.13799117057E+02 -0.33810214908E+02  0.51426688466E+01  0.36878087081E+02  0.51100000000E-03 0. -1.
        -11    1    3    3    0    0  0.33014560136E+00 -0.15028296499E+01  0.93766121660E+01  0.95020181566E+01  0.51100000000E-03 0.  1.
        -12    1    3    3    0    0 -0.54777695518E+01  0.48689652063E+01 -0.10642426581E+02  0.12921842940E+02  0.00000000000E+00 0.  1.
</event>
<event>
 7    1  0.1220856E-011  0.5930192E+02  0.7816164E-02  0.1266605E+00
        -11   -1    0    0    0    0  0.00000000000E+00  0.00000000000E+00  0.45593999997E+02  0.45594000000E+02  0.51100000000E-03 0.  1.
         11   -1    0    0    0    0 -0.00000000000E+00 -0.00000000000E+00 -0.45593999997E+02  0.45594000000E+02  0.51100000000E-03 0. -1.
    9900012    2    1    2    0    0  0.14242059124E+02 -0.22104548893E+02  0.18035372432E+02  0.59301921711E+02  0.49999959300E+02 0.  0.
        -12    1    1    2    0    0 -0.14242059124E+02  0.22104548893E+02 -0.18035372432E+02  0.31886078289E+02  0.00000000000E+00 0.  1.
         11    1    3    3    0    0 -0.16085834621E+01 -0.22460651074E+01  0.22890426529E+01  0.35877661224E+01  0.51100000000E-03 0. -1.
        -11    1    3    3    0    0  0.25708472864E+02 -0.25422724415E+02  0.22449604592E+02  0.42558491988E+02  0.51100000000E-03 0.  1.
         12    1    3    3    0    0 -0.98578302779E+01  0.55642406293E+01 -0.67032748123E+01  0.13155663601E+02  0.00000000000E+00 0. -1.
</event>
<event>
 7    1  0.1220856E-011  0.5930207E+02  0.7816164E-02  0.1266604E+00
        -11   -1    0    0    0    0  0.00000000000E+00  0.00000000000E+00  0.45593999997E+02  0.45594000000E+02  0.51100000000E-03 0.  1.
         11   -1    0    0    0    0 -0.00000000000E+00 -0.00000000000E+00 -0.45593999997E+02  0.45594000000E+02  0.51100000000E-03 0. -1.
    9900012    2    1    2    0    0  0.31330848707E+02 -0.26003924469E+01 -0.53224183257E+01  0.59302074290E+02  0.50000237566E+02 0.  0.
        -12    1    1    2    0    0 -0.31330848707E+02  0.26003924469E+01  0.53224183257E+01  0.31885925710E+02  0.00000000000E+00 0.  1.
         11    1    3    3    0    0  0.99333403500E+01 -0.92898569876E+01  0.33990775885E+01  0.14018788181E+02  0.51100000000E-03 0. -1.
        -11    1    3    3    0    0 -0.63294320250E+00 -0.47394650983E+01  0.12021647778E+02  0.12937664475E+02  0.51100000000E-03 0.  1.
         12    1    3    3    0    0  0.22030451559E+02  0.11428929639E+02 -0.20743143692E+02  0.32345621633E+02  0.00000000000E+00 0. -1.
</event>
<event>
 7    1  0.1220856E-011  0.5930193E+02  0.7816164E-02  0.1266605E+00
        -11   -1    0    0    0    0  0.00000000000E+00  0.00000000000E+00  0.45593999997E+02  0.45594000000E+02  0.51100000000E-03 0. -1.
         11   -1    0    0    0    0 -0.00000000000E+00 -0.00000000000E+00 -0.45593999997E+02  0.45594000000E+02  0.51100000000E-03 0.  1.
    9900012    2    1    2    0    0 -0.17985225055E+02  0.20853638925E+02  0.16074168814E+02  0.59301929691E+02  0.49999973853E+02 0.  0.
        -12    1    1    2    0    0  0.17985225055E+02 -0.20853638925E+02 -0.16074168814E+02  0.31886070309E+02  0.00000000000E+00 0.  1.
         11    1    3    3    0    0 -0.96748136698E+01 -0.77958711663E+01  0.11349858527E+02  0.16828455533E+02  0.51100000000E-03 0. -1.
        -11    1    3    3    0    0 -0.15306481799E+02  0.19837865546E+02  0.13261886221E+02  0.28349725235E+02  0.51100000000E-03 0.  1.
        -12    1    3    3    0    0  0.69960704142E+01  0.88116445451E+01 -0.85375759335E+01  0.14123748923E+02  0.00000000000E+00 0.  1.
</event>
<event>
 7    1  0.1220856E-011  0.5930194E+02  0.7816164E-02  0.1266605E+00
        -11   -1    0    0    0    0  0.00000000000E+00  0.00000000000E+00  0.45593999997E+02  0.45594000000E+02  0.51100000000E-03 0. -1.
         11   -1    0    0    0    0 -0.00000000000E+00 -0.00000000000E+00 -0.45593999997E+02  0.45594000000E+02  0.51100000000E-03 0.  1.
    9900012    2    1    2    0    0 -0.15994452435E+02 -0.24740995610E+02 -0.12197588982E+02  0.59301944279E+02  0.50000000459E+02 0.  0.
        -12    1    1    2    0    0  0.15994452435E+02  0.24740995610E+02  0.12197588982E+02  0.31886055721E+02  0.00000000000E+00 0.  1.
         11    1    3    3    0    0  0.12364573012E+01 -0.86714814867E+01  0.14234288411E+02  0.16713419299E+02  0.51100000000E-03 0. -1.
        -11    1    3    3    0    0  0.37905018852E+01  0.30774436736E+01 -0.28921212454E+01  0.56747625206E+01  0.51100000000E-03 0.  1.
        -12    1    3    3    0    0 -0.21021411621E+02 -0.19146957796E+02 -0.23539756148E+02  0.36913762460E+02  0.00000000000E+00 0.  1.
</event>
<event>
 7    1  0.1220856E-011  0.5930199E+02  0.7816164E-02  0.1266605E+00
        -11   -1    0    0    0    0  0.00000000000E+00  0.00000000000E+00  0.45593999997E+02  0.45594000000E+02  0.51100000000E-03 0.  1.
         11   -1    0    0    0    0 -0.00000000000E+00 -0.00000000000E+00 -0.45593999997E+02  0.45594000000E+02  0.51100000000E-03 0. -1.
    9900012    2    1    2    0    0 -0.72980795253E+01 -0.83887555741E+01 -0.29884523160E+02  0.59301985678E+02  0.50000075961E+02 0.  0.
        -12    1    1    2    0    0  0.72980795253E+01  0.83887555741E+01  0.29884523160E+02  0.31886014322E+02  0.00000000000E+00 0.  1.
         11    1    3    3    0    0  0.18919441524E+01 -0.22162185770E+01 -0.98389663934E+01  0.10261400363E+02  0.51100000000E-03 0. -1.
        -11    1    3    3    0    0  0.15443505358E+02  0.64556919135E+01 -0.10499687387E+02  0.19759080224E+02  0.51100000000E-03 0.  1.
         12    1    3    3    0    0 -0.24633529036E+02 -0.12628228911E+02 -0.95458693798E+01  0.29281505091E+02  0.00000000000E+00 0. -1.
</event>
<event>
 7    1  0.1220856E-011  0.5930195E+02  0.7816164E-02  0.1266605E+00
        -11   -1    0    0    0    0  0.00000000000E+00  0.00000000000E+00  0.45593999997E+02  0.45594000000E+02  0.51100000000E-03 0. -1.
         11   -1    0    0    0    0 -0.00000000000E+00 -0.00000000000E+00 -0.45593999997E+02  0.45594000000E+02  0.51100000000E-03 0.  1.
    9900012    2    1    2    0    0  0.25659979738E+02  0.19810394424E+01  0.18824476719E+02  0.59301952877E+02  0.50000016138E+02 0.  0.
        -12    1    1    2    0    0 -0.25659979738E+02 -0.19810394424E+01 -0.18824476719E+02  0.31886047123E+02  0.00000000000E+00 0.  1.
         11    1    3    3    0    0  0.49643271129E+01 -0.43970940373E+01 -0.95695330456E+01  0.11642806476E+02  0.51100000000E-03 0. -1.
        -11    1    3    3    0    0  0.28676972337E+01 -0.12191095822E+02  0.87424065742E+01  0.15273381345E+02  0.51100000000E-03 0.  1.
         12    1    3    3    0    0  0.17827955391E+02  0.18569229301E+02  0.19651603191E+02  0.32385765055E+02  0.00000000000E+00 0. -1.
</event>
<event>
 7    1  0.1220856E-011  0.5930203E+02  0.7816164E-02  0.1266604E+00
        -11   -1    0    0    0    0  0.00000000000E+00  0.00000000000E+00  0.45593999997E+02  0.45594000000E+02  0.51100000000E-03 0.  1.
         11   -1    0    0    0    0 -0.00000000000E+00 -0.00000000000E+00 -0.45593999997E+02  0.45594000000E+02  0.51100000000E-03 0. -1.
    9900012    2    1    2    0    0 -0.26555475666E+02 -0.56426098178E+01  0.16723719923E+02  0.59302029080E+02  0.50000155115E+02 0.  0.
        -12    1    1    2    0    0  0.26555475666E+02  0.56426098178E+01 -0.16723719923E+02  0.31885970920E+02  0.00000000000E+00 0.  1.
         11    1    3    3    0    0 -0.15816946360E+02 -0.36500963489E+01 -0.12197123497E+02  0.20304403891E+02  0.51100000000E-03 0. -1.
        -11    1    3    3    0    0 -0.12335658527E+02  0.33976670041E+01  0.39339847479E+01  0.13386143904E+02  0.51100000000E-03 0.  1.
        -12    1    3    3    0    0  0.15971292213E+01 -0.53901804730E+01  0.24986858672E+02  0.25611481285E+02  0.00000000000E+00 0.  1.
</event>
<event>
 7    1  0.1220856E-011  0.5930193E+02  0.7816164E-02  0.1266605E+00
        -11   -1    0    0    0    0  0.00000000000E+00  0.00000000000E+00  0.45593999997E+02  0.45594000000E+02  0.51100000000E-03 0.  1.
         11   -1    0    0    0    0 -0.00000000000E+00 -0.00000000000E+00 -0.45593999997E+02  0.45594000000E+02  0.51100000000E-03 0. -1.
    9900012    2    1    2    0    0 -0.77421708585E-01 -0.26022819961E+02 -0.18426287876E+02  0.59301933486E+02  0.49999980775E+02 0.  0.
        -12    1    1    2    0    0  0.77421708585E-01  0.26022819961E+02  0.18426287876E+02  0.31886066514E+02  0.00000000000E+00 0.  1.
         11    1    3    3    0    0  0.58908412852E+01 -0.49839169387E+01 -0.68496420678E+01  0.10317898808E+02  0.51100000000E-03 0. -1.
        -11    1    3    3    0    0  0.69455921887E+01  0.98914232145E+01 -0.95515159717E+01  0.15404965488E+02  0.51100000000E-03 0.  1.
         12    1    3    3    0    0 -0.12913855183E+02 -0.30930326237E+02 -0.20251298360E+01  0.33579069190E+02  0.00000000000E+00 0. -1.
</event>
<event>
 7    1  0.1220856E-011  0.5930193E+02  0.7816164E-02  0.1266605E+00
        -11   -1    0    0    0    0  0.00000000000E+00  0.00000000000E+00  0.45593999997E+02  0.45594000000E+02  0.51100000000E-03 0.  1.
         11   -1    0    0    0    0 -0.00000000000E+00 -0.00000000000E+00 -0.45593999997E+02  0.45594000000E+02  0.51100000000E-03 0. -1.
    9900012    2    1    2    0    0  0.95644912015E+01 -0.24270931049E+02 -0.18334776748E+02  0.59301927424E+02  0.49999969719E+02 0.  0.
        -12    1    1    2    0    0 -0.95644912015E+01  0.24270931049E+02  0.18334776748E+02  0.31886072576E+02  0.00000000000E+00 0.  1.
         11    1    3    3    0    0  0.53164272731E+01 -0.69212668955E+01 -0.14307449285E+02  0.16759219543E+02  0.51100000000E-03 0. -1.
        -11    1    3    3    0    0 -0.87212710195E+01  0.85056862048E+01 -0.59409220990E+01  0.13553664510E+02  0.51100000000E-03 0.  1.
         12    1    3    3    0    0  0.12969334948E+02 -0.25855350358E+02  0.19135946359E+01  0.28989043371E+02  0.00000000000E+00 0. -1.
</event>
<event>
 7    1  0.1220856E-011  0.5930193E+02  0.7816164E-02  0.1266605E+00
        -11   -1    0    0    0    0  0.00000000000E+00  0.00000000000E+00  0.45593999997E+02  0.45594000000E+02  0.51100000000E-03 0.  1.
         11   -1    0    0    0    0 -0.00000000000E+00 -0.00000000000E+00 -0.45593999997E+02  0.45594000000E+02  0.51100000000E-03 0. -1.
    9900012    2    1    2    0    0  0.15980015561E+02  0.42685866054E+01 -0.27260593180E+02  0.59301926717E+02  0.49999968428E+02 0.  0.
        -12    1    1    2    0    0 -0.15980015561E+02 -0.42685866054E+01  0.27260593180E+02  0.31886073283E+02  0.00000000000E+00 0.  1.
         11    1    3    3    0    0  0.14477072406E+02  0.94049474488E+01 -0.10657252226E+02  0.20288314056E+02  0.51100000000E-03 0. -1.
        -11    1    3    3    0    0 -0.77043282629E+01  0.45486394763E+01 -0.22644867933E+02  0.24348240985E+02  0.51100000000E-03 0.  1.
         12    1    3    3    0    0  0.92072714172E+01 -0.96850003198E+01  0.60415269795E+01  0.14665371676E+02  0.00000000000E+00 0. -1.
</event>
<event>
 7    1  0.1220856E-011  0.5930194E+02  0.7816164E-02  0.1266605E+00
        -11   -1    0    0    0    0  0.00000000000E+00  0.00000000000E+00  0.45593999997E+02  0.45594000000E+02  0.51100000000E-03 0.  1.
         11   -1    0    0    0    0 -0.00000000000E+00 -0.00000000000E+00 -0.45593999997E+02  0.45594000000E+02  0.51100000000E-03 0. -1.
    9900012    2    1    2    0    0 -0.25552981671E+02  0.90266269165E+01  0.16801361917E+02  0.59301943047E+02  0.49999998211E+02 0.  0.
        -12    1    1    2    0    0  0.25552981671E+02 -0.90266269165E+01 -0.16801361917E+02  0.31886056953E+02  0.00000000000E+00 0.  1.
         11    1    3    3    0    0 -0.23924554614E+01 -0.10046530639E+02 -0.78564570171E+01  0.12976152671E+02  0.51100000000E-03 0. -1.
        -11    1    3    3    0    0  0.32306173587E+01  0.11141201817E+02  0.84974094542E+01  0.14379472666E+02  0.51100000000E-03 0.  1.
        -12    1    3    3    0    0 -0.26391143568E+02  0.79319557384E+01  0.16160409480E+02  0.31946317710E+02  0.00000000000E+00 0.  1.
</event>
<event>
 7    1  0.1220856E-011  0.5930191E+02  0.7816164E-02  0.1266605E+00
        -11   -1    0    0    0    0  0.00000000000E+00  0.00000000000E+00  0.45593999997E+02  0.45594000000E+02  0.51100000000E-03 0. -1.
         11   -1    0    0    0    0 -0.00000000000E+00 -0.00000000000E+00 -0.45593999997E+02  0.45594000000E+02  0.51100000000E-03 0.  1.
    9900012    2    1    2    0    0  0.98539288360E+01  0.30142321545E+02  0.33261380956E+01  0.59301911242E+02  0.49999940207E+02 0.  0.
        -12    1    1    2    0    0 -0.98539288360E+01 -0.30142321545E+02 -0.33261380956E+01  0.31886088758E+02  0.00000000000E+00 0.  1.
         11    1    3    3    0    0 -0.29851678025E+01  0.90937560582E+01 -0.11357058525E+02  0.14852286176E+02  0.51100000000E-03 0. -1.
        -11    1    3    3    0    0 -0.43769593851E+01  0.20099047888E+02 -0.17321983876E+01  0.20642916727E+02  0.51100000000E-03 0.  1.
        -12    1    3    3    0    0  0.17216056024E+02  0.94951759886E+00  0.16415395009E+02  0.23806708340E+02  0.00000000000E+00 0.  1.
</event>
<event>
 7    1  0.1220856E-011  0.5930195E+02  0.7816164E-02  0.1266605E+00
        -11   -1    0    0    0    0  0.00000000000E+00  0.00000000000E+00  0.45593999997E+02  0.45594000000E+02  0.51100000000E-03 0. -1.
         11   -1    0    0    0    0 -0.00000000000E+00 -0.00000000000E+00 -0.45593999997E+02  0.45594000000E+02  0.51100000000E-03 0.  1.
    9900012    2    1    2    0    0 -0.15322663108E+02  0.27126153031E+02  0.67902680976E+01  0.59301954089E+02  0.50000018350E+02 0.  0.
        -12    1    1    2    0    0  0.15322663108E+02 -0.27126153031E+02 -0.67902680976E+01  0.31886045911E+02  0.00000000000E+00 0.  1.
         11    1    3    3    0    0 -0.18622658582E+01  0.10712420847E+02  0.10745786383E+02  0.15287116137E+02  0.51100000000E-03 0. -1.
        -11    1    3    3    0    0 -0.15523631620E+02  0.28018426044E+02 -0.23223989225E+01  0.32115555011E+02  0.51100000000E-03 0.  1.
        -12    1    3    3    0    0  0.20632343699E+01 -0.11604693861E+02 -0.16331193629E+01  0.11899282941E+02  0.00000000000E+00 0.  1.
</event>
<event>
 7    1  0.1220856E-011  0.5930194E+02  0.7816164E-02  0.1266605E+00
        -11   -1    0    0    0    0  0.00000000000E+00  0.00000000000E+00  0.45593999997E+02  0.45594000000E+02  0.51100000000E-03 0.  1.
         11   -1    0    0    0    0 -0.00000000000E+00 -0.00000000000E+00 -0.45593999997E+02  0.45594000000E+02  0.51100000000E-03 0. -1.
    9900012    2    1    2    0    0  0.15207022177E+02 -0.21648639525E+02 -0.17798975932E+02  0.59301942529E+02  0.49999997267E+02 0.  0.
        -12    1    1    2    0    0 -0.15207022177E+02  0.21648639525E+02  0.17798975932E+02  0.31886057471E+02  0.00000000000E+00 0.  1.
         11    1    3    3    0    0 -0.82494024390E+01  0.52729398701E+01 -0.28571373950E+01  0.10199008277E+02  0.51100000000E-03 0. -1.
        -11    1    3    3    0    0 -0.65788100582E+01 -0.86941299195E+01 -0.73782241461E+01  0.13164605146E+02  0.51100000000E-03 0.  1.
         12    1    3    3    0    0  0.30035234674E+02 -0.18227449476E+02 -0.75636143908E+01  0.35938329107E+02  0.00000000000E+00 0. -1.
</event>
<event>
 7    1  0.1220856E-011  0.5930196E+02  0.7816164E-02  0.1266605E+00
        -11   -1    0    0    0    0  0.00000000000E+00  0.00000000000E+00  0.45593999997E+02  0.45594000000E+02  0.51100000000E-03 0.  1.
         11   -1    0    0    0    0 -0.00000000000E+00 -0.00000000000E+00 -0.45593999997E+02  0.45594000000E+02  0.51100000000E-03 0. -1.
    9900012    2    1    2    0    0  0.79835532752E+01 -0.21948494535E+02 -0.21708197905E+02  0.59301962436E+02  0.50000033572E+02 0.  0.
        -12    1    1    2    0    0 -0.79835532752E+01  0.21948494535E+02  0.21708197905E+02  0.31886037564E+02  0.00000000000E+00 0.  1.
         11    1    3    3    0    0  0.17221382066E+02 -0.25918404588E+02 -0.17203587910E+02  0.35557040568E+02  0.51100000000E-03 0. -1.
        -11    1    3    3    0    0 -0.73752001197E+01 -0.52279139898E+01  0.50477806240E+01  0.10353972715E+02  0.51100000000E-03 0.  1.
        -12    1    3    3    0    0 -0.18626286714E+01  0.91978240427E+01 -0.95523906188E+01  0.13390949153E+02  0.00000000000E+00 0.  1.
</event>
<event>
 7    1  0.1448414E-011  0.5930195E+02  0.7816164E-02  0.1266605E+00
        -11   -1    0    0    0    0  0.00000000000E+00  0.00000000000E+00  0.45593999997E+02  0.45594000000E+02  0.51100000000E-03 0. -1.
         11   -1    0    0    0    0 -0.00000000000E+00 -0.00000000000E+00 -0.45593999997E+02  0.45594000000E+02  0.51100000000E-03 0.  1.
    9900012    2    1    2    0    0 -0.16015195169E+02 -0.17710262301E+02  0.21132453447E+02  0.59301945748E+02  0.50000003138E+02 0.  0.
        -12    1    1    2    0    0  0.16015195169E+02  0.17710262301E+02 -0.21132453447E+02  0.31886054252E+02  0.00000000000E+00 0.  1.
         11    1    3    3    0    0 -0.47694047587E+01 -0.12086304415E+02  0.22699026716E+02  0.26154766110E+02  0.51100000000E-03 0. -1.
        -11    1    3    3    0    0  0.74078353467E+01 -0.11070745813E+02 -0.30257499755E+01  0.13659890210E+02  0.51100000000E-03 0.  1.
        -12    1    3    3    0    0 -0.18653625757E+02  0.54467879268E+01  0.14591767067E+01  0.19487289428E+02  0.00000000000E+00 0.  1.
</event>
<event>
 7    1  0.1220856E-011  0.5930196E+02  0.7816164E-02  0.1266605E+00
        -11   -1    0    0    0    0  0.00000000000E+00  0.00000000000E+00  0.45593999997E+02  0.45594000000E+02  0.51100000000E-03 0. -1.
         11   -1    0    0    0    0 -0.00000000000E+00 -0.00000000000E+00 -0.45593999997E+02  0.45594000000E+02  0.51100000000E-03 0.  1.
    9900012    2    1    2    0    0  0.91250505701E+01  0.89135464312E+01  0.29223303689E+02  0.59301963301E+02  0.50000035150E+02 0.  0.
        -12    1    1    2    0    0 -0.91250505701E+01 -0.89135464312E+01 -0.29223303689E+02  0.31886036699E+02  0.00000000000E+00 0.  1.
         11    1    3    3    0    0  0.95460138003E+01  0.14603176678E+02  0.14744201114E+02  0.22842298818E+02  0.51100000000E-03 0. -1.
        -11    1    3    3    0    0  0.15629152789E+02  0.46047609663E+00  0.10447407084E+02  0.18805072990E+02  0.51100000000E-03 0.  1.
        -12    1    3    3    0    0 -0.16050116019E+02 -0.61501063430E+01  0.40316954904E+01  0.17654591493E+02  0.00000000000E+00 0.  1.
</event>
<event>
 7    1  0.1220856E-011  0.5930195E+02  0.7816164E-02  0.1266605E+00
        -11   -1    0    0    0    0  0.00000000000E+00  0.00000000000E+00  0.45593999997E+02  0.45594000000E+02  0.51100000000E-03 0.  1.
         11   -1    0    0    0    0 -0.00000000000E+00 -0.00000000000E+00 -0.45593999997E+02  0.45594000000E+02  0.51100000000E-03 0. -1.
    9900012    2    1    2    0    0  0.20394894338E+02 -0.23935040046E+02  0.52803921264E+01  0.59301946653E+02  0.50000004787E+02 0.  0.
        -12    1    1    2    0    0 -0.20394894338E+02  0.23935040046E+02 -0.52803921264E+01  0.31886053347E+02  0.00000000000E+00 0.  1.
         11    1    3    3    0    0  0.22073011753E+02 -0.29079616755E+02 -0.37337898847E+01  0.36698544190E+02  0.51100000000E-03 0. -1.
        -11    1    3    3    0    0 -0.79028770798E+01 -0.45990946628E+01  0.45012041489E+01  0.10191564007E+02  0.51100000000E-03 0.  1.
        -12    1    3    3    0    0  0.62247596641E+01  0.97436713714E+01  0.45129778622E+01  0.12411838456E+02  0.00000000000E+00 0.  1.
</event>
<event>
 7    1  0.1220856E-011  0.5930194E+02  0.7816164E-02  0.1266605E+00
        -11   -1    0    0    0    0  0.00000000000E+00  0.00000000000E+00  0.45593999997E+02  0.45594000000E+02  0.51100000000E-03 0.  1.
         11   -1    0    0    0    0 -0.00000000000E+00 -0.00000000000E+00 -0.45593999997E+02  0.45594000000E+02  0.51100000000E-03 0. -1.
    9900012    2    1    2    0    0 -0.42791612274E+01  0.24446132870E+02  0.20019893144E+02  0.59301941062E+02  0.49999994590E+02 0.  0.
        -12    1    1    2    0    0  0.42791612274E+01 -0.24446132870E+02 -0.20019893144E+02  0.31886058938E+02  0.00000000000E+00 0.  1.
         11    1    3    3    0    0 -0.71937622889E+01  0.11831681368E+02  0.16578839951E+01  0.13945876791E+02  0.51100000000E-03 0. -1.
        -11    1    3    3    0    0  0.17215995492E+01  0.26086398487E+02  0.55486689177E+01  0.26725490043E+02  0.51100000000E-03 0.  1.
         12    1    3    3    0    0  0.11930015122E+01 -0.13471946985E+02  0.12813340232E+02  0.18630574228E+02  0.00000000000E+00 0. -1.
</event>
<event>
 7    1  0.1220856E-011  0.5930194E+02  0.7816164E-02  0.1266605E+00
        -11   -1    0    0    0    0  0.00000000000E+00  0.00000000000E+00  0.45593999997E+02  0.45594000000E+02  0.51100000000E-03 0.  1.
         11   -1    0    0    0    0 -0.00000000000E+00 -0.00000000000E+00 -0.45593999997E+02  0.45594000000E+02  0.51100000000E-03 0. -1.
    9900012    2    1    2    0    0  0.30399062683E+01 -0.10007569695E+02 -0.30121894954E+02  0.59301936634E+02  0.49999986516E+02 0.  0.
        -12    1    1    2    0    0 -0.30399062683E+01  0.10007569695E+02  0.30121894954E+02  0.31886063366E+02  0.00000000000E+00 0.  1.
         11    1    3    3    0    0 -0.14193193696E+01 -0.13201726937E+02 -0.93348124637E+01  0.16230797441E+02  0.51100000000E-03 0. -1.
        -11    1    3    3    0    0 -0.75416989739E+01 -0.26461735888E+01 -0.27138060215E+02  0.28290524395E+02  0.51100000000E-03 0.  1.
        -12    1    3    3    0    0  0.12000924612E+02  0.58403308304E+01  0.63509777245E+01  0.14780614798E+02  0.00000000000E+00 0.  1.
</event>
<event>
 7    1  0.1220856E-011  0.5930195E+02  0.7816164E-02  0.1266605E+00
        -11   -1    0    0    0    0  0.00000000000E+00  0.00000000000E+00  0.45593999997E+02  0.45594000000E+02  0.51100000000E-03 0. -1.
         11   -1    0    0    0    0 -0.00000000000E+00 -0.00000000000E+00 -0.45593999997E+02  0.45594000000E+02  0.51100000000E-03 0.  1.
    9900012    2    1    2    0    0  0.30108259013E+02  0.50082742882E+01  0.92265826010E+01  0.59301954484E+02  0.50000019070E+02 0.  0.
        -12    1    1    2    0    0 -0.30108259013E+02 -0.50082742882E+01 -0.92265826010E+01  0.31886045516E+02  0.00000000000E+00 0.  1.
         11    1    3    3    0    0  0.79215284253E+01  0.52152974935E+01  0.45798042258E+01  0.10532072329E+02  0.51100000000E-03 0. -1.
        -11    1    3    3    0    0 -0.84729765745E+01  0.11115509881E+02 -0.47509393799E+01  0.14762022802E+02  0.51100000000E-03 0.  1.
         12    1    3    3    0    0  0.30659707162E+02 -0.11322533087E+02  0.93977177552E+01  0.34007859353E+02  0.00000000000E+00 0. -1.
</event>
<event>
 7    1  0.1220856E-011  0.5930190E+02  0.7816164E-02  0.1266605E+00
        -11   -1    0    0    0    0  0.00000000000E+00  0.00000000000E+00  0.45593999997E+02  0.45594000000E+02  0.51100000000E-03 0. -1.
         11   -1    0    0    0    0 -0.00000000000E+00 -0.00000000000E+00 -0.45593999997E+02  0.45594000000E+02  0.51100000000E-03 0.  1.
    9900012    2    1    2    0    0 -0.23845920375E+02 -0.93935926597E+01  0.18969869556E+02  0.59301898755E+02  0.49999917434E+02 0.  0.
        -12    1    1    2    0    0  0.23845920375E+02  0.93935926597E+01 -0.18969869556E+02  0.31886101245E+02  0.00000000000E+00 0.  1.
         11    1    3    3    0    0 -0.25052349717E+02  0.65457370419E+01  0.56593549373E+01  0.26504625980E+02  0.51100000000E-03 0. -1.
        -11    1    3    3    0    0  0.12457052871E+00  0.69762231020E+01  0.22662474191E+01  0.73361491405E+01  0.51100000000E-03 0.  1.
         12    1    3    3    0    0  0.10818588129E+01 -0.22915552804E+02  0.11044267200E+02  0.25461123635E+02  0.00000000000E+00 0. -1.
</event>
<event>
 7    1  0.1220856E-011  0.5930195E+02  0.7816164E-02  0.1266605E+00
        -11   -1    0    0    0    0  0.00000000000E+00  0.00000000000E+00  0.45593999997E+02  0.45594000000E+02  0.51100000000E-03 0.  1.
         11   -1    0    0    0    0 -0.00000000000E+00 -0.00000000000E+00 -0.45593999997E+02  0.45594000000E+02  0.51100000000E-03 0. -1.
    9900012    2    1    2    0    0 -0.87590557772E+01 -0.29384127900E+02 -0.87505411700E+01  0.59301952874E+02  0.50000016133E+02 0.  0.
        -12    1    1    2    0    0  0.87590557772E+01  0.29384127900E+02  0.87505411700E+01  0.31886047126E+02  0.00000000000E+00 0.  1.
         11    1    3    3    0    0  0.91804591304E+01 -0.77526553207E+01 -0.75283163918E+01  0.14179564250E+02  0.51100000000E-03 0. -1.
        -11    1    3    3    0    0 -0.41289801818E+01 -0.17876142421E+02  0.14848492868E+02  0.23602599135E+02  0.51100000000E-03 0.  1.
         12    1    3    3    0    0 -0.13810534726E+02 -0.37553301582E+01 -0.16070717646E+02  0.21519789489E+02  0.00000000000E+00 0. -1.
</event>
<event>
 7    1  0.1220856E-011  0.5930196E+02  0.7816164E-02  0.1266605E+00
        -11   -1    0    0    0    0  0.00000000000E+00  0.00000000000E+00  0.45593999997E+02  0.45594000000E+02  0.51100000000E-03 0.  1.
         11   -1    0    0    0    0 -0.00000000000E+00 -0.00000000000E+00 -0.45593999997E+02  0.45594000000E+02  0.51100000000E-03 0. -1.
    9900012    2    1    2    0    0 -0.30435039723E+02  0.11228213725E+01 -0.94428418454E+01  0.59301958651E+02  0.50000026670E+02 0.  0.
        -12    1    1    2    0    0  0.30435039723E+02 -0.11228213725E+01  0.94428418454E+01  0.31886041349E+02  0.00000000000E+00 0.  1.
         11    1    3    3    0    0 -0.26531604209E+02  0.15702121382E+02  0.48255140648E+01  0.31205259557E+02  0.51100000000E-03 0. -1.
        -11    1    3    3    0    0 -0.73883468763E+01 -0.30206350865E+01  0.16173469431E+01  0.81441830337E+01  0.51100000000E-03 0.  1.
         12    1    3    3    0    0  0.34849113620E+01 -0.11558664923E+02 -0.15885702853E+02  0.19952516060E+02  0.00000000000E+00 0. -1.
</event>
<event>
 7    1  0.1220856E-011  0.5930198E+02  0.7816164E-02  0.1266605E+00
        -11   -1    0    0    0    0  0.00000000000E+00  0.00000000000E+00  0.45593999997E+02  0.45594000000E+02  0.51100000000E-03 0.  1.
         11   -1    0    0    0    0 -0.00000000000E+00 -0.00000000000E+00 -0.45593999997E+02  0.45594000000E+02  0.51100000000E-03 0. -1.
    9900012    2    1    2    0    0  0.74484866822E+00 -0.25081183750E+01 -0.31778498893E+02  0.59301977213E+02  0.50000060521E+02 0.  0.
        -12    1    1    2    0    0 -0.74484866822E+00  0.25081183750E+01  0.31778498893E+02  0.31886022787E+02  0.00000000000E+00 0.  1.
         11    1    3    3    0    0 -0.44114756710E+01 -0.13802736930E+01  0.12931898270E+02  0.13733181211E+02  0.51100000000E-03 0.  1.
        -11    1    3    3    0    0 -0.17318091839E+01 -0.61041116319E+00 -0.11723190801E+02  0.11866126902E+02  0.51100000000E-03 0. -1.
        -12    1    3    3    0    0  0.68881335231E+01 -0.51743351879E+00 -0.32987206361E+02  0.33702669099E+02  0.00000000000E+00 0.  1.
</event>
<event>
 7    1  0.1220856E-011  0.5930196E+02  0.7816164E-02  0.1266605E+00
        -11   -1    0    0    0    0  0.00000000000E+00  0.00000000000E+00  0.45593999997E+02  0.45594000000E+02  0.51100000000E-03 0.  1.
         11   -1    0    0    0    0 -0.00000000000E+00 -0.00000000000E+00 -0.45593999997E+02  0.45594000000E+02  0.51100000000E-03 0. -1.
    9900012    2    1    2    0    0  0.12307534583E+02 -0.20718218074E+02  0.20880608360E+02  0.59301956452E+02  0.50000022658E+02 0.  0.
        -12    1    1    2    0    0 -0.12307534583E+02  0.20718218074E+02 -0.20880608360E+02  0.31886043548E+02  0.00000000000E+00 0.  1.
         11    1    3    3    0    0  0.24836048903E+02 -0.12579945196E+02  0.15796352199E+02  0.32009515605E+02  0.51100000000E-03 0. -1.
        -11    1    3    3    0    0  0.76233419861E-01 -0.38600899669E+01  0.11776930486E+02  0.12393635383E+02  0.51100000000E-03 0.  1.
         12    1    3    3    0    0 -0.12604747740E+02 -0.42781829113E+01 -0.66926743250E+01  0.14898805463E+02  0.00000000000E+00 0. -1.
</event>
<event>
 7    1  0.1220856E-011  0.5930195E+02  0.7816164E-02  0.1266605E+00
        -11   -1    0    0    0    0  0.00000000000E+00  0.00000000000E+00  0.45593999997E+02  0.45594000000E+02  0.51100000000E-03 0.  1.
         11   -1    0    0    0    0 -0.00000000000E+00 -0.00000000000E+00 -0.45593999997E+02  0.45594000000E+02  0.51100000000E-03 0. -1.
    9900012    2    1    2    0    0 -0.28320090222E+02  0.12334485465E+02 -0.79090674366E+01  0.59301946786E+02  0.50000005030E+02 0.  0.
        -12    1    1    2    0    0  0.28320090222E+02 -0.12334485465E+02  0.79090674366E+01  0.31886053214E+02  0.00000000000E+00 0.  1.
         11    1    3    3    0    0 -0.12157628093E+01 -0.34297388831E+01  0.10372800437E+02  0.10992550986E+02  0.51100000000E-03 0. -1.
        -11    1    3    3    0    0  0.27015430588E+01 -0.67032918340E+01 -0.45396315475E+01  0.85346769804E+01  0.51100000000E-03 0.  1.
         12    1    3    3    0    0 -0.29805870472E+02  0.22467516182E+02 -0.13742236326E+02  0.39774718820E+02  0.00000000000E+00 0. -1.
</event>
<event>
 7    1  0.1220856E-011  0.5930193E+02  0.7816164E-02  0.1266605E+00
        -11   -1    0    0    0    0  0.00000000000E+00  0.00000000000E+00  0.45593999997E+02  0.45594000000E+02  0.51100000000E-03 0. -1.
         11   -1    0    0    0    0 -0.00000000000E+00 -0.00000000000E+00 -0.45593999997E+02  0.45594000000E+02  0.51100000000E-03 0.  1.
    9900012    2    1    2    0    0 -0.31603356003E+02  0.41350600909E+01 -0.92230384621E+00  0.59301929734E+02  0.49999973932E+02 0.  0.
        -12    1    1    2    0    0  0.31603356003E+02 -0.41350600909E+01  0.92230384621E+00  0.31886070266E+02  0.00000000000E+00 0.  1.
         11    1    3    3    0    0 -0.14937332094E+02  0.26996725335E+01 -0.90219177951E+01  0.17658061129E+02  0.51100000000E-03 0. -1.
        -11    1    3    3    0    0 -0.13835877636E+02 -0.13565904760E+02 -0.65814275454E+01  0.20464126434E+02  0.51100000000E-03 0.  1.
         12    1    3    3    0    0 -0.28301462733E+01  0.15001292317E+02  0.14681041494E+02  0.21179742172E+02  0.00000000000E+00 0. -1.
</event>
<event>
 7    1  0.1220856E-011  0.5930194E+02  0.7816164E-02  0.1266605E+00
        -11   -1    0    0    0    0  0.00000000000E+00  0.00000000000E+00  0.45593999997E+02  0.45594000000E+02  0.51100000000E-03 0.  1.
         11   -1    0    0    0    0 -0.00000000000E+00 -0.00000000000E+00 -0.45593999997E+02  0.45594000000E+02  0.51100000000E-03 0. -1.
    9900012    2    1    2    0    0 -0.31404256090E+02 -0.52528002140E+01  0.17033707454E+01  0.59301942192E+02  0.49999996653E+02 0.  0.
        -12    1    1    2    0    0  0.31404256090E+02  0.52528002140E+01 -0.17033707454E+01  0.31886057808E+02  0.00000000000E+00 0.  1.
         11    1    3    3    0    0  0.14499748902E+00 -0.93910447917E+01 -0.30049083044E+01  0.98611470291E+01  0.51100000000E-03 0. -1.
        -11    1    3    3    0    0 -0.75099121691E+01 -0.12111411729E+02  0.12972130443E+02  0.19270735413E+02  0.51100000000E-03 0.  1.
         12    1    3    3    0    0 -0.24039341409E+02  0.16249656307E+02 -0.82638513933E+01  0.30170059750E+02  0.00000000000E+00 0. -1.
</event>
<event>
 7    1  0.1220856E-011  0.5930194E+02  0.7816164E-02  0.1266605E+00
        -11   -1    0    0    0    0  0.00000000000E+00  0.00000000000E+00  0.45593999997E+02  0.45594000000E+02  0.51100000000E-03 0.  1.
         11   -1    0    0    0    0 -0.00000000000E+00 -0.00000000000E+00 -0.45593999997E+02  0.45594000000E+02  0.51100000000E-03 0. -1.
    9900012    2    1    2    0    0  0.19150146392E+02 -0.20077851088E+02  0.15712174545E+02  0.59301942858E+02  0.49999997867E+02 0.  0.
        -12    1    1    2    0    0 -0.19150146392E+02  0.20077851088E+02 -0.15712174545E+02  0.31886057142E+02  0.00000000000E+00 0.  1.
         11    1    3    3    0    0 -0.32932208792E+01 -0.10615103390E+02 -0.10722596176E+01  0.11165816794E+02  0.51100000000E-03 0. -1.
        -11    1    3    3    0    0  0.23305898440E+02 -0.18230871756E+02  0.22896134331E+02  0.37413400736E+02  0.51100000000E-03 0.  1.
         12    1    3    3    0    0 -0.86253116889E+00  0.87681240579E+01 -0.61117001689E+01  0.10722725328E+02  0.00000000000E+00 0. -1.
</event>
<event>
 7    1  0.1220856E-011  0.5930195E+02  0.7816164E-02  0.1266605E+00
        -11   -1    0    0    0    0  0.00000000000E+00  0.00000000000E+00  0.45593999997E+02  0.45594000000E+02  0.51100000000E-03 0. -1.
         11   -1    0    0    0    0 -0.00000000000E+00 -0.00000000000E+00 -0.45593999997E+02  0.45594000000E+02  0.51100000000E-03 0.  1.
    9900012    2    1    2    0    0 -0.23597724521E+02  0.21323835080E+01  0.21338233609E+02  0.59301954846E+02  0.50000019730E+02 0.  0.
        -12    1    1    2    0    0  0.23597724521E+02 -0.21323835080E+01 -0.21338233609E+02  0.31886045154E+02  0.00000000000E+00 0.  1.
         11    1    3    3    0    0  0.38897872249E+01  0.10030032069E+02  0.53585070094E+01  0.12018551726E+02  0.51100000000E-03 0.  1.
        -11    1    3    3    0    0 -0.23430260007E+02  0.83556418977E+01  0.11366164601E+01  0.24901520692E+02  0.51100000000E-03 0. -1.
        -12    1    3    3    0    0 -0.40572517386E+01 -0.16253290459E+02  0.14843110139E+02  0.22381882428E+02  0.00000000000E+00 0.  1.
</event>
<event>
 7    1  0.1220856E-011  0.5930173E+02  0.7816164E-02  0.1266606E+00
        -11   -1    0    0    0    0  0.00000000000E+00  0.00000000000E+00  0.45593999997E+02  0.45594000000E+02  0.51100000000E-03 0.  1.
         11   -1    0    0    0    0 -0.00000000000E+00 -0.00000000000E+00 -0.45593999997E+02  0.45594000000E+02  0.51100000000E-03 0. -1.
    9900012    2    1    2    0    0  0.15415427156E+02 -0.18155332318E+02 -0.21201009741E+02  0.59301728659E+02  0.49999607218E+02 0.  0.
        -12    1    1    2    0    0 -0.15415427156E+02  0.18155332318E+02  0.21201009741E+02  0.31886271341E+02  0.00000000000E+00 0.  1.
         11    1    3    3    0    0  0.23302838046E+02 -0.98255637459E+01 -0.12290394741E+01  0.25319449090E+02  0.51100000000E-03 0. -1.
        -11    1    3    3    0    0  0.12221768604E+01 -0.10810653528E+02 -0.21801458984E+02  0.24365294172E+02  0.51100000000E-03 0.  1.
        -12    1    3    3    0    0 -0.91095877512E+01  0.24808849566E+01  0.18294887171E+01  0.96169853972E+01  0.00000000000E+00 0.  1.
</event>
<event>
 7    1  0.1220856E-011  0.5930193E+02  0.7816164E-02  0.1266605E+00
        -11   -1    0    0    0    0  0.00000000000E+00  0.00000000000E+00  0.45593999997E+02  0.45594000000E+02  0.51100000000E-03 0. -1.
         11   -1    0    0    0    0 -0.00000000000E+00 -0.00000000000E+00 -0.45593999997E+02  0.45594000000E+02  0.51100000000E-03 0.  1.
    9900012    2    1    2    0    0  0.15710035143E+02  0.54030453306E+01  0.27216227539E+02  0.59301934949E+02  0.49999983442E+02 0.  0.
        -12    1    1    2    0    0 -0.15710035143E+02 -0.54030453306E+01 -0.27216227539E+02  0.31886065051E+02  0.00000000000E+00 0.  1.
         11    1    3    3    0    0  0.30293689985E+02  0.30749500253E+01  0.20514124327E+02  0.36715014200E+02  0.51100000000E-03 0. -1.
        -11    1    3    3    0    0  0.36217037946E+00 -0.47606176949E+01  0.97257474343E-01  0.47753646456E+01  0.51100000000E-03 0.  1.
        -12    1    3    3    0    0 -0.14945825222E+02  0.70887130002E+01  0.66048457378E+01  0.17811556103E+02  0.00000000000E+00 0.  1.
</event>
<event>
 7    1  0.1220856E-011  0.5930190E+02  0.7816164E-02  0.1266605E+00
        -11   -1    0    0    0    0  0.00000000000E+00  0.00000000000E+00  0.45593999997E+02  0.45594000000E+02  0.51100000000E-03 0. -1.
         11   -1    0    0    0    0 -0.00000000000E+00 -0.00000000000E+00 -0.45593999997E+02  0.45594000000E+02  0.51100000000E-03 0.  1.
    9900012    2    1    2    0    0 -0.76122664058E+01  0.29534603458E+02  0.92996639814E+01  0.59301903477E+02  0.49999926046E+02 0.  0.
        -12    1    1    2    0    0  0.76122664058E+01 -0.29534603458E+02 -0.92996639814E+01  0.31886096523E+02  0.00000000000E+00 0.  1.
         11    1    3    3    0    0 -0.16041163050E+00 -0.51914989001E+00  0.95405129546E+01  0.95559738488E+01  0.51100000000E-03 0. -1.
        -11    1    3    3    0    0 -0.17999524285E+02  0.13080623100E+01 -0.50748992122E+01  0.18746959854E+02  0.51100000000E-03 0.  1.
        -12    1    3    3    0    0  0.10547669510E+02  0.28745691038E+02  0.48340502389E+01  0.30998969775E+02  0.00000000000E+00 0.  1.
</event>
<event>
 7    1  0.1220856E-011  0.5930193E+02  0.7816164E-02  0.1266605E+00
        -11   -1    0    0    0    0  0.00000000000E+00  0.00000000000E+00  0.45593999997E+02  0.45594000000E+02  0.51100000000E-03 0.  1.
         11   -1    0    0    0    0 -0.00000000000E+00 -0.00000000000E+00 -0.45593999997E+02  0.45594000000E+02  0.51100000000E-03 0. -1.
    9900012    2    1    2    0    0 -0.21603904658E+02  0.50181777302E+01 -0.22908743423E+02  0.59301932048E+02  0.49999978152E+02 0.  0.
        -12    1    1    2    0    0  0.21603904658E+02 -0.50181777302E+01  0.22908743423E+02  0.31886067952E+02  0.00000000000E+00 0.  1.
         11    1    3    3    0    0 -0.21846980643E+02  0.14324244312E+02 -0.28264651114E+01  0.26276671090E+02  0.51100000000E-03 0. -1.
        -11    1    3    3    0    0 -0.12108360683E+02 -0.47131462829E+01 -0.89856503809E+01  0.15797723233E+02  0.51100000000E-03 0.  1.
         12    1    3    3    0    0  0.12351436668E+02 -0.45929202985E+01 -0.11096627931E+02  0.17227537725E+02  0.00000000000E+00 0. -1.
</event>
<event>
 7    1  0.1220856E-011  0.5930194E+02  0.7816164E-02  0.1266605E+00
        -11   -1    0    0    0    0  0.00000000000E+00  0.00000000000E+00  0.45593999997E+02  0.45594000000E+02  0.51100000000E-03 0.  1.
         11   -1    0    0    0    0 -0.00000000000E+00 -0.00000000000E+00 -0.45593999997E+02  0.45594000000E+02  0.51100000000E-03 0. -1.
    9900012    2    1    2    0    0 -0.16084847342E+02 -0.12827278836E+02 -0.24361024515E+02  0.59301938597E+02  0.49999990095E+02 0.  0.
        -12    1    1    2    0    0  0.16084847342E+02  0.12827278836E+02  0.24361024515E+02  0.31886061403E+02  0.00000000000E+00 0.  1.
         11    1    3    3    0    0  0.20731443244E+01 -0.48025757834E+01 -0.25489681620E+01  0.58189260605E+01  0.51100000000E-03 0. -1.
        -11    1    3    3    0    0  0.11623421147E+02  0.75062372479E+01 -0.79017014638E+00  0.13859000177E+02  0.51100000000E-03 0.  1.
         12    1    3    3    0    0 -0.29781412813E+02 -0.15530940301E+02 -0.21021886207E+02  0.39624012360E+02  0.00000000000E+00 0. -1.
</event>
<event>
 7    1  0.1220856E-011  0.5930193E+02  0.7816164E-02  0.1266605E+00
        -11   -1    0    0    0    0  0.00000000000E+00  0.00000000000E+00  0.45593999997E+02  0.45594000000E+02  0.51100000000E-03 0.  1.
         11   -1    0    0    0    0 -0.00000000000E+00 -0.00000000000E+00 -0.45593999997E+02  0.45594000000E+02  0.51100000000E-03 0. -1.
    9900012    2    1    2    0    0  0.23692619895E+02  0.14662481559E+02 -0.15504607028E+02  0.59301930282E+02  0.49999974930E+02 0.  0.
        -12    1    1    2    0    0 -0.23692619895E+02 -0.14662481559E+02  0.15504607028E+02  0.31886069718E+02  0.00000000000E+00 0.  1.
         11    1    3    3    0    0  0.78354334543E+01  0.19188278154E+02 -0.19206424888E+02  0.28257225503E+02  0.51100000000E-03 0. -1.
        -11    1    3    3    0    0  0.22926282661E+02 -0.16080333963E+01  0.12614536978E+01  0.23017199520E+02  0.51100000000E-03 0.  1.
        -12    1    3    3    0    0 -0.70690962193E+01 -0.29177631981E+01  0.24403641613E+01  0.80275052587E+01  0.00000000000E+00 0.  1.
</event>
<event>
 7    1  0.1220856E-011  0.5930195E+02  0.7816164E-02  0.1266605E+00
        -11   -1    0    0    0    0  0.00000000000E+00  0.00000000000E+00  0.45593999997E+02  0.45594000000E+02  0.51100000000E-03 0.  1.
         11   -1    0    0    0    0 -0.00000000000E+00 -0.00000000000E+00 -0.45593999997E+02  0.45594000000E+02  0.51100000000E-03 0. -1.
    9900012    2    1    2    0    0  0.54210235835E+01 -0.84746857447E+01 -0.30257430703E+02  0.59301954339E+02  0.50000018806E+02 0.  0.
        -12    1    1    2    0    0 -0.54210235835E+01  0.84746857447E+01  0.30257430703E+02  0.31886045661E+02  0.00000000000E+00 0.  1.
         11    1    3    3    0    0 -0.30344626692E+01  0.85602910240E+01  0.89788991094E+01  0.12771341965E+02  0.51100000000E-03 0.  1.
        -11    1    3    3    0    0  0.87286900533E+01 -0.12666639141E+02 -0.13629144886E+02  0.20552064805E+02  0.51100000000E-03 0. -1.
        -12    1    3    3    0    0 -0.27320380050E+00 -0.43683376273E+01 -0.25607184926E+02  0.25978547569E+02  0.00000000000E+00 0.  1.
</event>
<event>
 7    1  0.1220856E-011  0.5930192E+02  0.7816164E-02  0.1266605E+00
        -11   -1    0    0    0    0  0.00000000000E+00  0.00000000000E+00  0.45593999997E+02  0.45594000000E+02  0.51100000000E-03 0.  1.
         11   -1    0    0    0    0 -0.00000000000E+00 -0.00000000000E+00 -0.45593999997E+02  0.45594000000E+02  0.51100000000E-03 0. -1.
    9900012    2    1    2    0    0  0.95020453459E+01 -0.29743419637E+02 -0.64623926481E+01  0.59301915320E+02  0.49999947644E+02 0.  0.
        -12    1    1    2    0    0 -0.95020453459E+01  0.29743419637E+02  0.64623926481E+01  0.31886084680E+02  0.00000000000E+00 0.  1.
         11    1    3    3    0    0  0.42212633480E+01  0.23423216633E+01 -0.17487733571E+02  0.18141840059E+02  0.51100000000E-03 0. -1.
        -11    1    3    3    0    0  0.57587933279E+01  0.15368952786E+01  0.25464625510E+01  0.64815291001E+01  0.51100000000E-03 0.  1.
        -12    1    3    3    0    0 -0.47801133002E+00 -0.33622636579E+02  0.84788783718E+01  0.34678546161E+02  0.00000000000E+00 0.  1.
</event>
<event>
 7    1  0.1220856E-011  0.5930195E+02  0.7816164E-02  0.1266605E+00
        -11   -1    0    0    0    0  0.00000000000E+00  0.00000000000E+00  0.45593999997E+02  0.45594000000E+02  0.51100000000E-03 0. -1.
         11   -1    0    0    0    0 -0.00000000000E+00 -0.00000000000E+00 -0.45593999997E+02  0.45594000000E+02  0.51100000000E-03 0.  1.
    9900012    2    1    2    0    0 -0.89224357226E+01 -0.19538886408E+02  0.23565705600E+02  0.59301946282E+02  0.50000004111E+02 0.  0.
        -12    1    1    2    0    0  0.89224357226E+01  0.19538886408E+02 -0.23565705600E+02  0.31886053718E+02  0.00000000000E+00 0.  1.
         11    1    3    3    0    0  0.47159457676E+01  0.10686479235E+02 -0.36254573754E+01  0.12230491583E+02  0.51100000000E-03 0. -1.
        -11    1    3    3    0    0  0.68386039118E+00 -0.27712840286E+01 -0.27746979598E+01  0.39807824898E+01  0.51100000000E-03 0.  1.
         12    1    3    3    0    0 -0.14322241881E+02 -0.27454081614E+02  0.29965860936E+02  0.43090672209E+02  0.00000000000E+00 0. -1.
</event>
<event>
 7    1  0.1220856E-011  0.5930194E+02  0.7816164E-02  0.1266605E+00
        -11   -1    0    0    0    0  0.00000000000E+00  0.00000000000E+00  0.45593999997E+02  0.45594000000E+02  0.51100000000E-03 0.  1.
         11   -1    0    0    0    0 -0.00000000000E+00 -0.00000000000E+00 -0.45593999997E+02  0.45594000000E+02  0.51100000000E-03 0. -1.
    9900012    2    1    2    0    0  0.28939471098E+01 -0.29821822981E+02 -0.10908939018E+02  0.59301937115E+02  0.49999987393E+02 0.  0.
        -12    1    1    2    0    0 -0.28939471098E+01  0.29821822981E+02  0.10908939018E+02  0.31886062885E+02  0.00000000000E+00 0.  1.
         11    1    3    3    0    0 -0.11962040373E+01 -0.17164890433E+02 -0.19373377173E+02  0.25911235228E+02  0.51100000000E-03 0. -1.
        -11    1    3    3    0    0  0.15567458148E+02 -0.53874522626E+00  0.33372930096E+01  0.15930270698E+02  0.51100000000E-03 0.  1.
        -12    1    3    3    0    0 -0.11477307001E+02 -0.12118187322E+02  0.51271451461E+01  0.17460431190E+02  0.00000000000E+00 0.  1.
</event>
<event>
 7    1  0.1220856E-011  0.5930206E+02  0.7816164E-02  0.1266604E+00
        -11   -1    0    0    0    0  0.00000000000E+00  0.00000000000E+00  0.45593999997E+02  0.45594000000E+02  0.51100000000E-03 0. -1.
         11   -1    0    0    0    0 -0.00000000000E+00 -0.00000000000E+00 -0.45593999997E+02  0.45594000000E+02  0.51100000000E-03 0.  1.
    9900012    2    1    2    0    0  0.18040008164E+02  0.14632191593E+02  0.21844231293E+02  0.59302056919E+02  0.50000205887E+02 0.  0.
        -12    1    1    2    0    0 -0.18040008164E+02 -0.14632191593E+02 -0.21844231293E+02  0.31885943081E+02  0.00000000000E+00 0.  1.
         11    1    3    3    0    0  0.20033734809E+02 -0.13229561059E+01  0.18345364831E+02  0.27196565120E+02  0.51100000000E-03 0. -1.
        -11    1    3    3    0    0 -0.28601743007E+01 -0.49574668676E-01  0.13108731184E+02  0.13417223565E+02  0.51100000000E-03 0.  1.
        -12    1    3    3    0    0  0.86644765481E+00  0.16004722368E+02 -0.96098647223E+01  0.18688268234E+02  0.00000000000E+00 0.  1.
</event>
<event>
 7    1  0.1220856E-011  0.5930218E+02  0.7816164E-02  0.1266604E+00
        -11   -1    0    0    0    0  0.00000000000E+00  0.00000000000E+00  0.45593999997E+02  0.45594000000E+02  0.51100000000E-03 0. -1.
         11   -1    0    0    0    0 -0.00000000000E+00 -0.00000000000E+00 -0.45593999997E+02  0.45594000000E+02  0.51100000000E-03 0.  1.
    9900012    2    1    2    0    0 -0.22864231582E+02 -0.68370673740E+01  0.21146787976E+02  0.59302184693E+02  0.50000438913E+02 0.  0.
        -12    1    1    2    0    0  0.22864231582E+02  0.68370673740E+01 -0.21146787976E+02  0.31885815307E+02  0.00000000000E+00 0.  1.
         11    1    3    3    0    0  0.57175767046E+01  0.72581548670E+01  0.51972813028E+01  0.10601095634E+02  0.51100000000E-03 0.  1.
        -11    1    3    3    0    0 -0.16253136367E+02  0.97439925338E+01  0.42363202967E+01  0.19417936095E+02  0.51100000000E-03 0. -1.
         12    1    3    3    0    0 -0.12328671920E+02 -0.23839214775E+02  0.11713186376E+02  0.29283152963E+02  0.00000000000E+00 0. -1.
</event>
<event>
 7    1  0.1220856E-011  0.5930196E+02  0.7816164E-02  0.1266605E+00
        -11   -1    0    0    0    0  0.00000000000E+00  0.00000000000E+00  0.45593999997E+02  0.45594000000E+02  0.51100000000E-03 0. -1.
         11   -1    0    0    0    0 -0.00000000000E+00 -0.00000000000E+00 -0.45593999997E+02  0.45594000000E+02  0.51100000000E-03 0.  1.
    9900012    2    1    2    0    0  0.59959179081E+01 -0.30868304727E+02  0.52835878718E+01  0.59301959652E+02  0.50000028495E+02 0.  0.
        -12    1    1    2    0    0 -0.59959179081E+01  0.30868304727E+02 -0.52835878718E+01  0.31886040348E+02  0.00000000000E+00 0.  1.
         11    1    3    3    0    0  0.17288485982E+02 -0.21260621990E+02  0.73397536463E+00  0.27412488304E+02  0.51100000000E-03 0. -1.
        -11    1    3    3    0    0  0.33418894158E+00 -0.16142588602E+02 -0.32056986574E+01  0.16461207524E+02  0.51100000000E-03 0.  1.
         12    1    3    3    0    0 -0.11626757015E+02  0.65349058649E+01  0.77553111645E+01  0.15428263824E+02  0.00000000000E+00 0. -1.
</event>
<event>
 7    1  0.1220856E-011  0.5930194E+02  0.7816164E-02  0.1266605E+00
        -11   -1    0    0    0    0  0.00000000000E+00  0.00000000000E+00  0.45593999997E+02  0.45594000000E+02  0.51100000000E-03 0.  1.
         11   -1    0    0    0    0 -0.00000000000E+00 -0.00000000000E+00 -0.45593999997E+02  0.45594000000E+02  0.51100000000E-03 0. -1.
    9900012    2    1    2    0    0  0.15387325654E+02  0.26022440546E+02 -0.10138236958E+02  0.59301936408E+02  0.49999986104E+02 0.  0.
        -12    1    1    2    0    0 -0.15387325654E+02 -0.26022440546E+02  0.10138236958E+02  0.31886063592E+02  0.00000000000E+00 0.  1.
         11    1    3    3    0    0 -0.86534689530E+01  0.13538778896E+02 -0.67184039865E+01  0.17416027426E+02  0.51100000000E-03 0. -1.
        -11    1    3    3    0    0  0.12742902850E+01 -0.80345654551E+01 -0.73789888757E+01  0.10983056718E+02  0.51100000000E-03 0.  1.
         12    1    3    3    0    0  0.22766504322E+02  0.20518227106E+02  0.39591559039E+01  0.30902852264E+02  0.00000000000E+00 0. -1.
</event>
<event>
 7    1  0.1220856E-011  0.5930189E+02  0.7816164E-02  0.1266605E+00
        -11   -1    0    0    0    0  0.00000000000E+00  0.00000000000E+00  0.45593999997E+02  0.45594000000E+02  0.51100000000E-03 0. -1.
         11   -1    0    0    0    0 -0.00000000000E+00 -0.00000000000E+00 -0.45593999997E+02  0.45594000000E+02  0.51100000000E-03 0.  1.
    9900012    2    1    2    0    0  0.19144924052E+02  0.18033320259E+02  0.18027621850E+02  0.59301891644E+02  0.49999904465E+02 0.  0.
        -12    1    1    2    0    0 -0.19144924052E+02 -0.18033320259E+02 -0.18027621850E+02  0.31886108356E+02  0.00000000000E+00 0.  1.
         11    1    3    3    0    0  0.23347243611E+02  0.15245317505E+02  0.12374727628E+02  0.30506513635E+02  0.51100000000E-03 0. -1.
        -11    1    3    3    0    0  0.80958543166E+01 -0.17826771689E+01  0.11707824904E+02  0.14345520529E+02  0.51100000000E-03 0.  1.
        -12    1    3    3    0    0 -0.12298173876E+02  0.45706799235E+01 -0.60549306816E+01  0.14449857481E+02  0.00000000000E+00 0.  1.
</event>
<event>
 7    1  0.1220856E-011  0.5930195E+02  0.7816164E-02  0.1266605E+00
        -11   -1    0    0    0    0  0.00000000000E+00  0.00000000000E+00  0.45593999997E+02  0.45594000000E+02  0.51100000000E-03 0.  1.
         11   -1    0    0    0    0 -0.00000000000E+00 -0.00000000000E+00 -0.45593999997E+02  0.45594000000E+02  0.51100000000E-03 0. -1.
    9900012    2    1    2    0    0  0.20789688123E+02 -0.22241609002E+02 -0.94773499300E+01  0.59301945604E+02  0.50000002875E+02 0.  0.
        -12    1    1    2    0    0 -0.20789688123E+02  0.22241609002E+02  0.94773499300E+01  0.31886054396E+02  0.00000000000E+00 0.  1.
         11    1    3    3    0    0  0.54879042185E+01  0.13501529897E+02  0.42439448902E+00  0.14580415399E+02  0.51100000000E-03 0. -1.
        -11    1    3    3    0    0 -0.26016071846E+01  0.79807588330E+00 -0.17094204603E+01  0.32136277989E+01  0.51100000000E-03 0.  1.
        -12    1    3    3    0    0  0.17903391089E+02 -0.36541214782E+02 -0.81923239587E+01  0.41507902406E+02  0.00000000000E+00 0.  1.
</event>
<event>
 7    1  0.1220856E-011  0.5930195E+02  0.7816164E-02  0.1266605E+00
        -11   -1    0    0    0    0  0.00000000000E+00  0.00000000000E+00  0.45593999997E+02  0.45594000000E+02  0.51100000000E-03 0. -1.
         11   -1    0    0    0    0 -0.00000000000E+00 -0.00000000000E+00 -0.45593999997E+02  0.45594000000E+02  0.51100000000E-03 0.  1.
    9900012    2    1    2    0    0  0.30448248636E+02  0.94571208971E+01 -0.43238738593E+00  0.59301953843E+02  0.50000017901E+02 0.  0.
        -12    1    1    2    0    0 -0.30448248636E+02 -0.94571208971E+01  0.43238738593E+00  0.31886046157E+02  0.00000000000E+00 0.  1.
         11    1    3    3    0    0  0.69728921087E+01  0.17322861684E+02 -0.73637020539E+01  0.20073038372E+02  0.51100000000E-03 0.  1.
        -11    1    3    3    0    0 -0.35484468140E+01  0.19423151574E+01 -0.63750322752E+01  0.75501721658E+01  0.51100000000E-03 0. -1.
         12    1    3    3    0    0  0.27023803341E+02 -0.98080559443E+01  0.13306346943E+02  0.31678743305E+02  0.00000000000E+00 0. -1.
</event>
<event>
 7    1  0.1220856E-011  0.5930197E+02  0.7816164E-02  0.1266605E+00
        -11   -1    0    0    0    0  0.00000000000E+00  0.00000000000E+00  0.45593999997E+02  0.45594000000E+02  0.51100000000E-03 0.  1.
         11   -1    0    0    0    0 -0.00000000000E+00 -0.00000000000E+00 -0.45593999997E+02  0.45594000000E+02  0.51100000000E-03 0. -1.
    9900012    2    1    2    0    0 -0.76120157825E+01  0.27249491309E+02  0.14705152520E+02  0.59301967455E+02  0.50000042725E+02 0.  0.
        -12    1    1    2    0    0  0.76120157825E+01 -0.27249491309E+02 -0.14705152520E+02  0.31886032545E+02  0.00000000000E+00 0.  1.
         11    1    3    3    0    0 -0.52731295160E+01 -0.31175495710E+01  0.67889107136E+01  0.91440865677E+01  0.51100000000E-03 0. -1.
        -11    1    3    3    0    0 -0.18002684203E+02  0.23575091487E+02 -0.31231933402E+01  0.29826765062E+02  0.51100000000E-03 0.  1.
         12    1    3    3    0    0  0.15663797937E+02  0.67919493926E+01  0.11039435146E+02  0.20331115825E+02  0.00000000000E+00 0. -1.
</event>
<event>
 7    1  0.1220856E-011  0.5930192E+02  0.7816164E-02  0.1266605E+00
        -11   -1    0    0    0    0  0.00000000000E+00  0.00000000000E+00  0.45593999997E+02  0.45594000000E+02  0.51100000000E-03 0.  1.
         11   -1    0    0    0    0 -0.00000000000E+00 -0.00000000000E+00 -0.45593999997E+02  0.45594000000E+02  0.51100000000E-03 0. -1.
    9900012    2    1    2    0    0  0.12256990669E+02  0.83587413607E+01 -0.28224454384E+02  0.59301918356E+02  0.49999953180E+02 0.  0.
        -12    1    1    2    0    0 -0.12256990669E+02 -0.83587413607E+01  0.28224454384E+02  0.31886081644E+02  0.00000000000E+00 0.  1.
         11    1    3    3    0    0  0.14537769048E+02 -0.27975263992E+01 -0.76540279602E+01  0.16666044136E+02  0.51100000000E-03 0. -1.
        -11    1    3    3    0    0 -0.83305882837E+01 -0.54870718713E+01  0.52915686359E+01  0.11291915593E+02  0.51100000000E-03 0.  1.
         12    1    3    3    0    0  0.60498099039E+01  0.16643339631E+02 -0.25861995059E+02  0.31343958627E+02  0.00000000000E+00 0. -1.
</event>
<event>
 7    1  0.1220856E-011  0.5930193E+02  0.7816164E-02  0.1266605E+00
        -11   -1    0    0    0    0  0.00000000000E+00  0.00000000000E+00  0.45593999997E+02  0.45594000000E+02  0.51100000000E-03 0.  1.
         11   -1    0    0    0    0 -0.00000000000E+00 -0.00000000000E+00 -0.45593999997E+02  0.45594000000E+02  0.51100000000E-03 0. -1.
    9900012    2    1    2    0    0 -0.10940665915E+02 -0.29947417532E+02  0.41886192828E+00  0.59301930427E+02  0.49999975196E+02 0.  0.
        -12    1    1    2    0    0  0.10940665915E+02  0.29947417532E+02 -0.41886192828E+00  0.31886069573E+02  0.00000000000E+00 0.  1.
         11    1    3    3    0    0  0.42688953598E+01 -0.92226676242E+01 -0.11596495085E+01  0.10228677967E+02  0.51100000000E-03 0. -1.
        -11    1    3    3    0    0 -0.20730930489E+02 -0.30688754930E+02 -0.21227439252E+01  0.37095514555E+02  0.51100000000E-03 0.  1.
        -12    1    3    3    0    0  0.55213692142E+01  0.99640050218E+01  0.37012553621E+01  0.11977737905E+02  0.00000000000E+00 0.  1.
</event>
<event>
 7    1  0.1220856E-011  0.5930202E+02  0.7816164E-02  0.1266605E+00
        -11   -1    0    0    0    0  0.00000000000E+00  0.00000000000E+00  0.45593999997E+02  0.45594000000E+02  0.51100000000E-03 0.  1.
         11   -1    0    0    0    0 -0.00000000000E+00 -0.00000000000E+00 -0.45593999997E+02  0.45594000000E+02  0.51100000000E-03 0. -1.
    9900012    2    1    2    0    0  0.39450876516E+01  0.31536278870E+02 -0.25719969061E+01  0.59302019230E+02  0.50000137151E+02 0.  0.
        -12    1    1    2    0    0 -0.39450876516E+01 -0.31536278870E+02  0.25719969061E+01  0.31885980770E+02  0.00000000000E+00 0.  1.
         11    1    3    3    0    0 -0.11154999133E+00 -0.52970279394E+01 -0.23119811764E-01  0.52982528420E+01  0.51100000000E-03 0. -1.
        -11    1    3    3    0    0 -0.31327154809E+01  0.78481136570E+01  0.16530951950E+02  0.18565537075E+02  0.51100000000E-03 0.  1.
         12    1    3    3    0    0  0.71893531239E+01  0.28985193153E+02 -0.19079829045E+02  0.35438229313E+02  0.00000000000E+00 0. -1.
</event>
<event>
 7    1  0.1220856E-011  0.5930181E+02  0.7816164E-02  0.1266605E+00
        -11   -1    0    0    0    0  0.00000000000E+00  0.00000000000E+00  0.45593999997E+02  0.45594000000E+02  0.51100000000E-03 0.  1.
         11   -1    0    0    0    0 -0.00000000000E+00 -0.00000000000E+00 -0.45593999997E+02  0.45594000000E+02  0.51100000000E-03 0. -1.
    9900012    2    1    2    0    0  0.34774497229E+01  0.10751844808E+02 -0.29816680663E+02  0.59301807548E+02  0.49999751092E+02 0.  0.
        -12    1    1    2    0    0 -0.34774497229E+01 -0.10751844808E+02  0.29816680663E+02  0.31886192452E+02  0.00000000000E+00 0.  1.
         11    1    3    3    0    0 -0.37674023930E+01 -0.13836752497E+02 -0.61565812392E+01  0.15606169718E+02  0.51100000000E-03 0. -1.
        -11    1    3    3    0    0  0.87649825662E+01 -0.28629496847E+01 -0.53029568716E+01  0.10636858189E+02  0.51100000000E-03 0.  1.
         12    1    3    3    0    0 -0.15201304502E+01  0.27451546989E+02 -0.18357142552E+02  0.33058779641E+02  0.00000000000E+00 0. -1.
</event>
<event>
 7    1  0.1220856E-011  0.5930191E+02  0.7816164E-02  0.1266605E+00
        -11   -1    0    0    0    0  0.00000000000E+00  0.00000000000E+00  0.45593999997E+02  0.45594000000E+02  0.51100000000E-03 0. -1.
         11   -1    0    0    0    0 -0.00000000000E+00 -0.00000000000E+00 -0.45593999997E+02  0.45594000000E+02  0.51100000000E-03 0.  1.
    9900012    2    1    2    0    0 -0.15302024165E+02  0.27406969056E+02 -0.56061192411E+01  0.59301914174E+02  0.49999945554E+02 0.  0.
        -12    1    1    2    0    0  0.15302024165E+02 -0.27406969056E+02  0.56061192411E+01  0.31886085826E+02  0.00000000000E+00 0.  1.
         11    1    3    3    0    0  0.58559550774E+01  0.15742494844E+02 -0.31480213185E+01  0.17088838237E+02  0.51100000000E-03 0. -1.
        -11    1    3    3    0    0 -0.51746501220E+01  0.20882321894E+02 -0.79916504730E+01  0.22950269042E+02  0.51100000000E-03 0.  1.
         12    1    3    3    0    0 -0.15983329120E+02 -0.92178476821E+01  0.55335525504E+01  0.19262806895E+02  0.00000000000E+00 0. -1.
</event>
<event>
 7    1  0.1220856E-011  0.5930195E+02  0.7816164E-02  0.1266605E+00
        -11   -1    0    0    0    0  0.00000000000E+00  0.00000000000E+00  0.45593999997E+02  0.45594000000E+02  0.51100000000E-03 0.  1.
         11   -1    0    0    0    0 -0.00000000000E+00 -0.00000000000E+00 -0.45593999997E+02  0.45594000000E+02  0.51100000000E-03 0. -1.
    9900012    2    1    2    0    0  0.14816845129E+02  0.42403537084E+00 -0.28231213859E+02  0.59301950675E+02  0.50000012124E+02 0.  0.
        -12    1    1    2    0    0 -0.14816845129E+02 -0.42403537084E+00  0.28231213859E+02  0.31886049325E+02  0.00000000000E+00 0.  1.
         11    1    3    3    0    0  0.24293382127E+02  0.10267279848E+02 -0.14735952343E+02  0.30211483618E+02  0.51100000000E-03 0. -1.
        -11    1    3    3    0    0  0.34463852786E+01 -0.27387312454E+01  0.41804371298E+01  0.60707722063E+01  0.51100000000E-03 0.  1.
         12    1    3    3    0    0 -0.12922922277E+02 -0.71045132321E+01 -0.17675698645E+02  0.23019694851E+02  0.00000000000E+00 0. -1.
</event>
<event>
 7    1  0.1220856E-011  0.5930199E+02  0.7816164E-02  0.1266605E+00
        -11   -1    0    0    0    0  0.00000000000E+00  0.00000000000E+00  0.45593999997E+02  0.45594000000E+02  0.51100000000E-03 0.  1.
         11   -1    0    0    0    0 -0.00000000000E+00 -0.00000000000E+00 -0.45593999997E+02  0.45594000000E+02  0.51100000000E-03 0. -1.
    9900012    2    1    2    0    0 -0.22089255384E+02 -0.18266085808E+02 -0.13968995078E+02  0.59301985548E+02  0.50000075723E+02 0.  0.
        -12    1    1    2    0    0  0.22089255384E+02  0.18266085808E+02  0.13968995078E+02  0.31886014452E+02  0.00000000000E+00 0.  1.
         11    1    3    3    0    0 -0.23116490351E+01 -0.15466663406E+02 -0.16890225301E+02  0.23018277720E+02  0.51100000000E-03 0. -1.
        -11    1    3    3    0    0 -0.16636056734E+02 -0.13820711785E+02 -0.51917276642E+01  0.22242403069E+02  0.51100000000E-03 0.  1.
         12    1    3    3    0    0 -0.31415496149E+01  0.11021289383E+02  0.81129578876E+01  0.14041304759E+02  0.00000000000E+00 0. -1.
</event>
<event>
 7    1  0.1220856E-011  0.5930194E+02  0.7816164E-02  0.1266605E+00
        -11   -1    0    0    0    0  0.00000000000E+00  0.00000000000E+00  0.45593999997E+02  0.45594000000E+02  0.51100000000E-03 0. -1.
         11   -1    0    0    0    0 -0.00000000000E+00 -0.00000000000E+00 -0.45593999997E+02  0.45594000000E+02  0.51100000000E-03 0.  1.
    9900012    2    1    2    0    0 -0.20780698946E+02 -0.13761597802E+02  0.19887231308E+02  0.59301937342E+02  0.49999987807E+02 0.  0.
        -12    1    1    2    0    0  0.20780698946E+02  0.13761597802E+02 -0.19887231308E+02  0.31886062658E+02  0.00000000000E+00 0.  1.
         11    1    3    3    0    0 -0.12334972152E+02  0.40946021724E+01  0.16059973738E+02  0.20660107978E+02  0.51100000000E-03 0. -1.
        -11    1    3    3    0    0  0.23558767919E+01  0.34956506798E+01 -0.10107639114E+02  0.10951442729E+02  0.51100000000E-03 0.  1.
         12    1    3    3    0    0 -0.10801603586E+02 -0.21351850654E+02  0.13934896684E+02  0.27690386635E+02  0.00000000000E+00 0. -1.
</event>
<event>
 7    1  0.1220856E-011  0.5930192E+02  0.7816164E-02  0.1266605E+00
        -11   -1    0    0    0    0  0.00000000000E+00  0.00000000000E+00  0.45593999997E+02  0.45594000000E+02  0.51100000000E-03 0. -1.
         11   -1    0    0    0    0 -0.00000000000E+00 -0.00000000000E+00 -0.45593999997E+02  0.45594000000E+02  0.51100000000E-03 0.  1.
    9900012    2    1    2    0    0  0.15053599717E+02 -0.41321089372E+01  0.27803542859E+02  0.59301918644E+02  0.49999953707E+02 0.  0.
        -12    1    1    2    0    0 -0.15053599717E+02  0.41321089372E+01 -0.27803542859E+02  0.31886081356E+02  0.00000000000E+00 0.  1.
         11    1    3    3    0    0 -0.21322465550E+00  0.83085232173E+01  0.27505201424E+02  0.28733484447E+02  0.51100000000E-03 0. -1.
        -11    1    3    3    0    0 -0.74997293653E+00  0.32792871027E+01 -0.63295582713E+01  0.71679489031E+01  0.51100000000E-03 0.  1.
        -12    1    3    3    0    0  0.16016797309E+02 -0.15719919257E+02  0.66278997057E+01  0.23400485294E+02  0.00000000000E+00 0.  1.
</event>
<event>
 7    1  0.1220856E-011  0.5930194E+02  0.7816164E-02  0.1266605E+00
        -11   -1    0    0    0    0  0.00000000000E+00  0.00000000000E+00  0.45593999997E+02  0.45594000000E+02  0.51100000000E-03 0. -1.
         11   -1    0    0    0    0 -0.00000000000E+00 -0.00000000000E+00 -0.45593999997E+02  0.45594000000E+02  0.51100000000E-03 0.  1.
    9900012    2    1    2    0    0 -0.33395291966E+00  0.31659261577E+02  0.37815642055E+01  0.59301943549E+02  0.49999999126E+02 0.  0.
        -12    1    1    2    0    0  0.33395291966E+00 -0.31659261577E+02 -0.37815642055E+01  0.31886056451E+02  0.00000000000E+00 0.  1.
         11    1    3    3    0    0 -0.67366657668E+01  0.26977413153E+01 -0.10171852458E+02  0.12495081294E+02  0.51100000000E-03 0. -1.
        -11    1    3    3    0    0  0.39273661794E+01  0.47073344808E+01 -0.10574753915E+02  0.12223282033E+02  0.51100000000E-03 0.  1.
         12    1    3    3    0    0  0.24753466678E+01  0.24254185781E+02  0.24528170579E+02  0.34583580222E+02  0.00000000000E+00 0. -1.
</event>
<event>
 7    1  0.1220856E-011  0.5930194E+02  0.7816164E-02  0.1266605E+00
        -11   -1    0    0    0    0  0.00000000000E+00  0.00000000000E+00  0.45593999997E+02  0.45594000000E+02  0.51100000000E-03 0.  1.
         11   -1    0    0    0    0 -0.00000000000E+00 -0.00000000000E+00 -0.45593999997E+02  0.45594000000E+02  0.51100000000E-03 0. -1.
    9900012    2    1    2    0    0 -0.86773433642E+01 -0.26330802656E+02 -0.15751620587E+02  0.59301937096E+02  0.49999987358E+02 0.  0.
        -12    1    1    2    0    0  0.86773433642E+01  0.26330802656E+02  0.15751620587E+02  0.31886062904E+02  0.00000000000E+00 0.  1.
         11    1    3    3    0    0  0.86936097279E+01 -0.15645754242E+02 -0.69712926906E+01  0.19208524096E+02  0.51100000000E-03 0. -1.
        -11    1    3    3    0    0 -0.10214585758E+02 -0.22711627069E+02 -0.35568945175E+01  0.25155660699E+02  0.51100000000E-03 0.  1.
        -12    1    3    3    0    0 -0.71563673344E+01  0.12026578654E+02 -0.52234333789E+01  0.14937752301E+02  0.00000000000E+00 0.  1.
</event>
<event>
 7    1  0.1220856E-011  0.5930193E+02  0.7816164E-02  0.1266605E+00
        -11   -1    0    0    0    0  0.00000000000E+00  0.00000000000E+00  0.45593999997E+02  0.45594000000E+02  0.51100000000E-03 0.  1.
         11   -1    0    0    0    0 -0.00000000000E+00 -0.00000000000E+00 -0.45593999997E+02  0.45594000000E+02  0.51100000000E-03 0. -1.
    9900012    2    1    2    0    0 -0.26819521604E+02  0.55323647254E+01 -0.16334864731E+02  0.59301927738E+02  0.49999970291E+02 0.  0.
        -12    1    1    2    0    0  0.26819521604E+02 -0.55323647254E+01  0.16334864731E+02  0.31886072262E+02  0.00000000000E+00 0.  1.
         11    1    3    3    0    0 -0.14049568346E+02 -0.38109867980E+01 -0.76402041354E+01  0.16440398735E+02  0.51100000000E-03 0. -1.
        -11    1    3    3    0    0 -0.88337827678E+01  0.99491335978E+01 -0.23785614482E+02  0.27253925110E+02  0.51100000000E-03 0.  1.
        -12    1    3    3    0    0 -0.39361704904E+01 -0.60578207443E+00  0.15090953887E+02  0.15607603893E+02  0.00000000000E+00 0.  1.
</event>
<event>
 7    1  0.1220856E-011  0.5930191E+02  0.7816164E-02  0.1266605E+00
        -11   -1    0    0    0    0  0.00000000000E+00  0.00000000000E+00  0.45593999997E+02  0.45594000000E+02  0.51100000000E-03 0.  1.
         11   -1    0    0    0    0 -0.00000000000E+00 -0.00000000000E+00 -0.45593999997E+02  0.45594000000E+02  0.51100000000E-03 0. -1.
    9900012    2    1    2    0    0  0.65442533358E+01  0.69845372885E+01 -0.30415652020E+02  0.59301907410E+02  0.49999933217E+02 0.  0.
        -12    1    1    2    0    0 -0.65442533358E+01 -0.69845372885E+01  0.30415652020E+02  0.31886092590E+02  0.00000000000E+00 0.  1.
         11    1    3    3    0    0  0.13916532031E+02 -0.41658646008E+01 -0.32480070266E+02  0.35580602249E+02  0.51100000000E-03 0. -1.
        -11    1    3    3    0    0  0.15449706111E+01  0.13423518285E+02  0.44298359754E+01  0.14219747690E+02  0.51100000000E-03 0.  1.
        -12    1    3    3    0    0 -0.89172493061E+01 -0.22731163956E+01 -0.23654177294E+01  0.95015574707E+01  0.00000000000E+00 0.  1.
</event>
<event>
 7    1  0.1220856E-011  0.5930193E+02  0.7816164E-02  0.1266605E+00
        -11   -1    0    0    0    0  0.00000000000E+00  0.00000000000E+00  0.45593999997E+02  0.45594000000E+02  0.51100000000E-03 0. -1.
         11   -1    0    0    0    0 -0.00000000000E+00 -0.00000000000E+00 -0.45593999997E+02  0.45594000000E+02  0.51100000000E-03 0.  1.
    9900012    2    1    2    0    0 -0.27405170009E+02 -0.14581348752E+02 -0.72843764029E+01  0.59301933855E+02  0.49999981447E+02 0.  0.
        -12    1    1    2    0    0  0.27405170009E+02  0.14581348752E+02  0.72843764029E+01  0.31886066145E+02  0.00000000000E+00 0.  1.
         11    1    3    3    0    0 -0.30729384073E+01  0.10550457342E+01  0.60641295707E+01  0.68796613048E+01  0.51100000000E-03 0. -1.
        -11    1    3    3    0    0 -0.14193196095E+02 -0.28267681104E+02 -0.16867523725E+02  0.35847203061E+02  0.51100000000E-03 0.  1.
         12    1    3    3    0    0 -0.10139035507E+02  0.12631286618E+02  0.35190177517E+01  0.16575069489E+02  0.00000000000E+00 0. -1.
</event>
<event>
 7    1  0.1220856E-011  0.5930196E+02  0.7816164E-02  0.1266605E+00
        -11   -1    0    0    0    0  0.00000000000E+00  0.00000000000E+00  0.45593999997E+02  0.45594000000E+02  0.51100000000E-03 0.  1.
         11   -1    0    0    0    0 -0.00000000000E+00 -0.00000000000E+00 -0.45593999997E+02  0.45594000000E+02  0.51100000000E-03 0. -1.
    9900012    2    1    2    0    0 -0.21704164387E+01  0.43340195526E+01 -0.31515473404E+02  0.59301960784E+02  0.50000030560E+02 0.  0.
        -12    1    1    2    0    0  0.21704164387E+01 -0.43340195526E+01  0.31515473404E+02  0.31886039216E+02  0.00000000000E+00 0.  1.
         11    1    3    3    0    0  0.46991630360E+01  0.79481358475E+01 -0.30236734418E+02  0.31615108812E+02  0.51100000000E-03 0.  1.
        -11    1    3    3    0    0  0.56469881433E+01 -0.10728290250E+02 -0.45033143881E+01  0.12933078810E+02  0.51100000000E-03 0. -1.
        -12    1    3    3    0    0 -0.12516567618E+02  0.71141739547E+01  0.32245754020E+01  0.14753773162E+02  0.00000000000E+00 0.  1.
</event>
<event>
 7    1  0.1220856E-011  0.5930203E+02  0.7816164E-02  0.1266604E+00
        -11   -1    0    0    0    0  0.00000000000E+00  0.00000000000E+00  0.45593999997E+02  0.45594000000E+02  0.51100000000E-03 0.  1.
         11   -1    0    0    0    0 -0.00000000000E+00 -0.00000000000E+00 -0.45593999997E+02  0.45594000000E+02  0.51100000000E-03 0. -1.
    9900012    2    1    2    0    0  0.31757751456E+02 -0.27022509108E+01  0.92651571211E+00  0.59302025515E+02  0.50000148613E+02 0.  0.
        -12    1    1    2    0    0 -0.31757751456E+02  0.27022509108E+01 -0.92651571211E+00  0.31885974485E+02  0.00000000000E+00 0.  1.
         11    1    3    3    0    0  0.20937173857E+02 -0.56560272411E+00 -0.89340443173E+01  0.22770645658E+02  0.51100000000E-03 0. -1.
        -11    1    3    3    0    0  0.93878949098E+01  0.91501473982E+01 -0.79979647197E+01  0.15356601452E+02  0.51100000000E-03 0.  1.
        -12    1    3    3    0    0  0.14326826889E+01 -0.11286795585E+02  0.17858524749E+02  0.21174778404E+02  0.00000000000E+00 0.  1.
</event>
<event>
 7    1  0.1220856E-011  0.5930196E+02  0.7816164E-02  0.1266605E+00
        -11   -1    0    0    0    0  0.00000000000E+00  0.00000000000E+00  0.45593999997E+02  0.45594000000E+02  0.51100000000E-03 0.  1.
         11   -1    0    0    0    0 -0.00000000000E+00 -0.00000000000E+00 -0.45593999997E+02  0.45594000000E+02  0.51100000000E-03 0. -1.
    9900012    2    1    2    0    0 -0.24736799330E+02 -0.20114456175E+02 -0.46825950945E+00  0.59301955164E+02  0.50000020310E+02 0.  0.
        -12    1    1    2    0    0  0.24736799330E+02  0.20114456175E+02  0.46825950945E+00  0.31886044836E+02  0.00000000000E+00 0.  1.
         11    1    3    3    0    0  0.64202271507E+01 -0.17887091693E+01 -0.85815048986E+01  0.10865588974E+02  0.51100000000E-03 0. -1.
        -11    1    3    3    0    0 -0.71884812988E+01  0.88354592776E+01  0.35192924654E+01  0.11921620014E+02  0.51100000000E-03 0.  1.
         12    1    3    3    0    0 -0.23968545182E+02 -0.27161206284E+02  0.45939529237E+01  0.36514746177E+02  0.00000000000E+00 0. -1.
</event>
<event>
 7    1  0.1220856E-011  0.5930194E+02  0.7816164E-02  0.1266605E+00
        -11   -1    0    0    0    0  0.00000000000E+00  0.00000000000E+00  0.45593999997E+02  0.45594000000E+02  0.51100000000E-03 0. -1.
         11   -1    0    0    0    0 -0.00000000000E+00 -0.00000000000E+00 -0.45593999997E+02  0.45594000000E+02  0.51100000000E-03 0.  1.
    9900012    2    1    2    0    0 -0.19285197638E+02  0.96920908527E+01  0.23470525939E+02  0.59301936259E+02  0.49999985832E+02 0.  0.
        -12    1    1    2    0    0  0.19285197638E+02 -0.96920908527E+01 -0.23470525939E+02  0.31886063741E+02  0.00000000000E+00 0.  1.
         11    1    3    3    0    0 -0.14753993280E+02 -0.89016819241E+00  0.18345741982E+02  0.23559264977E+02  0.51100000000E-03 0. -1.
        -11    1    3    3    0    0 -0.68754758028E+01 -0.41435351029E+01 -0.11105189185E+02  0.13702783577E+02  0.51100000000E-03 0.  1.
         12    1    3    3    0    0  0.23442714456E+01  0.14725794148E+02  0.16229973141E+02  0.22039887705E+02  0.00000000000E+00 0. -1.
</event>
<event>
 7    1  0.1220856E-011  0.5930194E+02  0.7816164E-02  0.1266605E+00
        -11   -1    0    0    0    0  0.00000000000E+00  0.00000000000E+00  0.45593999997E+02  0.45594000000E+02  0.51100000000E-03 0.  1.
         11   -1    0    0    0    0 -0.00000000000E+00 -0.00000000000E+00 -0.45593999997E+02  0.45594000000E+02  0.51100000000E-03 0. -1.
    9900012    2    1    2    0    0 -0.17921062245E+02 -0.25369495954E+02 -0.72072688078E+01  0.59301944731E+02  0.50000001283E+02 0.  0.
        -12    1    1    2    0    0  0.17921062245E+02  0.25369495954E+02  0.72072688078E+01  0.31886055269E+02  0.00000000000E+00 0.  1.
         11    1    3    3    0    0 -0.32261363851E+01  0.19135706884E+01  0.35482856749E+01  0.51633361548E+01  0.51100000000E-03 0. -1.
        -11    1    3    3    0    0 -0.18282674151E+02  0.57735281094E+01 -0.79972388893E+01  0.20773676397E+02  0.51100000000E-03 0.  1.
         12    1    3    3    0    0  0.35877482915E+01 -0.33056594752E+02 -0.27583155934E+01  0.33364932179E+02  0.00000000000E+00 0. -1.
</event>
<event>
 7    1  0.1220856E-011  0.5930196E+02  0.7816164E-02  0.1266605E+00
        -11   -1    0    0    0    0  0.00000000000E+00  0.00000000000E+00  0.45593999997E+02  0.45594000000E+02  0.51100000000E-03 0.  1.
         11   -1    0    0    0    0 -0.00000000000E+00 -0.00000000000E+00 -0.45593999997E+02  0.45594000000E+02  0.51100000000E-03 0. -1.
    9900012    2    1    2    0    0 -0.16739306003E+02 -0.23986515466E+02  0.12694966692E+02  0.59301961221E+02  0.50000031357E+02 0.  0.
        -12    1    1    2    0    0  0.16739306003E+02  0.23986515466E+02 -0.12694966692E+02  0.31886038779E+02  0.00000000000E+00 0.  1.
         11    1    3    3    0    0  0.93805596220E+01 -0.41829327390E+01 -0.26917414463E+01  0.10617782132E+02  0.51100000000E-03 0. -1.
        -11    1    3    3    0    0 -0.20839678936E+01 -0.16627830650E+02 -0.44721225967E+01  0.17344381081E+02  0.51100000000E-03 0.  1.
        -12    1    3    3    0    0 -0.24035897731E+02 -0.31757520769E+01  0.19858830736E+02  0.31339798008E+02  0.00000000000E+00 0.  1.
</event>
<event>
 7    1  0.1220856E-011  0.5930194E+02  0.7816164E-02  0.1266605E+00
        -11   -1    0    0    0    0  0.00000000000E+00  0.00000000000E+00  0.45593999997E+02  0.45594000000E+02  0.51100000000E-03 0. -1.
         11   -1    0    0    0    0 -0.00000000000E+00 -0.00000000000E+00 -0.45593999997E+02  0.45594000000E+02  0.51100000000E-03 0.  1.
    9900012    2    1    2    0    0  0.14978804765E+02  0.19819904735E+02  0.19988189561E+02  0.59301938189E+02  0.49999989351E+02 0.  0.
        -12    1    1    2    0    0 -0.14978804765E+02 -0.19819904735E+02 -0.19988189561E+02  0.31886061811E+02  0.00000000000E+00 0.  1.
         11    1    3    3    0    0 -0.13086361129E+01  0.10784126999E+01  0.41360316471E+00  0.17454427136E+01  0.51100000000E-03 0. -1.
        -11    1    3    3    0    0  0.20664198428E+02  0.31432984102E+02  0.22477856409E+02  0.43821177703E+02  0.51100000000E-03 0.  1.
        -12    1    3    3    0    0 -0.43767575509E+01 -0.12691492067E+02 -0.29032700119E+01  0.13735317772E+02  0.00000000000E+00 0.  1.
</event>
<event>
 7    1  0.1220856E-011  0.5930192E+02  0.7816164E-02  0.1266605E+00
        -11   -1    0    0    0    0  0.00000000000E+00  0.00000000000E+00  0.45593999997E+02  0.45594000000E+02  0.51100000000E-03 0. -1.
         11   -1    0    0    0    0 -0.00000000000E+00 -0.00000000000E+00 -0.45593999997E+02  0.45594000000E+02  0.51100000000E-03 0.  1.
    9900012    2    1    2    0    0  0.12678444417E+02 -0.20779982722E+02  0.20595425046E+02  0.59301918905E+02  0.49999954182E+02 0.  0.
        -12    1    1    2    0    0 -0.12678444417E+02  0.20779982722E+02 -0.20595425046E+02  0.31886081095E+02  0.00000000000E+00 0.  1.
         11    1    3    3    0    0 -0.54845922953E+01  0.74293797717E-03 -0.27604523135E+01  0.61401018260E+01  0.51100000000E-03 0. -1.
        -11    1    3    3    0    0  0.12471275419E+02 -0.28275187589E+02  0.33894176529E+01  0.31088697240E+02  0.51100000000E-03 0.  1.
         12    1    3    3    0    0  0.56917612935E+01  0.74944619292E+01  0.19966459706E+02  0.22073119839E+02  0.00000000000E+00 0. -1.
</event>
<event>
 7    1  0.1220856E-011  0.5930194E+02  0.7816164E-02  0.1266605E+00
        -11   -1    0    0    0    0  0.00000000000E+00  0.00000000000E+00  0.45593999997E+02  0.45594000000E+02  0.51100000000E-03 0.  1.
         11   -1    0    0    0    0 -0.00000000000E+00 -0.00000000000E+00 -0.45593999997E+02  0.45594000000E+02  0.51100000000E-03 0. -1.
    9900012    2    1    2    0    0 -0.14381597797E+02  0.21115121773E+02 -0.19079882805E+02  0.59301942694E+02  0.49999997568E+02 0.  0.
        -12    1    1    2    0    0  0.14381597797E+02 -0.21115121773E+02  0.19079882805E+02  0.31886057306E+02  0.00000000000E+00 0.  1.
         11    1    3    3    0    0 -0.10857372143E+00  0.21734756864E+02 -0.66809076796E+00  0.21745293507E+02  0.51100000000E-03 0. -1.
        -11    1    3    3    0    0 -0.82581388899E+01 -0.28841837463E+01  0.70885136584E+01  0.11258880937E+02  0.51100000000E-03 0.  1.
         12    1    3    3    0    0 -0.60148851855E+01  0.22645486553E+01 -0.25500305695E+02  0.26297768250E+02  0.00000000000E+00 0. -1.
</event>
<event>
 7    1  0.1220856E-011  0.5930196E+02  0.7816164E-02  0.1266605E+00
        -11   -1    0    0    0    0  0.00000000000E+00  0.00000000000E+00  0.45593999997E+02  0.45594000000E+02  0.51100000000E-03 0. -1.
         11   -1    0    0    0    0 -0.00000000000E+00 -0.00000000000E+00 -0.45593999997E+02  0.45594000000E+02  0.51100000000E-03 0.  1.
    9900012    2    1    2    0    0  0.10924305998E+02 -0.24139972107E+02  0.17738123350E+02  0.59301957053E+02  0.50000023754E+02 0.  0.
        -12    1    1    2    0    0 -0.10924305998E+02  0.24139972107E+02 -0.17738123350E+02  0.31886042947E+02  0.00000000000E+00 0.  1.
         11    1    3    3    0    0 -0.85809224302E+01 -0.83882152836E+01  0.11260722977E+02  0.16455949308E+02  0.51100000000E-03 0. -1.
        -11    1    3    3    0    0  0.11412549766E+02 -0.17694121046E+02  0.18631777165E+02  0.28115322021E+02  0.51100000000E-03 0.  1.
        -12    1    3    3    0    0  0.80926786620E+01  0.19423642228E+01 -0.12154376792E+02  0.14730685724E+02  0.00000000000E+00 0.  1.
</event>
<event>
 7    1  0.1220856E-011  0.5930196E+02  0.7816164E-02  0.1266605E+00
        -11   -1    0    0    0    0  0.00000000000E+00  0.00000000000E+00  0.45593999997E+02  0.45594000000E+02  0.51100000000E-03 0.  1.
         11   -1    0    0    0    0 -0.00000000000E+00 -0.00000000000E+00 -0.45593999997E+02  0.45594000000E+02  0.51100000000E-03 0. -1.
    9900012    2    1    2    0    0 -0.26252192604E+01 -0.23647600281E+02 -0.21227779163E+02  0.59301962563E+02  0.50000033805E+02 0.  0.
        -12    1    1    2    0    0  0.26252192604E+01  0.23647600281E+02  0.21227779163E+02  0.31886037437E+02  0.00000000000E+00 0.  1.
         11    1    3    3    0    0 -0.46184045722E+01 -0.50745779380E+01  0.39219708484E+01  0.79033447121E+01  0.51100000000E-03 0. -1.
        -11    1    3    3    0    0 -0.47943334790E+01  0.12303651113E+02 -0.78146863704E+01  0.15343884369E+02  0.51100000000E-03 0.  1.
         12    1    3    3    0    0  0.67875187908E+01 -0.30876673456E+02 -0.17335063641E+02  0.36054733482E+02  0.00000000000E+00 0. -1.
</event>
<event>
 7    1  0.1220856E-011  0.5930195E+02  0.7816164E-02  0.1266605E+00
        -11   -1    0    0    0    0  0.00000000000E+00  0.00000000000E+00  0.45593999997E+02  0.45594000000E+02  0.51100000000E-03 0. -1.
         11   -1    0    0    0    0 -0.00000000000E+00 -0.00000000000E+00 -0.45593999997E+02  0.45594000000E+02  0.51100000000E-03 0.  1.
    9900012    2    1    2    0    0 -0.23905253567E+02  0.19268989823E+02 -0.86003100997E+01  0.59301945827E+02  0.50000003282E+02 0.  0.
        -12    1    1    2    0    0  0.23905253567E+02 -0.19268989823E+02  0.86003100997E+01  0.31886054173E+02  0.00000000000E+00 0.  1.
         11    1    3    3    0    0 -0.11996106033E+02  0.15557130082E+02 -0.19662971100E+02  0.27795022739E+02  0.51100000000E-03 0. -1.
        -11    1    3    3    0    0 -0.14380529533E+02  0.83337517815E+01 -0.26463761286E+01  0.16830162069E+02  0.51100000000E-03 0.  1.
        -12    1    3    3    0    0  0.24713819984E+01 -0.46218920408E+01  0.13709037129E+02  0.14676761019E+02  0.00000000000E+00 0.  1.
</event>
<event>
 7    1  0.1220856E-011  0.5930215E+02  0.7816164E-02  0.1266604E+00
        -11   -1    0    0    0    0  0.00000000000E+00  0.00000000000E+00  0.45593999997E+02  0.45594000000E+02  0.51100000000E-03 0. -1.
         11   -1    0    0    0    0 -0.00000000000E+00 -0.00000000000E+00 -0.45593999997E+02  0.45594000000E+02  0.51100000000E-03 0.  1.
    9900012    2    1    2    0    0 -0.14167977612E+01 -0.31711949177E+02  0.30087500982E+01  0.59302147124E+02  0.50000370398E+02 0.  0.
        -12    1    1    2    0    0  0.14167977612E+01  0.31711949177E+02 -0.30087500982E+01  0.31885852876E+02  0.00000000000E+00 0.  1.
         11    1    3    3    0    0  0.76733357304E-01 -0.14456634464E+01 -0.36965384026E+01  0.39699152676E+01  0.51100000000E-03 0. -1.
        -11    1    3    3    0    0  0.19776776761E+02 -0.34904350910E+01 -0.15871943971E+01  0.20145054542E+02  0.51100000000E-03 0.  1.
         12    1    3    3    0    0 -0.21270307880E+02 -0.26775850639E+02  0.82924828979E+01  0.35187177314E+02  0.00000000000E+00 0. -1.
</event>
<event>
 7    1  0.1220856E-011  0.5930197E+02  0.7816164E-02  0.1266605E+00
        -11   -1    0    0    0    0  0.00000000000E+00  0.00000000000E+00  0.45593999997E+02  0.45594000000E+02  0.51100000000E-03 0.  1.
         11   -1    0    0    0    0 -0.00000000000E+00 -0.00000000000E+00 -0.45593999997E+02  0.45594000000E+02  0.51100000000E-03 0. -1.
    9900012    2    1    2    0    0 -0.13392302177E+01  0.24515329055E+02 -0.20345119657E+02  0.59301971867E+02  0.50000050772E+02 0.  0.
        -12    1    1    2    0    0  0.13392302177E+01 -0.24515329055E+02  0.20345119657E+02  0.31886028133E+02  0.00000000000E+00 0.  1.
         11    1    3    3    0    0  0.29068924323E+01 -0.13182370713E+02 -0.31432711737E+01  0.13860197515E+02  0.51100000000E-03 0. -1.
        -11    1    3    3    0    0 -0.91344192052E+01  0.23661640952E+02 -0.42292565707E+01  0.25713760483E+02  0.51100000000E-03 0.  1.
        -12    1    3    3    0    0  0.48882965552E+01  0.14036058815E+02 -0.12972591913E+02  0.19728013869E+02  0.00000000000E+00 0.  1.
</event>
<event>
 7    1  0.1220856E-011  0.5930232E+02  0.7816164E-02  0.1266603E+00
        -11   -1    0    0    0    0  0.00000000000E+00  0.00000000000E+00  0.45593999997E+02  0.45594000000E+02  0.51100000000E-03 0. -1.
         11   -1    0    0    0    0 -0.00000000000E+00 -0.00000000000E+00 -0.45593999997E+02  0.45594000000E+02  0.51100000000E-03 0.  1.
    9900012    2    1    2    0    0 -0.11441499585E+02  0.28253524224E+02 -0.93555729153E+01  0.59302324715E+02  0.50000694278E+02 0.  0.
        -12    1    1    2    0    0  0.11441499585E+02 -0.28253524224E+02  0.93555729153E+01  0.31885675285E+02  0.00000000000E+00 0.  1.
         11    1    3    3    0    0  0.51210876289E+01  0.18670207226E+01 -0.57816816524E+00  0.54813851872E+01  0.51100000000E-03 0. -1.
        -11    1    3    3    0    0  0.58175087942E+01  0.27883569378E+02  0.27240389475E+01  0.28613934337E+02  0.51100000000E-03 0.  1.
        -12    1    3    3    0    0 -0.22380096008E+02 -0.14970658767E+01 -0.11501443698E+02  0.25207005191E+02  0.00000000000E+00 0.  1.
</event>
<event>
 7    1  0.1220856E-011  0.5930192E+02  0.7816164E-02  0.1266605E+00
        -11   -1    0    0    0    0  0.00000000000E+00  0.00000000000E+00  0.45593999997E+02  0.45594000000E+02  0.51100000000E-03 0.  1.
         11   -1    0    0    0    0 -0.00000000000E+00 -0.00000000000E+00 -0.45593999997E+02  0.45594000000E+02  0.51100000000E-03 0. -1.
    9900012    2    1    2    0    0 -0.22910430929E+02  0.11423443878E+02 -0.19008918119E+02  0.59301923361E+02  0.49999962308E+02 0.  0.
        -12    1    1    2    0    0  0.22910430929E+02 -0.11423443878E+02  0.19008918119E+02  0.31886076639E+02  0.00000000000E+00 0.  1.
         11    1    3    3    0    0  0.97406098100E+00  0.10657595777E+02  0.93058701660E+01  0.14182114170E+02  0.51100000000E-03 0. -1.
        -11    1    3    3    0    0  0.44420652786E+01 -0.23638121564E+01 -0.12376961354E+00  0.50333757091E+01  0.51100000000E-03 0.  1.
        -12    1    3    3    0    0 -0.28326557189E+02  0.31296602581E+01 -0.28191018671E+02  0.40086433481E+02  0.00000000000E+00 0.  1.
</event>
<event>
 7    1  0.1220856E-011  0.5930194E+02  0.7816164E-02  0.1266605E+00
        -11   -1    0    0    0    0  0.00000000000E+00  0.00000000000E+00  0.45593999997E+02  0.45594000000E+02  0.51100000000E-03 0. -1.
         11   -1    0    0    0    0 -0.00000000000E+00 -0.00000000000E+00 -0.45593999997E+02  0.45594000000E+02  0.51100000000E-03 0.  1.
    9900012    2    1    2    0    0  0.54197783520E+01 -0.19006043566E+02  0.25022327763E+02  0.59301943861E+02  0.49999999696E+02 0.  0.
        -12    1    1    2    0    0 -0.54197783520E+01  0.19006043566E+02 -0.25022327763E+02  0.31886056139E+02  0.00000000000E+00 0.  1.
         11    1    3    3    0    0 -0.57703201436E+00  0.12564255745E+02  0.12660276053E+02  0.17845898082E+02  0.51100000000E-03 0. -1.
        -11    1    3    3    0    0 -0.84022743569E+01 -0.69135094770E+01  0.49648385743E+01  0.11960119146E+02  0.51100000000E-03 0.  1.
        -12    1    3    3    0    0  0.14399084723E+02 -0.24656789834E+02  0.73972131358E+01  0.29495926633E+02  0.00000000000E+00 0.  1.
</event>
<event>
 7    1  0.1220856E-011  0.5930194E+02  0.7816164E-02  0.1266605E+00
        -11   -1    0    0    0    0  0.00000000000E+00  0.00000000000E+00  0.45593999997E+02  0.45594000000E+02  0.51100000000E-03 0.  1.
         11   -1    0    0    0    0 -0.00000000000E+00 -0.00000000000E+00 -0.45593999997E+02  0.45594000000E+02  0.51100000000E-03 0. -1.
    9900012    2    1    2    0    0  0.14775425756E+02 -0.21616967879E+02 -0.18196546037E+02  0.59301940440E+02  0.49999993457E+02 0.  0.
        -12    1    1    2    0    0 -0.14775425756E+02  0.21616967879E+02  0.18196546037E+02  0.31886059560E+02  0.00000000000E+00 0.  1.
         11    1    3    3    0    0  0.17327664868E+02 -0.18158690278E+02 -0.14740958616E+01  0.25142771551E+02  0.51100000000E-03 0. -1.
        -11    1    3    3    0    0  0.24019659738E+01 -0.12468447754E+02  0.19463370871E+01  0.12846005537E+02  0.51100000000E-03 0.  1.
        -12    1    3    3    0    0 -0.49542050855E+01  0.90101701526E+01 -0.18668787263E+02  0.21313163352E+02  0.00000000000E+00 0.  1.
</event>
<event>
 7    1  0.1220856E-011  0.5930194E+02  0.7816164E-02  0.1266605E+00
        -11   -1    0    0    0    0  0.00000000000E+00  0.00000000000E+00  0.45593999997E+02  0.45594000000E+02  0.51100000000E-03 0. -1.
         11   -1    0    0    0    0 -0.00000000000E+00 -0.00000000000E+00 -0.45593999997E+02  0.45594000000E+02  0.51100000000E-03 0.  1.
    9900012    2    1    2    0    0  0.60711375902E+01 -0.30679127551E+02  0.62171822700E+01  0.59301938244E+02  0.49999989452E+02 0.  0.
        -12    1    1    2    0    0 -0.60711375902E+01  0.30679127551E+02 -0.62171822700E+01  0.31886061756E+02  0.00000000000E+00 0.  1.
         11    1    3    3    0    0 -0.53242299847E+01 -0.39305597344E+02  0.11940968088E+02  0.41422990315E+02  0.51100000000E-03 0. -1.
        -11    1    3    3    0    0  0.13765992539E+01  0.28319308704E+01  0.22099952962E+01  0.38469387090E+01  0.51100000000E-03 0.  1.
        -12    1    3    3    0    0  0.10018768321E+02  0.57945389228E+01 -0.79337811138E+01  0.14032009220E+02  0.00000000000E+00 0.  1.
</event>
<event>
 7    1  0.1220856E-011  0.5930196E+02  0.7816164E-02  0.1266605E+00
        -11   -1    0    0    0    0  0.00000000000E+00  0.00000000000E+00  0.45593999997E+02  0.45594000000E+02  0.51100000000E-03 0.  1.
         11   -1    0    0    0    0 -0.00000000000E+00 -0.00000000000E+00 -0.45593999997E+02  0.45594000000E+02  0.51100000000E-03 0. -1.
    9900012    2    1    2    0    0  0.23547575412E+02 -0.12355837333E+02 -0.17594439839E+02  0.59301963288E+02  0.50000035125E+02 0.  0.
        -12    1    1    2    0    0 -0.23547575412E+02  0.12355837333E+02  0.17594439839E+02  0.31886036712E+02  0.00000000000E+00 0.  1.
         11    1    3    3    0    0  0.14699083029E+02 -0.20912887605E+02 -0.11432676554E+02  0.28002107123E+02  0.51100000000E-03 0. -1.
        -11    1    3    3    0    0  0.64551069341E+01 -0.27637476453E+01 -0.15116977893E+02  0.16668225085E+02  0.51100000000E-03 0.  1.
        -12    1    3    3    0    0  0.23933854491E+01  0.11320797917E+02  0.89552146086E+01  0.14631631080E+02  0.00000000000E+00 0.  1.
</event>
<event>
 7    1  0.1220856E-011  0.5930192E+02  0.7816164E-02  0.1266605E+00
        -11   -1    0    0    0    0  0.00000000000E+00  0.00000000000E+00  0.45593999997E+02  0.45594000000E+02  0.51100000000E-03 0.  1.
         11   -1    0    0    0    0 -0.00000000000E+00 -0.00000000000E+00 -0.45593999997E+02  0.45594000000E+02  0.51100000000E-03 0. -1.
    9900012    2    1    2    0    0  0.96964138847E+01 -0.11836652248E+01 -0.30352932092E+02  0.59301921655E+02  0.49999959198E+02 0.  0.
        -12    1    1    2    0    0 -0.96964138847E+01  0.11836652248E+01  0.30352932092E+02  0.31886078345E+02  0.00000000000E+00 0.  1.
         11    1    3    3    0    0 -0.70524450055E+01  0.77120657369E+01 -0.43822999793E+01  0.11332144186E+02  0.51100000000E-03 0. -1.
        -11    1    3    3    0    0  0.18673163278E+01  0.10165258330E+02  0.24818063958E+01  0.10629144388E+02  0.51100000000E-03 0.  1.
         12    1    3    3    0    0  0.14881542562E+02 -0.19060989291E+02 -0.28452438509E+02  0.37340633081E+02  0.00000000000E+00 0. -1.
</event>
<event>
 7    1  0.1220856E-011  0.5930203E+02  0.7816164E-02  0.1266604E+00
        -11   -1    0    0    0    0  0.00000000000E+00  0.00000000000E+00  0.45593999997E+02  0.45594000000E+02  0.51100000000E-03 0.  1.
         11   -1    0    0    0    0 -0.00000000000E+00 -0.00000000000E+00 -0.45593999997E+02  0.45594000000E+02  0.51100000000E-03 0. -1.
    9900012    2    1    2    0    0 -0.82473614723E+01  0.42692148452E+01 -0.30503604275E+02  0.59302030665E+02  0.50000158006E+02 0.  0.
        -12    1    1    2    0    0  0.82473614723E+01 -0.42692148452E+01  0.30503604275E+02  0.31885969335E+02  0.00000000000E+00 0.  1.
         11    1    3    3    0    0 -0.15421928702E+02 -0.14723682594E+02 -0.22713560510E+02  0.31153307133E+02  0.51100000000E-03 0. -1.
        -11    1    3    3    0    0 -0.50469561398E+01  0.14986468967E+01 -0.36609015414E+01  0.64124807333E+01  0.51100000000E-03 0.  1.
        -12    1    3    3    0    0  0.12221523369E+02  0.17494250543E+02 -0.41291422239E+01  0.21736242799E+02  0.00000000000E+00 0.  1.
</event>
<event>
 7    1  0.1220856E-011  0.5930201E+02  0.7816164E-02  0.1266605E+00
        -11   -1    0    0    0    0  0.00000000000E+00  0.00000000000E+00  0.45593999997E+02  0.45594000000E+02  0.51100000000E-03 0.  1.
         11   -1    0    0    0    0 -0.00000000000E+00 -0.00000000000E+00 -0.45593999997E+02  0.45594000000E+02  0.51100000000E-03 0. -1.
    9900012    2    1    2    0    0  0.16495594728E+02  0.12458554480E+02 -0.24277482474E+02  0.59302009652E+02  0.50000119683E+02 0.  0.
        -12    1    1    2    0    0 -0.16495594728E+02 -0.12458554480E+02  0.24277482474E+02  0.31885990348E+02  0.00000000000E+00 0.  1.
         11    1    3    3    0    0 -0.84552060916E+01  0.50842448221E+01 -0.68664063014E+01  0.12020299132E+02  0.51100000000E-03 0. -1.
        -11    1    3    3    0    0  0.59782633664E+01  0.13946130347E+02  0.61088971426E+01  0.16357041575E+02  0.51100000000E-03 0.  1.
        -12    1    3    3    0    0  0.18972537454E+02 -0.65718206894E+01 -0.23519973316E+02  0.30924668945E+02  0.00000000000E+00 0.  1.
</event>
<event>
 7    1  0.1220856E-011  0.5930200E+02  0.7816164E-02  0.1266605E+00
        -11   -1    0    0    0    0  0.00000000000E+00  0.00000000000E+00  0.45593999997E+02  0.45594000000E+02  0.51100000000E-03 0.  1.
         11   -1    0    0    0    0 -0.00000000000E+00 -0.00000000000E+00 -0.45593999997E+02  0.45594000000E+02  0.51100000000E-03 0. -1.
    9900012    2    1    2    0    0 -0.13927291895E+02 -0.12297029121E+02 -0.25913902602E+02  0.59302004127E+02  0.50000109606E+02 0.  0.
        -12    1    1    2    0    0  0.13927291895E+02  0.12297029121E+02  0.25913902602E+02  0.31885995873E+02  0.00000000000E+00 0.  1.
         11    1    3    3    0    0 -0.48181624456E+01  0.34511845668E+01 -0.37305893960E+01  0.70030466062E+01  0.51100000000E-03 0. -1.
        -11    1    3    3    0    0  0.10296311511E+02  0.15776133828E+01  0.74952713265E+01  0.12832847978E+02  0.51100000000E-03 0.  1.
         12    1    3    3    0    0 -0.19405440960E+02 -0.17325827071E+02 -0.29678584533E+02  0.39466109543E+02  0.00000000000E+00 0. -1.
</event>
<event>
 7    1  0.1220856E-011  0.5930195E+02  0.7816164E-02  0.1266605E+00
        -11   -1    0    0    0    0  0.00000000000E+00  0.00000000000E+00  0.45593999997E+02  0.45594000000E+02  0.51100000000E-03 0.  1.
         11   -1    0    0    0    0 -0.00000000000E+00 -0.00000000000E+00 -0.45593999997E+02  0.45594000000E+02  0.51100000000E-03 0. -1.
    9900012    2    1    2    0    0 -0.40910964108E+01 -0.31588459013E+02 -0.14670570920E+01  0.59301951811E+02  0.50000014194E+02 0.  0.
        -12    1    1    2    0    0  0.40910964108E+01  0.31588459013E+02  0.14670570920E+01  0.31886048189E+02  0.00000000000E+00 0.  1.
         11    1    3    3    0    0  0.31649879934E+01 -0.14343137344E+02 -0.15954013430E+02  0.21685785267E+02  0.51100000000E-03 0. -1.
        -11    1    3    3    0    0  0.25364624704E+01  0.27782413169E+01 -0.61698896327E+01  0.72263272151E+01  0.51100000000E-03 0.  1.
        -12    1    3    3    0    0 -0.97925468746E+01 -0.20023562986E+02  0.20656845971E+02  0.30389839328E+02  0.00000000000E+00 0.  1.
</event>
<event>
 7    1  0.1220856E-011  0.5930194E+02  0.7816164E-02  0.1266605E+00
        -11   -1    0    0    0    0  0.00000000000E+00  0.00000000000E+00  0.45593999997E+02  0.45594000000E+02  0.51100000000E-03 0.  1.
         11   -1    0    0    0    0 -0.00000000000E+00 -0.00000000000E+00 -0.45593999997E+02  0.45594000000E+02  0.51100000000E-03 0. -1.
    9900012    2    1    2    0    0 -0.19073859956E+02 -0.15247176330E+02 -0.20504442114E+02  0.59301942450E+02  0.49999997123E+02 0.  0.
        -12    1    1    2    0    0  0.19073859956E+02  0.15247176330E+02  0.20504442114E+02  0.31886057550E+02  0.00000000000E+00 0.  1.
         11    1    3    3    0    0  0.45788250825E+01 -0.91160077984E+01 -0.26689634065E+00  0.10204825880E+02  0.51100000000E-03 0. -1.
        -11    1    3    3    0    0 -0.18465965737E+02 -0.80503040058E+01  0.69829996338E+01  0.21320449558E+02  0.51100000000E-03 0.  1.
        -12    1    3    3    0    0 -0.51867193013E+01  0.19191354738E+01 -0.27220545407E+02  0.27776667013E+02  0.00000000000E+00 0.  1.
</event>
<event>
 7    1  0.1220856E-011  0.5930197E+02  0.7816164E-02  0.1266605E+00
        -11   -1    0    0    0    0  0.00000000000E+00  0.00000000000E+00  0.45593999997E+02  0.45594000000E+02  0.51100000000E-03 0. -1.
         11   -1    0    0    0    0 -0.00000000000E+00 -0.00000000000E+00 -0.45593999997E+02  0.45594000000E+02  0.51100000000E-03 0.  1.
    9900012    2    1    2    0    0  0.17298672951E+02 -0.21934652163E+02  0.15373535697E+02  0.59301974044E+02  0.50000054743E+02 0.  0.
        -12    1    1    2    0    0 -0.17298672951E+02  0.21934652163E+02 -0.15373535697E+02  0.31886025956E+02  0.00000000000E+00 0.  1.
         11    1    3    3    0    0 -0.11683771827E+02 -0.15194101827E+02  0.85539759128E+01  0.20989086655E+02  0.51100000000E-03 0. -1.
        -11    1    3    3    0    0  0.18300126867E+01 -0.85467066289E+01  0.68428517234E+01  0.11100439658E+02  0.51100000000E-03 0.  1.
        -12    1    3    3    0    0  0.27152432091E+02  0.18061562925E+01 -0.23291938865E-01  0.27212447732E+02  0.00000000000E+00 0.  1.
</event>
<event>
 7    1  0.1220856E-011  0.5930194E+02  0.7816164E-02  0.1266605E+00
        -11   -1    0    0    0    0  0.00000000000E+00  0.00000000000E+00  0.45593999997E+02  0.45594000000E+02  0.51100000000E-03 0. -1.
         11   -1    0    0    0    0 -0.00000000000E+00 -0.00000000000E+00 -0.45593999997E+02  0.45594000000E+02  0.51100000000E-03 0.  1.
    9900012    2    1    2    0    0 -0.28750022560E+02  0.98461317294E+01  0.96545597726E+01  0.59301942990E+02  0.49999998107E+02 0.  0.
        -12    1    1    2    0    0  0.28750022560E+02 -0.98461317294E+01 -0.96545597726E+01  0.31886057010E+02  0.00000000000E+00 0.  1.
         11    1    3    3    0    0 -0.87250580431E+00  0.95959590882E+01  0.56873447472E+01  0.11188815296E+02  0.51100000000E-03 0. -1.
        -11    1    3    3    0    0 -0.24688650052E+01  0.17426331493E+01  0.18539604768E+02  0.18784275603E+02  0.51100000000E-03 0.  1.
        -12    1    3    3    0    0 -0.25408651751E+02 -0.14924605081E+01 -0.14572389742E+02  0.29328852091E+02  0.00000000000E+00 0.  1.
</event>
<event>
 7    1  0.1220856E-011  0.5930193E+02  0.7816164E-02  0.1266605E+00
        -11   -1    0    0    0    0  0.00000000000E+00  0.00000000000E+00  0.45593999997E+02  0.45594000000E+02  0.51100000000E-03 0. -1.
         11   -1    0    0    0    0 -0.00000000000E+00 -0.00000000000E+00 -0.45593999997E+02  0.45594000000E+02  0.51100000000E-03 0.  1.
    9900012    2    1    2    0    0 -0.15126259599E+02 -0.18919455484E+02  0.20735761004E+02  0.59301932358E+02  0.49999978717E+02 0.  0.
        -12    1    1    2    0    0  0.15126259599E+02  0.18919455484E+02 -0.20735761004E+02  0.31886067642E+02  0.00000000000E+00 0.  1.
         11    1    3    3    0    0 -0.16297734134E+02 -0.16915444818E+02  0.22615711967E+02  0.32607036653E+02  0.51100000000E-03 0. -1.
        -11    1    3    3    0    0 -0.84149681018E+01 -0.79179309192E+01  0.59310035552E+01  0.12987768154E+02  0.51100000000E-03 0.  1.
        -12    1    3    3    0    0  0.95864426368E+01  0.59139202527E+01 -0.78109545186E+01  0.13707127550E+02  0.00000000000E+00 0.  1.
</event>
<event>
 7    1  0.1220856E-011  0.5930192E+02  0.7816164E-02  0.1266605E+00
        -11   -1    0    0    0    0  0.00000000000E+00  0.00000000000E+00  0.45593999997E+02  0.45594000000E+02  0.51100000000E-03 0. -1.
         11   -1    0    0    0    0 -0.00000000000E+00 -0.00000000000E+00 -0.45593999997E+02  0.45594000000E+02  0.51100000000E-03 0.  1.
    9900012    2    1    2    0    0  0.30113321339E+02  0.10147364459E+02  0.26345244253E+01  0.59301923940E+02  0.49999963365E+02 0.  0.
        -12    1    1    2    0    0 -0.30113321339E+02 -0.10147364459E+02 -0.26345244253E+01  0.31886076060E+02  0.00000000000E+00 0.  1.
         11    1    3    3    0    0  0.18155256087E+02  0.31630320166E+01  0.85454677228E+01  0.20313618929E+02  0.51100000000E-03 0. -1.
        -11    1    3    3    0    0  0.22870239504E+02  0.90495075632E+01 -0.10789618947E+02  0.26858095975E+02  0.51100000000E-03 0.  1.
        -12    1    3    3    0    0 -0.10912174252E+02 -0.20651751213E+01  0.48786756496E+01  0.12130209037E+02  0.00000000000E+00 0.  1.
</event>
<event>
 7    1  0.1220856E-011  0.5930194E+02  0.7816164E-02  0.1266605E+00
        -11   -1    0    0    0    0  0.00000000000E+00  0.00000000000E+00  0.45593999997E+02  0.45594000000E+02  0.51100000000E-03 0. -1.
         11   -1    0    0    0    0 -0.00000000000E+00 -0.00000000000E+00 -0.45593999997E+02  0.45594000000E+02  0.51100000000E-03 0.  1.
    9900012    2    1    2    0    0  0.29635001199E+01  0.23435418828E+02  0.21417741252E+02  0.59301939896E+02  0.49999992465E+02 0.  0.
        -12    1    1    2    0    0 -0.29635001199E+01 -0.23435418828E+02 -0.21417741252E+02  0.31886060104E+02  0.00000000000E+00 0.  1.
         11    1    3    3    0    0  0.74822679138E+01  0.91643018897E+01  0.13315980570E+00  0.11831588822E+02  0.51100000000E-03 0. -1.
        -11    1    3    3    0    0  0.14993506396E+02  0.13155349177E-01  0.17441446992E+02  0.23000206098E+02  0.51100000000E-03 0.  1.
         12    1    3    3    0    0 -0.19512274190E+02  0.14257961589E+02  0.38431344541E+01  0.24470144976E+02  0.00000000000E+00 0. -1.
</event>
<event>
 7    1  0.1220856E-011  0.5930191E+02  0.7816164E-02  0.1266605E+00
        -11   -1    0    0    0    0  0.00000000000E+00  0.00000000000E+00  0.45593999997E+02  0.45594000000E+02  0.51100000000E-03 0. -1.
         11   -1    0    0    0    0 -0.00000000000E+00 -0.00000000000E+00 -0.45593999997E+02  0.45594000000E+02  0.51100000000E-03 0.  1.
    9900012    2    1    2    0    0  0.26165623472E+02 -0.18221348967E+02 -0.25542885792E+00  0.59301911282E+02  0.49999940279E+02 0.  0.
        -12    1    1    2    0    0 -0.26165623472E+02  0.18221348967E+02  0.25542885792E+00  0.31886088718E+02  0.00000000000E+00 0.  1.
         11    1    3    3    0    0 -0.25207954107E+01  0.46827041376E+01  0.29621541348E+01  0.60874037916E+01  0.51100000000E-03 0. -1.
        -11    1    3    3    0    0  0.13502034227E+02  0.72460946680E+01 -0.10633534702E+02  0.18651618609E+02  0.51100000000E-03 0.  1.
         12    1    3    3    0    0  0.15184384656E+02 -0.30150147772E+02  0.74159517094E+01  0.34562888881E+02  0.00000000000E+00 0. -1.
</event>
<event>
 7    1  0.1220856E-011  0.5930194E+02  0.7816164E-02  0.1266605E+00
        -11   -1    0    0    0    0  0.00000000000E+00  0.00000000000E+00  0.45593999997E+02  0.45594000000E+02  0.51100000000E-03 0.  1.
         11   -1    0    0    0    0 -0.00000000000E+00 -0.00000000000E+00 -0.45593999997E+02  0.45594000000E+02  0.51100000000E-03 0. -1.
    9900012    2    1    2    0    0  0.64173710454E+01 -0.20004150381E+02 -0.23986912462E+02  0.59301942654E+02  0.49999997495E+02 0.  0.
        -12    1    1    2    0    0 -0.64173710454E+01  0.20004150381E+02  0.23986912462E+02  0.31886057346E+02  0.00000000000E+00 0.  1.
         11    1    3    3    0    0  0.46101367971E+00 -0.49635678923E+01 -0.39699184647E+01  0.63725813224E+01  0.51100000000E-03 0. -1.
        -11    1    3    3    0    0  0.39002595755E+01 -0.31067710057E+02 -0.19243805445E+02  0.36752396945E+02  0.51100000000E-03 0.  1.
        -12    1    3    3    0    0  0.20560977902E+01  0.16027127569E+02 -0.77318855282E+00  0.16176964387E+02  0.00000000000E+00 0.  1.
</event>
<event>
 7    1  0.1220856E-011  0.5930196E+02  0.7816164E-02  0.1266605E+00
        -11   -1    0    0    0    0  0.00000000000E+00  0.00000000000E+00  0.45593999997E+02  0.45594000000E+02  0.51100000000E-03 0. -1.
         11   -1    0    0    0    0 -0.00000000000E+00 -0.00000000000E+00 -0.45593999997E+02  0.45594000000E+02  0.51100000000E-03 0.  1.
    9900012    2    1    2    0    0 -0.72210880807E+01  0.22307880501E+02  0.21608648624E+02  0.59301963231E+02  0.50000035021E+02 0.  0.
        -12    1    1    2    0    0  0.72210880807E+01 -0.22307880501E+02 -0.21608648624E+02  0.31886036769E+02  0.00000000000E+00 0.  1.
         11    1    3    3    0    0  0.39458696285E+01  0.34088473815E+00  0.19042492129E+02  0.19450002475E+02  0.51100000000E-03 0. -1.
        -11    1    3    3    0    0 -0.11192214976E+02  0.27295284061E+02  0.96038536134E+01  0.31024703262E+02  0.51100000000E-03 0.  1.
        -12    1    3    3    0    0  0.25257266766E-01 -0.53282882978E+01 -0.70376971189E+01  0.88272574932E+01  0.00000000000E+00 0.  1.
</event>
<event>
 7    1  0.1220856E-011  0.5930194E+02  0.7816164E-02  0.1266605E+00
        -11   -1    0    0    0    0  0.00000000000E+00  0.00000000000E+00  0.45593999997E+02  0.45594000000E+02  0.51100000000E-03 0.  1.
         11   -1    0    0    0    0 -0.00000000000E+00 -0.00000000000E+00 -0.45593999997E+02  0.45594000000E+02  0.51100000000E-03 0. -1.
    9900012    2    1    2    0    0  0.26911882808E+02  0.76156340812E+01 -0.15312523629E+02  0.59301941940E+02  0.49999996192E+02 0.  0.
        -12    1    1    2    0    0 -0.26911882808E+02 -0.76156340812E+01  0.15312523629E+02  0.31886058060E+02  0.00000000000E+00 0.  1.
         11    1    3    3    0    0  0.58612389563E+01  0.10352838504E+02 -0.65792102456E+01  0.13594903270E+02  0.51100000000E-03 0. -1.
        -11    1    3    3    0    0  0.30551675654E+02  0.66482930753E+01 -0.82793702196E+01  0.32344283228E+02  0.51100000000E-03 0.  1.
        -12    1    3    3    0    0 -0.95010318022E+01 -0.93854974984E+01 -0.45394316394E+00  0.13362755442E+02  0.00000000000E+00 0.  1.
</event>
<event>
 7    1  0.1220856E-011  0.5930194E+02  0.7816164E-02  0.1266605E+00
        -11   -1    0    0    0    0  0.00000000000E+00  0.00000000000E+00  0.45593999997E+02  0.45594000000E+02  0.51100000000E-03 0. -1.
         11   -1    0    0    0    0 -0.00000000000E+00 -0.00000000000E+00 -0.45593999997E+02  0.45594000000E+02  0.51100000000E-03 0.  1.
    9900012    2    1    2    0    0  0.31090744925E+02  0.58511900282E+01 -0.39812280067E+01  0.59301936882E+02  0.49999986967E+02 0.  0.
        -12    1    1    2    0    0 -0.31090744925E+02 -0.58511900282E+01  0.39812280067E+01  0.31886063118E+02  0.00000000000E+00 0.  1.
         11    1    3    3    0    0 -0.22287465886E+01 -0.31238975768E+01 -0.24065844492E+01  0.45296463878E+01  0.51100000000E-03 0. -1.
        -11    1    3    3    0    0  0.30655219994E+02 -0.10159564324E+02 -0.98378305763E+01  0.33760067696E+02  0.51100000000E-03 0.  1.
         12    1    3    3    0    0  0.26642715195E+01  0.19134651929E+02  0.82631870189E+01  0.21012222797E+02  0.00000000000E+00 0. -1.
</event>
<event>
 7    1  0.1220856E-011  0.5930196E+02  0.7816164E-02  0.1266605E+00
        -11   -1    0    0    0    0  0.00000000000E+00  0.00000000000E+00  0.45593999997E+02  0.45594000000E+02  0.51100000000E-03 0. -1.
         11   -1    0    0    0    0 -0.00000000000E+00 -0.00000000000E+00 -0.45593999997E+02  0.45594000000E+02  0.51100000000E-03 0.  1.
    9900012    2    1    2    0    0 -0.13578982332E+02 -0.16333891628E+02  0.23780979222E+02  0.59301956820E+02  0.50000023330E+02 0.  0.
        -12    1    1    2    0    0  0.13578982332E+02  0.16333891628E+02 -0.23780979222E+02  0.31886043180E+02  0.00000000000E+00 0.  1.
         11    1    3    3    0    0 -0.28391508844E+01  0.42197767302E+01  0.12258453665E+02  0.13271660782E+02  0.51100000000E-03 0. -1.
        -11    1    3    3    0    0  0.51533574911E+01  0.55376053208E+01 -0.69972393938E+01  0.10304539073E+02  0.51100000000E-03 0.  1.
        -12    1    3    3    0    0 -0.15893188939E+02 -0.26091273679E+02  0.18519764951E+02  0.35725756965E+02  0.00000000000E+00 0.  1.
</event>
<event>
 7    1  0.1220856E-011  0.5930193E+02  0.7816164E-02  0.1266605E+00
        -11   -1    0    0    0    0  0.00000000000E+00  0.00000000000E+00  0.45593999997E+02  0.45594000000E+02  0.51100000000E-03 0. -1.
         11   -1    0    0    0    0 -0.00000000000E+00 -0.00000000000E+00 -0.45593999997E+02  0.45594000000E+02  0.51100000000E-03 0.  1.
    9900012    2    1    2    0    0 -0.14537037572E+02 -0.27382954877E+02  0.74545108852E+01  0.59301930758E+02  0.49999975798E+02 0.  0.
        -12    1    1    2    0    0  0.14537037572E+02  0.27382954877E+02 -0.74545108852E+01  0.31886069242E+02  0.00000000000E+00 0.  1.
         11    1    3    3    0    0 -0.11287434432E+02 -0.10069014806E+02 -0.91260348716E+01  0.17665665794E+02  0.51100000000E-03 0. -1.
        -11    1    3    3    0    0  0.85052060606E+01 -0.91163265048E+01 -0.68086725180E+01  0.14205772094E+02  0.51100000000E-03 0.  1.
         12    1    3    3    0    0 -0.11754809201E+02 -0.81976135668E+01  0.23389218275E+02  0.27430492869E+02  0.00000000000E+00 0. -1.
</event>
<event>
 7    1  0.1220856E-011  0.5930188E+02  0.7816164E-02  0.1266605E+00
        -11   -1    0    0    0    0  0.00000000000E+00  0.00000000000E+00  0.45593999997E+02  0.45594000000E+02  0.51100000000E-03 0. -1.
         11   -1    0    0    0    0 -0.00000000000E+00 -0.00000000000E+00 -0.45593999997E+02  0.45594000000E+02  0.51100000000E-03 0.  1.
    9900012    2    1    2    0    0  0.12557784866E+02  0.27361100635E+02  0.10506992428E+02  0.59301879531E+02  0.49999882373E+02 0.  0.
        -12    1    1    2    0    0 -0.12557784866E+02 -0.27361100635E+02 -0.10506992428E+02  0.31886120469E+02  0.00000000000E+00 0.  1.
         11    1    3    3    0    0  0.73794300915E+01  0.38105925053E-01  0.13140476661E+02  0.15070818414E+02  0.51100000000E-03 0. -1.
        -11    1    3    3    0    0 -0.11923184486E+02  0.95273453050E+01 -0.10269919526E+02  0.18395757233E+02  0.51100000000E-03 0.  1.
         12    1    3    3    0    0  0.17101539260E+02  0.17795649405E+02  0.76364352932E+01  0.25835303884E+02  0.00000000000E+00 0. -1.
</event>
<event>
 7    1  0.1220856E-011  0.5930193E+02  0.7816164E-02  0.1266605E+00
        -11   -1    0    0    0    0  0.00000000000E+00  0.00000000000E+00  0.45593999997E+02  0.45594000000E+02  0.51100000000E-03 0. -1.
         11   -1    0    0    0    0 -0.00000000000E+00 -0.00000000000E+00 -0.45593999997E+02  0.45594000000E+02  0.51100000000E-03 0.  1.
    9900012    2    1    2    0    0  0.15371902862E+02 -0.14951257523E+02  0.23598427039E+02  0.59301933170E+02  0.49999980199E+02 0.  0.
        -12    1    1    2    0    0 -0.15371902862E+02  0.14951257523E+02 -0.23598427039E+02  0.31886066830E+02  0.00000000000E+00 0.  1.
         11    1    3    3    0    0  0.39427562448E+01 -0.13282784209E+02  0.29155005427E+02  0.32279901252E+02  0.51100000000E-03 0. -1.
        -11    1    3    3    0    0 -0.59769265431E+01 -0.58733184840E+01 -0.40726618515E+00  0.83895999262E+01  0.51100000000E-03 0.  1.
         12    1    3    3    0    0  0.17406073161E+02  0.42048451700E+01 -0.51493122023E+01  0.18632431992E+02  0.00000000000E+00 0. -1.
</event>
<event>
 7    1  0.1220856E-011  0.5930194E+02  0.7816164E-02  0.1266605E+00
        -11   -1    0    0    0    0  0.00000000000E+00  0.00000000000E+00  0.45593999997E+02  0.45594000000E+02  0.51100000000E-03 0.  1.
         11   -1    0    0    0    0 -0.00000000000E+00 -0.00000000000E+00 -0.45593999997E+02  0.45594000000E+02  0.51100000000E-03 0. -1.
    9900012    2    1    2    0    0  0.44658951280E+01 -0.31516089788E+02  0.18741880294E+01  0.59301941674E+02  0.49999995707E+02 0.  0.
        -12    1    1    2    0    0 -0.44658951280E+01  0.31516089788E+02 -0.18741880294E+01  0.31886058326E+02  0.00000000000E+00 0.  1.
         11    1    3    3    0    0  0.92073880902E+01 -0.44887723874E+01  0.27764211200E+00  0.10247056084E+02  0.51100000000E-03 0. -1.
        -11    1    3    3    0    0  0.50071638605E+01  0.18604757737E+01  0.14871581373E+02  0.15801803467E+02  0.51100000000E-03 0.  1.
         12    1    3    3    0    0 -0.97486568227E+01 -0.28887793174E+02 -0.13275035455E+02  0.33253082123E+02  0.00000000000E+00 0. -1.
</event>
<event>
 7    1  0.1220856E-011  0.5930194E+02  0.7816164E-02  0.1266605E+00
        -11   -1    0    0    0    0  0.00000000000E+00  0.00000000000E+00  0.45593999997E+02  0.45594000000E+02  0.51100000000E-03 0.  1.
         11   -1    0    0    0    0 -0.00000000000E+00 -0.00000000000E+00 -0.45593999997E+02  0.45594000000E+02  0.51100000000E-03 0. -1.
    9900012    2    1    2    0    0  0.15228584266E+02  0.13968603785E+01 -0.27979628933E+02  0.59301942970E+02  0.49999998072E+02 0.  0.
        -12    1    1    2    0    0 -0.15228584266E+02 -0.13968603785E+01  0.27979628933E+02  0.31886057030E+02  0.00000000000E+00 0.  1.
         11    1    3    3    0    0  0.10440213131E+02  0.78488468288E+01 -0.95227800262E+01  0.16164336870E+02  0.51100000000E-03 0. -1.
        -11    1    3    3    0    0  0.91309191301E+01  0.24285297371E+01  0.95519932590E+01  0.13435476036E+02  0.51100000000E-03 0.  1.
         12    1    3    3    0    0 -0.43425479952E+01 -0.88805161874E+01 -0.28008842166E+02  0.29702130064E+02  0.00000000000E+00 0. -1.
</event>
<event>
 7    1  0.1220856E-011  0.5930179E+02  0.7816164E-02  0.1266605E+00
        -11   -1    0    0    0    0  0.00000000000E+00  0.00000000000E+00  0.45593999997E+02  0.45594000000E+02  0.51100000000E-03 0. -1.
         11   -1    0    0    0    0 -0.00000000000E+00 -0.00000000000E+00 -0.45593999997E+02  0.45594000000E+02  0.51100000000E-03 0.  1.
    9900012    2    1    2    0    0  0.22992255939E+02 -0.15216213140E+02  0.16017286708E+02  0.59301789046E+02  0.49999717350E+02 0.  0.
        -12    1    1    2    0    0 -0.22992255939E+02  0.15216213140E+02 -0.16017286708E+02  0.31886210954E+02  0.00000000000E+00 0.  1.
         11    1    3    3    0    0 -0.60899866107E+01  0.22381242514E+01  0.12335994252E+02  0.13938216943E+02  0.51100000000E-03 0. -1.
        -11    1    3    3    0    0  0.17328269313E+02 -0.15766083515E+02  0.15909304563E+02  0.28318620707E+02  0.51100000000E-03 0.  1.
         12    1    3    3    0    0  0.11753973237E+02 -0.16882538768E+01 -0.12228012108E+02  0.17044951397E+02  0.00000000000E+00 0. -1.
</event>
<event>
 7    1  0.1220856E-011  0.5930195E+02  0.7816164E-02  0.1266605E+00
        -11   -1    0    0    0    0  0.00000000000E+00  0.00000000000E+00  0.45593999997E+02  0.45594000000E+02  0.51100000000E-03 0. -1.
         11   -1    0    0    0    0 -0.00000000000E+00 -0.00000000000E+00 -0.45593999997E+02  0.45594000000E+02  0.51100000000E-03 0.  1.
    9900012    2    1    2    0    0  0.27601350018E+02 -0.12380934087E+02  0.10079590502E+02  0.59301949816E+02  0.50000010556E+02 0.  0.
        -12    1    1    2    0    0 -0.27601350018E+02  0.12380934087E+02 -0.10079590502E+02  0.31886050184E+02  0.00000000000E+00 0.  1.
         11    1    3    3    0    0  0.27675574703E+02  0.45650828875E+01  0.32690379552E+01  0.28239405559E+02  0.51100000000E-03 0. -1.
        -11    1    3    3    0    0  0.87205385824E+01 -0.61516721519E+01  0.12130976781E+02  0.16157087032E+02  0.51100000000E-03 0.  1.
        -12    1    3    3    0    0 -0.87947632674E+01 -0.10794344823E+02 -0.53204242340E+01  0.14905457226E+02  0.00000000000E+00 0.  1.
</event>
<event>
 7    1  0.1220856E-011  0.5930199E+02  0.7816164E-02  0.1266605E+00
        -11   -1    0    0    0    0  0.00000000000E+00  0.00000000000E+00  0.45593999997E+02  0.45594000000E+02  0.51100000000E-03 0. -1.
         11   -1    0    0    0    0 -0.00000000000E+00 -0.00000000000E+00 -0.45593999997E+02  0.45594000000E+02  0.51100000000E-03 0.  1.
    9900012    2    1    2    0    0  0.53257711248E+01 -0.52161984199E+01  0.31002337945E+02  0.59301991750E+02  0.50000087035E+02 0.  0.
        -12    1    1    2    0    0 -0.53257711248E+01  0.52161984199E+01 -0.31002337945E+02  0.31886008250E+02  0.00000000000E+00 0.  1.
         11    1    3    3    0    0 -0.90607157397E+00 -0.81505875755E+01  0.12235041282E+01  0.82915623459E+01  0.51100000000E-03 0. -1.
        -11    1    3    3    0    0  0.15746391955E+02  0.54919400168E+01 -0.28572551154E+01  0.16919638643E+02  0.51100000000E-03 0.  1.
         12    1    3    3    0    0 -0.95145492564E+01 -0.25575508612E+01  0.32636088932E+02  0.34090790762E+02  0.00000000000E+00 0. -1.
</event>
<event>
 7    1  0.1220856E-011  0.5930206E+02  0.7816164E-02  0.1266604E+00
        -11   -1    0    0    0    0  0.00000000000E+00  0.00000000000E+00  0.45593999997E+02  0.45594000000E+02  0.51100000000E-03 0.  1.
         11   -1    0    0    0    0 -0.00000000000E+00 -0.00000000000E+00 -0.45593999997E+02  0.45594000000E+02  0.51100000000E-03 0. -1.
    9900012    2    1    2    0    0  0.23666237282E+02  0.14857393375E+02 -0.15358384456E+02  0.59302064259E+02  0.50000219272E+02 0.  0.
        -12    1    1    2    0    0 -0.23666237282E+02 -0.14857393375E+02  0.15358384456E+02  0.31885935741E+02  0.00000000000E+00 0.  1.
         11    1    3    3    0    0  0.88967952895E+01 -0.37677845889E+01  0.88216006650E+01  0.13083187902E+02  0.51100000000E-03 0.  1.
        -11    1    3    3    0    0  0.22351953113E+02  0.21290980499E+02 -0.16073817713E+02  0.34803495150E+02  0.51100000000E-03 0. -1.
        -12    1    3    3    0    0 -0.75825111205E+01 -0.26658025343E+01 -0.81061674079E+01  0.11415381206E+02  0.00000000000E+00 0.  1.
</event>
<event>
 7    1  0.1220856E-011  0.5930194E+02  0.7816164E-02  0.1266605E+00
        -11   -1    0    0    0    0  0.00000000000E+00  0.00000000000E+00  0.45593999997E+02  0.45594000000E+02  0.51100000000E-03 0. -1.
         11   -1    0    0    0    0 -0.00000000000E+00 -0.00000000000E+00 -0.45593999997E+02  0.45594000000E+02  0.51100000000E-03 0.  1.
    9900012    2    1    2    0    0  0.24587319510E+01 -0.31090526892E+02 -0.66373527051E+01  0.59301942292E+02  0.49999996835E+02 0.  0.
        -12    1    1    2    0    0 -0.24587319510E+01  0.31090526892E+02  0.66373527051E+01  0.31886057708E+02  0.00000000000E+00 0.  1.
         11    1    3    3    0    0  0.14448285928E+02 -0.24570752790E+02 -0.55616804570E+01  0.29041472908E+02  0.51100000000E-03 0. -1.
        -11    1    3    3    0    0  0.13286053719E+01  0.60221808006E+01  0.77865032387E+01  0.99328488751E+01  0.51100000000E-03 0.  1.
        -12    1    3    3    0    0 -0.13318159348E+02 -0.12541954902E+02 -0.88621754868E+01  0.20327620509E+02  0.00000000000E+00 0.  1.
</event>
<event>
 7    1  0.1220856E-011  0.5930198E+02  0.7816164E-02  0.1266605E+00
        -11   -1    0    0    0    0  0.00000000000E+00  0.00000000000E+00  0.45593999997E+02  0.45594000000E+02  0.51100000000E-03 0. -1.
         11   -1    0    0    0    0 -0.00000000000E+00 -0.00000000000E+00 -0.45593999997E+02  0.45594000000E+02  0.51100000000E-03 0.  1.
    9900012    2    1    2    0    0 -0.85961999010E+01 -0.30704897139E+02  0.18220852402E+00  0.59301975459E+02  0.50000057324E+02 0.  0.
        -12    1    1    2    0    0  0.85961999010E+01  0.30704897139E+02 -0.18220852402E+00  0.31886024541E+02  0.00000000000E+00 0.  1.
         11    1    3    3    0    0 -0.73130521298E+01 -0.23951669809E+02  0.13236999932E+02  0.28326337313E+02  0.51100000000E-03 0. -1.
        -11    1    3    3    0    0 -0.65836570787E+01 -0.25347032581E+01  0.69207803079E+01  0.98826343385E+01  0.51100000000E-03 0.  1.
        -12    1    3    3    0    0  0.53005093076E+01 -0.42185240719E+01 -0.19975571716E+02  0.21093003808E+02  0.00000000000E+00 0.  1.
</event>
<event>
 7    1  0.1220856E-011  0.5930194E+02  0.7816164E-02  0.1266605E+00
        -11   -1    0    0    0    0  0.00000000000E+00  0.00000000000E+00  0.45593999997E+02  0.45594000000E+02  0.51100000000E-03 0. -1.
         11   -1    0    0    0    0 -0.00000000000E+00 -0.00000000000E+00 -0.45593999997E+02  0.45594000000E+02  0.51100000000E-03 0.  1.
    9900012    2    1    2    0    0  0.96674328384E+01 -0.30190326363E+02  0.34359816714E+01  0.59301936686E+02  0.49999986611E+02 0.  0.
        -12    1    1    2    0    0 -0.96674328384E+01  0.30190326363E+02 -0.34359816714E+01  0.31886063314E+02  0.00000000000E+00 0.  1.
         11    1    3    3    0    0 -0.41035952697E+01 -0.18706969471E+02 -0.67505362999E+01  0.20306647718E+02  0.51100000000E-03 0. -1.
        -11    1    3    3    0    0  0.89508486996E+01 -0.11280629297E+02 -0.10456307415E+02  0.17796197763E+02  0.51100000000E-03 0.  1.
         12    1    3    3    0    0  0.48201794085E+01 -0.20272759444E+00  0.20642825387E+02  0.21199091206E+02  0.00000000000E+00 0. -1.
</event>
<event>
 7    1  0.1220856E-011  0.5930190E+02  0.7816164E-02  0.1266605E+00
        -11   -1    0    0    0    0  0.00000000000E+00  0.00000000000E+00  0.45593999997E+02  0.45594000000E+02  0.51100000000E-03 0. -1.
         11   -1    0    0    0    0 -0.00000000000E+00 -0.00000000000E+00 -0.45593999997E+02  0.45594000000E+02  0.51100000000E-03 0.  1.
    9900012    2    1    2    0    0  0.22978507311E+02  0.11941492312E+02  0.18604102267E+02  0.59301895533E+02  0.49999911558E+02 0.  0.
        -12    1    1    2    0    0 -0.22978507311E+02 -0.11941492312E+02 -0.18604102267E+02  0.31886104467E+02  0.00000000000E+00 0.  1.
         11    1    3    3    0    0 -0.28037642907E+01 -0.11086888332E+02  0.80420223617E+01  0.13980497523E+02  0.51100000000E-03 0. -1.
        -11    1    3    3    0    0  0.11026418839E+02 -0.40626969733E+01 -0.21673367467E+01  0.11949258050E+02  0.51100000000E-03 0.  1.
        -12    1    3    3    0    0  0.14755852763E+02  0.27091077617E+02  0.12729416652E+02  0.33372139960E+02  0.00000000000E+00 0.  1.
</event>
<event>
 7    1  0.1220856E-011  0.5930218E+02  0.7816164E-02  0.1266604E+00
        -11   -1    0    0    0    0  0.00000000000E+00  0.00000000000E+00  0.45593999997E+02  0.45594000000E+02  0.51100000000E-03 0. -1.
         11   -1    0    0    0    0 -0.00000000000E+00 -0.00000000000E+00 -0.45593999997E+02  0.45594000000E+02  0.51100000000E-03 0.  1.
    9900012    2    1    2    0    0  0.26803036212E+02  0.12407833141E+02  0.12014522392E+02  0.59302175222E+02  0.50000421642E+02 0.  0.
        -12    1    1    2    0    0 -0.26803036212E+02 -0.12407833141E+02 -0.12014522392E+02  0.31885824778E+02  0.00000000000E+00 0.  1.
         11    1    3    3    0    0  0.50895392251E+01  0.72023297224E+01  0.96606101130E+00  0.88718790058E+01  0.51100000000E-03 0.  1.
        -11    1    3    3    0    0  0.15985213616E+02 -0.12729289159E+02  0.20858888765E+02  0.29200258519E+02  0.51100000000E-03 0. -1.
         12    1    3    3    0    0  0.57282833712E+01  0.17934792578E+02 -0.98104273841E+01  0.21230037698E+02  0.00000000000E+00 0. -1.
</event>
<event>
 7    1  0.1220856E-011  0.5930199E+02  0.7816164E-02  0.1266605E+00
        -11   -1    0    0    0    0  0.00000000000E+00  0.00000000000E+00  0.45593999997E+02  0.45594000000E+02  0.51100000000E-03 0. -1.
         11   -1    0    0    0    0 -0.00000000000E+00 -0.00000000000E+00 -0.45593999997E+02  0.45594000000E+02  0.51100000000E-03 0.  1.
    9900012    2    1    2    0    0  0.26567547265E+02  0.15475114581E+02  0.84500730360E+01  0.59301992516E+02  0.50000088430E+02 0.  0.
        -12    1    1    2    0    0 -0.26567547265E+02 -0.15475114581E+02 -0.84500730360E+01  0.31886007484E+02  0.00000000000E+00 0.  1.
         11    1    3    3    0    0  0.21367807162E+02  0.57726463665E+01  0.68923111773E+01  0.23182117734E+02  0.51100000000E-03 0. -1.
        -11    1    3    3    0    0  0.39273140940E+01  0.15336951689E+02  0.14800235337E+02  0.21672398331E+02  0.51100000000E-03 0.  1.
        -12    1    3    3    0    0  0.12724260087E+01 -0.56344834749E+01 -0.13242473478E+02  0.14447476451E+02  0.00000000000E+00 0.  1.
</event>
<event>
 7    1  0.1220856E-011  0.5930196E+02  0.7816164E-02  0.1266605E+00
        -11   -1    0    0    0    0  0.00000000000E+00  0.00000000000E+00  0.45593999997E+02  0.45594000000E+02  0.51100000000E-03 0.  1.
         11   -1    0    0    0    0 -0.00000000000E+00 -0.00000000000E+00 -0.45593999997E+02  0.45594000000E+02  0.51100000000E-03 0. -1.
    9900012    2    1    2    0    0 -0.49452265022E+01 -0.45216340497E+01 -0.31174016282E+02  0.59301957116E+02  0.50000023871E+02 0.  0.
        -12    1    1    2    0    0  0.49452265022E+01  0.45216340497E+01  0.31174016282E+02  0.31886042884E+02  0.00000000000E+00 0.  1.
         11    1    3    3    0    0 -0.80632427942E+01  0.15126018826E+02 -0.32940146656E+02  0.37133079483E+02  0.51100000000E-03 0. -1.
        -11    1    3    3    0    0  0.23114096929E+01 -0.69236911314E+01 -0.38324963162E+01  0.82442793454E+01  0.51100000000E-03 0.  1.
        -12    1    3    3    0    0  0.80660659920E+00 -0.12723961744E+02  0.55986266904E+01  0.13924598288E+02  0.00000000000E+00 0.  1.
</event>
<event>
 7    1  0.1220856E-011  0.5930194E+02  0.7816164E-02  0.1266605E+00
        -11   -1    0    0    0    0  0.00000000000E+00  0.00000000000E+00  0.45593999997E+02  0.45594000000E+02  0.51100000000E-03 0. -1.
         11   -1    0    0    0    0 -0.00000000000E+00 -0.00000000000E+00 -0.45593999997E+02  0.45594000000E+02  0.51100000000E-03 0.  1.
    9900012    2    1    2    0    0 -0.15164650792E+02 -0.20052864892E+02  0.19612164162E+02  0.59301937102E+02  0.49999987369E+02 0.  0.
        -12    1    1    2    0    0  0.15164650792E+02  0.20052864892E+02 -0.19612164162E+02  0.31886062898E+02  0.00000000000E+00 0.  1.
         11    1    3    3    0    0 -0.10273853559E+02  0.11565567240E+01 -0.81617501536E+00  0.10370912801E+02  0.51100000000E-03 0. -1.
        -11    1    3    3    0    0 -0.28656353031E+01 -0.26728229020E+02 -0.81050488238E+00  0.26893623977E+02  0.51100000000E-03 0.  1.
        -12    1    3    3    0    0 -0.20251619299E+01  0.55188074037E+01  0.21238844060E+02  0.22037400323E+02  0.00000000000E+00 0.  1.
</event>
<event>
 7    1  0.1220856E-011  0.5930192E+02  0.7816164E-02  0.1266605E+00
        -11   -1    0    0    0    0  0.00000000000E+00  0.00000000000E+00  0.45593999997E+02  0.45594000000E+02  0.51100000000E-03 0.  1.
         11   -1    0    0    0    0 -0.00000000000E+00 -0.00000000000E+00 -0.45593999997E+02  0.45594000000E+02  0.51100000000E-03 0. -1.
    9900012    2    1    2    0    0 -0.81617296847E+01  0.95791094073E+01 -0.29297591297E+02  0.59301921152E+02  0.49999958281E+02 0.  0.
        -12    1    1    2    0    0  0.81617296847E+01 -0.95791094073E+01  0.29297591297E+02  0.31886078848E+02  0.00000000000E+00 0.  1.
         11    1    3    3    0    0  0.21743931126E+01  0.42430307425E+01  0.18293444262E+01  0.51066423980E+01  0.51100000000E-03 0. -1.
        -11    1    3    3    0    0 -0.22414214931E+02  0.14256593394E+02 -0.10235602437E+02  0.28467789582E+02  0.51100000000E-03 0.  1.
        -12    1    3    3    0    0  0.12078092134E+02 -0.89205147292E+01 -0.20891333286E+02  0.25727489172E+02  0.00000000000E+00 0.  1.
</event>
<event>
 7    1  0.1220856E-011  0.5930193E+02  0.7816164E-02  0.1266605E+00
        -11   -1    0    0    0    0  0.00000000000E+00  0.00000000000E+00  0.45593999997E+02  0.45594000000E+02  0.51100000000E-03 0.  1.
         11   -1    0    0    0    0 -0.00000000000E+00 -0.00000000000E+00 -0.45593999997E+02  0.45594000000E+02  0.51100000000E-03 0. -1.
    9900012    2    1    2    0    0  0.25354014319E+02 -0.11675159074E+02 -0.15413834824E+02  0.59301926466E+02  0.49999967971E+02 0.  0.
        -12    1    1    2    0    0 -0.25354014319E+02  0.11675159074E+02  0.15413834824E+02  0.31886073534E+02  0.00000000000E+00 0.  1.
         11    1    3    3    0    0  0.12627386969E+02 -0.13609210151E+02 -0.15921098879E+01  0.18633204683E+02  0.51100000000E-03 0. -1.
        -11    1    3    3    0    0  0.52867666557E+01 -0.15700875162E+02  0.79439332010E+00  0.16586091871E+02  0.51100000000E-03 0.  1.
         12    1    3    3    0    0  0.74398606935E+01  0.17634926240E+02 -0.14616118256E+02  0.24082629912E+02  0.00000000000E+00 0. -1.
</event>
<event>
 7    1  0.1220856E-011  0.5930195E+02  0.7816164E-02  0.1266605E+00
        -11   -1    0    0    0    0  0.00000000000E+00  0.00000000000E+00  0.45593999997E+02  0.45594000000E+02  0.51100000000E-03 0. -1.
         11   -1    0    0    0    0 -0.00000000000E+00 -0.00000000000E+00 -0.45593999997E+02  0.45594000000E+02  0.51100000000E-03 0.  1.
    9900012    2    1    2    0    0  0.13972253345E+02 -0.28258589570E+02 -0.47904781866E+01  0.59301946163E+02  0.50000003894E+02 0.  0.
        -12    1    1    2    0    0 -0.13972253345E+02  0.28258589570E+02  0.47904781866E+01  0.31886053837E+02  0.00000000000E+00 0.  1.
         11    1    3    3    0    0  0.55488577702E+01 -0.19773593408E+02  0.14856205337E+01  0.20591063291E+02  0.51100000000E-03 0. -1.
        -11    1    3    3    0    0 -0.10852308189E+02 -0.14362188919E+02 -0.20165792606E+01  0.18113852593E+02  0.51100000000E-03 0.  1.
        -12    1    3    3    0    0  0.19275703764E+02  0.58771927567E+01 -0.42595194597E+01  0.20597030280E+02  0.00000000000E+00 0.  1.
</event>
<event>
 7    1  0.1220856E-011  0.5930195E+02  0.7816164E-02  0.1266605E+00
        -11   -1    0    0    0    0  0.00000000000E+00  0.00000000000E+00  0.45593999997E+02  0.45594000000E+02  0.51100000000E-03 0.  1.
         11   -1    0    0    0    0 -0.00000000000E+00 -0.00000000000E+00 -0.45593999997E+02  0.45594000000E+02  0.51100000000E-03 0. -1.
    9900012    2    1    2    0    0 -0.23820682498E+02  0.48276149875E+01 -0.20639513198E+02  0.59301948407E+02  0.50000007986E+02 0.  0.
        -12    1    1    2    0    0  0.23820682498E+02 -0.48276149875E+01  0.20639513198E+02  0.31886051593E+02  0.00000000000E+00 0.  1.
         11    1    3    3    0    0 -0.29156235120E+02  0.20347840016E+02 -0.13267037184E+02  0.37949109549E+02  0.51100000000E-03 0. -1.
        -11    1    3    3    0    0 -0.30630007971E+01 -0.49344277666E+01 -0.49363983270E+01  0.76222424503E+01  0.51100000000E-03 0.  1.
        -12    1    3    3    0    0  0.83985534183E+01 -0.10585797262E+02 -0.24360776872E+01  0.13730596407E+02  0.00000000000E+00 0.  1.
</event>
<event>
 7    1  0.1220856E-011  0.5930187E+02  0.7816164E-02  0.1266605E+00
        -11   -1    0    0    0    0  0.00000000000E+00  0.00000000000E+00  0.45593999997E+02  0.45594000000E+02  0.51100000000E-03 0. -1.
         11   -1    0    0    0    0 -0.00000000000E+00 -0.00000000000E+00 -0.45593999997E+02  0.45594000000E+02  0.51100000000E-03 0.  1.
    9900012    2    1    2    0    0  0.31098430522E+02 -0.49591221172E+01  0.50020176634E+01  0.59301867374E+02  0.49999860202E+02 0.  0.
        -12    1    1    2    0    0 -0.31098430522E+02  0.49591221172E+01 -0.50020176634E+01  0.31886132626E+02  0.00000000000E+00 0.  1.
         11    1    3    3    0    0  0.11159513295E+02  0.92110505062E+01 -0.15265447773E+02  0.21033594186E+02  0.51100000000E-03 0. -1.
        -11    1    3    3    0    0  0.89997779324E+01 -0.58361832273E+01 -0.30903651778E+01  0.11162768236E+02  0.51100000000E-03 0.  1.
         12    1    3    3    0    0  0.10939139295E+02 -0.83339893960E+01  0.23357830614E+02  0.27105504953E+02  0.00000000000E+00 0. -1.
</event>
<event>
 7    1  0.1220856E-011  0.5930193E+02  0.7816164E-02  0.1266605E+00
        -11   -1    0    0    0    0  0.00000000000E+00  0.00000000000E+00  0.45593999997E+02  0.45594000000E+02  0.51100000000E-03 0. -1.
         11   -1    0    0    0    0 -0.00000000000E+00 -0.00000000000E+00 -0.45593999997E+02  0.45594000000E+02  0.51100000000E-03 0.  1.
    9900012    2    1    2    0    0 -0.16404602180E+02  0.50473950948E+01  0.26872552712E+02  0.59301933150E+02  0.49999980161E+02 0.  0.
        -12    1    1    2    0    0  0.16404602180E+02 -0.50473950948E+01 -0.26872552712E+02  0.31886066850E+02  0.00000000000E+00 0.  1.
         11    1    3    3    0    0  0.36381720273E+01  0.21915500466E+00  0.26028274233E+02  0.26282225637E+02  0.51100000000E-03 0. -1.
        -11    1    3    3    0    0 -0.36785522739E+01 -0.90521933024E+01  0.52821128798E+01  0.11107414963E+02  0.51100000000E-03 0.  1.
         12    1    3    3    0    0 -0.16364221934E+02  0.13880433393E+02 -0.44378344010E+01  0.21912292551E+02  0.00000000000E+00 0. -1.
</event>
<event>
 7    1  0.1220856E-011  0.5930192E+02  0.7816164E-02  0.1266605E+00
        -11   -1    0    0    0    0  0.00000000000E+00  0.00000000000E+00  0.45593999997E+02  0.45594000000E+02  0.51100000000E-03 0. -1.
         11   -1    0    0    0    0 -0.00000000000E+00 -0.00000000000E+00 -0.45593999997E+02  0.45594000000E+02  0.51100000000E-03 0.  1.
    9900012    2    1    2    0    0 -0.25089265352E+02 -0.14401925179E+02 -0.13410273745E+02  0.59301919547E+02  0.49999955353E+02 0.  0.
        -12    1    1    2    0    0  0.25089265352E+02  0.14401925179E+02  0.13410273745E+02  0.31886080453E+02  0.00000000000E+00 0.  1.
         11    1    3    3    0    0  0.72153172163E+01 -0.13138502578E+02 -0.47871624816E+01  0.15735246341E+02  0.51100000000E-03 0. -1.
        -11    1    3    3    0    0  0.23757832216E+01 -0.23833164013E+01  0.52183882825E+01  0.62093574154E+01  0.51100000000E-03 0.  1.
        -12    1    3    3    0    0 -0.34680365790E+02  0.11198937997E+01 -0.13841499545E+02  0.37357315791E+02  0.00000000000E+00 0.  1.
</event>
<event>
 7    1  0.1220856E-011  0.5930195E+02  0.7816164E-02  0.1266605E+00
        -11   -1    0    0    0    0  0.00000000000E+00  0.00000000000E+00  0.45593999997E+02  0.45594000000E+02  0.51100000000E-03 0.  1.
         11   -1    0    0    0    0 -0.00000000000E+00 -0.00000000000E+00 -0.45593999997E+02  0.45594000000E+02  0.51100000000E-03 0. -1.
    9900012    2    1    2    0    0 -0.62173377701E+00  0.33884864799E+01 -0.31699397106E+02  0.59301950223E+02  0.50000011299E+02 0.  0.
        -12    1    1    2    0    0  0.62173377701E+00 -0.33884864799E+01  0.31699397106E+02  0.31886049777E+02  0.00000000000E+00 0.  1.
         11    1    3    3    0    0  0.50560855600E+01  0.69057867054E+00 -0.66435789259E+01  0.83772335109E+01  0.51100000000E-03 0. -1.
        -11    1    3    3    0    0  0.12405215470E+02 -0.11220562960E+02  0.40841644891E+00  0.16731921834E+02  0.51100000000E-03 0.  1.
        -12    1    3    3    0    0 -0.18083034807E+02  0.13918470769E+02 -0.25464234629E+02  0.34192794879E+02  0.00000000000E+00 0.  1.
</event>
<event>
 7    1  0.1220856E-011  0.5930191E+02  0.7816164E-02  0.1266605E+00
        -11   -1    0    0    0    0  0.00000000000E+00  0.00000000000E+00  0.45593999997E+02  0.45594000000E+02  0.51100000000E-03 0. -1.
         11   -1    0    0    0    0 -0.00000000000E+00 -0.00000000000E+00 -0.45593999997E+02  0.45594000000E+02  0.51100000000E-03 0.  1.
    9900012    2    1    2    0    0 -0.12119883804E+02  0.15927521827E+02  0.24822271356E+02  0.59301910710E+02  0.49999939236E+02 0.  0.
        -12    1    1    2    0    0  0.12119883804E+02 -0.15927521827E+02 -0.24822271356E+02  0.31886089290E+02  0.00000000000E+00 0.  1.
         11    1    3    3    0    0 -0.31002202175E+01  0.65978945559E+01  0.10927256815E+02  0.13135772521E+02  0.51100000000E-03 0. -1.
        -11    1    3    3    0    0 -0.24955132675E+01 -0.14129832879E+02  0.16279064580E+02  0.21699947178E+02  0.51100000000E-03 0.  1.
        -12    1    3    3    0    0 -0.65241503186E+01  0.23459460151E+02 -0.23840500393E+01  0.24466191010E+02  0.00000000000E+00 0.  1.
</event>
<event>
 7    1  0.1220856E-011  0.5930198E+02  0.7816164E-02  0.1266605E+00
        -11   -1    0    0    0    0  0.00000000000E+00  0.00000000000E+00  0.45593999997E+02  0.45594000000E+02  0.51100000000E-03 0.  1.
         11   -1    0    0    0    0 -0.00000000000E+00 -0.00000000000E+00 -0.45593999997E+02  0.45594000000E+02  0.51100000000E-03 0. -1.
    9900012    2    1    2    0    0 -0.16712126598E+02 -0.19228504978E+02 -0.19175187325E+02  0.59301978171E+02  0.50000062269E+02 0.  0.
        -12    1    1    2    0    0  0.16712126598E+02  0.19228504978E+02  0.19175187325E+02  0.31886021829E+02  0.00000000000E+00 0.  1.
         11    1    3    3    0    0  0.23087796886E+01  0.26719086182E+01 -0.26434833898E+01  0.44110728863E+01  0.51100000000E-03 0. -1.
        -11    1    3    3    0    0  0.65895044492E+01  0.83383775677E+01  0.25196165530E+01  0.10922388804E+02  0.51100000000E-03 0.  1.
         12    1    3    3    0    0 -0.25610410736E+02 -0.30238791164E+02 -0.19051320488E+02  0.43968516481E+02  0.00000000000E+00 0. -1.
</event>
<event>
 7    1  0.1220856E-011  0.5930195E+02  0.7816164E-02  0.1266605E+00
        -11   -1    0    0    0    0  0.00000000000E+00  0.00000000000E+00  0.45593999997E+02  0.45594000000E+02  0.51100000000E-03 0. -1.
         11   -1    0    0    0    0 -0.00000000000E+00 -0.00000000000E+00 -0.45593999997E+02  0.45594000000E+02  0.51100000000E-03 0.  1.
    9900012    2    1    2    0    0  0.20188241800E+02  0.15855161152E+02 -0.18914777803E+02  0.59301951930E+02  0.50000014413E+02 0.  0.
        -12    1    1    2    0    0 -0.20188241800E+02 -0.15855161152E+02  0.18914777803E+02  0.31886048070E+02  0.00000000000E+00 0.  1.
         11    1    3    3    0    0  0.48237768810E+01 -0.38697772177E+01 -0.88580237603E+01  0.10803174733E+02  0.51100000000E-03 0. -1.
        -11    1    3    3    0    0 -0.54029654417E+01 -0.97574082486E+01 -0.44257008830E+01  0.11999411646E+02  0.51100000000E-03 0.  1.
         12    1    3    3    0    0  0.20767430361E+02  0.29482346619E+02 -0.56310531599E+01  0.36499365551E+02  0.00000000000E+00 0. -1.
</event>
<event>
 7    1  0.1220856E-011  0.5930196E+02  0.7816164E-02  0.1266605E+00
        -11   -1    0    0    0    0  0.00000000000E+00  0.00000000000E+00  0.45593999997E+02  0.45594000000E+02  0.51100000000E-03 0.  1.
         11   -1    0    0    0    0 -0.00000000000E+00 -0.00000000000E+00 -0.45593999997E+02  0.45594000000E+02  0.51100000000E-03 0. -1.
    9900012    2    1    2    0    0  0.11715017500E+02 -0.23709397684E+01 -0.29561069242E+02  0.59301955951E+02  0.50000021745E+02 0.  0.
        -12    1    1    2    0    0 -0.11715017500E+02  0.23709397684E+01  0.29561069242E+02  0.31886044049E+02  0.00000000000E+00 0.  1.
         11    1    3    3    0    0 -0.60610568963E+00  0.47077027585E+01  0.18647065147E+01  0.50997019537E+01  0.51100000000E-03 0. -1.
        -11    1    3    3    0    0 -0.11999085390E+02  0.89929865333E+01 -0.11377372569E+02  0.18822764510E+02  0.51100000000E-03 0.  1.
         12    1    3    3    0    0  0.24320208579E+02 -0.16071629060E+02 -0.20048403188E+02  0.35379489487E+02  0.00000000000E+00 0. -1.
</event>
<event>
 7    1  0.1220856E-011  0.5930199E+02  0.7816164E-02  0.1266605E+00
        -11   -1    0    0    0    0  0.00000000000E+00  0.00000000000E+00  0.45593999997E+02  0.45594000000E+02  0.51100000000E-03 0. -1.
         11   -1    0    0    0    0 -0.00000000000E+00 -0.00000000000E+00 -0.45593999997E+02  0.45594000000E+02  0.51100000000E-03 0.  1.
    9900012    2    1    2    0    0  0.20124392197E+01  0.17071611356E+02  0.26855689735E+02  0.59301985871E+02  0.50000076312E+02 0.  0.
        -12    1    1    2    0    0 -0.20124392197E+01 -0.17071611356E+02 -0.26855689735E+02  0.31886014129E+02  0.00000000000E+00 0.  1.
         11    1    3    3    0    0  0.10252301677E+02  0.17209377248E+02  0.16770513934E+02  0.26125131441E+02  0.51100000000E-03 0. -1.
        -11    1    3    3    0    0  0.10098418333E+02 -0.48358762831E+01  0.87302127065E+01  0.14197900071E+02  0.51100000000E-03 0.  1.
         12    1    3    3    0    0 -0.18338280790E+02  0.46981103915E+01  0.13549630937E+01  0.18978954359E+02  0.00000000000E+00 0. -1.
</event>
<event>
 7    1  0.1220856E-011  0.5930194E+02  0.7816164E-02  0.1266605E+00
        -11   -1    0    0    0    0  0.00000000000E+00  0.00000000000E+00  0.45593999997E+02  0.45594000000E+02  0.51100000000E-03 0. -1.
         11   -1    0    0    0    0 -0.00000000000E+00 -0.00000000000E+00 -0.45593999997E+02  0.45594000000E+02  0.51100000000E-03 0.  1.
    9900012    2    1    2    0    0  0.46162473540E+01 -0.30751090440E+02  0.70556168005E+01  0.59301936722E+02  0.49999986677E+02 0.  0.
        -12    1    1    2    0    0 -0.46162473540E+01  0.30751090440E+02 -0.70556168005E+01  0.31886063278E+02  0.00000000000E+00 0.  1.
         11    1    3    3    0    0 -0.36905994756E+01  0.45545617019E+01  0.20886392665E+01  0.62230997929E+01  0.51100000000E-03 0. -1.
        -11    1    3    3    0    0 -0.14731276495E+02 -0.70119486824E+01  0.25386469430E+01  0.16511288868E+02  0.51100000000E-03 0.  1.
         12    1    3    3    0    0  0.23038123325E+02 -0.28293703460E+02  0.24283305909E+01  0.36567548062E+02  0.00000000000E+00 0. -1.
</event>
<event>
 7    1  0.1220856E-011  0.5930206E+02  0.7816164E-02  0.1266604E+00
        -11   -1    0    0    0    0  0.00000000000E+00  0.00000000000E+00  0.45593999997E+02  0.45594000000E+02  0.51100000000E-03 0.  1.
         11   -1    0    0    0    0 -0.00000000000E+00 -0.00000000000E+00 -0.45593999997E+02  0.45594000000E+02  0.51100000000E-03 0. -1.
    9900012    2    1    2    0    0 -0.11575157050E+02 -0.16711897723E+02 -0.24565037471E+02  0.59302064979E+02  0.50000220585E+02 0.  0.
        -12    1    1    2    0    0  0.11575157050E+02  0.16711897723E+02  0.24565037471E+02  0.31885935021E+02  0.00000000000E+00 0.  1.
         11    1    3    3    0    0  0.17201451245E+01 -0.28814394343E+01  0.13927393647E+01  0.36333614824E+01  0.51100000000E-03 0. -1.
        -11    1    3    3    0    0  0.46247498514E+01  0.32628781620E+01  0.10304570804E+02  0.11756651939E+02  0.51100000000E-03 0.  1.
         12    1    3    3    0    0 -0.17920052026E+02 -0.17093336451E+02 -0.36262347640E+02  0.43912051557E+02  0.00000000000E+00 0. -1.
</event>
<event>
 7    1  0.1220856E-011  0.5930193E+02  0.7816164E-02  0.1266605E+00
        -11   -1    0    0    0    0  0.00000000000E+00  0.00000000000E+00  0.45593999997E+02  0.45594000000E+02  0.51100000000E-03 0. -1.
         11   -1    0    0    0    0 -0.00000000000E+00 -0.00000000000E+00 -0.45593999997E+02  0.45594000000E+02  0.51100000000E-03 0.  1.
    9900012    2    1    2    0    0  0.44558153499E+01 -0.14276566379E+02  0.28161088308E+02  0.59301928860E+02  0.49999972338E+02 0.  0.
        -12    1    1    2    0    0 -0.44558153499E+01  0.14276566379E+02 -0.28161088308E+02  0.31886071140E+02  0.00000000000E+00 0.  1.
         11    1    3    3    0    0  0.19822768650E+01 -0.13177319290E+02  0.15360223352E+01  0.13413818626E+02  0.51100000000E-03 0. -1.
        -11    1    3    3    0    0 -0.87887806829E+01 -0.63469430951E+01 -0.49787945742E+01  0.11929574520E+02  0.51100000000E-03 0.  1.
        -12    1    3    3    0    0  0.11262319168E+02  0.52476960063E+01  0.31603860547E+02  0.33958535715E+02  0.00000000000E+00 0.  1.
</event>
<event>
 7    1  0.1220856E-011  0.5930231E+02  0.7816164E-02  0.1266603E+00
        -11   -1    0    0    0    0  0.00000000000E+00  0.00000000000E+00  0.45593999997E+02  0.45594000000E+02  0.51100000000E-03 0. -1.
         11   -1    0    0    0    0 -0.00000000000E+00 -0.00000000000E+00 -0.45593999997E+02  0.45594000000E+02  0.51100000000E-03 0.  1.
    9900012    2    1    2    0    0  0.29019052659E+02 -0.31697698670E+01  0.12827474117E+02  0.59302314333E+02  0.50000675343E+02 0.  0.
        -12    1    1    2    0    0 -0.29019052659E+02  0.31697698670E+01 -0.12827474117E+02  0.31885685667E+02  0.00000000000E+00 0.  1.
         11    1    3    3    0    0  0.79550350584E+01 -0.36378450900E+01  0.43211893111E+01  0.97564940938E+01  0.51100000000E-03 0. -1.
        -11    1    3    3    0    0 -0.71420614361E+00 -0.10858173563E+01  0.23194825302E+02  0.23231207692E+02  0.51100000000E-03 0.  1.
        -12    1    3    3    0    0  0.21778223744E+02  0.15538925792E+01 -0.14688540497E+02  0.26314612547E+02  0.00000000000E+00 0.  1.
</event>
<event>
 7    1  0.1220856E-011  0.5930196E+02  0.7816164E-02  0.1266605E+00
        -11   -1    0    0    0    0  0.00000000000E+00  0.00000000000E+00  0.45593999997E+02  0.45594000000E+02  0.51100000000E-03 0.  1.
         11   -1    0    0    0    0 -0.00000000000E+00 -0.00000000000E+00 -0.45593999997E+02  0.45594000000E+02  0.51100000000E-03 0. -1.
    9900012    2    1    2    0    0 -0.18968213947E+02 -0.33820687147E+01 -0.25406457890E+02  0.59301958670E+02  0.50000026705E+02 0.  0.
        -12    1    1    2    0    0  0.18968213947E+02  0.33820687147E+01  0.25406457890E+02  0.31886041330E+02  0.00000000000E+00 0.  1.
         11    1    3    3    0    0  0.42464195913E+01 -0.90351489079E+01 -0.14298650202E+01  0.10085162833E+02  0.51100000000E-03 0. -1.
        -11    1    3    3    0    0 -0.81422690282E+01 -0.14498867992E+02 -0.40422148478E+01  0.17112954716E+02  0.51100000000E-03 0.  1.
        -12    1    3    3    0    0 -0.15072364510E+02  0.20151948185E+02 -0.19934378022E+02  0.32103841121E+02  0.00000000000E+00 0.  1.
</event>
<event>
 7    1  0.1220856E-011  0.5930189E+02  0.7816164E-02  0.1266605E+00
        -11   -1    0    0    0    0  0.00000000000E+00  0.00000000000E+00  0.45593999997E+02  0.45594000000E+02  0.51100000000E-03 0.  1.
         11   -1    0    0    0    0 -0.00000000000E+00 -0.00000000000E+00 -0.45593999997E+02  0.45594000000E+02  0.51100000000E-03 0. -1.
    9900012    2    1    2    0    0 -0.91412179698E+00  0.13918678162E+02 -0.28673310633E+02  0.59301890750E+02  0.49999902834E+02 0.  0.
        -12    1    1    2    0    0  0.91412179698E+00 -0.13918678162E+02  0.28673310633E+02  0.31886109250E+02  0.00000000000E+00 0.  1.
         11    1    3    3    0    0  0.10323030677E+02  0.24325557793E+02 -0.13553046643E+02  0.29698195196E+02  0.51100000000E-03 0. -1.
        -11    1    3    3    0    0 -0.31852623055E+01 -0.48942258082E+01  0.47101952029E+01  0.75023517197E+01  0.51100000000E-03 0.  1.
        -12    1    3    3    0    0 -0.80518901687E+01 -0.55126538235E+01 -0.19830459193E+02  0.22101343834E+02  0.00000000000E+00 0.  1.
</event>
<event>
 7    1  0.1220856E-011  0.5930193E+02  0.7816164E-02  0.1266605E+00
        -11   -1    0    0    0    0  0.00000000000E+00  0.00000000000E+00  0.45593999997E+02  0.45594000000E+02  0.51100000000E-03 0.  1.
         11   -1    0    0    0    0 -0.00000000000E+00 -0.00000000000E+00 -0.45593999997E+02  0.45594000000E+02  0.51100000000E-03 0. -1.
    9900012    2    1    2    0    0  0.10195996052E+01  0.19306992251E+02 -0.25355909811E+02  0.59301926308E+02  0.49999967684E+02 0.  0.
        -12    1    1    2    0    0 -0.10195996052E+01 -0.19306992251E+02  0.25355909811E+02  0.31886073692E+02  0.00000000000E+00 0.  1.
         11    1    3    3    0    0 -0.23708869169E+01 -0.48558627118E+01  0.21242355470E+01  0.58062797357E+01  0.51100000000E-03 0. -1.
        -11    1    3    3    0    0 -0.44972511948E+00 -0.23628974313E+01  0.83843846501E+01  0.87225823685E+01  0.51100000000E-03 0.  1.
         12    1    3    3    0    0  0.38402116416E+01  0.26525752394E+02 -0.35864530008E+02  0.44773064204E+02  0.00000000000E+00 0. -1.
</event>
<event>
 7    1  0.1220856E-011  0.5930195E+02  0.7816164E-02  0.1266605E+00
        -11   -1    0    0    0    0  0.00000000000E+00  0.00000000000E+00  0.45593999997E+02  0.45594000000E+02  0.51100000000E-03 0.  1.
         11   -1    0    0    0    0 -0.00000000000E+00 -0.00000000000E+00 -0.45593999997E+02  0.45594000000E+02  0.51100000000E-03 0. -1.
    9900012    2    1    2    0    0  0.10548329063E+02 -0.58105070786E+01 -0.29524411553E+02  0.59301951075E+02  0.50000012852E+02 0.  0.
        -12    1    1    2    0    0 -0.10548329063E+02  0.58105070786E+01  0.29524411553E+02  0.31886048925E+02  0.00000000000E+00 0.  1.
         11    1    3    3    0    0  0.86908729339E+00 -0.12083812792E+02 -0.89969831022E+01  0.15090379370E+02  0.51100000000E-03 0. -1.
        -11    1    3    3    0    0  0.27531506795E+01 -0.13215631826E+02  0.19802814169E+01  0.13643836629E+02  0.51100000000E-03 0.  1.
        -12    1    3    3    0    0  0.69260910897E+01  0.19488937539E+02 -0.22507709867E+02  0.30567735076E+02  0.00000000000E+00 0.  1.
</event>
<event>
 7    1  0.1220856E-011  0.5930195E+02  0.7816164E-02  0.1266605E+00
        -11   -1    0    0    0    0  0.00000000000E+00  0.00000000000E+00  0.45593999997E+02  0.45594000000E+02  0.51100000000E-03 0.  1.
         11   -1    0    0    0    0 -0.00000000000E+00 -0.00000000000E+00 -0.45593999997E+02  0.45594000000E+02  0.51100000000E-03 0. -1.
    9900012    2    1    2    0    0 -0.15423455692E+02 -0.20279355971E+02 -0.19172501752E+02  0.59301951523E+02  0.50000013669E+02 0.  0.
        -12    1    1    2    0    0  0.15423455692E+02  0.20279355971E+02  0.19172501752E+02  0.31886048477E+02  0.00000000000E+00 0.  1.
         11    1    3    3    0    0 -0.10350724355E+02  0.53266223905E+01 -0.20125901144E+02  0.23249995654E+02  0.51100000000E-03 0. -1.
        -11    1    3    3    0    0  0.77790906675E+01 -0.19876547330E+01 -0.35676476777E+01  0.87859622788E+01  0.51100000000E-03 0.  1.
         12    1    3    3    0    0 -0.12851822005E+02 -0.23618323628E+02  0.45210470700E+01  0.27265993590E+02  0.00000000000E+00 0. -1.
</event>
<event>
 7    1  0.1220856E-011  0.5930195E+02  0.7816164E-02  0.1266605E+00
        -11   -1    0    0    0    0  0.00000000000E+00  0.00000000000E+00  0.45593999997E+02  0.45594000000E+02  0.51100000000E-03 0.  1.
         11   -1    0    0    0    0 -0.00000000000E+00 -0.00000000000E+00 -0.45593999997E+02  0.45594000000E+02  0.51100000000E-03 0. -1.
    9900012    2    1    2    0    0 -0.28057030766E+02  0.15058756428E+02 -0.16604440468E+01  0.59301949837E+02  0.50000010595E+02 0.  0.
        -12    1    1    2    0    0  0.28057030766E+02 -0.15058756428E+02  0.16604440468E+01  0.31886050163E+02  0.00000000000E+00 0.  1.
         11    1    3    3    0    0 -0.41609901059E-01 -0.75815956661E+01  0.12921558950E+02  0.14981622415E+02  0.51100000000E-03 0.  1.
        -11    1    3    3    0    0 -0.64417240127E+01  0.18123313406E+02 -0.31493088188E+01  0.19490214041E+02  0.51100000000E-03 0. -1.
        -12    1    3    3    0    0 -0.21573696852E+02  0.45170386885E+01 -0.11432694178E+02  0.24830113381E+02  0.00000000000E+00 0.  1.
</event>
<event>
 7    1  0.1220856E-011  0.5930195E+02  0.7816164E-02  0.1266605E+00
        -11   -1    0    0    0    0  0.00000000000E+00  0.00000000000E+00  0.45593999997E+02  0.45594000000E+02  0.51100000000E-03 0. -1.
         11   -1    0    0    0    0 -0.00000000000E+00 -0.00000000000E+00 -0.45593999997E+02  0.45594000000E+02  0.51100000000E-03 0.  1.
    9900012    2    1    2    0    0  0.29270827800E+02 -0.79171170497E+01  0.98619452088E+01  0.59301951863E+02  0.50000014290E+02 0.  0.
        -12    1    1    2    0    0 -0.29270827800E+02  0.79171170497E+01 -0.98619452088E+01  0.31886048137E+02  0.00000000000E+00 0.  1.
         11    1    3    3    0    0  0.12918630296E+02 -0.12062584227E+02  0.72309474193E+01  0.19096689446E+02  0.51100000000E-03 0. -1.
        -11    1    3    3    0    0 -0.69653026036E+01 -0.10435511607E+02 -0.28680640886E+00  0.12549804820E+02  0.51100000000E-03 0.  1.
         12    1    3    3    0    0  0.23317500108E+02  0.14580978784E+02  0.29178041984E+01  0.27655457597E+02  0.00000000000E+00 0. -1.
</event>
<event>
 7    1  0.1220856E-011  0.5930193E+02  0.7816164E-02  0.1266605E+00
        -11   -1    0    0    0    0  0.00000000000E+00  0.00000000000E+00  0.45593999997E+02  0.45594000000E+02  0.51100000000E-03 0. -1.
         11   -1    0    0    0    0 -0.00000000000E+00 -0.00000000000E+00 -0.45593999997E+02  0.45594000000E+02  0.51100000000E-03 0.  1.
    9900012    2    1    2    0    0 -0.26876149618E+02 -0.16539189375E+02  0.45660769953E+01  0.59301933096E+02  0.49999980064E+02 0.  0.
        -12    1    1    2    0    0  0.26876149618E+02  0.16539189375E+02 -0.45660769953E+01  0.31886066904E+02  0.00000000000E+00 0.  1.
         11    1    3    3    0    0 -0.11503127082E+02 -0.16783142820E+01 -0.58717695352E+01  0.13023684165E+02  0.51100000000E-03 0. -1.
        -11    1    3    3    0    0 -0.68024881414E+01 -0.11429497499E+02 -0.14506043819E+02  0.19680766386E+02  0.51100000000E-03 0.  1.
         12    1    3    3    0    0 -0.85705343942E+01 -0.34313775937E+01  0.24943890349E+02  0.26597482545E+02  0.00000000000E+00 0. -1.
</event>
<event>
 7    1  0.1220856E-011  0.5930190E+02  0.7816164E-02  0.1266605E+00
        -11   -1    0    0    0    0  0.00000000000E+00  0.00000000000E+00  0.45593999997E+02  0.45594000000E+02  0.51100000000E-03 0.  1.
         11   -1    0    0    0    0 -0.00000000000E+00 -0.00000000000E+00 -0.45593999997E+02  0.45594000000E+02  0.51100000000E-03 0. -1.
    9900012    2    1    2    0    0 -0.25389854469E+02 -0.12785070783E+02 -0.14443705143E+02  0.59301900158E+02  0.49999919992E+02 0.  0.
        -12    1    1    2    0    0  0.25389854469E+02  0.12785070783E+02  0.14443705143E+02  0.31886099842E+02  0.00000000000E+00 0.  1.
         11    1    3    3    0    0  0.56753952440E+01  0.13010276958E+01  0.46919197428E+01  0.74777600506E+01  0.51100000000E-03 0. -1.
        -11    1    3    3    0    0 -0.40932874758E+01 -0.16317903644E+02  0.27139063515E+01  0.17040958590E+02  0.51100000000E-03 0.  1.
         12    1    3    3    0    0 -0.26971962237E+02  0.22318051658E+01 -0.21849531238E+02  0.34783181518E+02  0.00000000000E+00 0. -1.
</event>
<event>
 7    1  0.1220856E-011  0.5930192E+02  0.7816164E-02  0.1266605E+00
        -11   -1    0    0    0    0  0.00000000000E+00  0.00000000000E+00  0.45593999997E+02  0.45594000000E+02  0.51100000000E-03 0.  1.
         11   -1    0    0    0    0 -0.00000000000E+00 -0.00000000000E+00 -0.45593999997E+02  0.45594000000E+02  0.51100000000E-03 0. -1.
    9900012    2    1    2    0    0  0.17666050900E+02  0.71739214532E+01 -0.25557146326E+02  0.59301917899E+02  0.49999952347E+02 0.  0.
        -12    1    1    2    0    0 -0.17666050900E+02 -0.71739214532E+01  0.25557146326E+02  0.31886082101E+02  0.00000000000E+00 0.  1.
         11    1    3    3    0    0 -0.46092786505E+01  0.15812533330E+02 -0.27155825598E+02  0.31760360895E+02  0.51100000000E-03 0. -1.
        -11    1    3    3    0    0 -0.17684582432E+01  0.28068399769E+00  0.55835151398E+00  0.18756291582E+01  0.51100000000E-03 0.  1.
         12    1    3    3    0    0  0.24043787794E+02 -0.89192958742E+01  0.10403277581E+01  0.25665927846E+02  0.00000000000E+00 0. -1.
</event>
<event>
 7    1  0.1220856E-011  0.5930194E+02  0.7816164E-02  0.1266605E+00
        -11   -1    0    0    0    0  0.00000000000E+00  0.00000000000E+00  0.45593999997E+02  0.45594000000E+02  0.51100000000E-03 0.  1.
         11   -1    0    0    0    0 -0.00000000000E+00 -0.00000000000E+00 -0.45593999997E+02  0.45594000000E+02  0.51100000000E-03 0. -1.
    9900012    2    1    2    0    0 -0.13877717910E+02 -0.28706098535E+02 -0.29902905967E+00  0.59301944022E+02  0.49999999989E+02 0.  0.
        -12    1    1    2    0    0  0.13877717910E+02  0.28706098535E+02  0.29902905967E+00  0.31886055978E+02  0.00000000000E+00 0.  1.
         11    1    3    3    0    0  0.94281035191E-01  0.59701150769E+01 -0.12360990555E+00  0.59721388644E+01  0.51100000000E-03 0.  1.
        -11    1    3    3    0    0 -0.26460589177E+02 -0.17972353339E+02 -0.36193224615E+01  0.32191113051E+02  0.51100000000E-03 0. -1.
         12    1    3    3    0    0  0.12488590232E+02 -0.16703860272E+02  0.34439033074E+01  0.21138692106E+02  0.00000000000E+00 0. -1.
</event>
<event>
 7    1  0.1220856E-011  0.5930194E+02  0.7816164E-02  0.1266605E+00
        -11   -1    0    0    0    0  0.00000000000E+00  0.00000000000E+00  0.45593999997E+02  0.45594000000E+02  0.51100000000E-03 0. -1.
         11   -1    0    0    0    0 -0.00000000000E+00 -0.00000000000E+00 -0.45593999997E+02  0.45594000000E+02  0.51100000000E-03 0.  1.
    9900012    2    1    2    0    0 -0.83039987490E+01 -0.27880254809E+01  0.30659279773E+02  0.59301938507E+02  0.49999989932E+02 0.  0.
        -12    1    1    2    0    0  0.83039987490E+01  0.27880254809E+01 -0.30659279773E+02  0.31886061493E+02  0.00000000000E+00 0.  1.
         11    1    3    3    0    0  0.25840720264E+01 -0.16819981608E+02  0.14416622257E+00  0.17017931534E+02  0.51100000000E-03 0. -1.
        -11    1    3    3    0    0 -0.49744699598E+01  0.64014228271E+01 -0.20133273812E+01  0.83532660078E+01  0.51100000000E-03 0.  1.
         12    1    3    3    0    0 -0.59136008156E+01  0.76305332999E+01  0.32528440932E+02  0.33930740966E+02  0.00000000000E+00 0. -1.
</event>
<event>
 7    1  0.1220856E-011  0.5930193E+02  0.7816164E-02  0.1266605E+00
        -11   -1    0    0    0    0  0.00000000000E+00  0.00000000000E+00  0.45593999997E+02  0.45594000000E+02  0.51100000000E-03 0. -1.
         11   -1    0    0    0    0 -0.00000000000E+00 -0.00000000000E+00 -0.45593999997E+02  0.45594000000E+02  0.51100000000E-03 0.  1.
    9900012    2    1    2    0    0  0.22582189366E+02  0.18542387260E+02  0.12765035719E+02  0.59301928765E+02  0.49999972165E+02 0.  0.
        -12    1    1    2    0    0 -0.22582189366E+02 -0.18542387260E+02 -0.12765035719E+02  0.31886071235E+02  0.00000000000E+00 0.  1.
         11    1    3    3    0    0 -0.51501630615E+01  0.16729058061E+02  0.11840883729E+02  0.21132725591E+02  0.51100000000E-03 0. -1.
        -11    1    3    3    0    0  0.19499915787E+02  0.12484394423E+02 -0.45947016888E+01  0.23605467665E+02  0.51100000000E-03 0.  1.
        -12    1    3    3    0    0  0.82324366409E+01 -0.10671065224E+02  0.55188536795E+01  0.14563735510E+02  0.00000000000E+00 0.  1.
</event>
<event>
 7    1  0.1220856E-011  0.5930193E+02  0.7816164E-02  0.1266605E+00
        -11   -1    0    0    0    0  0.00000000000E+00  0.00000000000E+00  0.45593999997E+02  0.45594000000E+02  0.51100000000E-03 0.  1.
         11   -1    0    0    0    0 -0.00000000000E+00 -0.00000000000E+00 -0.45593999997E+02  0.45594000000E+02  0.51100000000E-03 0. -1.
    9900012    2    1    2    0    0  0.26703085929E+02 -0.13464036405E+02 -0.11062833888E+02  0.59301931442E+02  0.49999977047E+02 0.  0.
        -12    1    1    2    0    0 -0.26703085929E+02  0.13464036405E+02  0.11062833888E+02  0.31886068558E+02  0.00000000000E+00 0.  1.
         11    1    3    3    0    0  0.41680350544E+01 -0.13135327246E+02  0.98342493129E+01  0.16929908384E+02  0.51100000000E-03 0. -1.
        -11    1    3    3    0    0  0.12708281020E+00  0.74753865861E+01  0.35733320275E+01  0.82865105257E+01  0.51100000000E-03 0.  1.
        -12    1    3    3    0    0  0.22407968064E+02 -0.78040957448E+01 -0.24470415228E+02  0.34085512533E+02  0.00000000000E+00 0.  1.
</event>
<event>
 7    1  0.1220856E-011  0.5930194E+02  0.7816164E-02  0.1266605E+00
        -11   -1    0    0    0    0  0.00000000000E+00  0.00000000000E+00  0.45593999997E+02  0.45594000000E+02  0.51100000000E-03 0. -1.
         11   -1    0    0    0    0 -0.00000000000E+00 -0.00000000000E+00 -0.45593999997E+02  0.45594000000E+02  0.51100000000E-03 0.  1.
    9900012    2    1    2    0    0 -0.73386769358E+01  0.29973092048E+02 -0.80298259114E+01  0.59301944580E+02  0.50000001006E+02 0.  0.
        -12    1    1    2    0    0  0.73386769358E+01 -0.29973092048E+02  0.80298259114E+01  0.31886055420E+02  0.00000000000E+00 0.  1.
         11    1    3    3    0    0 -0.70711360923E+00 -0.15556643254E+01 -0.44592068783E+01  0.47754190805E+01  0.51100000000E-03 0. -1.
        -11    1    3    3    0    0 -0.23126315519E+02  0.83136189774E+01 -0.76932013179E+01  0.25751273304E+02  0.51100000000E-03 0.  1.
         12    1    3    3    0    0  0.16494752192E+02  0.23215137396E+02  0.41225822847E+01  0.28775252195E+02  0.00000000000E+00 0. -1.
</event>
<event>
 7    1  0.1220856E-011  0.5930197E+02  0.7816164E-02  0.1266605E+00
        -11   -1    0    0    0    0  0.00000000000E+00  0.00000000000E+00  0.45593999997E+02  0.45594000000E+02  0.51100000000E-03 0.  1.
         11   -1    0    0    0    0 -0.00000000000E+00 -0.00000000000E+00 -0.45593999997E+02  0.45594000000E+02  0.51100000000E-03 0. -1.
    9900012    2    1    2    0    0 -0.29688164558E+01  0.82564506743E+01 -0.30655110351E+02  0.59301974229E+02  0.50000055079E+02 0.  0.
        -12    1    1    2    0    0  0.29688164558E+01 -0.82564506743E+01  0.30655110351E+02  0.31886025771E+02  0.00000000000E+00 0.  1.
         11    1    3    3    0    0  0.11995396341E+02 -0.15427189700E+01 -0.78744790384E+01  0.14431802923E+02  0.51100000000E-03 0. -1.
        -11    1    3    3    0    0  0.69423436852E+01  0.12871120046E+02 -0.24541026682E+01  0.14828502529E+02  0.51100000000E-03 0.  1.
        -12    1    3    3    0    0 -0.21906556482E+02 -0.30719504018E+01 -0.20326528644E+02  0.30041668777E+02  0.00000000000E+00 0.  1.
</event>
<event>
 7    1  0.1220856E-011  0.5930195E+02  0.7816164E-02  0.1266605E+00
        -11   -1    0    0    0    0  0.00000000000E+00  0.00000000000E+00  0.45593999997E+02  0.45594000000E+02  0.51100000000E-03 0. -1.
         11   -1    0    0    0    0 -0.00000000000E+00 -0.00000000000E+00 -0.45593999997E+02  0.45594000000E+02  0.51100000000E-03 0.  1.
    9900012    2    1    2    0    0 -0.27289427546E+01 -0.25399328973E+02  0.19082635706E+02  0.59301952481E+02  0.50000015418E+02 0.  0.
        -12    1    1    2    0    0  0.27289427546E+01  0.25399328973E+02 -0.19082635706E+02  0.31886047519E+02  0.00000000000E+00 0.  1.
         11    1    3    3    0    0  0.19298172018E+02 -0.96591026586E+01  0.14655724285E+02  0.26086547529E+02  0.51100000000E-03 0. -1.
        -11    1    3    3    0    0 -0.35455525270E+00  0.37494177236E+01  0.30595539014E+00  0.37785515287E+01  0.51100000000E-03 0.  1.
        -12    1    3    3    0    0 -0.21672559520E+02 -0.19489644038E+02  0.41209560306E+01  0.29436853424E+02  0.00000000000E+00 0.  1.
</event>
<event>
 7    1  0.1220856E-011  0.5930194E+02  0.7816164E-02  0.1266605E+00
        -11   -1    0    0    0    0  0.00000000000E+00  0.00000000000E+00  0.45593999997E+02  0.45594000000E+02  0.51100000000E-03 0. -1.
         11   -1    0    0    0    0 -0.00000000000E+00 -0.00000000000E+00 -0.45593999997E+02  0.45594000000E+02  0.51100000000E-03 0.  1.
    9900012    2    1    2    0    0  0.41245174051E+01  0.30653017874E+02  0.77525147060E+01  0.59301942971E+02  0.49999998072E+02 0.  0.
        -12    1    1    2    0    0 -0.41245174051E+01 -0.30653017874E+02 -0.77525147060E+01  0.31886057029E+02  0.00000000000E+00 0.  1.
         11    1    3    3    0    0  0.12410007292E+02  0.70654603055E+01  0.64462130526E+01  0.15667886689E+02  0.51100000000E-03 0. -1.
        -11    1    3    3    0    0  0.10712515882E+02  0.18901320556E+02 -0.63300059426E+01  0.22629336949E+02  0.51100000000E-03 0.  1.
         12    1    3    3    0    0 -0.18998005769E+02  0.46862370130E+01  0.76363075959E+01  0.21004719332E+02  0.00000000000E+00 0. -1.
</event>
<event>
 7    1  0.1220856E-011  0.5930194E+02  0.7816164E-02  0.1266605E+00
        -11   -1    0    0    0    0  0.00000000000E+00  0.00000000000E+00  0.45593999997E+02  0.45594000000E+02  0.51100000000E-03 0.  1.
         11   -1    0    0    0    0 -0.00000000000E+00 -0.00000000000E+00 -0.45593999997E+02  0.45594000000E+02  0.51100000000E-03 0. -1.
    9900012    2    1    2    0    0 -0.22135346316E+02 -0.55276623068E+01 -0.22275368114E+02  0.59301942989E+02  0.49999998105E+02 0.  0.
        -12    1    1    2    0    0  0.22135346316E+02  0.55276623068E+01  0.22275368114E+02  0.31886057011E+02  0.00000000000E+00 0.  1.
         11    1    3    3    0    0  0.12237078103E+01  0.10132234719E+02 -0.34968807976E+01  0.10788318533E+02  0.51100000000E-03 0.  1.
        -11    1    3    3    0    0  0.30920729644E+01 -0.31841596400E+01 -0.18749820250E+02  0.19267992825E+02  0.51100000000E-03 0. -1.
         12    1    3    3    0    0 -0.26451127091E+02 -0.12475737385E+02 -0.28667066570E-01  0.29245631631E+02  0.00000000000E+00 0. -1.
</event>
<event>
 7    1  0.1220856E-011  0.5930216E+02  0.7816164E-02  0.1266604E+00
        -11   -1    0    0    0    0  0.00000000000E+00  0.00000000000E+00  0.45593999997E+02  0.45594000000E+02  0.51100000000E-03 0.  1.
         11   -1    0    0    0    0 -0.00000000000E+00 -0.00000000000E+00 -0.45593999997E+02  0.45594000000E+02  0.51100000000E-03 0. -1.
    9900012    2    1    2    0    0  0.27744906175E+02  0.11202626105E+02 -0.11019457175E+02  0.59302155386E+02  0.50000385465E+02 0.  0.
        -12    1    1    2    0    0 -0.27744906175E+02 -0.11202626105E+02  0.11019457175E+02  0.31885844614E+02  0.00000000000E+00 0.  1.
         11    1    3    3    0    0  0.17357971236E+02 -0.11467579350E+02 -0.12931313147E+02  0.24495375105E+02  0.51100000000E-03 0. -1.
        -11    1    3    3    0    0  0.32273294766E+01 -0.43759819566E+01 -0.32818423238E+01  0.63510127487E+01  0.51100000000E-03 0.  1.
         12    1    3    3    0    0  0.71596054628E+01  0.27046187411E+02  0.51936982959E+01  0.28455767532E+02  0.00000000000E+00 0. -1.
</event>
<event>
 7    1  0.1220856E-011  0.5930194E+02  0.7816164E-02  0.1266605E+00
        -11   -1    0    0    0    0  0.00000000000E+00  0.00000000000E+00  0.45593999997E+02  0.45594000000E+02  0.51100000000E-03 0.  1.
         11   -1    0    0    0    0 -0.00000000000E+00 -0.00000000000E+00 -0.45593999997E+02  0.45594000000E+02  0.51100000000E-03 0. -1.
    9900012    2    1    2    0    0  0.84602177760E+00  0.57206138692E+01 -0.31357291735E+02  0.59301938455E+02  0.49999989836E+02 0.  0.
        -12    1    1    2    0    0 -0.84602177760E+00 -0.57206138692E+01  0.31357291735E+02  0.31886061545E+02  0.00000000000E+00 0.  1.
         11    1    3    3    0    0  0.18889231016E+02  0.91629819445E+01 -0.12178082484E+02  0.24270743288E+02  0.51100000000E-03 0. -1.
        -11    1    3    3    0    0  0.23950703462E+01  0.43050278403E+01  0.12826955928E+01  0.50906713618E+01  0.51100000000E-03 0.  1.
         12    1    3    3    0    0 -0.20438279585E+02 -0.77473959156E+01 -0.20461904844E+02  0.29940523805E+02  0.00000000000E+00 0. -1.
</event>
<event>
 7    1  0.1220856E-011  0.5930194E+02  0.7816164E-02  0.1266605E+00
        -11   -1    0    0    0    0  0.00000000000E+00  0.00000000000E+00  0.45593999997E+02  0.45594000000E+02  0.51100000000E-03 0. -1.
         11   -1    0    0    0    0 -0.00000000000E+00 -0.00000000000E+00 -0.45593999997E+02  0.45594000000E+02  0.51100000000E-03 0.  1.
    9900012    2    1    2    0    0  0.31259092995E+01  0.28035761609E+02  0.14864242544E+02  0.59301938086E+02  0.49999989165E+02 0.  0.
        -12    1    1    2    0    0 -0.31259092995E+01 -0.28035761609E+02 -0.14864242544E+02  0.31886061914E+02  0.00000000000E+00 0.  1.
         11    1    3    3    0    0 -0.21021884935E+01  0.16933008095E+01 -0.42157733651E+01  0.50059174405E+01  0.51100000000E-03 0.  1.
        -11    1    3    3    0    0  0.17557494489E+02  0.19113912806E+02 -0.48688667429E+01  0.26406687394E+02  0.51100000000E-03 0. -1.
         12    1    3    3    0    0 -0.12329396696E+02  0.72285479935E+01  0.23948882652E+02  0.27889333252E+02  0.00000000000E+00 0. -1.
</event>
<event>
 7    1  0.1220856E-011  0.5930200E+02  0.7816164E-02  0.1266605E+00
        -11   -1    0    0    0    0  0.00000000000E+00  0.00000000000E+00  0.45593999997E+02  0.45594000000E+02  0.51100000000E-03 0.  1.
         11   -1    0    0    0    0 -0.00000000000E+00 -0.00000000000E+00 -0.45593999997E+02  0.45594000000E+02  0.51100000000E-03 0. -1.
    9900012    2    1    2    0    0 -0.11355248791E+00  0.26885476616E+02 -0.17142797827E+02  0.59301995791E+02  0.50000094404E+02 0.  0.
        -12    1    1    2    0    0  0.11355248791E+00 -0.26885476616E+02  0.17142797827E+02  0.31886004209E+02  0.00000000000E+00 0.  1.
         11    1    3    3    0    0 -0.48974052902E+01  0.52034554864E+01 -0.15860185849E+02  0.17395574811E+02  0.51100000000E-03 0. -1.
        -11    1    3    3    0    0  0.16326206697E+02  0.10343817523E+01 -0.66355522431E+01  0.17653484771E+02  0.51100000000E-03 0.  1.
        -12    1    3    3    0    0 -0.11542353895E+02  0.20647639378E+02  0.53529402650E+01  0.24252936210E+02  0.00000000000E+00 0.  1.
</event>
<event>
 7    1  0.1220856E-011  0.5930193E+02  0.7816164E-02  0.1266605E+00
        -11   -1    0    0    0    0  0.00000000000E+00  0.00000000000E+00  0.45593999997E+02  0.45594000000E+02  0.51100000000E-03 0. -1.
         11   -1    0    0    0    0 -0.00000000000E+00 -0.00000000000E+00 -0.45593999997E+02  0.45594000000E+02  0.51100000000E-03 0.  1.
    9900012    2    1    2    0    0  0.53780074520E+01  0.12230936388E+02  0.28951725050E+02  0.59301934823E+02  0.49999983214E+02 0.  0.
        -12    1    1    2    0    0 -0.53780074520E+01 -0.12230936388E+02 -0.28951725050E+02  0.31886065177E+02  0.00000000000E+00 0.  1.
         11    1    3    3    0    0  0.13437889359E+02 -0.53066225633E+01 -0.10320962801E+01  0.14484555100E+02  0.51100000000E-03 0. -1.
        -11    1    3    3    0    0 -0.19138115593E+01 -0.73019868656E+01  0.88319055012E+01  0.11618271899E+02  0.51100000000E-03 0.  1.
         12    1    3    3    0    0 -0.61460703479E+01  0.24839545817E+02  0.21151915829E+02  0.33199107825E+02  0.00000000000E+00 0. -1.
</event>
<event>
 7    1  0.1220856E-011  0.5930194E+02  0.7816164E-02  0.1266605E+00
        -11   -1    0    0    0    0  0.00000000000E+00  0.00000000000E+00  0.45593999997E+02  0.45594000000E+02  0.51100000000E-03 0.  1.
         11   -1    0    0    0    0 -0.00000000000E+00 -0.00000000000E+00 -0.45593999997E+02  0.45594000000E+02  0.51100000000E-03 0. -1.
    9900012    2    1    2    0    0  0.23791414301E+02 -0.61591780717E+01 -0.20316351417E+02  0.59301937153E+02  0.49999987462E+02 0.  0.
        -12    1    1    2    0    0 -0.23791414301E+02  0.61591780717E+01  0.20316351417E+02  0.31886062847E+02  0.00000000000E+00 0.  1.
         11    1    3    3    0    0 -0.19840841230E+01 -0.15897191061E+02 -0.46083853432E+01  0.16670167641E+02  0.51100000000E-03 0. -1.
        -11    1    3    3    0    0  0.18440661377E+02 -0.81506318715E+01 -0.97865294465E+01  0.22411313009E+02  0.51100000000E-03 0.  1.
        -12    1    3    3    0    0  0.73348370477E+01  0.17888644861E+02 -0.59214366273E+01  0.20220456503E+02  0.00000000000E+00 0.  1.
</event>
<event>
 7    1  0.1220856E-011  0.5930196E+02  0.7816164E-02  0.1266605E+00
        -11   -1    0    0    0    0  0.00000000000E+00  0.00000000000E+00  0.45593999997E+02  0.45594000000E+02  0.51100000000E-03 0.  1.
         11   -1    0    0    0    0 -0.00000000000E+00 -0.00000000000E+00 -0.45593999997E+02  0.45594000000E+02  0.51100000000E-03 0. -1.
    9900012    2    1    2    0    0  0.93436589240E+01 -0.20193193858E+02 -0.22839675794E+02  0.59301955550E+02  0.50000021014E+02 0.  0.
        -12    1    1    2    0    0 -0.93436589240E+01  0.20193193858E+02  0.22839675794E+02  0.31886044450E+02  0.00000000000E+00 0.  1.
         11    1    3    3    0    0 -0.44937360717E+01  0.10541645466E+02 -0.29714200478E+01  0.11838466555E+02  0.51100000000E-03 0. -1.
        -11    1    3    3    0    0 -0.55393251712E+01 -0.13049089236E+02 -0.15257933837E+02  0.20827083293E+02  0.51100000000E-03 0.  1.
         12    1    3    3    0    0  0.19376720167E+02 -0.17685750088E+02 -0.46103219090E+01  0.26636405702E+02  0.00000000000E+00 0. -1.
</event>
<event>
 7    1  0.1220856E-011  0.5930195E+02  0.7816164E-02  0.1266605E+00
        -11   -1    0    0    0    0  0.00000000000E+00  0.00000000000E+00  0.45593999997E+02  0.45594000000E+02  0.51100000000E-03 0.  1.
         11   -1    0    0    0    0 -0.00000000000E+00 -0.00000000000E+00 -0.45593999997E+02  0.45594000000E+02  0.51100000000E-03 0. -1.
    9900012    2    1    2    0    0 -0.21714801840E+02 -0.20567765759E+02 -0.11052352605E+02  0.59301951242E+02  0.50000013158E+02 0.  0.
        -12    1    1    2    0    0  0.21714801840E+02  0.20567765759E+02  0.11052352605E+02  0.31886048758E+02  0.00000000000E+00 0.  1.
         11    1    3    3    0    0  0.77787940602E+01  0.40077574235E+01  0.95212172666E+00  0.88021754492E+01  0.51100000000E-03 0. -1.
        -11    1    3    3    0    0 -0.26223753865E+01  0.66878130921E+01  0.10450387259E+01  0.72591874767E+01  0.51100000000E-03 0.  1.
         12    1    3    3    0    0 -0.26871220514E+02 -0.31263336274E+02 -0.13049513058E+02  0.43240588316E+02  0.00000000000E+00 0. -1.
</event>
<event>
 7    1  0.1220856E-011  0.5930196E+02  0.7816164E-02  0.1266605E+00
        -11   -1    0    0    0    0  0.00000000000E+00  0.00000000000E+00  0.45593999997E+02  0.45594000000E+02  0.51100000000E-03 0. -1.
         11   -1    0    0    0    0 -0.00000000000E+00 -0.00000000000E+00 -0.45593999997E+02  0.45594000000E+02  0.51100000000E-03 0.  1.
    9900012    2    1    2    0    0  0.14766245081E+02 -0.28257099546E+02 -0.46218630069E+00  0.59301964110E+02  0.50000036626E+02 0.  0.
        -12    1    1    2    0    0 -0.14766245081E+02  0.28257099546E+02  0.46218630069E+00  0.31886035890E+02  0.00000000000E+00 0.  1.
         11    1    3    3    0    0 -0.25874970732E+01  0.53122119084E+01 -0.46946403925E+01  0.75468129127E+01  0.51100000000E-03 0. -1.
        -11    1    3    3    0    0 -0.88824635595E+01 -0.89556452457E+00  0.41655356539E+01  0.98514913718E+01  0.51100000000E-03 0.  1.
         12    1    3    3    0    0  0.26236205714E+02 -0.32673746930E+02  0.66918437870E-01  0.41903659826E+02  0.00000000000E+00 0. -1.
</event>
<event>
 7    1  0.1220856E-011  0.5930195E+02  0.7816164E-02  0.1266605E+00
        -11   -1    0    0    0    0  0.00000000000E+00  0.00000000000E+00  0.45593999997E+02  0.45594000000E+02  0.51100000000E-03 0.  1.
         11   -1    0    0    0    0 -0.00000000000E+00 -0.00000000000E+00 -0.45593999997E+02  0.45594000000E+02  0.51100000000E-03 0. -1.
    9900012    2    1    2    0    0 -0.19141524134E+02 -0.18051051676E+02 -0.18013373775E+02  0.59301952149E+02  0.50000014812E+02 0.  0.
        -12    1    1    2    0    0  0.19141524134E+02  0.18051051676E+02  0.18013373775E+02  0.31886047851E+02  0.00000000000E+00 0.  1.
         11    1    3    3    0    0  0.61550670626E+01  0.22220039669E+00 -0.21050531452E+02  0.21933059481E+02  0.51100000000E-03 0. -1.
        -11    1    3    3    0    0 -0.37460725196E+01  0.45200844011E+01  0.73338167323E+00  0.59162548335E+01  0.51100000000E-03 0.  1.
         12    1    3    3    0    0 -0.21550518677E+02 -0.22793336474E+02  0.23037760033E+01  0.31452637834E+02  0.00000000000E+00 0. -1.
</event>
<event>
 7    1  0.1220856E-011  0.5930188E+02  0.7816164E-02  0.1266605E+00
        -11   -1    0    0    0    0  0.00000000000E+00  0.00000000000E+00  0.45593999997E+02  0.45594000000E+02  0.51100000000E-03 0. -1.
         11   -1    0    0    0    0 -0.00000000000E+00 -0.00000000000E+00 -0.45593999997E+02  0.45594000000E+02  0.51100000000E-03 0.  1.
    9900012    2    1    2    0    0 -0.31811148749E+02 -0.11277614349E+01  0.18718458927E+01  0.59301877037E+02  0.49999877824E+02 0.  0.
        -12    1    1    2    0    0  0.31811148749E+02  0.11277614349E+01 -0.18718458927E+01  0.31886122963E+02  0.00000000000E+00 0.  1.
         11    1    3    3    0    0  0.20760614260E+01  0.86767540482E+01  0.16739556468E+02  0.18968627859E+02  0.51100000000E-03 0. -1.
        -11    1    3    3    0    0 -0.48213296338E+01 -0.61792804105E+01 -0.92180223510E+00  0.78916693703E+01  0.51100000000E-03 0.  1.
        -12    1    3    3    0    0 -0.29065880541E+02 -0.36252350726E+01 -0.13945908340E+02  0.32441579807E+02  0.00000000000E+00 0.  1.
</event>
<event>
 7    1  0.1220856E-011  0.5930194E+02  0.7816164E-02  0.1266605E+00
        -11   -1    0    0    0    0  0.00000000000E+00  0.00000000000E+00  0.45593999997E+02  0.45594000000E+02  0.51100000000E-03 0. -1.
         11   -1    0    0    0    0 -0.00000000000E+00 -0.00000000000E+00 -0.45593999997E+02  0.45594000000E+02  0.51100000000E-03 0.  1.
    9900012    2    1    2    0    0 -0.22290375264E+02  0.22796342650E+02  0.43219129990E+00  0.59301939457E+02  0.49999991665E+02 0.  0.
        -12    1    1    2    0    0  0.22290375264E+02 -0.22796342650E+02 -0.43219129990E+00  0.31886060543E+02  0.00000000000E+00 0.  1.
         11    1    3    3    0    0  0.98049138062E+01 -0.46747076176E+01  0.28491690304E+01  0.11229736884E+02  0.51100000000E-03 0. -1.
        -11    1    3    3    0    0 -0.12018015798E+01 -0.10164683410E+01  0.51394336528E+01  0.53750640422E+01  0.51100000000E-03 0.  1.
        -12    1    3    3    0    0 -0.30893487490E+02  0.28487518608E+02 -0.75564113832E+01  0.42697138531E+02  0.00000000000E+00 0.  1.
</event>
<event>
 7    1  0.1220856E-011  0.5930197E+02  0.7816164E-02  0.1266605E+00
        -11   -1    0    0    0    0  0.00000000000E+00  0.00000000000E+00  0.45593999997E+02  0.45594000000E+02  0.51100000000E-03 0.  1.
         11   -1    0    0    0    0 -0.00000000000E+00 -0.00000000000E+00 -0.45593999997E+02  0.45594000000E+02  0.51100000000E-03 0. -1.
    9900012    2    1    2    0    0 -0.24295255511E+02  0.17293040818E+02  0.11287627065E+02  0.59301965034E+02  0.50000038311E+02 0.  0.
        -12    1    1    2    0    0  0.24295255511E+02 -0.17293040818E+02 -0.11287627065E+02  0.31886034966E+02  0.00000000000E+00 0.  1.
         11    1    3    3    0    0  0.76246459663E+01 -0.27470054591E+00 -0.50625925658E+01  0.91564474689E+01  0.51100000000E-03 0. -1.
        -11    1    3    3    0    0  0.49091328823E+01  0.76004862058E+01  0.50072631826E+01  0.10341163429E+02  0.51100000000E-03 0.  1.
        -12    1    3    3    0    0 -0.36829034359E+02  0.99672551581E+01  0.11342956449E+02  0.39804354137E+02  0.00000000000E+00 0.  1.
</event>
<event>
 7    1  0.1572420E-011  0.5930195E+02  0.7816164E-02  0.1266605E+00
        -11   -1    0    0    0    0  0.00000000000E+00  0.00000000000E+00  0.45593999997E+02  0.45594000000E+02  0.51100000000E-03 0. -1.
         11   -1    0    0    0    0 -0.00000000000E+00 -0.00000000000E+00 -0.45593999997E+02  0.45594000000E+02  0.51100000000E-03 0.  1.
    9900012    2    1    2    0    0 -0.28917802690E+02 -0.11758804326E+01  0.13382767640E+02  0.59301945416E+02  0.50000002533E+02 0.  0.
        -12    1    1    2    0    0  0.28917802690E+02  0.11758804326E+01 -0.13382767640E+02  0.31886054584E+02  0.00000000000E+00 0.  1.
         11    1    3    3    0    0 -0.12848291616E+01 -0.96668419366E+00  0.16028852595E+02  0.16109294834E+02  0.51100000000E-03 0. -1.
        -11    1    3    3    0    0  0.16816719518E+01  0.78414438163E+01  0.76629654982E+01  0.11092218090E+02  0.51100000000E-03 0.  1.
        -12    1    3    3    0    0 -0.29314645480E+02 -0.80506400553E+01 -0.10309050453E+02  0.32100432492E+02  0.00000000000E+00 0.  1.
</event>
<event>
 7    1  0.1220856E-011  0.5930193E+02  0.7816164E-02  0.1266605E+00
        -11   -1    0    0    0    0  0.00000000000E+00  0.00000000000E+00  0.45593999997E+02  0.45594000000E+02  0.51100000000E-03 0.  1.
         11   -1    0    0    0    0 -0.00000000000E+00 -0.00000000000E+00 -0.45593999997E+02  0.45594000000E+02  0.51100000000E-03 0. -1.
    9900012    2    1    2    0    0  0.22730794803E+01 -0.31555041143E+02 -0.39792136505E+01  0.59301926972E+02  0.49999968895E+02 0.  0.
        -12    1    1    2    0    0 -0.22730794803E+01  0.31555041143E+02  0.39792136505E+01  0.31886073028E+02  0.00000000000E+00 0.  1.
         11    1    3    3    0    0 -0.13645068006E+02 -0.15197308370E+02  0.36140925224E+01  0.20741449506E+02  0.51100000000E-03 0. -1.
        -11    1    3    3    0    0  0.16783293059E+02 -0.12820789957E+02  0.79723980830E+01  0.22574558966E+02  0.51100000000E-03 0.  1.
         12    1    3    3    0    0 -0.86514557347E+00 -0.35369428156E+01 -0.15565704256E+02  0.15985918501E+02  0.00000000000E+00 0. -1.
</event>
<event>
 7    1  0.1220856E-011  0.5930198E+02  0.7816164E-02  0.1266605E+00
        -11   -1    0    0    0    0  0.00000000000E+00  0.00000000000E+00  0.45593999997E+02  0.45594000000E+02  0.51100000000E-03 0.  1.
         11   -1    0    0    0    0 -0.00000000000E+00 -0.00000000000E+00 -0.45593999997E+02  0.45594000000E+02  0.51100000000E-03 0. -1.
    9900012    2    1    2    0    0  0.14392544495E+01 -0.26739189352E+02 -0.17310762561E+02  0.59301981105E+02  0.50000067619E+02 0.  0.
        -12    1    1    2    0    0 -0.14392544495E+01  0.26739189352E+02  0.17310762561E+02  0.31886018895E+02  0.00000000000E+00 0.  1.
         11    1    3    3    0    0  0.36574892228E+01 -0.21767727398E+02 -0.45578283206E-01  0.22072907854E+02  0.51100000000E-03 0.  1.
        -11    1    3    3    0    0  0.63162362425E+01 -0.16948364211E+02 -0.11496609051E+02  0.21431610057E+02  0.51100000000E-03 0. -1.
         12    1    3    3    0    0 -0.85344710158E+01  0.11976902257E+02 -0.57685752269E+01  0.15797463194E+02  0.00000000000E+00 0. -1.
</event>
<event>
 7    1  0.1220856E-011  0.5930196E+02  0.7816164E-02  0.1266605E+00
        -11   -1    0    0    0    0  0.00000000000E+00  0.00000000000E+00  0.45593999997E+02  0.45594000000E+02  0.51100000000E-03 0.  1.
         11   -1    0    0    0    0 -0.00000000000E+00 -0.00000000000E+00 -0.45593999997E+02  0.45594000000E+02  0.51100000000E-03 0. -1.
    9900012    2    1    2    0    0  0.13114567262E+02  0.14750107029E+02 -0.25043198342E+02  0.59301963636E+02  0.50000035760E+02 0.  0.
        -12    1    1    2    0    0 -0.13114567262E+02 -0.14750107029E+02  0.25043198342E+02  0.31886036364E+02  0.00000000000E+00 0.  1.
         11    1    3    3    0    0 -0.36153302514E+01 -0.65921752048E+01 -0.92788799543E+01  0.11942570922E+02  0.51100000000E-03 0. -1.
        -11    1    3    3    0    0  0.13961722530E+02 -0.17268335606E+00 -0.20836235757E+02  0.25082030148E+02  0.51100000000E-03 0.  1.
        -12    1    3    3    0    0  0.27681749834E+01  0.21514965590E+02  0.50719173702E+01  0.22277362566E+02  0.00000000000E+00 0.  1.
</event>
<event>
 7    1  0.1220856E-011  0.5930194E+02  0.7816164E-02  0.1266605E+00
        -11   -1    0    0    0    0  0.00000000000E+00  0.00000000000E+00  0.45593999997E+02  0.45594000000E+02  0.51100000000E-03 0. -1.
         11   -1    0    0    0    0 -0.00000000000E+00 -0.00000000000E+00 -0.45593999997E+02  0.45594000000E+02  0.51100000000E-03 0.  1.
    9900012    2    1    2    0    0  0.27107003737E+02 -0.51593252246E+01 -0.15978494450E+02  0.59301943905E+02  0.49999999776E+02 0.  0.
        -12    1    1    2    0    0 -0.27107003737E+02  0.51593252246E+01  0.15978494450E+02  0.31886056095E+02  0.00000000000E+00 0.  1.
         11    1    3    3    0    0  0.77405365273E+01 -0.10975705789E+02 -0.11052522963E+02  0.17393685273E+02  0.51100000000E-03 0. -1.
        -11    1    3    3    0    0  0.28215982938E+02  0.58886189665E+01 -0.11344341443E+02  0.30975984400E+02  0.51100000000E-03 0.  1.
         12    1    3    3    0    0 -0.88495157278E+01 -0.72238402419E-01  0.64183699552E+01  0.10932274232E+02  0.00000000000E+00 0. -1.
</event>
<event>
 7    1  0.1220856E-011  0.5930196E+02  0.7816164E-02  0.1266605E+00
        -11   -1    0    0    0    0  0.00000000000E+00  0.00000000000E+00  0.45593999997E+02  0.45594000000E+02  0.51100000000E-03 0.  1.
         11   -1    0    0    0    0 -0.00000000000E+00 -0.00000000000E+00 -0.45593999997E+02  0.45594000000E+02  0.51100000000E-03 0. -1.
    9900012    2    1    2    0    0  0.21263967482E+02 -0.76154159631E+01 -0.22507086568E+02  0.59301955730E+02  0.50000021343E+02 0.  0.
        -12    1    1    2    0    0 -0.21263967482E+02  0.76154159631E+01  0.22507086568E+02  0.31886044270E+02  0.00000000000E+00 0.  1.
         11    1    3    3    0    0  0.13458397329E+02  0.11950782030E-01  0.66080168388E+00  0.13474615416E+02  0.51100000000E-03 0.  1.
        -11    1    3    3    0    0 -0.77120867008E+01 -0.16723750740E+02 -0.27566891134E+01  0.18621478330E+02  0.51100000000E-03 0. -1.
         12    1    3    3    0    0  0.15517656854E+02  0.90963839944E+01 -0.20411199139E+02  0.27205861984E+02  0.00000000000E+00 0. -1.
</event>
<event>
 7    1  0.1220856E-011  0.5930195E+02  0.7816164E-02  0.1266605E+00
        -11   -1    0    0    0    0  0.00000000000E+00  0.00000000000E+00  0.45593999997E+02  0.45594000000E+02  0.51100000000E-03 0.  1.
         11   -1    0    0    0    0 -0.00000000000E+00 -0.00000000000E+00 -0.45593999997E+02  0.45594000000E+02  0.51100000000E-03 0. -1.
    9900012    2    1    2    0    0  0.30721093739E+02 -0.84810846116E+01  0.10029861725E+01  0.59301946968E+02  0.50000005362E+02 0.  0.
        -12    1    1    2    0    0 -0.30721093739E+02  0.84810846116E+01 -0.10029861725E+01  0.31886053032E+02  0.00000000000E+00 0.  1.
         11    1    3    3    0    0  0.12877622193E+02  0.76373932214E+01  0.12807847073E+02  0.19702890028E+02  0.51100000000E-03 0.  1.
        -11    1    3    3    0    0  0.24097763867E+02 -0.10161897442E+02 -0.15599473032E+01  0.26199233173E+02  0.51100000000E-03 0. -1.
        -12    1    3    3    0    0 -0.62542923201E+01 -0.59565803909E+01 -0.10244913597E+02  0.13399823767E+02  0.00000000000E+00 0.  1.
</event>
<event>
 7    1  0.1220856E-011  0.5930195E+02  0.7816164E-02  0.1266605E+00
        -11   -1    0    0    0    0  0.00000000000E+00  0.00000000000E+00  0.45593999997E+02  0.45594000000E+02  0.51100000000E-03 0. -1.
         11   -1    0    0    0    0 -0.00000000000E+00 -0.00000000000E+00 -0.45593999997E+02  0.45594000000E+02  0.51100000000E-03 0.  1.
    9900012    2    1    2    0    0  0.20915660545E+02  0.56107166779E+01  0.23404599198E+02  0.59301948797E+02  0.50000008698E+02 0.  0.
        -12    1    1    2    0    0 -0.20915660545E+02 -0.56107166779E+01 -0.23404599198E+02  0.31886051203E+02  0.00000000000E+00 0.  1.
         11    1    3    3    0    0 -0.12294939887E+02 -0.40928400449E+00  0.12356694299E+02  0.17436196674E+02  0.51100000000E-03 0. -1.
        -11    1    3    3    0    0  0.45300262358E+00 -0.53109454770E+01  0.35439123765E+01  0.64008334169E+01  0.51100000000E-03 0.  1.
         12    1    3    3    0    0  0.32757597808E+02  0.11330946159E+02  0.75039925230E+01  0.35464918706E+02  0.00000000000E+00 0. -1.
</event>
<event>
 7    1  0.1220856E-011  0.5930197E+02  0.7816164E-02  0.1266605E+00
        -11   -1    0    0    0    0  0.00000000000E+00  0.00000000000E+00  0.45593999997E+02  0.45594000000E+02  0.51100000000E-03 0. -1.
         11   -1    0    0    0    0 -0.00000000000E+00 -0.00000000000E+00 -0.45593999997E+02  0.45594000000E+02  0.51100000000E-03 0.  1.
    9900012    2    1    2    0    0  0.22597592425E+02  0.11996200179E+02 -0.19030468967E+02  0.59301972476E+02  0.50000051884E+02 0.  0.
        -12    1    1    2    0    0 -0.22597592425E+02 -0.11996200179E+02  0.19030468967E+02  0.31886027524E+02  0.00000000000E+00 0.  1.
         11    1    3    3    0    0  0.45863505335E+01 -0.25341290768E+01  0.12200466105E+02  0.13278094549E+02  0.51100000000E-03 0. -1.
        -11    1    3    3    0    0  0.94974976227E+01 -0.56269890277E+01 -0.57839229610E+01  0.12462713657E+02  0.51100000000E-03 0.  1.
        -12    1    3    3    0    0  0.85137442689E+01  0.20157318283E+02 -0.25447012111E+02  0.33561164271E+02  0.00000000000E+00 0.  1.
</event>
<event>
 7    1  0.1220856E-011  0.5930171E+02  0.7816164E-02  0.1266606E+00
        -11   -1    0    0    0    0  0.00000000000E+00  0.00000000000E+00  0.45593999997E+02  0.45594000000E+02  0.51100000000E-03 0. -1.
         11   -1    0    0    0    0 -0.00000000000E+00 -0.00000000000E+00 -0.45593999997E+02  0.45594000000E+02  0.51100000000E-03 0.  1.
    9900012    2    1    2    0    0  0.10781306391E+02 -0.26821390764E+01  0.29888205340E+02  0.59301713669E+02  0.49999579879E+02 0.  0.
        -12    1    1    2    0    0 -0.10781306391E+02  0.26821390764E+01 -0.29888205340E+02  0.31886286331E+02  0.00000000000E+00 0.  1.
         11    1    3    3    0    0 -0.83957764885E+01 -0.13239284630E+02  0.11736252077E+02  0.19583343265E+02  0.51100000000E-03 0. -1.
        -11    1    3    3    0    0  0.50874763331E+01 -0.89749042560E+01  0.14682283989E+01  0.10420509428E+02  0.51100000000E-03 0.  1.
         12    1    3    3    0    0  0.14089606546E+02  0.19532049810E+02  0.16683724865E+02  0.29297860976E+02  0.00000000000E+00 0. -1.
</event>
<event>
 7    1  0.1220856E-011  0.5930196E+02  0.7816164E-02  0.1266605E+00
        -11   -1    0    0    0    0  0.00000000000E+00  0.00000000000E+00  0.45593999997E+02  0.45594000000E+02  0.51100000000E-03 0.  1.
         11   -1    0    0    0    0 -0.00000000000E+00 -0.00000000000E+00 -0.45593999997E+02  0.45594000000E+02  0.51100000000E-03 0. -1.
    9900012    2    1    2    0    0 -0.42762072943E+00  0.29588911583E+02  0.11875740950E+02  0.59301956482E+02  0.50000022714E+02 0.  0.
        -12    1    1    2    0    0  0.42762072943E+00 -0.29588911583E+02 -0.11875740950E+02  0.31886043518E+02  0.00000000000E+00 0.  1.
         11    1    3    3    0    0  0.10938373771E+02  0.24189335704E+02  0.34620136635E+01  0.26772327531E+02  0.51100000000E-03 0. -1.
        -11    1    3    3    0    0  0.65417990676E+01  0.61501493978E+01  0.11238556775E+02  0.14384875088E+02  0.51100000000E-03 0.  1.
        -12    1    3    3    0    0 -0.17907793568E+02 -0.75057351961E+00 -0.28248294887E+01  0.18144753863E+02  0.00000000000E+00 0.  1.
</event>
<event>
 7    1  0.1220856E-011  0.5930174E+02  0.7816164E-02  0.1266605E+00
        -11   -1    0    0    0    0  0.00000000000E+00  0.00000000000E+00  0.45593999997E+02  0.45594000000E+02  0.51100000000E-03 0.  1.
         11   -1    0    0    0    0 -0.00000000000E+00 -0.00000000000E+00 -0.45593999997E+02  0.45594000000E+02  0.51100000000E-03 0. -1.
    9900012    2    1    2    0    0  0.21448773468E+01 -0.20508479358E+02 -0.24321502653E+02  0.59301737822E+02  0.49999623928E+02 0.  0.
        -12    1    1    2    0    0 -0.21448773468E+01  0.20508479358E+02  0.24321502653E+02  0.31886262178E+02  0.00000000000E+00 0.  1.
         11    1    3    3    0    0  0.45121464379E+01 -0.18220948429E+02  0.16745056033E+00  0.18772066137E+02  0.51100000000E-03 0. -1.
        -11    1    3    3    0    0 -0.16966803126E+02 -0.41320681095E+01 -0.11569827014E+02  0.20947727624E+02  0.51100000000E-03 0.  1.
         12    1    3    3    0    0  0.14599534035E+02  0.18445371806E+01 -0.12919126199E+02  0.19581944061E+02  0.00000000000E+00 0. -1.
</event>
<event>
 7    1  0.1220856E-011  0.5930190E+02  0.7816164E-02  0.1266605E+00
        -11   -1    0    0    0    0  0.00000000000E+00  0.00000000000E+00  0.45593999997E+02  0.45594000000E+02  0.51100000000E-03 0. -1.
         11   -1    0    0    0    0 -0.00000000000E+00 -0.00000000000E+00 -0.45593999997E+02  0.45594000000E+02  0.51100000000E-03 0.  1.
    9900012    2    1    2    0    0  0.24941828130E+02 -0.53737372504E+01  0.19124634249E+02  0.59301898363E+02  0.49999916718E+02 0.  0.
        -12    1    1    2    0    0 -0.24941828130E+02  0.53737372504E+01 -0.19124634249E+02  0.31886101637E+02  0.00000000000E+00 0.  1.
         11    1    3    3    0    0  0.62175387610E+01 -0.12385034385E+02 -0.94119093180E+00  0.13890021799E+02  0.51100000000E-03 0. -1.
        -11    1    3    3    0    0  0.21312114304E+02 -0.25228290823E+01 -0.16806455136E+01  0.21526621943E+02  0.51100000000E-03 0.  1.
         12    1    3    3    0    0 -0.25878249356E+01  0.95341262167E+01  0.21746470694E+02  0.23885254620E+02  0.00000000000E+00 0. -1.
</event>
<event>
 7    1  0.1220856E-011  0.5930196E+02  0.7816164E-02  0.1266605E+00
        -11   -1    0    0    0    0  0.00000000000E+00  0.00000000000E+00  0.45593999997E+02  0.45594000000E+02  0.51100000000E-03 0.  1.
         11   -1    0    0    0    0 -0.00000000000E+00 -0.00000000000E+00 -0.45593999997E+02  0.45594000000E+02  0.51100000000E-03 0. -1.
    9900012    2    1    2    0    0  0.56214781424E+01 -0.77746359033E+01 -0.30408450029E+02  0.59301955826E+02  0.50000021517E+02 0.  0.
        -12    1    1    2    0    0 -0.56214781424E+01  0.77746359033E+01  0.30408450029E+02  0.31886044174E+02  0.00000000000E+00 0.  1.
         11    1    3    3    0    0  0.90697425152E+01  0.66771944072E+01  0.52164320261E+01  0.12411942547E+02  0.51100000000E-03 0. -1.
        -11    1    3    3    0    0  0.97999156447E+01 -0.37842843099E+01 -0.24250594925E+02  0.26428214258E+02  0.51100000000E-03 0.  1.
        -12    1    3    3    0    0 -0.13248180017E+02 -0.10667546001E+02 -0.11374287130E+02  0.20461799021E+02  0.00000000000E+00 0.  1.
</event>
<event>
 7    1  0.1220856E-011  0.5930195E+02  0.7816164E-02  0.1266605E+00
        -11   -1    0    0    0    0  0.00000000000E+00  0.00000000000E+00  0.45593999997E+02  0.45594000000E+02  0.51100000000E-03 0.  1.
         11   -1    0    0    0    0 -0.00000000000E+00 -0.00000000000E+00 -0.45593999997E+02  0.45594000000E+02  0.51100000000E-03 0. -1.
    9900012    2    1    2    0    0  0.10714100669E+02  0.27510858486E+02 -0.12044955493E+02  0.59301949122E+02  0.50000009290E+02 0.  0.
        -12    1    1    2    0    0 -0.10714100669E+02 -0.27510858486E+02  0.12044955493E+02  0.31886050878E+02  0.00000000000E+00 0.  1.
         11    1    3    3    0    0 -0.11863037593E+02 -0.63335046345E+01 -0.10883285312E+01  0.13491827198E+02  0.51100000000E-03 0. -1.
        -11    1    3    3    0    0  0.35599275241E+01  0.45097882318E+01  0.47781412662E+01  0.74727443482E+01  0.51100000000E-03 0.  1.
         12    1    3    3    0    0  0.19017210738E+02  0.29334574889E+02 -0.15734768228E+02  0.38337377575E+02  0.00000000000E+00 0. -1.
</event>
<event>
 7    1  0.1220856E-011  0.5930194E+02  0.7816164E-02  0.1266605E+00
        -11   -1    0    0    0    0  0.00000000000E+00  0.00000000000E+00  0.45593999997E+02  0.45594000000E+02  0.51100000000E-03 0. -1.
         11   -1    0    0    0    0 -0.00000000000E+00 -0.00000000000E+00 -0.45593999997E+02  0.45594000000E+02  0.51100000000E-03 0.  1.
    9900012    2    1    2    0    0  0.40597258527E+01 -0.22443771689E+00  0.31625764181E+02  0.59301941819E+02  0.49999995973E+02 0.  0.
        -12    1    1    2    0    0 -0.40597258527E+01  0.22443771689E+00 -0.31625764181E+02  0.31886058181E+02  0.00000000000E+00 0.  1.
         11    1    3    3    0    0  0.11877710920E+02  0.11919330970E+02  0.37515676449E+02  0.41116620084E+02  0.51100000000E-03 0. -1.
        -11    1    3    3    0    0 -0.63785840282E+01 -0.42801127612E+01  0.85074707001E+00  0.77284843463E+01  0.51100000000E-03 0.  1.
        -12    1    3    3    0    0 -0.14394010387E+01 -0.78636559255E+01 -0.67406593383E+01  0.10456837389E+02  0.00000000000E+00 0.  1.
</event>
<event>
 7    1  0.1220856E-011  0.5930194E+02  0.7816164E-02  0.1266605E+00
        -11   -1    0    0    0    0  0.00000000000E+00  0.00000000000E+00  0.45593999997E+02  0.45594000000E+02  0.51100000000E-03 0.  1.
         11   -1    0    0    0    0 -0.00000000000E+00 -0.00000000000E+00 -0.45593999997E+02  0.45594000000E+02  0.51100000000E-03 0. -1.
    9900012    2    1    2    0    0  0.33351962456E+01  0.28780100750E+02 -0.13315527576E+02  0.59301937091E+02  0.49999987350E+02 0.  0.
        -12    1    1    2    0    0 -0.33351962456E+01 -0.28780100750E+02  0.13315527576E+02  0.31886062909E+02  0.00000000000E+00 0.  1.
         11    1    3    3    0    0 -0.24562167874E+01  0.15732051954E+02 -0.98621446790E+01  0.18729451608E+02  0.51100000000E-03 0. -1.
        -11    1    3    3    0    0  0.62907719714E+01  0.24580879108E+02  0.55015587484E+01  0.25962676646E+02  0.51100000000E-03 0.  1.
        -12    1    3    3    0    0 -0.49935893845E+00 -0.11532830313E+02 -0.89549416459E+01  0.14609808837E+02  0.00000000000E+00 0.  1.
</event>
<event>
 7    1  0.1220856E-011  0.5930192E+02  0.7816164E-02  0.1266605E+00
        -11   -1    0    0    0    0  0.00000000000E+00  0.00000000000E+00  0.45593999997E+02  0.45594000000E+02  0.51100000000E-03 0. -1.
         11   -1    0    0    0    0 -0.00000000000E+00 -0.00000000000E+00 -0.45593999997E+02  0.45594000000E+02  0.51100000000E-03 0.  1.
    9900012    2    1    2    0    0  0.23729016808E+02 -0.20257056207E+02  0.65808252145E+01  0.59301924272E+02  0.49999963970E+02 0.  0.
        -12    1    1    2    0    0 -0.23729016808E+02  0.20257056207E+02 -0.65808252145E+01  0.31886075728E+02  0.00000000000E+00 0.  1.
         11    1    3    3    0    0  0.14655636738E+02  0.11713154380E+02 -0.67431523520E+01  0.19936292976E+02  0.51100000000E-03 0. -1.
        -11    1    3    3    0    0  0.22661841541E+01 -0.54004461044E+01 -0.38461423755E+01  0.70066554204E+01  0.51100000000E-03 0.  1.
         12    1    3    3    0    0  0.68071959157E+01 -0.26569764482E+02  0.17170119942E+02  0.32358975875E+02  0.00000000000E+00 0. -1.
</event>
<event>
 7    1  0.1220856E-011  0.5930194E+02  0.7816164E-02  0.1266605E+00
        -11   -1    0    0    0    0  0.00000000000E+00  0.00000000000E+00  0.45593999997E+02  0.45594000000E+02  0.51100000000E-03 0.  1.
         11   -1    0    0    0    0 -0.00000000000E+00 -0.00000000000E+00 -0.45593999997E+02  0.45594000000E+02  0.51100000000E-03 0. -1.
    9900012    2    1    2    0    0  0.25362045567E+02 -0.83873550635E+00 -0.19307608047E+02  0.59301944097E+02  0.50000000126E+02 0.  0.
        -12    1    1    2    0    0 -0.25362045567E+02  0.83873550635E+00  0.19307608047E+02  0.31886055903E+02  0.00000000000E+00 0.  1.
         11    1    3    3    0    0 -0.47041570915E+01  0.53431836863E+01  0.21996087561E+01  0.74509720700E+01  0.51100000000E-03 0. -1.
        -11    1    3    3    0    0  0.78650014504E+01 -0.18978415520E+02 -0.43117982365E+01  0.20991191195E+02  0.51100000000E-03 0.  1.
        -12    1    3    3    0    0  0.22201201208E+02  0.12796496328E+02 -0.17195418566E+02  0.30859780832E+02  0.00000000000E+00 0.  1.
</event>
<event>
 7    1  0.1220856E-011  0.5930198E+02  0.7816164E-02  0.1266605E+00
        -11   -1    0    0    0    0  0.00000000000E+00  0.00000000000E+00  0.45593999997E+02  0.45594000000E+02  0.51100000000E-03 0.  1.
         11   -1    0    0    0    0 -0.00000000000E+00 -0.00000000000E+00 -0.45593999997E+02  0.45594000000E+02  0.51100000000E-03 0. -1.
    9900012    2    1    2    0    0 -0.13796715377E+02 -0.16498187954E+01 -0.28699249159E+02  0.59301981755E+02  0.50000068805E+02 0.  0.
        -12    1    1    2    0    0  0.13796715377E+02  0.16498187954E+01  0.28699249159E+02  0.31886018245E+02  0.00000000000E+00 0.  1.
         11    1    3    3    0    0 -0.21549171591E+01 -0.18830219979E+01  0.10599663613E+02  0.10979176143E+02  0.51100000000E-03 0. -1.
        -11    1    3    3    0    0 -0.11309727856E+01 -0.80807465439E+01 -0.16029130212E+01  0.83154611756E+01  0.51100000000E-03 0.  1.
         12    1    3    3    0    0 -0.10510825433E+02  0.83139497464E+01 -0.37695999750E+02  0.40007344436E+02  0.00000000000E+00 0. -1.
</event>
<event>
 7    1  0.1220856E-011  0.5930195E+02  0.7816164E-02  0.1266605E+00
        -11   -1    0    0    0    0  0.00000000000E+00  0.00000000000E+00  0.45593999997E+02  0.45594000000E+02  0.51100000000E-03 0.  1.
         11   -1    0    0    0    0 -0.00000000000E+00 -0.00000000000E+00 -0.45593999997E+02  0.45594000000E+02  0.51100000000E-03 0. -1.
    9900012    2    1    2    0    0 -0.10189850449E+02  0.14252616097E+02 -0.26641129177E+02  0.59301954751E+02  0.50000019557E+02 0.  0.
        -12    1    1    2    0    0  0.10189850449E+02 -0.14252616097E+02  0.26641129177E+02  0.31886045249E+02  0.00000000000E+00 0.  1.
         11    1    3    3    0    0  0.65129958520E+01 -0.81392946895E+01 -0.46530493549E+01  0.11415695405E+02  0.51100000000E-03 0. -1.
        -11    1    3    3    0    0  0.39348741686E+01  0.21524775317E+02 -0.11067518082E+02  0.24521197849E+02  0.51100000000E-03 0.  1.
         12    1    3    3    0    0 -0.20637720470E+02  0.86713546919E+00 -0.10920561740E+02  0.23365061498E+02  0.00000000000E+00 0. -1.
</event>
<event>
 7    1  0.1220856E-011  0.5930191E+02  0.7816164E-02  0.1266605E+00
        -11   -1    0    0    0    0  0.00000000000E+00  0.00000000000E+00  0.45593999997E+02  0.45594000000E+02  0.51100000000E-03 0. -1.
         11   -1    0    0    0    0 -0.00000000000E+00 -0.00000000000E+00 -0.45593999997E+02  0.45594000000E+02  0.51100000000E-03 0.  1.
    9900012    2    1    2    0    0  0.18066449564E+02  0.24961632960E+02  0.82001715666E+01  0.59301913166E+02  0.49999943715E+02 0.  0.
        -12    1    1    2    0    0 -0.18066449564E+02 -0.24961632960E+02 -0.82001715666E+01  0.31886086834E+02  0.00000000000E+00 0.  1.
         11    1    3    3    0    0  0.10991226202E+02  0.62142116712E+01 -0.63120126451E+01  0.14116124964E+02  0.51100000000E-03 0. -1.
        -11    1    3    3    0    0  0.18485970994E+02  0.28678051331E+01  0.17243220400E+02  0.25441778238E+02  0.51100000000E-03 0.  1.
        -12    1    3    3    0    0 -0.11410747632E+02  0.15879616156E+02 -0.27310361886E+01  0.19744009963E+02  0.00000000000E+00 0.  1.
</event>
<event>
 7    1  0.1220856E-011  0.5930194E+02  0.7816164E-02  0.1266605E+00
        -11   -1    0    0    0    0  0.00000000000E+00  0.00000000000E+00  0.45593999997E+02  0.45594000000E+02  0.51100000000E-03 0. -1.
         11   -1    0    0    0    0 -0.00000000000E+00 -0.00000000000E+00 -0.45593999997E+02  0.45594000000E+02  0.51100000000E-03 0.  1.
    9900012    2    1    2    0    0 -0.12543041995E+02  0.22008299885E+02  0.19365624640E+02  0.59301943737E+02  0.49999999470E+02 0.  0.
        -12    1    1    2    0    0  0.12543041995E+02 -0.22008299885E+02 -0.19365624640E+02  0.31886056263E+02  0.00000000000E+00 0.  1.
         11    1    3    3    0    0 -0.11967987802E+02  0.20371477870E+02  0.27796581974E+02  0.36481225477E+02  0.51100000000E-03 0. -1.
        -11    1    3    3    0    0 -0.49042359218E+01  0.94895469227E+01 -0.25350378226E+00  0.10684909696E+02  0.51100000000E-03 0.  1.
         12    1    3    3    0    0  0.43291817280E+01 -0.78527249078E+01 -0.81774535517E+01  0.12135808564E+02  0.00000000000E+00 0. -1.
</event>
<event>
 7    1  0.1220856E-011  0.5930186E+02  0.7816164E-02  0.1266605E+00
        -11   -1    0    0    0    0  0.00000000000E+00  0.00000000000E+00  0.45593999997E+02  0.45594000000E+02  0.51100000000E-03 0.  1.
         11   -1    0    0    0    0 -0.00000000000E+00 -0.00000000000E+00 -0.45593999997E+02  0.45594000000E+02  0.51100000000E-03 0. -1.
    9900012    2    1    2    0    0 -0.28600510353E+02  0.22690248702E+01  0.13913601753E+02  0.59301859123E+02  0.49999845154E+02 0.  0.
        -12    1    1    2    0    0  0.28600510353E+02 -0.22690248702E+01 -0.13913601753E+02  0.31886140877E+02  0.00000000000E+00 0.  1.
         11    1    3    3    0    0 -0.43433517665E+01 -0.15710199960E+02  0.24985673726E+01  0.16489934097E+02  0.51100000000E-03 0. -1.
        -11    1    3    3    0    0 -0.88214706444E+01 -0.62271428451E+01  0.88997799721E+01  0.13992917357E+02  0.51100000000E-03 0.  1.
        -12    1    3    3    0    0 -0.15435687942E+02  0.24206367676E+02  0.25152544079E+01  0.28819007669E+02  0.00000000000E+00 0.  1.
</event>
<event>
 7    1  0.1220856E-011  0.5930194E+02  0.7816164E-02  0.1266605E+00
        -11   -1    0    0    0    0  0.00000000000E+00  0.00000000000E+00  0.45593999997E+02  0.45594000000E+02  0.51100000000E-03 0. -1.
         11   -1    0    0    0    0 -0.00000000000E+00 -0.00000000000E+00 -0.45593999997E+02  0.45594000000E+02  0.51100000000E-03 0.  1.
    9900012    2    1    2    0    0 -0.15572924205E+02  0.19035175901E+02  0.20294502501E+02  0.59301941579E+02  0.49999995534E+02 0.  0.
        -12    1    1    2    0    0  0.15572924205E+02 -0.19035175901E+02 -0.20294502501E+02  0.31886058421E+02  0.00000000000E+00 0.  1.
         11    1    3    3    0    0 -0.25313378078E+02  0.33607372991E+01  0.48951031096E+01  0.26000455758E+02  0.51100000000E-03 0. -1.
        -11    1    3    3    0    0  0.79215276947E+00 -0.37850921148E+01 -0.31341492205E+01  0.49776821840E+01  0.51100000000E-03 0.  1.
         12    1    3    3    0    0  0.89483011032E+01  0.19459530717E+02  0.18533548612E+02  0.28323803637E+02  0.00000000000E+00 0. -1.
</event>
<event>
 7    1  0.1220856E-011  0.5930194E+02  0.7816164E-02  0.1266605E+00
        -11   -1    0    0    0    0  0.00000000000E+00  0.00000000000E+00  0.45593999997E+02  0.45594000000E+02  0.51100000000E-03 0.  1.
         11   -1    0    0    0    0 -0.00000000000E+00 -0.00000000000E+00 -0.45593999997E+02  0.45594000000E+02  0.51100000000E-03 0. -1.
    9900012    2    1    2    0    0  0.63855657630E+01 -0.17824661031E+02 -0.25655936293E+02  0.59301936304E+02  0.49999985913E+02 0.  0.
        -12    1    1    2    0    0 -0.63855657630E+01  0.17824661031E+02  0.25655936293E+02  0.31886063696E+02  0.00000000000E+00 0.  1.
         11    1    3    3    0    0 -0.13937931211E+02  0.19307036400E+01 -0.16934775716E+02  0.22017724037E+02  0.51100000000E-03 0. -1.
        -11    1    3    3    0    0  0.48865966179E+01 -0.13836797097E+02  0.53045195377E+01  0.15603644068E+02  0.51100000000E-03 0.  1.
        -12    1    3    3    0    0  0.15436900356E+02 -0.59185675736E+01 -0.14025680115E+02  0.21680568199E+02  0.00000000000E+00 0.  1.
</event>
<event>
 7    1  0.1220856E-011  0.5930179E+02  0.7816164E-02  0.1266605E+00
        -11   -1    0    0    0    0  0.00000000000E+00  0.00000000000E+00  0.45593999997E+02  0.45594000000E+02  0.51100000000E-03 0.  1.
         11   -1    0    0    0    0 -0.00000000000E+00 -0.00000000000E+00 -0.45593999997E+02  0.45594000000E+02  0.51100000000E-03 0. -1.
    9900012    2    1    2    0    0 -0.22787128976E+02  0.60997384945E+01 -0.21453910925E+02  0.59301790588E+02  0.49999720162E+02 0.  0.
        -12    1    1    2    0    0  0.22787128976E+02 -0.60997384945E+01  0.21453910925E+02  0.31886209412E+02  0.00000000000E+00 0.  1.
         11    1    3    3    0    0 -0.83321221236E+01  0.55838250200E+01 -0.21093951067E+02  0.23357185893E+02  0.51100000000E-03 0. -1.
        -11    1    3    3    0    0 -0.18366206842E+02  0.72557117536E+01 -0.11117013906E+02  0.22661661573E+02  0.51100000000E-03 0.  1.
        -12    1    3    3    0    0  0.39111999893E+01 -0.67397982792E+01  0.10757054048E+02  0.13282943122E+02  0.00000000000E+00 0.  1.
</event>
<event>
 7    1  0.1220856E-011  0.5930194E+02  0.7816164E-02  0.1266605E+00
        -11   -1    0    0    0    0  0.00000000000E+00  0.00000000000E+00  0.45593999997E+02  0.45594000000E+02  0.51100000000E-03 0.  1.
         11   -1    0    0    0    0 -0.00000000000E+00 -0.00000000000E+00 -0.45593999997E+02  0.45594000000E+02  0.51100000000E-03 0. -1.
    9900012    2    1    2    0    0  0.99062886672E+01 -0.86928625666E+01 -0.29034816009E+02  0.59301937913E+02  0.49999988848E+02 0.  0.
        -12    1    1    2    0    0 -0.99062886672E+01  0.86928625666E+01  0.29034816009E+02  0.31886062087E+02  0.00000000000E+00 0.  1.
         11    1    3    3    0    0  0.21570563799E+01 -0.11096027753E+02  0.42154491551E+01  0.12064192305E+02  0.51100000000E-03 0. -1.
        -11    1    3    3    0    0 -0.99161428978E+01  0.76787551355E+00 -0.46075625869E+00  0.99564963399E+01  0.51100000000E-03 0.  1.
        -12    1    3    3    0    0  0.17665375185E+02  0.16352896731E+01 -0.32789508905E+02  0.37281249268E+02  0.00000000000E+00 0.  1.
</event>
<event>
 7    1  0.1220856E-011  0.5930195E+02  0.7816164E-02  0.1266605E+00
        -11   -1    0    0    0    0  0.00000000000E+00  0.00000000000E+00  0.45593999997E+02  0.45594000000E+02  0.51100000000E-03 0. -1.
         11   -1    0    0    0    0 -0.00000000000E+00 -0.00000000000E+00 -0.45593999997E+02  0.45594000000E+02  0.51100000000E-03 0.  1.
    9900012    2    1    2    0    0 -0.27458031755E+00 -0.29780225243E+02 -0.11392221189E+02  0.59301954251E+02  0.50000018645E+02 0.  0.
        -12    1    1    2    0    0  0.27458031755E+00  0.29780225243E+02  0.11392221189E+02  0.31886045749E+02  0.00000000000E+00 0.  1.
         11    1    3    3    0    0 -0.14539250870E+01  0.36996728055E+01 -0.18313915947E+02  0.18740357377E+02  0.51100000000E-03 0. -1.
        -11    1    3    3    0    0 -0.36428694073E+01  0.44272433952E+00  0.50557539608E+01  0.62471714185E+01  0.51100000000E-03 0.  1.
         12    1    3    3    0    0  0.48222141767E+01 -0.33922622389E+02  0.18659407979E+01  0.34314425455E+02  0.00000000000E+00 0. -1.
</event>
<event>
 7    1  0.1220856E-011  0.5930191E+02  0.7816164E-02  0.1266605E+00
        -11   -1    0    0    0    0  0.00000000000E+00  0.00000000000E+00  0.45593999997E+02  0.45594000000E+02  0.51100000000E-03 0.  1.
         11   -1    0    0    0    0 -0.00000000000E+00 -0.00000000000E+00 -0.45593999997E+02  0.45594000000E+02  0.51100000000E-03 0. -1.
    9900012    2    1    2    0    0  0.53152072150E+01  0.21879727620E+01 -0.31363736325E+02  0.59301911987E+02  0.49999941565E+02 0.  0.
        -12    1    1    2    0    0 -0.53152072150E+01 -0.21879727620E+01  0.31363736325E+02  0.31886088013E+02  0.00000000000E+00 0.  1.
         11    1    3    3    0    0 -0.50563316430E+01 -0.80099813164E+01 -0.10598799694E+02  0.14214810783E+02  0.51100000000E-03 0.  1.
        -11    1    3    3    0    0 -0.14335186768E+01  0.20872969315E+02 -0.28369256361E+01  0.21113596831E+02  0.51100000000E-03 0. -1.
         12    1    3    3    0    0  0.11805057535E+02 -0.10675015236E+02 -0.17928010995E+02  0.23973504373E+02  0.00000000000E+00 0. -1.
</event>
<event>
 7    1  0.1220856E-011  0.5930194E+02  0.7816164E-02  0.1266605E+00
        -11   -1    0    0    0    0  0.00000000000E+00  0.00000000000E+00  0.45593999997E+02  0.45594000000E+02  0.51100000000E-03 0.  1.
         11   -1    0    0    0    0 -0.00000000000E+00 -0.00000000000E+00 -0.45593999997E+02  0.45594000000E+02  0.51100000000E-03 0. -1.
    9900012    2    1    2    0    0  0.83665348599E+00 -0.94380976108E+01 -0.30445746087E+02  0.59301935170E+02  0.49999983845E+02 0.  0.
        -12    1    1    2    0    0 -0.83665348599E+00  0.94380976108E+01  0.30445746087E+02  0.31886064830E+02  0.00000000000E+00 0.  1.
         11    1    3    3    0    0  0.24647750712E+01  0.92558455849E+01 -0.11513705560E+02  0.14977022722E+02  0.51100000000E-03 0. -1.
        -11    1    3    3    0    0 -0.97443596476E+01  0.53096002210E+01 -0.15037500045E+02  0.18688788278E+02  0.51100000000E-03 0.  1.
        -12    1    3    3    0    0  0.81162380624E+01 -0.24003543417E+02 -0.38945404824E+01  0.25636124169E+02  0.00000000000E+00 0.  1.
</event>
<event>
 7    1  0.1220856E-011  0.5930194E+02  0.7816164E-02  0.1266605E+00
        -11   -1    0    0    0    0  0.00000000000E+00  0.00000000000E+00  0.45593999997E+02  0.45594000000E+02  0.51100000000E-03 0.  1.
         11   -1    0    0    0    0 -0.00000000000E+00 -0.00000000000E+00 -0.45593999997E+02  0.45594000000E+02  0.51100000000E-03 0. -1.
    9900012    2    1    2    0    0 -0.20198208627E+01  0.26827090586E+01 -0.31708736367E+02  0.59301944016E+02  0.49999999979E+02 0.  0.
        -12    1    1    2    0    0  0.20198208627E+01 -0.26827090586E+01  0.31708736367E+02  0.31886055984E+02  0.00000000000E+00 0.  1.
         11    1    3    3    0    0  0.12244781008E+02  0.99826295303E+01 -0.12423938200E+02  0.20098303285E+02  0.51100000000E-03 0. -1.
        -11    1    3    3    0    0 -0.13725050831E+01  0.11347264387E+02 -0.56618419890E+01  0.12755415879E+02  0.51100000000E-03 0.  1.
         12    1    3    3    0    0 -0.12892096788E+02 -0.18647184859E+02 -0.13622956178E+02  0.26448224851E+02  0.00000000000E+00 0. -1.
</event>
<event>
 7    1  0.1220856E-011  0.5930198E+02  0.7816164E-02  0.1266605E+00
        -11   -1    0    0    0    0  0.00000000000E+00  0.00000000000E+00  0.45593999997E+02  0.45594000000E+02  0.51100000000E-03 0.  1.
         11   -1    0    0    0    0 -0.00000000000E+00 -0.00000000000E+00 -0.45593999997E+02  0.45594000000E+02  0.51100000000E-03 0. -1.
    9900012    2    1    2    0    0 -0.19957987898E+02 -0.20485715759E+02 -0.14097247737E+02  0.59301980731E+02  0.50000066937E+02 0.  0.
        -12    1    1    2    0    0  0.19957987898E+02  0.20485715759E+02  0.14097247737E+02  0.31886019269E+02  0.00000000000E+00 0.  1.
         11    1    3    3    0    0 -0.19707352070E+02 -0.25938717288E+02 -0.14971532074E+02  0.35851688287E+02  0.51100000000E-03 0. -1.
        -11    1    3    3    0    0 -0.11308479072E+02  0.16574199536E+01  0.23439154544E+01  0.11667162455E+02  0.51100000000E-03 0.  1.
         12    1    3    3    0    0  0.11057843244E+02  0.37955815759E+01 -0.14696311183E+01  0.11783129989E+02  0.00000000000E+00 0. -1.
</event>
<event>
 7    1  0.1220856E-011  0.5930193E+02  0.7816164E-02  0.1266605E+00
        -11   -1    0    0    0    0  0.00000000000E+00  0.00000000000E+00  0.45593999997E+02  0.45594000000E+02  0.51100000000E-03 0.  1.
         11   -1    0    0    0    0 -0.00000000000E+00 -0.00000000000E+00 -0.45593999997E+02  0.45594000000E+02  0.51100000000E-03 0. -1.
    9900012    2    1    2    0    0  0.11063856646E+02  0.13066125149E+02 -0.26899603154E+02  0.59301934076E+02  0.49999981850E+02 0.  0.
        -12    1    1    2    0    0 -0.11063856646E+02 -0.13066125149E+02  0.26899603154E+02  0.31886065924E+02  0.00000000000E+00 0.  1.
         11    1    3    3    0    0  0.16191948725E+02  0.13821147016E+02 -0.15606978949E+02  0.26396611535E+02  0.51100000000E-03 0. -1.
        -11    1    3    3    0    0 -0.14071197152E+00 -0.34337348865E+01 -0.21209602998E+02  0.21486218716E+02  0.51100000000E-03 0.  1.
         12    1    3    3    0    0 -0.49873801072E+01  0.26787130192E+01  0.99169787934E+01  0.11419103825E+02  0.00000000000E+00 0. -1.
</event>
<event>
 7    1  0.1220856E-011  0.5930195E+02  0.7816164E-02  0.1266605E+00
        -11   -1    0    0    0    0  0.00000000000E+00  0.00000000000E+00  0.45593999997E+02  0.45594000000E+02  0.51100000000E-03 0. -1.
         11   -1    0    0    0    0 -0.00000000000E+00 -0.00000000000E+00 -0.45593999997E+02  0.45594000000E+02  0.51100000000E-03 0.  1.
    9900012    2    1    2    0    0 -0.20037948794E+02  0.39004255471E+01  0.24494646554E+02  0.59301946291E+02  0.50000004128E+02 0.  0.
        -12    1    1    2    0    0  0.20037948794E+02 -0.39004255471E+01 -0.24494646554E+02  0.31886053709E+02  0.00000000000E+00 0.  1.
         11    1    3    3    0    0  0.68653370976E+00  0.86772848983E+01  0.85590661294E+00  0.87463808591E+01  0.51100000000E-03 0. -1.
        -11    1    3    3    0    0 -0.87309064908E+01  0.14386554709E+01  0.32970512104E+02  0.34137268877E+02  0.51100000000E-03 0.  1.
        -12    1    3    3    0    0 -0.11993576013E+02 -0.62155148221E+01 -0.93317721631E+01  0.16418296555E+02  0.00000000000E+00 0.  1.
</event>
<event>
 7    1  0.1220856E-011  0.5930195E+02  0.7816164E-02  0.1266605E+00
        -11   -1    0    0    0    0  0.00000000000E+00  0.00000000000E+00  0.45593999997E+02  0.45594000000E+02  0.51100000000E-03 0.  1.
         11   -1    0    0    0    0 -0.00000000000E+00 -0.00000000000E+00 -0.45593999997E+02  0.45594000000E+02  0.51100000000E-03 0. -1.
    9900012    2    1    2    0    0 -0.62960829666E+01  0.82604795568E+01 -0.30147042599E+02  0.59301947238E+02  0.50000005855E+02 0.  0.
        -12    1    1    2    0    0  0.62960829666E+01 -0.82604795568E+01  0.30147042599E+02  0.31886052762E+02  0.00000000000E+00 0.  1.
         11    1    3    3    0    0 -0.21484088415E+00  0.13629855779E+02 -0.79940990072E+01  0.15802681556E+02  0.51100000000E-03 0. -1.
        -11    1    3    3    0    0  0.45405730423E+01  0.14338824079E+02 -0.84948604466E+01  0.17273718007E+02  0.51100000000E-03 0.  1.
        -12    1    3    3    0    0 -0.10621815125E+02 -0.19708200301E+02 -0.13658083146E+02  0.26225547675E+02  0.00000000000E+00 0.  1.
</event>
<event>
 7    1  0.1220856E-011  0.5930196E+02  0.7816164E-02  0.1266605E+00
        -11   -1    0    0    0    0  0.00000000000E+00  0.00000000000E+00  0.45593999997E+02  0.45594000000E+02  0.51100000000E-03 0.  1.
         11   -1    0    0    0    0 -0.00000000000E+00 -0.00000000000E+00 -0.45593999997E+02  0.45594000000E+02  0.51100000000E-03 0. -1.
    9900012    2    1    2    0    0 -0.13635411290E+02  0.19053675973E+02 -0.21627590159E+02  0.59301958145E+02  0.50000025746E+02 0.  0.
        -12    1    1    2    0    0  0.13635411290E+02 -0.19053675973E+02  0.21627590159E+02  0.31886041855E+02  0.00000000000E+00 0.  1.
         11    1    3    3    0    0  0.69828851942E+01 -0.11684196047E+01 -0.21153923032E+02  0.22307271234E+02  0.51100000000E-03 0. -1.
        -11    1    3    3    0    0 -0.69291431151E+01  0.18111956121E+02 -0.82908688164E+01  0.21090151370E+02  0.51100000000E-03 0.  1.
        -12    1    3    3    0    0 -0.13689153369E+02  0.21101394570E+01  0.78172016898E+01  0.15904535540E+02  0.00000000000E+00 0.  1.
</event>
<event>
 7    1  0.1220856E-011  0.5930191E+02  0.7816164E-02  0.1266605E+00
        -11   -1    0    0    0    0  0.00000000000E+00  0.00000000000E+00  0.45593999997E+02  0.45594000000E+02  0.51100000000E-03 0.  1.
         11   -1    0    0    0    0 -0.00000000000E+00 -0.00000000000E+00 -0.45593999997E+02  0.45594000000E+02  0.51100000000E-03 0. -1.
    9900012    2    1    2    0    0 -0.12859716381E+02  0.22668796602E+02 -0.18370516773E+02  0.59301913202E+02  0.49999943782E+02 0.  0.
        -12    1    1    2    0    0  0.12859716381E+02 -0.22668796602E+02  0.18370516773E+02  0.31886086798E+02  0.00000000000E+00 0.  1.
         11    1    3    3    0    0  0.55236110958E+01  0.20287397432E+02  0.13401863000E+00  0.21026334330E+02  0.51100000000E-03 0. -1.
        -11    1    3    3    0    0 -0.20916939728E+01 -0.11634598196E+02 -0.46331138458E+01  0.12696645345E+02  0.51100000000E-03 0.  1.
        -12    1    3    3    0    0 -0.16291633504E+02  0.14015997365E+02 -0.13871421557E+02  0.25578933527E+02  0.00000000000E+00 0.  1.
</event>
<event>
 7    1  0.1220856E-011  0.5930191E+02  0.7816164E-02  0.1266605E+00
        -11   -1    0    0    0    0  0.00000000000E+00  0.00000000000E+00  0.45593999997E+02  0.45594000000E+02  0.51100000000E-03 0. -1.
         11   -1    0    0    0    0 -0.00000000000E+00 -0.00000000000E+00 -0.45593999997E+02  0.45594000000E+02  0.51100000000E-03 0.  1.
    9900012    2    1    2    0    0 -0.11794202882E+01  0.20677271168E+02  0.24244223615E+02  0.59301906575E+02  0.49999931695E+02 0.  0.
        -12    1    1    2    0    0  0.11794202882E+01 -0.20677271168E+02 -0.24244223615E+02  0.31886093425E+02  0.00000000000E+00 0.  1.
         11    1    3    3    0    0 -0.95205573503E+01 -0.55657940232E+00  0.48930018602E+01  0.10718780731E+02  0.51100000000E-03 0.  1.
        -11    1    3    3    0    0 -0.71641848033E+01  0.26428350600E+02  0.16542923801E+02  0.31991429906E+02  0.51100000000E-03 0. -1.
        -12    1    3    3    0    0  0.15505321865E+02 -0.51945000289E+01  0.28082979545E+01  0.16591695938E+02  0.00000000000E+00 0.  1.
</event>
<event>
 7    1  0.1220856E-011  0.5930195E+02  0.7816164E-02  0.1266605E+00
        -11   -1    0    0    0    0  0.00000000000E+00  0.00000000000E+00  0.45593999997E+02  0.45594000000E+02  0.51100000000E-03 0.  1.
         11   -1    0    0    0    0 -0.00000000000E+00 -0.00000000000E+00 -0.45593999997E+02  0.45594000000E+02  0.51100000000E-03 0. -1.
    9900012    2    1    2    0    0  0.43112918998E+01  0.30909169141E+02 -0.65388142983E+01  0.59301951840E+02  0.50000014248E+02 0.  0.
        -12    1    1    2    0    0 -0.43112918998E+01 -0.30909169141E+02  0.65388142983E+01  0.31886048160E+02  0.00000000000E+00 0.  1.
         11    1    3    3    0    0  0.20801769591E+02  0.17079441667E+02 -0.98207187920E+01  0.28650784695E+02  0.51100000000E-03 0. -1.
        -11    1    3    3    0    0  0.16708562517E+01 -0.96250107693E+00 -0.53509573523E+01  0.56877863694E+01  0.51100000000E-03 0.  1.
        -12    1    3    3    0    0 -0.18161333943E+02  0.14792228551E+02  0.86328618460E+01  0.24963380775E+02  0.00000000000E+00 0.  1.
</event>
<event>
 7    1  0.1220856E-011  0.5930163E+02  0.7816164E-02  0.1266606E+00
        -11   -1    0    0    0    0  0.00000000000E+00  0.00000000000E+00  0.45593999997E+02  0.45594000000E+02  0.51100000000E-03 0. -1.
         11   -1    0    0    0    0 -0.00000000000E+00 -0.00000000000E+00 -0.45593999997E+02  0.45594000000E+02  0.51100000000E-03 0.  1.
    9900012    2    1    2    0    0  0.12749436689E+02  0.20023875553E+02  0.21289363419E+02  0.59301627945E+02  0.49999423537E+02 0.  0.
        -12    1    1    2    0    0 -0.12749436689E+02 -0.20023875553E+02 -0.21289363419E+02  0.31886372055E+02  0.00000000000E+00 0.  1.
         11    1    3    3    0    0  0.18623506949E+00  0.91466169381E+01  0.12846165396E+02  0.15770835442E+02  0.51100000000E-03 0. -1.
        -11    1    3    3    0    0 -0.10328137675E+02 -0.65014678007E+01  0.83546605148E+01  0.14789856794E+02  0.51100000000E-03 0.  1.
        -12    1    3    3    0    0  0.22891339295E+02  0.17378726416E+02  0.88537508411E-01  0.28740935709E+02  0.00000000000E+00 0.  1.
</event>
<event>
 7    1  0.1220856E-011  0.5930202E+02  0.7816164E-02  0.1266605E+00
        -11   -1    0    0    0    0  0.00000000000E+00  0.00000000000E+00  0.45593999997E+02  0.45594000000E+02  0.51100000000E-03 0. -1.
         11   -1    0    0    0    0 -0.00000000000E+00 -0.00000000000E+00 -0.45593999997E+02  0.45594000000E+02  0.51100000000E-03 0.  1.
    9900012    2    1    2    0    0 -0.26374664324E+02 -0.17105911136E+02 -0.53367394505E+01  0.59302017155E+02  0.50000133367E+02 0.  0.
        -12    1    1    2    0    0  0.26374664324E+02  0.17105911136E+02  0.53367394505E+01  0.31885982845E+02  0.00000000000E+00 0.  1.
         11    1    3    3    0    0 -0.13153578340E+02  0.25802544727E+00  0.12569430069E+02  0.18195432746E+02  0.51100000000E-03 0. -1.
        -11    1    3    3    0    0  0.72460622809E+01  0.24444551565E+01 -0.36581927484E+00  0.76560174761E+01  0.51100000000E-03 0.  1.
         12    1    3    3    0    0 -0.20467148265E+02 -0.19808391740E+02 -0.17540350245E+02  0.33450566933E+02  0.00000000000E+00 0. -1.
</event>
<event>
 7    1  0.1220856E-011  0.5930188E+02  0.7816164E-02  0.1266605E+00
        -11   -1    0    0    0    0  0.00000000000E+00  0.00000000000E+00  0.45593999997E+02  0.45594000000E+02  0.51100000000E-03 0.  1.
         11   -1    0    0    0    0 -0.00000000000E+00 -0.00000000000E+00 -0.45593999997E+02  0.45594000000E+02  0.51100000000E-03 0. -1.
    9900012    2    1    2    0    0  0.22401860535E+02 -0.17667928646E+02 -0.14238180143E+02  0.59301877127E+02  0.49999877989E+02 0.  0.
        -12    1    1    2    0    0 -0.22401860535E+02  0.17667928646E+02  0.14238180143E+02  0.31886122873E+02  0.00000000000E+00 0.  1.
         11    1    3    3    0    0  0.83757678797E+01 -0.10461984714E+02  0.38395124231E+01  0.13940891924E+02  0.51100000000E-03 0. -1.
        -11    1    3    3    0    0  0.80315455973E+00 -0.21207799599E+02 -0.42295909530E+01  0.21640361850E+02  0.51100000000E-03 0.  1.
         12    1    3    3    0    0  0.13222938095E+02  0.14001855667E+02 -0.13848101613E+02  0.23720623354E+02  0.00000000000E+00 0. -1.
</event>
<event>
 7    1  0.1220856E-011  0.5930190E+02  0.7816164E-02  0.1266605E+00
        -11   -1    0    0    0    0  0.00000000000E+00  0.00000000000E+00  0.45593999997E+02  0.45594000000E+02  0.51100000000E-03 0. -1.
         11   -1    0    0    0    0 -0.00000000000E+00 -0.00000000000E+00 -0.45593999997E+02  0.45594000000E+02  0.51100000000E-03 0.  1.
    9900012    2    1    2    0    0  0.29596658723E+02  0.15032342232E+01  0.11768674469E+02  0.59301896138E+02  0.49999912661E+02 0.  0.
        -12    1    1    2    0    0 -0.29596658723E+02 -0.15032342232E+01 -0.11768674469E+02  0.31886103862E+02  0.00000000000E+00 0.  1.
         11    1    3    3    0    0  0.16601174342E+02  0.12385654993E+02  0.22296981590E+02  0.30432857694E+02  0.51100000000E-03 0. -1.
        -11    1    3    3    0    0  0.67489278863E+00 -0.62989108166E+01  0.53241800164E+01  0.82751828294E+01  0.51100000000E-03 0.  1.
        -12    1    3    3    0    0  0.12320591593E+02 -0.45835099527E+01 -0.15852487137E+02  0.20593855615E+02  0.00000000000E+00 0.  1.
</event>
<event>
 7    1  0.1220856E-011  0.5930197E+02  0.7816164E-02  0.1266605E+00
        -11   -1    0    0    0    0  0.00000000000E+00  0.00000000000E+00  0.45593999997E+02  0.45594000000E+02  0.51100000000E-03 0. -1.
         11   -1    0    0    0    0 -0.00000000000E+00 -0.00000000000E+00 -0.45593999997E+02  0.45594000000E+02  0.51100000000E-03 0.  1.
    9900012    2    1    2    0    0  0.70660176572E+01 -0.17449649601E+02  0.25735187722E+02  0.59301972279E+02  0.50000051523E+02 0.  0.
        -12    1    1    2    0    0 -0.70660176572E+01  0.17449649601E+02 -0.25735187722E+02  0.31886027721E+02  0.00000000000E+00 0.  1.
         11    1    3    3    0    0  0.49092411463E+01  0.24028679011E+00  0.75465169544E+01  0.90060149222E+01  0.51100000000E-03 0. -1.
        -11    1    3    3    0    0 -0.54453980942E+01 -0.18389067134E+01 -0.13156739251E+02  0.14357357915E+02  0.51100000000E-03 0.  1.
         12    1    3    3    0    0  0.76021746052E+01 -0.15851029678E+02  0.31345410019E+02  0.35938599442E+02  0.00000000000E+00 0. -1.
</event>
<event>
 7    1  0.1220856E-011  0.5930195E+02  0.7816164E-02  0.1266605E+00
        -11   -1    0    0    0    0  0.00000000000E+00  0.00000000000E+00  0.45593999997E+02  0.45594000000E+02  0.51100000000E-03 0. -1.
         11   -1    0    0    0    0 -0.00000000000E+00 -0.00000000000E+00 -0.45593999997E+02  0.45594000000E+02  0.51100000000E-03 0.  1.
    9900012    2    1    2    0    0 -0.10224907491E+02  0.29564249186E+02 -0.61746663184E+01  0.59301951840E+02  0.50000014248E+02 0.  0.
        -12    1    1    2    0    0  0.10224907491E+02 -0.29564249186E+02  0.61746663184E+01  0.31886048160E+02  0.00000000000E+00 0.  1.
         11    1    3    3    0    0 -0.73546421532E+01  0.55469763284E+01  0.61907177311E+01  0.11098860026E+02  0.51100000000E-03 0. -1.
        -11    1    3    3    0    0 -0.38754461224E+01 -0.60702837772E+01  0.88234745534E+01  0.11389518481E+02  0.51100000000E-03 0.  1.
        -12    1    3    3    0    0  0.10051807847E+01  0.30087556634E+02 -0.21188858603E+02  0.36813573333E+02  0.00000000000E+00 0.  1.
</event>
<event>
 7    1  0.1220856E-011  0.5930193E+02  0.7816164E-02  0.1266605E+00
        -11   -1    0    0    0    0  0.00000000000E+00  0.00000000000E+00  0.45593999997E+02  0.45594000000E+02  0.51100000000E-03 0. -1.
         11   -1    0    0    0    0 -0.00000000000E+00 -0.00000000000E+00 -0.45593999997E+02  0.45594000000E+02  0.51100000000E-03 0.  1.
    9900012    2    1    2    0    0  0.11964455308E+02  0.91931271082E+01  0.28090205540E+02  0.59301930563E+02  0.49999975444E+02 0.  0.
        -12    1    1    2    0    0 -0.11964455308E+02 -0.91931271082E+01 -0.28090205540E+02  0.31886069437E+02  0.00000000000E+00 0.  1.
         11    1    3    3    0    0  0.15516793804E+02 -0.10554418249E+02  0.23410966087E+01  0.18911567045E+02  0.51100000000E-03 0.  1.
        -11    1    3    3    0    0 -0.56986468528E+00  0.10358992069E+01  0.20764100683E+02  0.20797733299E+02  0.51100000000E-03 0. -1.
        -12    1    3    3    0    0 -0.29824738104E+01  0.18711646150E+02  0.49850082482E+01  0.19592630220E+02  0.00000000000E+00 0.  1.
</event>
<event>
 7    1  0.1220856E-011  0.5930193E+02  0.7816164E-02  0.1266605E+00
        -11   -1    0    0    0    0  0.00000000000E+00  0.00000000000E+00  0.45593999997E+02  0.45594000000E+02  0.51100000000E-03 0.  1.
         11   -1    0    0    0    0 -0.00000000000E+00 -0.00000000000E+00 -0.45593999997E+02  0.45594000000E+02  0.51100000000E-03 0. -1.
    9900012    2    1    2    0    0 -0.16840378481E+02 -0.26902139971E+02 -0.30656573944E+01  0.59301925646E+02  0.49999966477E+02 0.  0.
        -12    1    1    2    0    0  0.16840378481E+02  0.26902139971E+02  0.30656573944E+01  0.31886074354E+02  0.00000000000E+00 0.  1.
         11    1    3    3    0    0 -0.12965854201E+02 -0.99473299038E+01 -0.16593744105E+02  0.23289806591E+02  0.51100000000E-03 0. -1.
        -11    1    3    3    0    0  0.13028260659E+01  0.58029031800E+01 -0.36988435619E+01  0.70037479275E+01  0.51100000000E-03 0.  1.
         12    1    3    3    0    0 -0.51773503461E+01 -0.22757713247E+02  0.17226930273E+02  0.29008371128E+02  0.00000000000E+00 0. -1.
</event>
<event>
 7    1  0.1220856E-011  0.5930200E+02  0.7816164E-02  0.1266605E+00
        -11   -1    0    0    0    0  0.00000000000E+00  0.00000000000E+00  0.45593999997E+02  0.45594000000E+02  0.51100000000E-03 0.  1.
         11   -1    0    0    0    0 -0.00000000000E+00 -0.00000000000E+00 -0.45593999997E+02  0.45594000000E+02  0.51100000000E-03 0. -1.
    9900012    2    1    2    0    0  0.16284575105E+02 -0.14100177275E+02 -0.23509879823E+02  0.59302002527E+02  0.50000106689E+02 0.  0.
        -12    1    1    2    0    0 -0.16284575105E+02  0.14100177275E+02  0.23509879823E+02  0.31885997473E+02  0.00000000000E+00 0.  1.
         11    1    3    3    0    0  0.60415444670E+00  0.72508422251E+01 -0.16198912905E+01  0.74541105186E+01  0.51100000000E-03 0. -1.
        -11    1    3    3    0    0  0.21545672053E+02 -0.73972764118E+01  0.27341260607E+01  0.22943651150E+02  0.51100000000E-03 0.  1.
         12    1    3    3    0    0 -0.58652513944E+01 -0.13953743089E+02 -0.24624114593E+02  0.28904240859E+02  0.00000000000E+00 0. -1.
</event>
<event>
 7    1  0.1220856E-011  0.5930194E+02  0.7816164E-02  0.1266605E+00
        -11   -1    0    0    0    0  0.00000000000E+00  0.00000000000E+00  0.45593999997E+02  0.45594000000E+02  0.51100000000E-03 0. -1.
         11   -1    0    0    0    0 -0.00000000000E+00 -0.00000000000E+00 -0.45593999997E+02  0.45594000000E+02  0.51100000000E-03 0.  1.
    9900012    2    1    2    0    0  0.21327073662E+02 -0.22457788605E+02  0.75844911463E+01  0.59301939630E+02  0.49999991979E+02 0.  0.
        -12    1    1    2    0    0 -0.21327073662E+02  0.22457788605E+02 -0.75844911463E+01  0.31886060370E+02  0.00000000000E+00 0.  1.
         11    1    3    3    0    0 -0.10435602061E+02 -0.53695696656E+01  0.14114097807E+02  0.18355975211E+02  0.51100000000E-03 0. -1.
        -11    1    3    3    0    0  0.29891365266E+01 -0.45375758504E+01  0.51166689196E+01  0.74635670337E+01  0.51100000000E-03 0.  1.
        -12    1    3    3    0    0  0.28773539196E+02 -0.12550643089E+02 -0.11646275581E+02  0.33482397385E+02  0.00000000000E+00 0.  1.
</event>
<event>
 7    1  0.1220856E-011  0.5930195E+02  0.7816164E-02  0.1266605E+00
        -11   -1    0    0    0    0  0.00000000000E+00  0.00000000000E+00  0.45593999997E+02  0.45594000000E+02  0.51100000000E-03 0. -1.
         11   -1    0    0    0    0 -0.00000000000E+00 -0.00000000000E+00 -0.45593999997E+02  0.45594000000E+02  0.51100000000E-03 0.  1.
    9900012    2    1    2    0    0 -0.21729310965E+02 -0.21177274149E+02  0.98020520935E+01  0.59301951003E+02  0.50000012721E+02 0.  0.
        -12    1    1    2    0    0  0.21729310965E+02  0.21177274149E+02 -0.98020520935E+01  0.31886048997E+02  0.00000000000E+00 0.  1.
         11    1    3    3    0    0 -0.43759943645E+01 -0.21309642281E+02  0.92475672578E+01  0.23638267306E+02  0.51100000000E-03 0. -1.
        -11    1    3    3    0    0 -0.87388214250E+00  0.28496127816E+01  0.13942924309E+02  0.14257948715E+02  0.51100000000E-03 0.  1.
        -12    1    3    3    0    0 -0.16479434458E+02 -0.27172446501E+01 -0.13388439474E+02  0.21405734981E+02  0.00000000000E+00 0.  1.
</event>
<event>
 7    1  0.1220856E-011  0.5930195E+02  0.7816164E-02  0.1266605E+00
        -11   -1    0    0    0    0  0.00000000000E+00  0.00000000000E+00  0.45593999997E+02  0.45594000000E+02  0.51100000000E-03 0. -1.
         11   -1    0    0    0    0 -0.00000000000E+00 -0.00000000000E+00 -0.45593999997E+02  0.45594000000E+02  0.51100000000E-03 0.  1.
    9900012    2    1    2    0    0 -0.36009086435E+01 -0.31506601866E+02 -0.33298295423E+01  0.59301948677E+02  0.50000008479E+02 0.  0.
        -12    1    1    2    0    0  0.36009086435E+01  0.31506601866E+02  0.33298295423E+01  0.31886051323E+02  0.00000000000E+00 0.  1.
         11    1    3    3    0    0  0.85630609107E+01 -0.24632921156E+01 -0.90721401731E+01  0.12716035066E+02  0.51100000000E-03 0. -1.
        -11    1    3    3    0    0 -0.21051629087E+02 -0.11909982810E+02 -0.47019970261E+01  0.24639958483E+02  0.51100000000E-03 0.  1.
         12    1    3    3    0    0  0.88876595333E+01 -0.17133326941E+02  0.10444307657E+02  0.21945955128E+02  0.00000000000E+00 0. -1.
</event>
<event>
 7    1  0.1220856E-011  0.5930197E+02  0.7816164E-02  0.1266605E+00
        -11   -1    0    0    0    0  0.00000000000E+00  0.00000000000E+00  0.45593999997E+02  0.45594000000E+02  0.51100000000E-03 0. -1.
         11   -1    0    0    0    0 -0.00000000000E+00 -0.00000000000E+00 -0.45593999997E+02  0.45594000000E+02  0.51100000000E-03 0.  1.
    9900012    2    1    2    0    0  0.40089030042E+01 -0.76511446117E+01  0.30693772896E+02  0.59301968391E+02  0.50000044432E+02 0.  0.
        -12    1    1    2    0    0 -0.40089030042E+01  0.76511446117E+01 -0.30693772896E+02  0.31886031609E+02  0.00000000000E+00 0.  1.
         11    1    3    3    0    0  0.21840121025E+01 -0.70811640975E+01 -0.35551405789E+01  0.82189913394E+01  0.51100000000E-03 0. -1.
        -11    1    3    3    0    0 -0.11796275376E+02 -0.13868860538E+02  0.12021525429E+02  0.21817756055E+02  0.51100000000E-03 0.  1.
         12    1    3    3    0    0  0.13621166278E+02  0.13298880023E+02  0.22227388046E+02  0.29265220997E+02  0.00000000000E+00 0. -1.
</event>
<event>
 7    1  0.1220856E-011  0.5930194E+02  0.7816164E-02  0.1266605E+00
        -11   -1    0    0    0    0  0.00000000000E+00  0.00000000000E+00  0.45593999997E+02  0.45594000000E+02  0.51100000000E-03 0. -1.
         11   -1    0    0    0    0 -0.00000000000E+00 -0.00000000000E+00 -0.45593999997E+02  0.45594000000E+02  0.51100000000E-03 0.  1.
    9900012    2    1    2    0    0  0.19100194182E+02  0.25513069569E+02  0.99336563397E+00  0.59301938595E+02  0.49999990093E+02 0.  0.
        -12    1    1    2    0    0 -0.19100194182E+02 -0.25513069569E+02 -0.99336563397E+00  0.31886061405E+02  0.00000000000E+00 0.  1.
         11    1    3    3    0    0  0.40087151413E+01  0.81295055766E+01  0.43162980521E+01  0.10039376830E+02  0.51100000000E-03 0.  1.
        -11    1    3    3    0    0  0.29890852989E+02  0.11047726131E+02  0.29094368413E+01  0.31999690125E+02  0.51100000000E-03 0. -1.
        -12    1    3    3    0    0 -0.14799373949E+02  0.63358378618E+01 -0.62323692595E+01  0.17262871640E+02  0.00000000000E+00 0.  1.
</event>
<event>
 7    1  0.1220856E-011  0.5930197E+02  0.7816164E-02  0.1266605E+00
        -11   -1    0    0    0    0  0.00000000000E+00  0.00000000000E+00  0.45593999997E+02  0.45594000000E+02  0.51100000000E-03 0.  1.
         11   -1    0    0    0    0 -0.00000000000E+00 -0.00000000000E+00 -0.45593999997E+02  0.45594000000E+02  0.51100000000E-03 0. -1.
    9900012    2    1    2    0    0 -0.10228747041E+02 -0.68134791196E+01 -0.29422239586E+02  0.59301969422E+02  0.50000046313E+02 0.  0.
        -12    1    1    2    0    0  0.10228747041E+02  0.68134791196E+01  0.29422239586E+02  0.31886030578E+02  0.00000000000E+00 0.  1.
         11    1    3    3    0    0 -0.21306905520E+02 -0.14301776358E+02 -0.20732037979E+02  0.32990035296E+02  0.51100000000E-03 0. -1.
        -11    1    3    3    0    0 -0.62379025873E+01  0.92214420634E+00 -0.25429057603E+01  0.67991285171E+01  0.51100000000E-03 0.  1.
        -12    1    3    3    0    0  0.17316061066E+02  0.65661530326E+01 -0.61472958471E+01  0.19512805609E+02  0.00000000000E+00 0.  1.
</event>
<event>
 7    1  0.1220856E-011  0.5930194E+02  0.7816164E-02  0.1266605E+00
        -11   -1    0    0    0    0  0.00000000000E+00  0.00000000000E+00  0.45593999997E+02  0.45594000000E+02  0.51100000000E-03 0. -1.
         11   -1    0    0    0    0 -0.00000000000E+00 -0.00000000000E+00 -0.45593999997E+02  0.45594000000E+02  0.51100000000E-03 0.  1.
    9900012    2    1    2    0    0  0.30743228862E+01 -0.22488162740E+02  0.22395356280E+02  0.59301938664E+02  0.49999990217E+02 0.  0.
        -12    1    1    2    0    0 -0.30743228862E+01  0.22488162740E+02 -0.22395356280E+02  0.31886061336E+02  0.00000000000E+00 0.  1.
         11    1    3    3    0    0  0.86586710731E+01 -0.20318272763E+02 -0.95493958040E+01  0.24062330587E+02  0.51100000000E-03 0. -1.
        -11    1    3    3    0    0 -0.48667051079E+01 -0.45247604528E+01  0.53500168926E+01  0.85311755799E+01  0.51100000000E-03 0.  1.
        -12    1    3    3    0    0 -0.71764307900E+00  0.23548704753E+01  0.26594735191E+02  0.26708432497E+02  0.00000000000E+00 0.  1.
</event>
<event>
 7    1  0.1220856E-011  0.5930194E+02  0.7816164E-02  0.1266605E+00
        -11   -1    0    0    0    0  0.00000000000E+00  0.00000000000E+00  0.45593999997E+02  0.45594000000E+02  0.51100000000E-03 0.  1.
         11   -1    0    0    0    0 -0.00000000000E+00 -0.00000000000E+00 -0.45593999997E+02  0.45594000000E+02  0.51100000000E-03 0. -1.
    9900012    2    1    2    0    0  0.27259733166E+02 -0.50771346753E+01 -0.15743263088E+02  0.59301942209E+02  0.49999996683E+02 0.  0.
        -12    1    1    2    0    0 -0.27259733166E+02  0.50771346753E+01  0.15743263088E+02  0.31886057791E+02  0.00000000000E+00 0.  1.
         11    1    3    3    0    0  0.11235283474E+02 -0.18353072764E+02 -0.26427511396E+01  0.21680659779E+02  0.51100000000E-03 0. -1.
        -11    1    3    3    0    0 -0.36444571235E+00  0.96058529399E+00  0.80797025349E+01  0.81447613898E+01  0.51100000000E-03 0.  1.
        -12    1    3    3    0    0  0.16388895405E+02  0.12315352795E+02 -0.21180214484E+02  0.29476521040E+02  0.00000000000E+00 0.  1.
</event>
<event>
 7    1  0.1220856E-011  0.5930213E+02  0.7816164E-02  0.1266604E+00
        -11   -1    0    0    0    0  0.00000000000E+00  0.00000000000E+00  0.45593999997E+02  0.45594000000E+02  0.51100000000E-03 0.  1.
         11   -1    0    0    0    0 -0.00000000000E+00 -0.00000000000E+00 -0.45593999997E+02  0.45594000000E+02  0.51100000000E-03 0. -1.
    9900012    2    1    2    0    0  0.14080639831E+02  0.23779523812E+02 -0.15905290570E+02  0.59302134183E+02  0.50000346796E+02 0.  0.
        -12    1    1    2    0    0 -0.14080639831E+02 -0.23779523812E+02  0.15905290570E+02  0.31885865817E+02  0.00000000000E+00 0.  1.
         11    1    3    3    0    0  0.91117005906E+01  0.16089774643E+02  0.24363839552E+01  0.18650466556E+02  0.51100000000E-03 0.  1.
        -11    1    3    3    0    0 -0.62514619057E+01 -0.10842226741E+02 -0.39835521333E+00  0.12521714890E+02  0.51100000000E-03 0. -1.
         12    1    3    3    0    0  0.11220401146E+02  0.18531975910E+02 -0.17943319312E+02  0.28129952736E+02  0.00000000000E+00 0. -1.
</event>
<event>
 7    1  0.1220856E-011  0.5930191E+02  0.7816164E-02  0.1266605E+00
        -11   -1    0    0    0    0  0.00000000000E+00  0.00000000000E+00  0.45593999997E+02  0.45594000000E+02  0.51100000000E-03 0.  1.
         11   -1    0    0    0    0 -0.00000000000E+00 -0.00000000000E+00 -0.45593999997E+02  0.45594000000E+02  0.51100000000E-03 0. -1.
    9900012    2    1    2    0    0 -0.17753267228E+02 -0.20947671344E+02  0.16209228735E+02  0.59301913251E+02  0.49999943870E+02 0.  0.
        -12    1    1    2    0    0  0.17753267228E+02  0.20947671344E+02 -0.16209228735E+02  0.31886086749E+02  0.00000000000E+00 0.  1.
         11    1    3    3    0    0 -0.10123746594E+02 -0.12270386610E+02  0.30447349711E+02  0.34352492448E+02  0.51100000000E-03 0. -1.
        -11    1    3    3    0    0 -0.83152767480E+01 -0.11739215576E+01  0.48354278094E+00  0.84116427112E+01  0.51100000000E-03 0.  1.
        -12    1    3    3    0    0  0.68575611412E+00 -0.75033631772E+01 -0.14721663758E+02  0.16537778092E+02  0.00000000000E+00 0.  1.
</event>
<event>
 7    1  0.1220856E-011  0.5930192E+02  0.7816164E-02  0.1266605E+00
        -11   -1    0    0    0    0  0.00000000000E+00  0.00000000000E+00  0.45593999997E+02  0.45594000000E+02  0.51100000000E-03 0.  1.
         11   -1    0    0    0    0 -0.00000000000E+00 -0.00000000000E+00 -0.45593999997E+02  0.45594000000E+02  0.51100000000E-03 0. -1.
    9900012    2    1    2    0    0  0.26905801720E+02  0.15808857977E+02 -0.65482712737E+01  0.59301921323E+02  0.49999958593E+02 0.  0.
        -12    1    1    2    0    0 -0.26905801720E+02 -0.15808857977E+02  0.65482712737E+01  0.31886078677E+02  0.00000000000E+00 0.  1.
         11    1    3    3    0    0  0.73428130992E+01  0.85048891728E+01 -0.14403464048E+02  0.18267726211E+02  0.51100000000E-03 0. -1.
        -11    1    3    3    0    0 -0.17223738357E+01 -0.69633696119E+01 -0.81223642130E+01  0.10836414935E+02  0.51100000000E-03 0.  1.
        -12    1    3    3    0    0  0.21285362456E+02  0.14267338416E+02  0.15977556988E+02  0.30197780177E+02  0.00000000000E+00 0.  1.
</event>
<event>
 7    1  0.1220856E-011  0.5930195E+02  0.7816164E-02  0.1266605E+00
        -11   -1    0    0    0    0  0.00000000000E+00  0.00000000000E+00  0.45593999997E+02  0.45594000000E+02  0.51100000000E-03 0.  1.
         11   -1    0    0    0    0 -0.00000000000E+00 -0.00000000000E+00 -0.45593999997E+02  0.45594000000E+02  0.51100000000E-03 0. -1.
    9900012    2    1    2    0    0 -0.15272627680E+02 -0.13644357250E+02 -0.24439688452E+02  0.59301952696E+02  0.50000015810E+02 0.  0.
        -12    1    1    2    0    0  0.15272627680E+02  0.13644357250E+02  0.24439688452E+02  0.31886047304E+02  0.00000000000E+00 0.  1.
         11    1    3    3    0    0 -0.98561071892E+01 -0.60008797903E+01 -0.15845078780E+02  0.19601528741E+02  0.51100000000E-03 0. -1.
        -11    1    3    3    0    0  0.34048383329E+01  0.89106802989E+01 -0.16726817169E+02  0.19255637105E+02  0.51100000000E-03 0.  1.
        -12    1    3    3    0    0 -0.88213588239E+01 -0.16554157758E+02  0.81322074967E+01  0.20444786850E+02  0.00000000000E+00 0.  1.
</event>
<event>
 7    1  0.1220856E-011  0.5930191E+02  0.7816164E-02  0.1266605E+00
        -11   -1    0    0    0    0  0.00000000000E+00  0.00000000000E+00  0.45593999997E+02  0.45594000000E+02  0.51100000000E-03 0. -1.
         11   -1    0    0    0    0 -0.00000000000E+00 -0.00000000000E+00 -0.45593999997E+02  0.45594000000E+02  0.51100000000E-03 0.  1.
    9900012    2    1    2    0    0 -0.19990606179E+01 -0.70474136391E+01  0.31033213115E+02  0.59301912146E+02  0.49999941856E+02 0.  0.
        -12    1    1    2    0    0  0.19990606179E+01  0.70474136391E+01 -0.31033213115E+02  0.31886087854E+02  0.00000000000E+00 0.  1.
         11    1    3    3    0    0 -0.72102050934E+01 -0.36217623991E+01 -0.93725959509E+00  0.81229721269E+01  0.51100000000E-03 0. -1.
        -11    1    3    3    0    0 -0.78405833544E+01  0.14681643504E+02  0.81413775678E+01  0.18528557210E+02  0.51100000000E-03 0.  1.
         12    1    3    3    0    0  0.13051727830E+02 -0.18107294744E+02  0.23829095143E+02  0.32650382810E+02  0.00000000000E+00 0. -1.
</event>
<event>
 7    1  0.1220856E-011  0.5930194E+02  0.7816164E-02  0.1266605E+00
        -11   -1    0    0    0    0  0.00000000000E+00  0.00000000000E+00  0.45593999997E+02  0.45594000000E+02  0.51100000000E-03 0.  1.
         11   -1    0    0    0    0 -0.00000000000E+00 -0.00000000000E+00 -0.45593999997E+02  0.45594000000E+02  0.51100000000E-03 0. -1.
    9900012    2    1    2    0    0 -0.85989810370E+01 -0.27793518181E+02 -0.13049844210E+02  0.59301944088E+02  0.50000000110E+02 0.  0.
        -12    1    1    2    0    0  0.85989810370E+01  0.27793518181E+02  0.13049844210E+02  0.31886055912E+02  0.00000000000E+00 0.  1.
         11    1    3    3    0    0  0.39503871046E+01 -0.32435579683E+01 -0.30864960508E+01  0.59709869120E+01  0.51100000000E-03 0. -1.
        -11    1    3    3    0    0  0.14106414386E+02 -0.17557452370E+02 -0.12321708453E+02  0.25672544869E+02  0.51100000000E-03 0.  1.
        -12    1    3    3    0    0 -0.26655782528E+02 -0.69925078418E+01  0.23583602943E+01  0.27658412307E+02  0.00000000000E+00 0.  1.
</event>
<event>
 7    1  0.1220856E-011  0.5930192E+02  0.7816164E-02  0.1266605E+00
        -11   -1    0    0    0    0  0.00000000000E+00  0.00000000000E+00  0.45593999997E+02  0.45594000000E+02  0.51100000000E-03 0.  1.
         11   -1    0    0    0    0 -0.00000000000E+00 -0.00000000000E+00 -0.45593999997E+02  0.45594000000E+02  0.51100000000E-03 0. -1.
    9900012    2    1    2    0    0 -0.79762799354E+01 -0.27961907931E+02 -0.13085590027E+02  0.59301921485E+02  0.49999958887E+02 0.  0.
        -12    1    1    2    0    0  0.79762799354E+01  0.27961907931E+02  0.13085590027E+02  0.31886078515E+02  0.00000000000E+00 0.  1.
         11    1    3    3    0    0 -0.41890344097E+00 -0.14715340251E+02 -0.17456504530E+02  0.22835198039E+02  0.51100000000E-03 0. -1.
        -11    1    3    3    0    0  0.93261394757E+01  0.18526839126E+01 -0.63229333031E+01  0.11418791574E+02  0.51100000000E-03 0.  1.
         12    1    3    3    0    0 -0.16883515970E+02 -0.15099251592E+02  0.10693847807E+02  0.25047931872E+02  0.00000000000E+00 0. -1.
</event>
<event>
 7    1  0.1220856E-011  0.5930195E+02  0.7816164E-02  0.1266605E+00
        -11   -1    0    0    0    0  0.00000000000E+00  0.00000000000E+00  0.45593999997E+02  0.45594000000E+02  0.51100000000E-03 0. -1.
         11   -1    0    0    0    0 -0.00000000000E+00 -0.00000000000E+00 -0.45593999997E+02  0.45594000000E+02  0.51100000000E-03 0.  1.
    9900012    2    1    2    0    0 -0.17940174159E+02  0.22648784612E+02  0.13487148516E+02  0.59301945550E+02  0.50000002777E+02 0.  0.
        -12    1    1    2    0    0  0.17940174159E+02 -0.22648784612E+02 -0.13487148516E+02  0.31886054450E+02  0.00000000000E+00 0.  1.
         11    1    3    3    0    0 -0.15139482131E+02 -0.17554956108E+01  0.76910092066E+01  0.17071534990E+02  0.51100000000E-03 0. -1.
        -11    1    3    3    0    0 -0.11798207836E+02  0.24468244798E+02  0.13546804139E+02  0.30354713214E+02  0.51100000000E-03 0.  1.
        -12    1    3    3    0    0  0.89975158076E+01 -0.63964575350E-01 -0.77506648295E+01  0.11875697347E+02  0.00000000000E+00 0.  1.
</event>
<event>
 7    1  0.1220856E-011  0.5930196E+02  0.7816164E-02  0.1266605E+00
        -11   -1    0    0    0    0  0.00000000000E+00  0.00000000000E+00  0.45593999997E+02  0.45594000000E+02  0.51100000000E-03 0.  1.
         11   -1    0    0    0    0 -0.00000000000E+00 -0.00000000000E+00 -0.45593999997E+02  0.45594000000E+02  0.51100000000E-03 0. -1.
    9900012    2    1    2    0    0  0.10274637813E+02 -0.24617780395E+02 -0.17467581149E+02  0.59301957835E+02  0.50000025181E+02 0.  0.
        -12    1    1    2    0    0 -0.10274637813E+02  0.24617780395E+02  0.17467581149E+02  0.31886042165E+02  0.00000000000E+00 0.  1.
         11    1    3    3    0    0  0.24904191367E+02 -0.51905070331E+01 -0.12301830480E+02  0.28257656384E+02  0.51100000000E-03 0. -1.
        -11    1    3    3    0    0  0.90760573769E+00 -0.48619904135E+01 -0.81561636956E+01  0.95386427465E+01  0.51100000000E-03 0.  1.
        -12    1    3    3    0    0 -0.15537159291E+02 -0.14565282949E+02  0.29904130268E+01  0.21505658704E+02  0.00000000000E+00 0.  1.
</event>
<event>
 7    1  0.1220856E-011  0.5930195E+02  0.7816164E-02  0.1266605E+00
        -11   -1    0    0    0    0  0.00000000000E+00  0.00000000000E+00  0.45593999997E+02  0.45594000000E+02  0.51100000000E-03 0.  1.
         11   -1    0    0    0    0 -0.00000000000E+00 -0.00000000000E+00 -0.45593999997E+02  0.45594000000E+02  0.51100000000E-03 0. -1.
    9900012    2    1    2    0    0 -0.57041395868E+01 -0.30025694742E+02  0.90907059948E+01  0.59301945233E+02  0.50000002198E+02 0.  0.
        -12    1    1    2    0    0  0.57041395868E+01  0.30025694742E+02 -0.90907059948E+01  0.31886054767E+02  0.00000000000E+00 0.  1.
         11    1    3    3    0    0 -0.15686382121E+02 -0.28792825781E+01 -0.61427403561E+01  0.17090526954E+02  0.51100000000E-03 0. -1.
        -11    1    3    3    0    0 -0.84920255476E+01 -0.95710036655E+01  0.59426241551E+00  0.12809049814E+02  0.51100000000E-03 0.  1.
         12    1    3    3    0    0  0.18474268082E+02 -0.17575408498E+02  0.14639183935E+02  0.29402368465E+02  0.00000000000E+00 0. -1.
</event>
<event>
 7    1  0.1220856E-011  0.5930191E+02  0.7816164E-02  0.1266605E+00
        -11   -1    0    0    0    0  0.00000000000E+00  0.00000000000E+00  0.45593999997E+02  0.45594000000E+02  0.51100000000E-03 0.  1.
         11   -1    0    0    0    0 -0.00000000000E+00 -0.00000000000E+00 -0.45593999997E+02  0.45594000000E+02  0.51100000000E-03 0. -1.
    9900012    2    1    2    0    0 -0.13324448521E+02  0.74148175051E+01 -0.28003613004E+02  0.59301909172E+02  0.49999936431E+02 0.  0.
        -12    1    1    2    0    0  0.13324448521E+02 -0.74148175051E+01  0.28003613004E+02  0.31886090828E+02  0.00000000000E+00 0.  1.
         11    1    3    3    0    0  0.55672685097E+01  0.11653721968E+02 -0.17121557303E+02  0.21446478478E+02  0.51100000000E-03 0. -1.
        -11    1    3    3    0    0 -0.91417453099E+00 -0.12096562973E+02 -0.13399186338E+02  0.18074865024E+02  0.51100000000E-03 0.  1.
        -12    1    3    3    0    0 -0.17977542500E+02  0.78576585100E+01  0.25171306374E+01  0.19780565670E+02  0.00000000000E+00 0.  1.
</event>
<event>
 7    1  0.1220856E-011  0.5930194E+02  0.7816164E-02  0.1266605E+00
        -11   -1    0    0    0    0  0.00000000000E+00  0.00000000000E+00  0.45593999997E+02  0.45594000000E+02  0.51100000000E-03 0.  1.
         11   -1    0    0    0    0 -0.00000000000E+00 -0.00000000000E+00 -0.45593999997E+02  0.45594000000E+02  0.51100000000E-03 0. -1.
    9900012    2    1    2    0    0 -0.31402182590E+02  0.25657211910E+01  0.49031543745E+01  0.59301938477E+02  0.49999989877E+02 0.  0.
        -12    1    1    2    0    0  0.31402182590E+02 -0.25657211910E+01 -0.49031543745E+01  0.31886061523E+02  0.00000000000E+00 0.  1.
         11    1    3    3    0    0  0.43588991756E+01 -0.83667544487E+01 -0.31946085107E+01  0.99603265924E+01  0.51100000000E-03 0. -1.
        -11    1    3    3    0    0  0.48333365052E+01 -0.29652021614E+01  0.19478313886E+01  0.59956328281E+01  0.51100000000E-03 0.  1.
         12    1    3    3    0    0 -0.40594418270E+02  0.13897677801E+02  0.61499314966E+01  0.43345979057E+02  0.00000000000E+00 0. -1.
</event>
<event>
 7    1  0.1220856E-011  0.5930195E+02  0.7816164E-02  0.1266605E+00
        -11   -1    0    0    0    0  0.00000000000E+00  0.00000000000E+00  0.45593999997E+02  0.45594000000E+02  0.51100000000E-03 0.  1.
         11   -1    0    0    0    0 -0.00000000000E+00 -0.00000000000E+00 -0.45593999997E+02  0.45594000000E+02  0.51100000000E-03 0. -1.
    9900012    2    1    2    0    0  0.14695853903E+02  0.12916012942E+02 -0.25177942484E+02  0.59301948191E+02  0.50000007593E+02 0.  0.
        -12    1    1    2    0    0 -0.14695853903E+02 -0.12916012942E+02  0.25177942484E+02  0.31886051809E+02  0.00000000000E+00 0.  1.
         11    1    3    3    0    0  0.65155596825E+01  0.72724217745E+01  0.95643405469E+01  0.13668110579E+02  0.51100000000E-03 0. -1.
        -11    1    3    3    0    0 -0.35553354498E+01 -0.69915673577E+01 -0.12224291232E+01  0.79383094863E+01  0.51100000000E-03 0.  1.
         12    1    3    3    0    0  0.11735629670E+02  0.12635158525E+02 -0.33519853907E+02  0.37695528126E+02  0.00000000000E+00 0. -1.
</event>
<event>
 7    1  0.1220856E-011  0.5930195E+02  0.7816164E-02  0.1266605E+00
        -11   -1    0    0    0    0  0.00000000000E+00  0.00000000000E+00  0.45593999997E+02  0.45594000000E+02  0.51100000000E-03 0.  1.
         11   -1    0    0    0    0 -0.00000000000E+00 -0.00000000000E+00 -0.45593999997E+02  0.45594000000E+02  0.51100000000E-03 0. -1.
    9900012    2    1    2    0    0 -0.83626823029E+01 -0.29296394526E+02 -0.94078297781E+01  0.59301945859E+02  0.50000003341E+02 0.  0.
        -12    1    1    2    0    0  0.83626823029E+01  0.29296394526E+02  0.94078297781E+01  0.31886054141E+02  0.00000000000E+00 0.  1.
         11    1    3    3    0    0 -0.93683002759E+01 -0.21601780424E+02 -0.42522549332E+00  0.23549581409E+02  0.51100000000E-03 0.  1.
        -11    1    3    3    0    0 -0.15981358560E+02 -0.94404286620E+00 -0.66089467099E+01  0.17319734849E+02  0.51100000000E-03 0. -1.
         12    1    3    3    0    0  0.16986976533E+02 -0.67505712357E+01 -0.23736575749E+01  0.18432629602E+02  0.00000000000E+00 0. -1.
</event>
<event>
 7    1  0.1220856E-011  0.5930191E+02  0.7816164E-02  0.1266605E+00
        -11   -1    0    0    0    0  0.00000000000E+00  0.00000000000E+00  0.45593999997E+02  0.45594000000E+02  0.51100000000E-03 0.  1.
         11   -1    0    0    0    0 -0.00000000000E+00 -0.00000000000E+00 -0.45593999997E+02  0.45594000000E+02  0.51100000000E-03 0. -1.
    9900012    2    1    2    0    0  0.26359290202E+02 -0.12209666942E+02 -0.13146660082E+02  0.59301908704E+02  0.49999935579E+02 0.  0.
        -12    1    1    2    0    0 -0.26359290202E+02  0.12209666942E+02  0.13146660082E+02  0.31886091296E+02  0.00000000000E+00 0.  1.
         11    1    3    3    0    0  0.15229086060E+02 -0.18035871551E+02  0.12818622722E+02  0.26861400067E+02  0.51100000000E-03 0. -1.
        -11    1    3    3    0    0 -0.16087411228E+00 -0.36661744732E+01 -0.17022511099E+01  0.40452904531E+01  0.51100000000E-03 0.  1.
         12    1    3    3    0    0  0.11291078254E+02  0.94923790816E+01 -0.24263031694E+02  0.28395218184E+02  0.00000000000E+00 0. -1.
</event>
<event>
 7    1  0.1220856E-011  0.5930194E+02  0.7816164E-02  0.1266605E+00
        -11   -1    0    0    0    0  0.00000000000E+00  0.00000000000E+00  0.45593999997E+02  0.45594000000E+02  0.51100000000E-03 0. -1.
         11   -1    0    0    0    0 -0.00000000000E+00 -0.00000000000E+00 -0.45593999997E+02  0.45594000000E+02  0.51100000000E-03 0.  1.
    9900012    2    1    2    0    0 -0.25269168265E+02 -0.11091814213E+02  0.15973769324E+02  0.59301944838E+02  0.50000001479E+02 0.  0.
        -12    1    1    2    0    0  0.25269168265E+02  0.11091814213E+02 -0.15973769324E+02  0.31886055162E+02  0.00000000000E+00 0.  1.
         11    1    3    3    0    0 -0.62115117509E+01  0.48210278072E+01  0.28965693045E+01  0.83794571033E+01  0.51100000000E-03 0. -1.
        -11    1    3    3    0    0 -0.31284742593E+01  0.10101063951E+02 -0.84931070248E+01  0.13562879906E+02  0.51100000000E-03 0.  1.
         12    1    3    3    0    0 -0.15929182255E+02 -0.26013905971E+02  0.21570307045E+02  0.37359607830E+02  0.00000000000E+00 0. -1.
</event>
<event>
 7    1  0.1220856E-011  0.5930197E+02  0.7816164E-02  0.1266605E+00
        -11   -1    0    0    0    0  0.00000000000E+00  0.00000000000E+00  0.45593999997E+02  0.45594000000E+02  0.51100000000E-03 0.  1.
         11   -1    0    0    0    0 -0.00000000000E+00 -0.00000000000E+00 -0.45593999997E+02  0.45594000000E+02  0.51100000000E-03 0. -1.
    9900012    2    1    2    0    0  0.37107032755E+01  0.31077088228E+02  0.60962609230E+01  0.59301966556E+02  0.50000041086E+02 0.  0.
        -12    1    1    2    0    0 -0.37107032755E+01 -0.31077088228E+02 -0.60962609230E+01  0.31886033444E+02  0.00000000000E+00 0.  1.
         11    1    3    3    0    0  0.60747773915E+01  0.66343069201E+01  0.13452777732E+02  0.16183144862E+02  0.51100000000E-03 0.  1.
        -11    1    3    3    0    0 -0.34174588386E+01  0.31555955546E+02  0.14206101815E+01  0.31772244001E+02  0.51100000000E-03 0. -1.
        -12    1    3    3    0    0  0.10533847226E+01 -0.71131742379E+01 -0.87771269908E+01  0.11346577692E+02  0.00000000000E+00 0.  1.
</event>
<event>
 7    1  0.1220856E-011  0.5930193E+02  0.7816164E-02  0.1266605E+00
        -11   -1    0    0    0    0  0.00000000000E+00  0.00000000000E+00  0.45593999997E+02  0.45594000000E+02  0.51100000000E-03 0.  1.
         11   -1    0    0    0    0 -0.00000000000E+00 -0.00000000000E+00 -0.45593999997E+02  0.45594000000E+02  0.51100000000E-03 0. -1.
    9900012    2    1    2    0    0 -0.13880423824E+02  0.27041449796E+02  0.96340744112E+01  0.59301928395E+02  0.49999971490E+02 0.  0.
        -12    1    1    2    0    0  0.13880423824E+02 -0.27041449796E+02 -0.96340744112E+01  0.31886071605E+02  0.00000000000E+00 0.  1.
         11    1    3    3    0    0 -0.16335419924E+02  0.16921510678E+02 -0.12987733829E+02  0.26867539858E+02  0.51100000000E-03 0. -1.
        -11    1    3    3    0    0 -0.14792239526E+01  0.15205646799E+02  0.99710533607E+01  0.18243401642E+02  0.51100000000E-03 0.  1.
        -12    1    3    3    0    0  0.39342200525E+01 -0.50857076813E+01  0.12650754879E+02  0.14190986895E+02  0.00000000000E+00 0.  1.
</event>
<event>
 7    1  0.1220856E-011  0.5930194E+02  0.7816164E-02  0.1266605E+00
        -11   -1    0    0    0    0  0.00000000000E+00  0.00000000000E+00  0.45593999997E+02  0.45594000000E+02  0.51100000000E-03 0.  1.
         11   -1    0    0    0    0 -0.00000000000E+00 -0.00000000000E+00 -0.45593999997E+02  0.45594000000E+02  0.51100000000E-03 0. -1.
    9900012    2    1    2    0    0 -0.15425606472E+02 -0.69297983595E+01 -0.27032378344E+02  0.59301938480E+02  0.49999989882E+02 0.  0.
        -12    1    1    2    0    0  0.15425606472E+02  0.69297983595E+01  0.27032378344E+02  0.31886061520E+02  0.00000000000E+00 0.  1.
         11    1    3    3    0    0 -0.13021200727E+01  0.88659380804E+01  0.51285647133E+01  0.10324851137E+02  0.51100000000E-03 0. -1.
        -11    1    3    3    0    0  0.59815563406E+01  0.45158548574E+01 -0.11440188256E+02  0.13676617599E+02  0.51100000000E-03 0.  1.
         12    1    3    3    0    0 -0.20105042739E+02 -0.20311591297E+02 -0.20720754802E+02  0.35300469744E+02  0.00000000000E+00 0. -1.
</event>
<event>
 7    1  0.1220856E-011  0.5930195E+02  0.7816164E-02  0.1266605E+00
        -11   -1    0    0    0    0  0.00000000000E+00  0.00000000000E+00  0.45593999997E+02  0.45594000000E+02  0.51100000000E-03 0. -1.
         11   -1    0    0    0    0 -0.00000000000E+00 -0.00000000000E+00 -0.45593999997E+02  0.45594000000E+02  0.51100000000E-03 0.  1.
    9900012    2    1    2    0    0 -0.38103011957E+00  0.31408204766E+02  0.54862886811E+01  0.59301954869E+02  0.50000019772E+02 0.  0.
        -12    1    1    2    0    0  0.38103011957E+00 -0.31408204766E+02 -0.54862886811E+01  0.31886045131E+02  0.00000000000E+00 0.  1.
         11    1    3    3    0    0 -0.94712661496E+01  0.92326839894E+01  0.12059779565E+02  0.17899318968E+02  0.51100000000E-03 0. -1.
        -11    1    3    3    0    0 -0.87227707234E+01 -0.34387521825E+01 -0.36691249573E+01  0.10068476741E+02  0.51100000000E-03 0.  1.
        -12    1    3    3    0    0  0.17813006753E+02  0.25614272959E+02 -0.29043659264E+01  0.31334159160E+02  0.00000000000E+00 0.  1.
</event>
<event>
 7    1  0.1220856E-011  0.5930197E+02  0.7816164E-02  0.1266605E+00
        -11   -1    0    0    0    0  0.00000000000E+00  0.00000000000E+00  0.45593999997E+02  0.45594000000E+02  0.51100000000E-03 0. -1.
         11   -1    0    0    0    0 -0.00000000000E+00 -0.00000000000E+00 -0.45593999997E+02  0.45594000000E+02  0.51100000000E-03 0.  1.
    9900012    2    1    2    0    0 -0.98591578026E+01  0.25933401343E+02  0.15715424371E+02  0.59301970756E+02  0.50000048746E+02 0.  0.
        -12    1    1    2    0    0  0.98591578026E+01 -0.25933401343E+02 -0.15715424371E+02  0.31886029244E+02  0.00000000000E+00 0.  1.
         11    1    3    3    0    0 -0.70562762372E+01  0.13958840109E+02  0.12748587664E+02  0.20178373056E+02  0.51100000000E-03 0. -1.
        -11    1    3    3    0    0  0.74903978012E+01 -0.10697590581E+02  0.53453524323E+01  0.14110892826E+02  0.51100000000E-03 0.  1.
         12    1    3    3    0    0 -0.10293279367E+02  0.22672151815E+02 -0.23785157253E+01  0.25012704874E+02  0.00000000000E+00 0. -1.
</event>
<event>
 7    1  0.1220856E-011  0.5930193E+02  0.7816164E-02  0.1266605E+00
        -11   -1    0    0    0    0  0.00000000000E+00  0.00000000000E+00  0.45593999997E+02  0.45594000000E+02  0.51100000000E-03 0. -1.
         11   -1    0    0    0    0 -0.00000000000E+00 -0.00000000000E+00 -0.45593999997E+02  0.45594000000E+02  0.51100000000E-03 0.  1.
    9900012    2    1    2    0    0 -0.11979256773E+02  0.27798605498E+02  0.10022782557E+02  0.59301933597E+02  0.49999980977E+02 0.  0.
        -12    1    1    2    0    0  0.11979256773E+02 -0.27798605498E+02 -0.10022782557E+02  0.31886066403E+02  0.00000000000E+00 0.  1.
         11    1    3    3    0    0 -0.22411209917E+02  0.19573560121E+02 -0.15061048978E+01  0.29793538527E+02  0.51100000000E-03 0. -1.
        -11    1    3    3    0    0 -0.69569819633E+01 -0.16711692301E+01  0.29672116420E+01  0.77457568915E+01  0.51100000000E-03 0.  1.
        -12    1    3    3    0    0  0.17388935108E+02  0.98962146073E+01  0.85616758131E+01  0.21762638178E+02  0.00000000000E+00 0.  1.
</event>
<event>
 7    1  0.1220856E-011  0.5930191E+02  0.7816164E-02  0.1266605E+00
        -11   -1    0    0    0    0  0.00000000000E+00  0.00000000000E+00  0.45593999997E+02  0.45594000000E+02  0.51100000000E-03 0.  1.
         11   -1    0    0    0    0 -0.00000000000E+00 -0.00000000000E+00 -0.45593999997E+02  0.45594000000E+02  0.51100000000E-03 0. -1.
    9900012    2    1    2    0    0  0.40294310819E+01  0.49941993428E+01 -0.31233709314E+02  0.59301906802E+02  0.49999932109E+02 0.  0.
        -12    1    1    2    0    0 -0.40294310819E+01 -0.49941993428E+01  0.31233709314E+02  0.31886093198E+02  0.00000000000E+00 0.  1.
         11    1    3    3    0    0  0.25280584021E+01  0.82491958730E+00 -0.20274936233E+02  0.20448584575E+02  0.51100000000E-03 0. -1.
        -11    1    3    3    0    0  0.11662226076E+01  0.13166734418E+02 -0.21345844344E+02  0.25107131286E+02  0.51100000000E-03 0.  1.
        -12    1    3    3    0    0  0.33515007220E+00 -0.89974546627E+01  0.10387071263E+02  0.13746190941E+02  0.00000000000E+00 0.  1.
</event>
<event>
 7    1  0.1220856E-011  0.5930194E+02  0.7816164E-02  0.1266605E+00
        -11   -1    0    0    0    0  0.00000000000E+00  0.00000000000E+00  0.45593999997E+02  0.45594000000E+02  0.51100000000E-03 0.  1.
         11   -1    0    0    0    0 -0.00000000000E+00 -0.00000000000E+00 -0.45593999997E+02  0.45594000000E+02  0.51100000000E-03 0. -1.
    9900012    2    1    2    0    0 -0.17714829030E+02  0.97205075786E+01 -0.24666124129E+02  0.59301935415E+02  0.49999984293E+02 0.  0.
        -12    1    1    2    0    0  0.17714829030E+02 -0.97205075786E+01  0.24666124129E+02  0.31886064585E+02  0.00000000000E+00 0.  1.
         11    1    3    3    0    0 -0.86613606887E+00  0.11495716989E+02  0.17297637622E+01  0.11657348915E+02  0.51100000000E-03 0. -1.
        -11    1    3    3    0    0 -0.15842259200E+02  0.91333917651E+01  0.82181672455E+00  0.18304955741E+02  0.51100000000E-03 0.  1.
        -12    1    3    3    0    0 -0.10064337606E+01 -0.10908601176E+02 -0.27217704616E+02  0.29339630759E+02  0.00000000000E+00 0.  1.
</event>
<event>
 7    1  0.1220856E-011  0.5930195E+02  0.7816164E-02  0.1266605E+00
        -11   -1    0    0    0    0  0.00000000000E+00  0.00000000000E+00  0.45593999997E+02  0.45594000000E+02  0.51100000000E-03 0.  1.
         11   -1    0    0    0    0 -0.00000000000E+00 -0.00000000000E+00 -0.45593999997E+02  0.45594000000E+02  0.51100000000E-03 0. -1.
    9900012    2    1    2    0    0  0.15052047751E+02 -0.41199756593E+01 -0.27806149559E+02  0.59301948281E+02  0.50000007758E+02 0.  0.
        -12    1    1    2    0    0 -0.15052047751E+02  0.41199756593E+01  0.27806149559E+02  0.31886051719E+02  0.00000000000E+00 0.  1.
         11    1    3    3    0    0  0.17098557335E+02 -0.19942535429E+02 -0.29698616274E+02  0.39649378193E+02  0.51100000000E-03 0. -1.
        -11    1    3    3    0    0  0.96403882927E+00 -0.15907984330E+00  0.31918184100E+01  0.33380207136E+01  0.51100000000E-03 0.  1.
        -12    1    3    3    0    0 -0.30105484136E+01  0.15981639613E+02 -0.12993516953E+01  0.16314549375E+02  0.00000000000E+00 0.  1.
</event>
<event>
 7    1  0.1220856E-011  0.5930194E+02  0.7816164E-02  0.1266605E+00
        -11   -1    0    0    0    0  0.00000000000E+00  0.00000000000E+00  0.45593999997E+02  0.45594000000E+02  0.51100000000E-03 0.  1.
         11   -1    0    0    0    0 -0.00000000000E+00 -0.00000000000E+00 -0.45593999997E+02  0.45594000000E+02  0.51100000000E-03 0. -1.
    9900012    2    1    2    0    0  0.28959767859E+02  0.73179635353E+01  0.11157959522E+02  0.59301940265E+02  0.49999993138E+02 0.  0.
        -12    1    1    2    0    0 -0.28959767859E+02 -0.73179635353E+01 -0.11157959522E+02  0.31886059735E+02  0.00000000000E+00 0.  1.
         11    1    3    3    0    0  0.57537763712E+01  0.13359827186E+02  0.78461275046E+01  0.16527330155E+02  0.51100000000E-03 0. -1.
        -11    1    3    3    0    0 -0.52739659177E+01  0.88498521414E+01 -0.99019223517E+00  0.10349641557E+02  0.51100000000E-03 0.  1.
         12    1    3    3    0    0  0.28479957405E+02 -0.14891715792E+02  0.43020242526E+01  0.32424968554E+02  0.00000000000E+00 0. -1.
</event>
<event>
 7    1  0.1220856E-011  0.5930195E+02  0.7816164E-02  0.1266605E+00
        -11   -1    0    0    0    0  0.00000000000E+00  0.00000000000E+00  0.45593999997E+02  0.45594000000E+02  0.51100000000E-03 0. -1.
         11   -1    0    0    0    0 -0.00000000000E+00 -0.00000000000E+00 -0.45593999997E+02  0.45594000000E+02  0.51100000000E-03 0.  1.
    9900012    2    1    2    0    0 -0.10219478152E+02  0.11530510640E+02  0.27916479011E+02  0.59301949607E+02  0.50000010175E+02 0.  0.
        -12    1    1    2    0    0  0.10219478152E+02 -0.11530510640E+02 -0.27916479011E+02  0.31886050393E+02  0.00000000000E+00 0.  1.
         11    1    3    3    0    0  0.87500651386E+01  0.54760250588E+01  0.22694910349E+01  0.10568873175E+02  0.51100000000E-03 0. -1.
        -11    1    3    3    0    0 -0.69882215452E+01  0.49165852818E+01 -0.87870104905E+01  0.12256410764E+02  0.51100000000E-03 0.  1.
         12    1    3    3    0    0 -0.11981321746E+02  0.11379002990E+01  0.34433998466E+02  0.36476665668E+02  0.00000000000E+00 0. -1.
</event>
<event>
 7    1  0.1220856E-011  0.5930194E+02  0.7816164E-02  0.1266605E+00
        -11   -1    0    0    0    0  0.00000000000E+00  0.00000000000E+00  0.45593999997E+02  0.45594000000E+02  0.51100000000E-03 0.  1.
         11   -1    0    0    0    0 -0.00000000000E+00 -0.00000000000E+00 -0.45593999997E+02  0.45594000000E+02  0.51100000000E-03 0. -1.
    9900012    2    1    2    0    0 -0.29429031594E+02 -0.11523296128E+02 -0.42268554473E+01  0.59301944095E+02  0.50000000123E+02 0.  0.
        -12    1    1    2    0    0  0.29429031594E+02  0.11523296128E+02  0.42268554473E+01  0.31886055905E+02  0.00000000000E+00 0.  1.
         11    1    3    3    0    0 -0.27780275975E+02 -0.31602118639E+01  0.77616962168E+01  0.29016798595E+02  0.51100000000E-03 0. -1.
        -11    1    3    3    0    0 -0.13882922980E+02 -0.48974846179E+01 -0.39514614459E+01  0.15242537645E+02  0.51100000000E-03 0.  1.
        -12    1    3    3    0    0  0.12234167361E+02 -0.34655996457E+01 -0.80370902182E+01  0.15042607855E+02  0.00000000000E+00 0.  1.
</event>
<event>
 7    1  0.1220856E-011  0.5930195E+02  0.7816164E-02  0.1266605E+00
        -11   -1    0    0    0    0  0.00000000000E+00  0.00000000000E+00  0.45593999997E+02  0.45594000000E+02  0.51100000000E-03 0.  1.
         11   -1    0    0    0    0 -0.00000000000E+00 -0.00000000000E+00 -0.45593999997E+02  0.45594000000E+02  0.51100000000E-03 0. -1.
    9900012    2    1    2    0    0 -0.13630757530E+02  0.56268646976E+01 -0.28271207472E+02  0.59301947734E+02  0.50000006759E+02 0.  0.
        -12    1    1    2    0    0  0.13630757530E+02 -0.56268646976E+01  0.28271207472E+02  0.31886052266E+02  0.00000000000E+00 0.  1.
         11    1    3    3    0    0 -0.89327848317E+01 -0.28621133003E+01 -0.33327007124E+02  0.34621896850E+02  0.51100000000E-03 0. -1.
        -11    1    3    3    0    0  0.85333422270E+01  0.37951371643E+01 -0.99566991551E+00  0.93921432325E+01  0.51100000000E-03 0.  1.
        -12    1    3    3    0    0 -0.13231314925E+02  0.46938408337E+01  0.60514695673E+01  0.15287907651E+02  0.00000000000E+00 0.  1.
</event>
<event>
 7    1  0.1220856E-011  0.5930193E+02  0.7816164E-02  0.1266605E+00
        -11   -1    0    0    0    0  0.00000000000E+00  0.00000000000E+00  0.45593999997E+02  0.45594000000E+02  0.51100000000E-03 0.  1.
         11   -1    0    0    0    0 -0.00000000000E+00 -0.00000000000E+00 -0.45593999997E+02  0.45594000000E+02  0.51100000000E-03 0. -1.
    9900012    2    1    2    0    0  0.57960316755E+01  0.30514661142E+02 -0.72099237809E+01  0.59301928923E+02  0.49999972453E+02 0.  0.
        -12    1    1    2    0    0 -0.57960316755E+01 -0.30514661142E+02  0.72099237809E+01  0.31886071077E+02  0.00000000000E+00 0.  1.
         11    1    3    3    0    0 -0.11538350617E+00 -0.73009188609E+01 -0.69491424368E+01  0.10080045160E+02  0.51100000000E-03 0. -1.
        -11    1    3    3    0    0  0.12295726374E+02  0.27227773170E+02  0.11638424736E+02  0.32062274552E+02  0.51100000000E-03 0.  1.
         12    1    3    3    0    0 -0.63843111921E+01  0.10587806833E+02 -0.11899206080E+02  0.17159609211E+02  0.00000000000E+00 0. -1.
</event>
<event>
 7    1  0.1220856E-011  0.5930193E+02  0.7816164E-02  0.1266605E+00
        -11   -1    0    0    0    0  0.00000000000E+00  0.00000000000E+00  0.45593999997E+02  0.45594000000E+02  0.51100000000E-03 0.  1.
         11   -1    0    0    0    0 -0.00000000000E+00 -0.00000000000E+00 -0.45593999997E+02  0.45594000000E+02  0.51100000000E-03 0. -1.
    9900012    2    1    2    0    0 -0.29293629018E+02 -0.12550753810E+02  0.10408746692E+01  0.59301928709E+02  0.49999972063E+02 0.  0.
        -12    1    1    2    0    0  0.29293629018E+02  0.12550753810E+02 -0.10408746692E+01  0.31886071291E+02  0.00000000000E+00 0.  1.
         11    1    3    3    0    0 -0.29310550808E+01 -0.73481580472E+01  0.50594771869E+01  0.93906773046E+01  0.51100000000E-03 0. -1.
        -11    1    3    3    0    0  0.49077529392E+01 -0.78363271799E-01 -0.15460824260E+02  0.16221259716E+02  0.51100000000E-03 0.  1.
         12    1    3    3    0    0 -0.31270326877E+02 -0.51242324914E+01  0.11442221742E+02  0.33689991689E+02  0.00000000000E+00 0. -1.
</event>
<event>
 7    1  0.1220856E-011  0.5930191E+02  0.7816164E-02  0.1266605E+00
        -11   -1    0    0    0    0  0.00000000000E+00  0.00000000000E+00  0.45593999997E+02  0.45594000000E+02  0.51100000000E-03 0.  1.
         11   -1    0    0    0    0 -0.00000000000E+00 -0.00000000000E+00 -0.45593999997E+02  0.45594000000E+02  0.51100000000E-03 0. -1.
    9900012    2    1    2    0    0 -0.87719574200E+01  0.28509387385E+02 -0.11268984651E+02  0.59301914929E+02  0.49999946932E+02 0.  0.
        -12    1    1    2    0    0  0.87719574200E+01 -0.28509387385E+02  0.11268984651E+02  0.31886085071E+02  0.00000000000E+00 0.  1.
         11    1    3    3    0    0 -0.12768232254E+02  0.28252856493E+02 -0.93047180355E+01  0.32370193588E+02  0.51100000000E-03 0. -1.
        -11    1    3    3    0    0 -0.10698394429E+01  0.41234884176E+01 -0.13278946630E+02  0.13945541834E+02  0.51100000000E-03 0.  1.
        -12    1    3    3    0    0  0.50661142770E+01 -0.38669575257E+01  0.11314680015E+02  0.12986179508E+02  0.00000000000E+00 0.  1.
</event>
<event>
 7    1  0.1220856E-011  0.5930197E+02  0.7816164E-02  0.1266605E+00
        -11   -1    0    0    0    0  0.00000000000E+00  0.00000000000E+00  0.45593999997E+02  0.45594000000E+02  0.51100000000E-03 0. -1.
         11   -1    0    0    0    0 -0.00000000000E+00 -0.00000000000E+00 -0.45593999997E+02  0.45594000000E+02  0.51100000000E-03 0.  1.
    9900012    2    1    2    0    0  0.15270055551E+02 -0.19998855241E+02  0.19585448847E+02  0.59301974628E+02  0.50000055807E+02 0.  0.
        -12    1    1    2    0    0 -0.15270055551E+02  0.19998855241E+02 -0.19585448847E+02  0.31886025372E+02  0.00000000000E+00 0.  1.
         11    1    3    3    0    0  0.13742780691E+01 -0.83369949661E+01 -0.54823458935E+01  0.10072251091E+02  0.51100000000E-03 0. -1.
        -11    1    3    3    0    0  0.21174707227E+02 -0.19700150896E+02  0.98695336928E+01  0.30559317189E+02  0.51100000000E-03 0.  1.
         12    1    3    3    0    0 -0.72789297451E+01  0.80382906207E+01  0.15198261048E+02  0.18670406348E+02  0.00000000000E+00 0. -1.
</event>
<event>
 7    1  0.1220856E-011  0.5930197E+02  0.7816164E-02  0.1266605E+00
        -11   -1    0    0    0    0  0.00000000000E+00  0.00000000000E+00  0.45593999997E+02  0.45594000000E+02  0.51100000000E-03 0.  1.
         11   -1    0    0    0    0 -0.00000000000E+00 -0.00000000000E+00 -0.45593999997E+02  0.45594000000E+02  0.51100000000E-03 0. -1.
    9900012    2    1    2    0    0  0.16251173197E+02  0.73770329863E+01 -0.26423433911E+02  0.59301966920E+02  0.50000041750E+02 0.  0.
        -12    1    1    2    0    0 -0.16251173197E+02 -0.73770329863E+01  0.26423433911E+02  0.31886033080E+02  0.00000000000E+00 0.  1.
         11    1    3    3    0    0  0.92817308382E+01  0.21904863727E+01 -0.30412455582E+02  0.31872656191E+02  0.51100000000E-03 0. -1.
        -11    1    3    3    0    0 -0.52622516712E+01  0.92398333282E+01 -0.49677025917E+01  0.11736433951E+02  0.51100000000E-03 0.  1.
        -12    1    3    3    0    0  0.12231694030E+02 -0.40532867147E+01  0.89567242628E+01  0.15692876778E+02  0.00000000000E+00 0.  1.
</event>
<event>
 7    1  0.1220856E-011  0.5930176E+02  0.7816164E-02  0.1266605E+00
        -11   -1    0    0    0    0  0.00000000000E+00  0.00000000000E+00  0.45593999997E+02  0.45594000000E+02  0.51100000000E-03 0.  1.
         11   -1    0    0    0    0 -0.00000000000E+00 -0.00000000000E+00 -0.45593999997E+02  0.45594000000E+02  0.51100000000E-03 0. -1.
    9900012    2    1    2    0    0  0.27797397160E+02 -0.11375334200E+02 -0.10706947453E+02  0.59301760949E+02  0.49999666107E+02 0.  0.
        -12    1    1    2    0    0 -0.27797397160E+02  0.11375334200E+02  0.10706947453E+02  0.31886239051E+02  0.00000000000E+00 0.  1.
         11    1    3    3    0    0  0.23617942940E+02 -0.11843295398E+02 -0.68877852713E-01  0.26421120700E+02  0.51100000000E-03 0. -1.
        -11    1    3    3    0    0  0.99362602497E+01  0.42763937645E+01  0.77055785173E+01  0.13281293308E+02  0.51100000000E-03 0.  1.
        -12    1    3    3    0    0 -0.57568060292E+01 -0.38084325665E+01 -0.18343648118E+02  0.19599346942E+02  0.00000000000E+00 0.  1.
</event>
<event>
 7    1  0.1220856E-011  0.5930177E+02  0.7816164E-02  0.1266605E+00
        -11   -1    0    0    0    0  0.00000000000E+00  0.00000000000E+00  0.45593999997E+02  0.45594000000E+02  0.51100000000E-03 0.  1.
         11   -1    0    0    0    0 -0.00000000000E+00 -0.00000000000E+00 -0.45593999997E+02  0.45594000000E+02  0.51100000000E-03 0. -1.
    9900012    2    1    2    0    0  0.30433423711E+02  0.86588833060E+01  0.39448981379E+01  0.59301768486E+02  0.49999679853E+02 0.  0.
        -12    1    1    2    0    0 -0.30433423711E+02 -0.86588833060E+01 -0.39448981379E+01  0.31886231514E+02  0.00000000000E+00 0.  1.
         11    1    3    3    0    0  0.17659474463E+02  0.22384236325E+01  0.45372790644E+01  0.18369934138E+02  0.51100000000E-03 0. -1.
        -11    1    3    3    0    0  0.15130744559E+02  0.21117549683E+02 -0.14779476517E+01  0.26020658428E+02  0.51100000000E-03 0.  1.
        -12    1    3    3    0    0 -0.23567953115E+01 -0.14697090009E+02  0.88556672523E+00  0.14911175920E+02  0.00000000000E+00 0.  1.
</event>
<event>
 7    1  0.1220856E-011  0.5930195E+02  0.7816164E-02  0.1266605E+00
        -11   -1    0    0    0    0  0.00000000000E+00  0.00000000000E+00  0.45593999997E+02  0.45594000000E+02  0.51100000000E-03 0. -1.
         11   -1    0    0    0    0 -0.00000000000E+00 -0.00000000000E+00 -0.45593999997E+02  0.45594000000E+02  0.51100000000E-03 0.  1.
    9900012    2    1    2    0    0  0.21986754570E+02 -0.17368126670E+02  0.15220081757E+02  0.59301951496E+02  0.50000013620E+02 0.  0.
        -12    1    1    2    0    0 -0.21986754570E+02  0.17368126670E+02 -0.15220081757E+02  0.31886048504E+02  0.00000000000E+00 0.  1.
         11    1    3    3    0    0  0.98444484260E+01 -0.22160058050E+00  0.19256690977E+02  0.21628278232E+02  0.51100000000E-03 0. -1.
        -11    1    3    3    0    0 -0.45834016971E+01  0.32132283439E+01  0.71227167686E+01  0.90590011554E+01  0.51100000000E-03 0.  1.
        -12    1    3    3    0    0  0.16725707841E+02 -0.20359754433E+02 -0.11159325989E+02  0.28614672108E+02  0.00000000000E+00 0.  1.
</event>
<event>
 7    1  0.1220856E-011  0.5930195E+02  0.7816164E-02  0.1266605E+00
        -11   -1    0    0    0    0  0.00000000000E+00  0.00000000000E+00  0.45593999997E+02  0.45594000000E+02  0.51100000000E-03 0. -1.
         11   -1    0    0    0    0 -0.00000000000E+00 -0.00000000000E+00 -0.45593999997E+02  0.45594000000E+02  0.51100000000E-03 0.  1.
    9900012    2    1    2    0    0  0.29142076042E+02 -0.71210417029E+01  0.10805116121E+02  0.59301947166E+02  0.50000005723E+02 0.  0.
        -12    1    1    2    0    0 -0.29142076042E+02  0.71210417029E+01 -0.10805116121E+02  0.31886052834E+02  0.00000000000E+00 0.  1.
         11    1    3    3    0    0 -0.57538833839E+01  0.63808178658E+01  0.63700407218E+01  0.10695766905E+02  0.51100000000E-03 0. -1.
        -11    1    3    3    0    0  0.10886902079E+02  0.24421181927E+01  0.14305344323E+02  0.18141980450E+02  0.51100000000E-03 0.  1.
         12    1    3    3    0    0  0.24009057346E+02 -0.15943977761E+02 -0.98702689239E+01  0.30464199811E+02  0.00000000000E+00 0. -1.
</event>
<event>
 7    1  0.1220856E-011  0.5930190E+02  0.7816164E-02  0.1266605E+00
        -11   -1    0    0    0    0  0.00000000000E+00  0.00000000000E+00  0.45593999997E+02  0.45594000000E+02  0.51100000000E-03 0. -1.
         11   -1    0    0    0    0 -0.00000000000E+00 -0.00000000000E+00 -0.45593999997E+02  0.45594000000E+02  0.51100000000E-03 0.  1.
    9900012    2    1    2    0    0 -0.97010099488E+01 -0.76649277743E+01  0.29391536601E+02  0.59301903726E+02  0.49999926500E+02 0.  0.
        -12    1    1    2    0    0  0.97010099488E+01  0.76649277743E+01 -0.29391536601E+02  0.31886096274E+02  0.00000000000E+00 0.  1.
         11    1    3    3    0    0  0.69101013833E+01  0.10285446182E+02  0.10755693347E+02  0.16408072523E+02  0.51100000000E-03 0. -1.
        -11    1    3    3    0    0 -0.60962280420E+00 -0.15634202957E+02  0.21380905134E+02  0.26494207795E+02  0.51100000000E-03 0.  1.
        -12    1    3    3    0    0 -0.16001488528E+02 -0.23161709988E+01 -0.27450618807E+01  0.16399623408E+02  0.00000000000E+00 0.  1.
</event>
<event>
 7    1  0.1220856E-011  0.5930195E+02  0.7816164E-02  0.1266605E+00
        -11   -1    0    0    0    0  0.00000000000E+00  0.00000000000E+00  0.45593999997E+02  0.45594000000E+02  0.51100000000E-03 0.  1.
         11   -1    0    0    0    0 -0.00000000000E+00 -0.00000000000E+00 -0.45593999997E+02  0.45594000000E+02  0.51100000000E-03 0. -1.
    9900012    2    1    2    0    0 -0.15849652497E+02  0.25629715968E+02  0.10422404967E+02  0.59301947403E+02  0.50000006157E+02 0.  0.
        -12    1    1    2    0    0  0.15849652497E+02 -0.25629715968E+02 -0.10422404967E+02  0.31886052597E+02  0.00000000000E+00 0.  1.
         11    1    3    3    0    0 -0.21060889139E+02  0.17180812263E+02 -0.98235061947E+01  0.28900564623E+02  0.51100000000E-03 0. -1.
        -11    1    3    3    0    0 -0.44334069380E+01 -0.42510647370E+01  0.89664157138E+01  0.10868452488E+02  0.51100000000E-03 0.  1.
        -12    1    3    3    0    0  0.96446435800E+01  0.12699968443E+02  0.11279495448E+02  0.19532930292E+02  0.00000000000E+00 0.  1.
</event>
<event>
 7    1  0.1220856E-011  0.5930194E+02  0.7816164E-02  0.1266605E+00
        -11   -1    0    0    0    0  0.00000000000E+00  0.00000000000E+00  0.45593999997E+02  0.45594000000E+02  0.51100000000E-03 0.  1.
         11   -1    0    0    0    0 -0.00000000000E+00 -0.00000000000E+00 -0.45593999997E+02  0.45594000000E+02  0.51100000000E-03 0. -1.
    9900012    2    1    2    0    0 -0.80386630603E+01  0.11546252365E+01 -0.30834519289E+02  0.59301939676E+02  0.49999992063E+02 0.  0.
        -12    1    1    2    0    0  0.80386630603E+01 -0.11546252365E+01  0.30834519289E+02  0.31886060324E+02  0.00000000000E+00 0.  1.
         11    1    3    3    0    0 -0.69598917489E+01 -0.43972924843E+00 -0.21621650183E+02  0.22718477323E+02  0.51100000000E-03 0. -1.
        -11    1    3    3    0    0 -0.15817950766E+02 -0.80821515258E+01 -0.41986833584E+01  0.18252607538E+02  0.51100000000E-03 0.  1.
         12    1    3    3    0    0  0.14739179454E+02  0.96765060107E+01 -0.50141857473E+01  0.18330854816E+02  0.00000000000E+00 0. -1.
</event>
<event>
 7    1  0.1220856E-011  0.5930155E+02  0.7816164E-02  0.1266606E+00
        -11   -1    0    0    0    0  0.00000000000E+00  0.00000000000E+00  0.45593999997E+02  0.45594000000E+02  0.51100000000E-03 0. -1.
         11   -1    0    0    0    0 -0.00000000000E+00 -0.00000000000E+00 -0.45593999997E+02  0.45594000000E+02  0.51100000000E-03 0.  1.
    9900012    2    1    2    0    0  0.27005657635E+02 -0.39749836928E+01  0.16481493845E+02  0.59301550229E+02  0.49999281800E+02 0.  0.
        -12    1    1    2    0    0 -0.27005657635E+02  0.39749836928E+01 -0.16481493845E+02  0.31886449771E+02  0.00000000000E+00 0.  1.
         11    1    3    3    0    0  0.79576814246E+01 -0.17788997513E+02  0.61721055756E+01  0.20441820214E+02  0.51100000000E-03 0. -1.
        -11    1    3    3    0    0 -0.67982981188E+01  0.67250845023E+01  0.70095823670E+01  0.11856553635E+02  0.51100000000E-03 0.  1.
        -12    1    3    3    0    0  0.25846274329E+02  0.70889293180E+01  0.32998059024E+01  0.27003176379E+02  0.00000000000E+00 0.  1.
</event>
<event>
 7    1  0.1220856E-011  0.5930216E+02  0.7816164E-02  0.1266604E+00
        -11   -1    0    0    0    0  0.00000000000E+00  0.00000000000E+00  0.45593999997E+02  0.45594000000E+02  0.51100000000E-03 0.  1.
         11   -1    0    0    0    0 -0.00000000000E+00 -0.00000000000E+00 -0.45593999997E+02  0.45594000000E+02  0.51100000000E-03 0. -1.
    9900012    2    1    2    0    0 -0.29650324938E+02  0.54927073243E+01  0.10363154965E+02  0.59302163278E+02  0.50000399858E+02 0.  0.
        -12    1    1    2    0    0  0.29650324938E+02 -0.54927073243E+01 -0.10363154965E+02  0.31885836722E+02  0.00000000000E+00 0.  1.
         11    1    3    3    0    0  0.44359034859E+01  0.14794928405E+02  0.96319190586E+01  0.18202774823E+02  0.51100000000E-03 0. -1.
        -11    1    3    3    0    0 -0.53392064652E+01  0.12349932928E+00 -0.79936121481E+01  0.96135432176E+01  0.51100000000E-03 0.  1.
        -12    1    3    3    0    0 -0.28747021958E+02 -0.94257204098E+01  0.87248480541E+01  0.31485845237E+02  0.00000000000E+00 0.  1.
</event>
<event>
 7    1  0.1220856E-011  0.5930192E+02  0.7816164E-02  0.1266605E+00
        -11   -1    0    0    0    0  0.00000000000E+00  0.00000000000E+00  0.45593999997E+02  0.45594000000E+02  0.51100000000E-03 0.  1.
         11   -1    0    0    0    0 -0.00000000000E+00 -0.00000000000E+00 -0.45593999997E+02  0.45594000000E+02  0.51100000000E-03 0. -1.
    9900012    2    1    2    0    0  0.15062053725E+02 -0.51414229402E+01 -0.27630097694E+02  0.59301921677E+02  0.49999959237E+02 0.  0.
        -12    1    1    2    0    0 -0.15062053725E+02  0.51414229402E+01  0.27630097694E+02  0.31886078323E+02  0.00000000000E+00 0.  1.
         11    1    3    3    0    0  0.10126436428E+02 -0.15940565208E+02 -0.18647242351E+02  0.26539894149E+02  0.51100000000E-03 0. -1.
        -11    1    3    3    0    0  0.38546470732E+01 -0.95396429827E+01 -0.66742365253E+01  0.12264115368E+02  0.51100000000E-03 0.  1.
        -12    1    3    3    0    0  0.10809702239E+01  0.20338785250E+02 -0.23086188179E+01  0.20497912160E+02  0.00000000000E+00 0.  1.
</event>
<event>
 7    1  0.1220856E-011  0.5930195E+02  0.7816164E-02  0.1266605E+00
        -11   -1    0    0    0    0  0.00000000000E+00  0.00000000000E+00  0.45593999997E+02  0.45594000000E+02  0.51100000000E-03 0.  1.
         11   -1    0    0    0    0 -0.00000000000E+00 -0.00000000000E+00 -0.45593999997E+02  0.45594000000E+02  0.51100000000E-03 0. -1.
    9900012    2    1    2    0    0  0.20814454804E+01  0.21577660791E+02  0.23383587824E+02  0.59301952267E+02  0.50000015027E+02 0.  0.
        -12    1    1    2    0    0 -0.20814454804E+01 -0.21577660791E+02 -0.23383587824E+02  0.31886047733E+02  0.00000000000E+00 0.  1.
         11    1    3    3    0    0  0.33913766366E+01 -0.81139951337E+01 -0.67657614036E+01  0.11095669432E+02  0.51100000000E-03 0. -1.
        -11    1    3    3    0    0 -0.37977060785E+01  0.39836355723E+01 -0.29323020448E+01  0.62362103376E+01  0.51100000000E-03 0.  1.
        -12    1    3    3    0    0  0.24877749223E+01  0.25708020352E+02  0.33081651272E+02  0.41970072497E+02  0.00000000000E+00 0.  1.
</event>
<event>
 7    1  0.1220856E-011  0.5930192E+02  0.7816164E-02  0.1266605E+00
        -11   -1    0    0    0    0  0.00000000000E+00  0.00000000000E+00  0.45593999997E+02  0.45594000000E+02  0.51100000000E-03 0. -1.
         11   -1    0    0    0    0 -0.00000000000E+00 -0.00000000000E+00 -0.45593999997E+02  0.45594000000E+02  0.51100000000E-03 0.  1.
    9900012    2    1    2    0    0  0.44136411895E+01  0.21318661891E+02  0.23297128809E+02  0.59301924918E+02  0.49999965148E+02 0.  0.
        -12    1    1    2    0    0 -0.44136411895E+01 -0.21318661891E+02 -0.23297128809E+02  0.31886075082E+02  0.00000000000E+00 0.  1.
         11    1    3    3    0    0  0.65844959389E+01  0.19311930792E+02 -0.36428121718E+01  0.20726223449E+02  0.51100000000E-03 0. -1.
        -11    1    3    3    0    0  0.10245932312E+02  0.68008935081E+01  0.58052048299E+01  0.13598958961E+02  0.51100000000E-03 0.  1.
        -12    1    3    3    0    0 -0.12416787061E+02 -0.47941624086E+01  0.21134736151E+02  0.24976742508E+02  0.00000000000E+00 0.  1.
</event>
<event>
 7    1  0.1220856E-011  0.5930186E+02  0.7816164E-02  0.1266605E+00
        -11   -1    0    0    0    0  0.00000000000E+00  0.00000000000E+00  0.45593999997E+02  0.45594000000E+02  0.51100000000E-03 0.  1.
         11   -1    0    0    0    0 -0.00000000000E+00 -0.00000000000E+00 -0.45593999997E+02  0.45594000000E+02  0.51100000000E-03 0. -1.
    9900012    2    1    2    0    0 -0.24405854317E+02 -0.20275742862E+02  0.31582003929E+01  0.59301863463E+02  0.49999853070E+02 0.  0.
        -12    1    1    2    0    0  0.24405854317E+02  0.20275742862E+02 -0.31582003929E+01  0.31886136537E+02  0.00000000000E+00 0.  1.
         11    1    3    3    0    0 -0.78879866917E+01 -0.12552838220E+02  0.20590450439E+01  0.14967756952E+02  0.51100000000E-03 0. -1.
        -11    1    3    3    0    0 -0.58164321448E+01 -0.76715728081E+01  0.20235385405E+02  0.22408809317E+02  0.51100000000E-03 0.  1.
         12    1    3    3    0    0 -0.10701435480E+02 -0.51331833863E-01 -0.19136230056E+02  0.21925297194E+02  0.00000000000E+00 0. -1.
</event>
<event>
 7    1  0.1220856E-011  0.5930192E+02  0.7816164E-02  0.1266605E+00
        -11   -1    0    0    0    0  0.00000000000E+00  0.00000000000E+00  0.45593999997E+02  0.45594000000E+02  0.51100000000E-03 0.  1.
         11   -1    0    0    0    0 -0.00000000000E+00 -0.00000000000E+00 -0.45593999997E+02  0.45594000000E+02  0.51100000000E-03 0. -1.
    9900012    2    1    2    0    0  0.30136209209E+02  0.61020227356E+01  0.84437090719E+01  0.59301921379E+02  0.49999958694E+02 0.  0.
        -12    1    1    2    0    0 -0.30136209209E+02 -0.61020227356E+01 -0.84437090719E+01  0.31886078621E+02  0.00000000000E+00 0.  1.
         11    1    3    3    0    0  0.23889613185E+02 -0.28681010986E+01  0.70165447557E+01  0.25063350187E+02  0.51100000000E-03 0. -1.
        -11    1    3    3    0    0  0.16256040059E+02 -0.35330300247E+01 -0.43793690924E+01  0.17202325815E+02  0.51100000000E-03 0.  1.
        -12    1    3    3    0    0 -0.10009444035E+02  0.12503153859E+02  0.58065334086E+01  0.17036245377E+02  0.00000000000E+00 0.  1.
</event>
<event>
 7    1  0.1220856E-011  0.5930196E+02  0.7816164E-02  0.1266605E+00
        -11   -1    0    0    0    0  0.00000000000E+00  0.00000000000E+00  0.45593999997E+02  0.45594000000E+02  0.51100000000E-03 0.  1.
         11   -1    0    0    0    0 -0.00000000000E+00 -0.00000000000E+00 -0.45593999997E+02  0.45594000000E+02  0.51100000000E-03 0. -1.
    9900012    2    1    2    0    0  0.22533499053E+02 -0.10061304908E+02 -0.20192359442E+02  0.59301955782E+02  0.50000021438E+02 0.  0.
        -12    1    1    2    0    0 -0.22533499053E+02  0.10061304908E+02  0.20192359442E+02  0.31886044218E+02  0.00000000000E+00 0.  1.
         11    1    3    3    0    0  0.13866128725E+02 -0.20686138310E+02 -0.11931406188E+02  0.27614204639E+02  0.51100000000E-03 0. -1.
        -11    1    3    3    0    0 -0.64084871046E+01 -0.55341776256E+01 -0.28646025886E+01  0.89387794029E+01  0.51100000000E-03 0.  1.
         12    1    3    3    0    0  0.15075857433E+02  0.16159011028E+02 -0.53963506655E+01  0.22748971740E+02  0.00000000000E+00 0. -1.
</event>
<event>
 7    1  0.1220856E-011  0.5930194E+02  0.7816164E-02  0.1266605E+00
        -11   -1    0    0    0    0  0.00000000000E+00  0.00000000000E+00  0.45593999997E+02  0.45594000000E+02  0.51100000000E-03 0. -1.
         11   -1    0    0    0    0 -0.00000000000E+00 -0.00000000000E+00 -0.45593999997E+02  0.45594000000E+02  0.51100000000E-03 0.  1.
    9900012    2    1    2    0    0 -0.99689927485E+01  0.24531502143E+02  0.17763600891E+02  0.59301938305E+02  0.49999989564E+02 0.  0.
        -12    1    1    2    0    0  0.99689927485E+01 -0.24531502143E+02 -0.17763600891E+02  0.31886061695E+02  0.00000000000E+00 0.  1.
         11    1    3    3    0    0 -0.13571716056E+02  0.61057999589E+01  0.56511628832E+01  0.15918791161E+02  0.51100000000E-03 0.  1.
        -11    1    3    3    0    0  0.20186570439E+02  0.64246144328E+01  0.64195779733E+01  0.22135588502E+02  0.51100000000E-03 0. -1.
         12    1    3    3    0    0 -0.16583847132E+02  0.12001087751E+02  0.56928600341E+01  0.21247558642E+02  0.00000000000E+00 0. -1.
</event>
<event>
 7    1  0.1220856E-011  0.5930192E+02  0.7816164E-02  0.1266605E+00
        -11   -1    0    0    0    0  0.00000000000E+00  0.00000000000E+00  0.45593999997E+02  0.45594000000E+02  0.51100000000E-03 0.  1.
         11   -1    0    0    0    0 -0.00000000000E+00 -0.00000000000E+00 -0.45593999997E+02  0.45594000000E+02  0.51100000000E-03 0. -1.
    9900012    2    1    2    0    0  0.25744647343E+01  0.40487412086E+01 -0.31523042389E+02  0.59301915644E+02  0.49999948236E+02 0.  0.
        -12    1    1    2    0    0 -0.25744647343E+01 -0.40487412086E+01  0.31523042389E+02  0.31886084356E+02  0.00000000000E+00 0.  1.
         11    1    3    3    0    0  0.14647702225E+02  0.11563867067E+02 -0.11739484578E+02  0.22047532751E+02  0.51100000000E-03 0. -1.
        -11    1    3    3    0    0 -0.48453170862E+00  0.72254111998E+01  0.29206755412E+01  0.78084367105E+01  0.51100000000E-03 0.  1.
        -12    1    3    3    0    0 -0.11588705782E+02 -0.14740537058E+02 -0.22704233353E+02  0.29445946182E+02  0.00000000000E+00 0.  1.
</event>
<event>
 7    1  0.1220856E-011  0.5930195E+02  0.7816164E-02  0.1266605E+00
        -11   -1    0    0    0    0  0.00000000000E+00  0.00000000000E+00  0.45593999997E+02  0.45594000000E+02  0.51100000000E-03 0. -1.
         11   -1    0    0    0    0 -0.00000000000E+00 -0.00000000000E+00 -0.45593999997E+02  0.45594000000E+02  0.51100000000E-03 0.  1.
    9900012    2    1    2    0    0 -0.20945669223E+02 -0.19666198229E+02  0.13828956459E+02  0.59301945858E+02  0.50000003339E+02 0.  0.
        -12    1    1    2    0    0  0.20945669223E+02  0.19666198229E+02 -0.13828956459E+02  0.31886054142E+02  0.00000000000E+00 0.  1.
         11    1    3    3    0    0 -0.26906552613E+02 -0.77302211045E+01  0.77505120761E+01  0.29048052078E+02  0.51100000000E-03 0. -1.
        -11    1    3    3    0    0 -0.34625134893E+01  0.19693203689E+01  0.11842826059E+02  0.12494788982E+02  0.51100000000E-03 0.  1.
         12    1    3    3    0    0  0.94233968789E+01 -0.13905297494E+02 -0.57643816766E+01  0.17759104798E+02  0.00000000000E+00 0. -1.
</event>
<event>
 7    1  0.1220856E-011  0.5930196E+02  0.7816164E-02  0.1266605E+00
        -11   -1    0    0    0    0  0.00000000000E+00  0.00000000000E+00  0.45593999997E+02  0.45594000000E+02  0.51100000000E-03 0.  1.
         11   -1    0    0    0    0 -0.00000000000E+00 -0.00000000000E+00 -0.45593999997E+02  0.45594000000E+02  0.51100000000E-03 0. -1.
    9900012    2    1    2    0    0  0.17688272338E+02 -0.14847295020E+02 -0.21986411946E+02  0.59301961394E+02  0.50000031672E+02 0.  0.
        -12    1    1    2    0    0 -0.17688272338E+02  0.14847295020E+02  0.21986411946E+02  0.31886038606E+02  0.00000000000E+00 0.  1.
         11    1    3    3    0    0  0.83749643758E+01 -0.50392601989E+01 -0.27994753172E+02  0.29651987742E+02  0.51100000000E-03 0. -1.
        -11    1    3    3    0    0  0.10936159266E+02  0.59829257538E+01 -0.54184807743E+00  0.12477522978E+02  0.51100000000E-03 0.  1.
         12    1    3    3    0    0 -0.16228513042E+01 -0.15790960575E+02  0.65501893029E+01  0.17172450674E+02  0.00000000000E+00 0. -1.
</event>
<event>
 7    1  0.1220856E-011  0.5930195E+02  0.7816164E-02  0.1266605E+00
        -11   -1    0    0    0    0  0.00000000000E+00  0.00000000000E+00  0.45593999997E+02  0.45594000000E+02  0.51100000000E-03 0.  1.
         11   -1    0    0    0    0 -0.00000000000E+00 -0.00000000000E+00 -0.45593999997E+02  0.45594000000E+02  0.51100000000E-03 0. -1.
    9900012    2    1    2    0    0 -0.15475204332E+02  0.23604783863E+02 -0.14834160657E+02  0.59301951440E+02  0.50000013519E+02 0.  0.
        -12    1    1    2    0    0  0.15475204332E+02 -0.23604783863E+02  0.14834160657E+02  0.31886048560E+02  0.00000000000E+00 0.  1.
         11    1    3    3    0    0 -0.28156999324E+02  0.10576770336E+02 -0.13088577118E+02  0.32802370843E+02  0.51100000000E-03 0. -1.
        -11    1    3    3    0    0 -0.14700029249E+01  0.11972047168E+02  0.77290900252E+00  0.12086695602E+02  0.51100000000E-03 0.  1.
        -12    1    3    3    0    0  0.14151797917E+02  0.10559663600E+01 -0.25184925413E+01  0.14412884996E+02  0.00000000000E+00 0.  1.
</event>
<event>
 7    1  0.1220856E-011  0.5930194E+02  0.7816164E-02  0.1266605E+00
        -11   -1    0    0    0    0  0.00000000000E+00  0.00000000000E+00  0.45593999997E+02  0.45594000000E+02  0.51100000000E-03 0. -1.
         11   -1    0    0    0    0 -0.00000000000E+00 -0.00000000000E+00 -0.45593999997E+02  0.45594000000E+02  0.51100000000E-03 0.  1.
    9900012    2    1    2    0    0  0.27378596522E+02  0.95873423447E+01 -0.13236932328E+02  0.59301936301E+02  0.49999985908E+02 0.  0.
        -12    1    1    2    0    0 -0.27378596522E+02 -0.95873423447E+01  0.13236932328E+02  0.31886063699E+02  0.00000000000E+00 0.  1.
         11    1    3    3    0    0  0.52279815606E+01 -0.18324087043E+00  0.46580738408E+01  0.70045000237E+01  0.51100000000E-03 0. -1.
        -11    1    3    3    0    0  0.88024304590E+00 -0.13323860187E+02  0.40935230246E+01  0.13966281148E+02  0.51100000000E-03 0.  1.
        -12    1    3    3    0    0  0.21270371916E+02  0.23094443402E+02 -0.21988529193E+02  0.38331155129E+02  0.00000000000E+00 0.  1.
</event>
<event>
 7    1  0.1220856E-011  0.5930195E+02  0.7816164E-02  0.1266605E+00
        -11   -1    0    0    0    0  0.00000000000E+00  0.00000000000E+00  0.45593999997E+02  0.45594000000E+02  0.51100000000E-03 0.  1.
         11   -1    0    0    0    0 -0.00000000000E+00 -0.00000000000E+00 -0.45593999997E+02  0.45594000000E+02  0.51100000000E-03 0. -1.
    9900012    2    1    2    0    0 -0.20919905684E+02  0.59156389530E+01 -0.23325586954E+02  0.59301949057E+02  0.50000009172E+02 0.  0.
        -12    1    1    2    0    0  0.20919905684E+02 -0.59156389530E+01  0.23325586954E+02  0.31886050943E+02  0.00000000000E+00 0.  1.
         11    1    3    3    0    0 -0.88621683912E+01  0.20306001151E+02 -0.20486406457E+02  0.30175562316E+02  0.51100000000E-03 0. -1.
        -11    1    3    3    0    0  0.65396704750E+01 -0.31705405645E+01 -0.66412497286E+00  0.72979914794E+01  0.51100000000E-03 0.  1.
        -12    1    3    3    0    0 -0.18597407767E+02 -0.11219821633E+02 -0.21750555239E+01  0.21828395261E+02  0.00000000000E+00 0.  1.
</event>
<event>
 7    1  0.1220856E-011  0.5930195E+02  0.7816164E-02  0.1266605E+00
        -11   -1    0    0    0    0  0.00000000000E+00  0.00000000000E+00  0.45593999997E+02  0.45594000000E+02  0.51100000000E-03 0.  1.
         11   -1    0    0    0    0 -0.00000000000E+00 -0.00000000000E+00 -0.45593999997E+02  0.45594000000E+02  0.51100000000E-03 0. -1.
    9900012    2    1    2    0    0  0.91307970617E+00 -0.14390052392E+02 -0.28439640329E+02  0.59301945612E+02  0.50000002889E+02 0.  0.
        -12    1    1    2    0    0 -0.91307970617E+00  0.14390052392E+02  0.28439640329E+02  0.31886054388E+02  0.00000000000E+00 0.  1.
         11    1    3    3    0    0 -0.39010177548E+00  0.57956702314E+01 -0.29376895004E+02  0.29945683047E+02  0.51100000000E-03 0. -1.
        -11    1    3    3    0    0  0.33881903994E+01 -0.96625343850E+01 -0.98034573529E+01  0.14175760341E+02  0.51100000000E-03 0.  1.
        -12    1    3    3    0    0 -0.20850089178E+01 -0.10523188238E+02  0.10740712028E+02  0.15180502223E+02  0.00000000000E+00 0.  1.
</event>
<event>
 7    1  0.1220856E-011  0.5930194E+02  0.7816164E-02  0.1266605E+00
        -11   -1    0    0    0    0  0.00000000000E+00  0.00000000000E+00  0.45593999997E+02  0.45594000000E+02  0.51100000000E-03 0. -1.
         11   -1    0    0    0    0 -0.00000000000E+00 -0.00000000000E+00 -0.45593999997E+02  0.45594000000E+02  0.51100000000E-03 0.  1.
    9900012    2    1    2    0    0  0.25904731186E+02 -0.28135971675E+00  0.18589953626E+02  0.59301942907E+02  0.49999997956E+02 0.  0.
        -12    1    1    2    0    0 -0.25904731186E+02  0.28135971675E+00 -0.18589953626E+02  0.31886057093E+02  0.00000000000E+00 0.  1.
         11    1    3    3    0    0 -0.36640169723E+01  0.10898555480E+01  0.16000259190E+00  0.38260170646E+01  0.51100000000E-03 0. -1.
        -11    1    3    3    0    0  0.22838533165E+01  0.51182152867E+01 -0.12515009314E+02  0.13712679245E+02  0.51100000000E-03 0.  1.
        -12    1    3    3    0    0  0.27284894842E+02 -0.64894305515E+01  0.30944960348E+02  0.41763246597E+02  0.00000000000E+00 0.  1.
</event>
<event>
 7    1  0.1220856E-011  0.5930227E+02  0.7816164E-02  0.1266604E+00
        -11   -1    0    0    0    0  0.00000000000E+00  0.00000000000E+00  0.45593999997E+02  0.45594000000E+02  0.51100000000E-03 0.  1.
         11   -1    0    0    0    0 -0.00000000000E+00 -0.00000000000E+00 -0.45593999997E+02  0.45594000000E+02  0.51100000000E-03 0. -1.
    9900012    2    1    2    0    0  0.90483768202E+01  0.17374166915E+02 -0.25158796211E+02  0.59302269243E+02  0.50000593112E+02 0.  0.
        -12    1    1    2    0    0 -0.90483768202E+01 -0.17374166915E+02  0.25158796211E+02  0.31885730757E+02  0.00000000000E+00 0.  1.
         11    1    3    3    0    0  0.20820395863E+02  0.96400072728E+01 -0.23740395724E+02  0.33015526855E+02  0.51100000000E-03 0. -1.
        -11    1    3    3    0    0 -0.79038180604E+01 -0.72584392530E+01  0.75121361318E-01  0.10731305783E+02  0.51100000000E-03 0.  1.
        -12    1    3    3    0    0 -0.38682009828E+01  0.14992598896E+02 -0.14935218486E+01  0.15555436606E+02  0.00000000000E+00 0.  1.
</event>
<event>
 7    1  0.1220856E-011  0.5930195E+02  0.7816164E-02  0.1266605E+00
        -11   -1    0    0    0    0  0.00000000000E+00  0.00000000000E+00  0.45593999997E+02  0.45594000000E+02  0.51100000000E-03 0. -1.
         11   -1    0    0    0    0 -0.00000000000E+00 -0.00000000000E+00 -0.45593999997E+02  0.45594000000E+02  0.51100000000E-03 0.  1.
    9900012    2    1    2    0    0  0.42107160176E+01  0.23146055355E+02  0.21523253341E+02  0.59301945960E+02  0.50000003523E+02 0.  0.
        -12    1    1    2    0    0 -0.42107160176E+01 -0.23146055355E+02 -0.21523253341E+02  0.31886054040E+02  0.00000000000E+00 0.  1.
         11    1    3    3    0    0 -0.73808004983E+01  0.51039999930E+01  0.14134145761E+02  0.16742195453E+02  0.51100000000E-03 0. -1.
        -11    1    3    3    0    0 -0.16523550398E+01  0.22676349118E+02  0.14360705423E+02  0.26891949484E+02  0.51100000000E-03 0.  1.
        -12    1    3    3    0    0  0.13243871556E+02 -0.46342937562E+01 -0.69715978434E+01  0.15667801023E+02  0.00000000000E+00 0.  1.
</event>
<event>
 7    1  0.1220856E-011  0.5930194E+02  0.7816164E-02  0.1266605E+00
        -11   -1    0    0    0    0  0.00000000000E+00  0.00000000000E+00  0.45593999997E+02  0.45594000000E+02  0.51100000000E-03 0.  1.
         11   -1    0    0    0    0 -0.00000000000E+00 -0.00000000000E+00 -0.45593999997E+02  0.45594000000E+02  0.51100000000E-03 0. -1.
    9900012    2    1    2    0    0  0.92077486383E-01  0.12612211395E+02 -0.29285564627E+02  0.59301942702E+02  0.49999997581E+02 0.  0.
        -12    1    1    2    0    0 -0.92077486383E-01 -0.12612211395E+02  0.29285564627E+02  0.31886057298E+02  0.00000000000E+00 0.  1.
         11    1    3    3    0    0 -0.97205327446E+01  0.21399071276E+02 -0.15033841463E+02  0.27900275943E+02  0.51100000000E-03 0. -1.
        -11    1    3    3    0    0  0.56638987010E+01  0.31477376950E+01  0.51303353588E+01  0.82648861000E+01  0.51100000000E-03 0.  1.
        -12    1    3    3    0    0  0.41487115300E+01 -0.11934597576E+02 -0.19382058522E+02  0.23136780658E+02  0.00000000000E+00 0.  1.
</event>
<event>
 7    1  0.1220856E-011  0.5930207E+02  0.7816164E-02  0.1266604E+00
        -11   -1    0    0    0    0  0.00000000000E+00  0.00000000000E+00  0.45593999997E+02  0.45594000000E+02  0.51100000000E-03 0.  1.
         11   -1    0    0    0    0 -0.00000000000E+00 -0.00000000000E+00 -0.45593999997E+02  0.45594000000E+02  0.51100000000E-03 0. -1.
    9900012    2    1    2    0    0 -0.13508237283E+02 -0.19579519287E+02 -0.21233989839E+02  0.59302072469E+02  0.50000234246E+02 0.  0.
        -12    1    1    2    0    0  0.13508237283E+02  0.19579519287E+02  0.21233989839E+02  0.31885927531E+02  0.00000000000E+00 0.  1.
         11    1    3    3    0    0 -0.10374148385E+00  0.21943412753E+01 -0.12240865539E+00  0.22002000064E+01  0.51100000000E-03 0. -1.
        -11    1    3    3    0    0 -0.64318420245E+01  0.77366065921E+01 -0.24600937495E+02  0.26578747135E+02  0.51100000000E-03 0.  1.
         12    1    3    3    0    0 -0.69726537742E+01 -0.29510467154E+02  0.34893563108E+01  0.30523125328E+02  0.00000000000E+00 0. -1.
</event>
<event>
 7    1  0.1220856E-011  0.5930179E+02  0.7816164E-02  0.1266605E+00
        -11   -1    0    0    0    0  0.00000000000E+00  0.00000000000E+00  0.45593999997E+02  0.45594000000E+02  0.51100000000E-03 0.  1.
         11   -1    0    0    0    0 -0.00000000000E+00 -0.00000000000E+00 -0.45593999997E+02  0.45594000000E+02  0.51100000000E-03 0. -1.
    9900012    2    1    2    0    0  0.27203249414E+02  0.53711359773E+01 -0.15743720632E+02  0.59301786370E+02  0.49999712468E+02 0.  0.
        -12    1    1    2    0    0 -0.27203249414E+02 -0.53711359773E+01  0.15743720632E+02  0.31886213630E+02  0.00000000000E+00 0.  1.
         11    1    3    3    0    0  0.31756209685E+01 -0.90255489184E+01 -0.73271749415E+01  0.12051248678E+02  0.51100000000E-03 0. -1.
        -11    1    3    3    0    0 -0.65136921235E+01 -0.80858027704E+00  0.71882527628E+01  0.97341134773E+01  0.51100000000E-03 0.  1.
         12    1    3    3    0    0  0.30541320569E+02  0.15205265173E+02 -0.15604798454E+02  0.37516424214E+02  0.00000000000E+00 0. -1.
</event>
<event>
 7    1  0.1220856E-011  0.5930196E+02  0.7816164E-02  0.1266605E+00
        -11   -1    0    0    0    0  0.00000000000E+00  0.00000000000E+00  0.45593999997E+02  0.45594000000E+02  0.51100000000E-03 0.  1.
         11   -1    0    0    0    0 -0.00000000000E+00 -0.00000000000E+00 -0.45593999997E+02  0.45594000000E+02  0.51100000000E-03 0. -1.
    9900012    2    1    2    0    0 -0.18211994333E+02 -0.26173228924E+02  0.71741918542E-01  0.59301956081E+02  0.50000021983E+02 0.  0.
        -12    1    1    2    0    0  0.18211994333E+02  0.26173228924E+02 -0.71741918542E-01  0.31886043919E+02  0.00000000000E+00 0.  1.
         11    1    3    3    0    0 -0.38606205207E+01 -0.80157354296E+01 -0.73401238048E+01  0.11534028915E+02  0.51100000000E-03 0. -1.
        -11    1    3    3    0    0 -0.29297709766E+00  0.66691882193E+01  0.16520662234E+02  0.17818422714E+02  0.51100000000E-03 0.  1.
         12    1    3    3    0    0 -0.14058396715E+02 -0.24826681713E+02 -0.91087965110E+01  0.29949504453E+02  0.00000000000E+00 0. -1.
</event>
<event>
 7    1  0.1220856E-011  0.5930193E+02  0.7816164E-02  0.1266605E+00
        -11   -1    0    0    0    0  0.00000000000E+00  0.00000000000E+00  0.45593999997E+02  0.45594000000E+02  0.51100000000E-03 0.  1.
         11   -1    0    0    0    0 -0.00000000000E+00 -0.00000000000E+00 -0.45593999997E+02  0.45594000000E+02  0.51100000000E-03 0. -1.
    9900012    2    1    2    0    0  0.12812660370E+02 -0.64348546509E+01 -0.28480691739E+02  0.59301930596E+02  0.49999975503E+02 0.  0.
        -12    1    1    2    0    0 -0.12812660370E+02  0.64348546509E+01  0.28480691739E+02  0.31886069404E+02  0.00000000000E+00 0.  1.
         11    1    3    3    0    0 -0.30509985718E+01 -0.71855255640E+01 -0.61709837933E+01  0.99509502638E+01  0.51100000000E-03 0. -1.
        -11    1    3    3    0    0 -0.74081845602E+01 -0.57310096984E+01  0.67620249695E+01  0.11552084340E+02  0.51100000000E-03 0.  1.
         12    1    3    3    0    0  0.23271843502E+02  0.64816806115E+01 -0.29071732915E+02  0.37798895992E+02  0.00000000000E+00 0. -1.
</event>
<event>
 7    1  0.1220856E-011  0.5930198E+02  0.7816164E-02  0.1266605E+00
        -11   -1    0    0    0    0  0.00000000000E+00  0.00000000000E+00  0.45593999997E+02  0.45594000000E+02  0.51100000000E-03 0. -1.
         11   -1    0    0    0    0 -0.00000000000E+00 -0.00000000000E+00 -0.45593999997E+02  0.45594000000E+02  0.51100000000E-03 0.  1.
    9900012    2    1    2    0    0 -0.26115138420E+02 -0.31527071895E+01  0.18021608529E+02  0.59301978121E+02  0.50000062177E+02 0.  0.
        -12    1    1    2    0    0  0.26115138420E+02  0.31527071895E+01 -0.18021608529E+02  0.31886021879E+02  0.00000000000E+00 0.  1.
         11    1    3    3    0    0  0.37853549176E+01  0.28604492485E+01  0.10368191269E+02  0.11402213479E+02  0.51100000000E-03 0. -1.
        -11    1    3    3    0    0  0.51444373627E+01 -0.10420304542E+02 -0.56697350683E+00  0.11634837418E+02  0.51100000000E-03 0.  1.
         12    1    3    3    0    0 -0.35044930700E+02  0.44071481042E+01  0.82203907666E+01  0.36264927224E+02  0.00000000000E+00 0. -1.
</event>
<event>
 7    1  0.1220856E-011  0.5930193E+02  0.7816164E-02  0.1266605E+00
        -11   -1    0    0    0    0  0.00000000000E+00  0.00000000000E+00  0.45593999997E+02  0.45594000000E+02  0.51100000000E-03 0. -1.
         11   -1    0    0    0    0 -0.00000000000E+00 -0.00000000000E+00 -0.45593999997E+02  0.45594000000E+02  0.51100000000E-03 0.  1.
    9900012    2    1    2    0    0  0.18105714371E+00  0.18565208902E+02  0.25923385342E+02  0.59301926694E+02  0.49999968387E+02 0.  0.
        -12    1    1    2    0    0 -0.18105714371E+00 -0.18565208902E+02 -0.25923385342E+02  0.31886073306E+02  0.00000000000E+00 0.  1.
         11    1    3    3    0    0 -0.66344051920E+01  0.11577505780E+01  0.20818400505E+02  0.21880619701E+02  0.51100000000E-03 0. -1.
        -11    1    3    3    0    0 -0.12144192036E+02  0.39900650256E+01 -0.24114853280E+01  0.13008354272E+02  0.51100000000E-03 0.  1.
         12    1    3    3    0    0  0.18959654372E+02  0.13417393299E+02  0.75164701654E+01  0.24412952721E+02  0.00000000000E+00 0. -1.
</event>
<event>
 7    1  0.1220856E-011  0.5930196E+02  0.7816164E-02  0.1266605E+00
        -11   -1    0    0    0    0  0.00000000000E+00  0.00000000000E+00  0.45593999997E+02  0.45594000000E+02  0.51100000000E-03 0.  1.
         11   -1    0    0    0    0 -0.00000000000E+00 -0.00000000000E+00 -0.45593999997E+02  0.45594000000E+02  0.51100000000E-03 0. -1.
    9900012    2    1    2    0    0  0.65765676663E+01 -0.30258158172E+02  0.76099874612E+01  0.59301964069E+02  0.50000036550E+02 0.  0.
        -12    1    1    2    0    0 -0.65765676663E+01  0.30258158172E+02 -0.76099874612E+01  0.31886035931E+02  0.00000000000E+00 0.  1.
         11    1    3    3    0    0  0.33225711982E+01  0.36328855310E+01 -0.78061470146E+01  0.92289364568E+01  0.51100000000E-03 0. -1.
        -11    1    3    3    0    0  0.83755033217E+01  0.26262828219E+01  0.91323412409E+01  0.12666730997E+02  0.51100000000E-03 0.  1.
        -12    1    3    3    0    0 -0.51215068536E+01 -0.36517326525E+02  0.62837932350E+01  0.37406296615E+02  0.00000000000E+00 0.  1.
</event>
<event>
 7    1  0.1220856E-011  0.5930194E+02  0.7816164E-02  0.1266605E+00
        -11   -1    0    0    0    0  0.00000000000E+00  0.00000000000E+00  0.45593999997E+02  0.45594000000E+02  0.51100000000E-03 0. -1.
         11   -1    0    0    0    0 -0.00000000000E+00 -0.00000000000E+00 -0.45593999997E+02  0.45594000000E+02  0.51100000000E-03 0.  1.
    9900012    2    1    2    0    0 -0.21503222006E+01  0.13404349666E+02  0.28851692818E+02  0.59301942639E+02  0.49999997467E+02 0.  0.
        -12    1    1    2    0    0  0.21503222006E+01 -0.13404349666E+02 -0.28851692818E+02  0.31886057361E+02  0.00000000000E+00 0.  1.
         11    1    3    3    0    0 -0.14410975704E+02 -0.20071941912E+00  0.27768209743E+01  0.14677439968E+02  0.51100000000E-03 0. -1.
        -11    1    3    3    0    0  0.13353935610E+01 -0.80721111914E+01  0.16710850266E+02  0.18606310003E+02  0.51100000000E-03 0.  1.
        -12    1    3    3    0    0  0.10925259943E+02  0.21677180277E+02  0.93640215776E+01  0.26018192667E+02  0.00000000000E+00 0.  1.
</event>
<event>
 7    1  0.1220856E-011  0.5930195E+02  0.7816164E-02  0.1266605E+00
        -11   -1    0    0    0    0  0.00000000000E+00  0.00000000000E+00  0.45593999997E+02  0.45594000000E+02  0.51100000000E-03 0. -1.
         11   -1    0    0    0    0 -0.00000000000E+00 -0.00000000000E+00 -0.45593999997E+02  0.45594000000E+02  0.51100000000E-03 0.  1.
    9900012    2    1    2    0    0  0.28082768129E+02 -0.50451853264E+01 -0.14234612910E+02  0.59301953436E+02  0.50000017159E+02 0.  0.
        -12    1    1    2    0    0 -0.28082768129E+02  0.50451853264E+01  0.14234612910E+02  0.31886046564E+02  0.00000000000E+00 0.  1.
         11    1    3    3    0    0  0.17254020250E+02  0.37812650164E+00 -0.21672353263E+02  0.27704423666E+02  0.51100000000E-03 0. -1.
        -11    1    3    3    0    0 -0.72406718516E+01 -0.51359232259E+01 -0.44862970520E+01  0.99464515152E+01  0.51100000000E-03 0.  1.
         12    1    3    3    0    0  0.18069419730E+02 -0.28738860216E+00  0.11924037405E+02  0.21651078255E+02  0.00000000000E+00 0. -1.
</event>
<event>
 7    1  0.1220856E-011  0.5930199E+02  0.7816164E-02  0.1266605E+00
        -11   -1    0    0    0    0  0.00000000000E+00  0.00000000000E+00  0.45593999997E+02  0.45594000000E+02  0.51100000000E-03 0.  1.
         11   -1    0    0    0    0 -0.00000000000E+00 -0.00000000000E+00 -0.45593999997E+02  0.45594000000E+02  0.51100000000E-03 0. -1.
    9900012    2    1    2    0    0  0.19149249070E+02 -0.25484150244E+02  0.76304072484E+00  0.59301986063E+02  0.50000076663E+02 0.  0.
        -12    1    1    2    0    0 -0.19149249070E+02  0.25484150244E+02 -0.76304072484E+00  0.31886013937E+02  0.00000000000E+00 0.  1.
         11    1    3    3    0    0  0.46568971099E+00  0.12095917927E+01 -0.12782027739E+02  0.12847576137E+02  0.51100000000E-03 0. -1.
        -11    1    3    3    0    0 -0.26472710710E+01 -0.22509367064E+02  0.78214543811E+01  0.23976129767E+02  0.51100000000E-03 0.  1.
         12    1    3    3    0    0  0.21330830430E+02 -0.41843749734E+01  0.57236140824E+01  0.22478280159E+02  0.00000000000E+00 0. -1.
</event>
<event>
 7    1  0.1220856E-011  0.5930194E+02  0.7816164E-02  0.1266605E+00
        -11   -1    0    0    0    0  0.00000000000E+00  0.00000000000E+00  0.45593999997E+02  0.45594000000E+02  0.51100000000E-03 0. -1.
         11   -1    0    0    0    0 -0.00000000000E+00 -0.00000000000E+00 -0.45593999997E+02  0.45594000000E+02  0.51100000000E-03 0.  1.
    9900012    2    1    2    0    0 -0.71542137517E+01  0.26724127977E+02 -0.15854310147E+02  0.59301938143E+02  0.49999989267E+02 0.  0.
        -12    1    1    2    0    0  0.71542137517E+01 -0.26724127977E+02  0.15854310147E+02  0.31886061857E+02  0.00000000000E+00 0.  1.
         11    1    3    3    0    0 -0.20915894690E+02 -0.19925358154E+01 -0.27334734198E+01  0.21187655058E+02  0.51100000000E-03 0. -1.
        -11    1    3    3    0    0  0.85415436271E+00  0.62188375753E+01  0.36172688852E+01  0.72448709383E+01  0.51100000000E-03 0.  1.
        -12    1    3    3    0    0  0.12907526575E+02  0.22497826217E+02 -0.16738105613E+02  0.30869412147E+02  0.00000000000E+00 0.  1.
</event>
<event>
 7    1  0.1220856E-011  0.5930195E+02  0.7816164E-02  0.1266605E+00
        -11   -1    0    0    0    0  0.00000000000E+00  0.00000000000E+00  0.45593999997E+02  0.45594000000E+02  0.51100000000E-03 0. -1.
         11   -1    0    0    0    0 -0.00000000000E+00 -0.00000000000E+00 -0.45593999997E+02  0.45594000000E+02  0.51100000000E-03 0.  1.
    9900012    2    1    2    0    0 -0.25232082230E+02  0.52144887104E+01  0.18784865836E+02  0.59301952100E+02  0.50000014722E+02 0.  0.
        -12    1    1    2    0    0  0.25232082230E+02 -0.52144887104E+01 -0.18784865836E+02  0.31886047900E+02  0.00000000000E+00 0.  1.
         11    1    3    3    0    0 -0.39480129877E+01 -0.11803007277E+01 -0.65444571836E+01  0.77336819464E+01  0.51100000000E-03 0.  1.
        -11    1    3    3    0    0 -0.18405767799E+02  0.12958517754E+02 -0.26686312759E+01  0.22667533254E+02  0.51100000000E-03 0. -1.
         12    1    3    3    0    0 -0.28783014435E+01 -0.65637283160E+01  0.27997954296E+02  0.28900736900E+02  0.00000000000E+00 0. -1.
</event>
<event>
 7    1  0.1220856E-011  0.5930193E+02  0.7816164E-02  0.1266605E+00
        -11   -1    0    0    0    0  0.00000000000E+00  0.00000000000E+00  0.45593999997E+02  0.45594000000E+02  0.51100000000E-03 0. -1.
         11   -1    0    0    0    0 -0.00000000000E+00 -0.00000000000E+00 -0.45593999997E+02  0.45594000000E+02  0.51100000000E-03 0.  1.
    9900012    2    1    2    0    0 -0.33702854224E+01 -0.27891538510E+02  0.15080605748E+02  0.59301930722E+02  0.49999975733E+02 0.  0.
        -12    1    1    2    0    0  0.33702854224E+01  0.27891538510E+02 -0.15080605748E+02  0.31886069278E+02  0.00000000000E+00 0.  1.
         11    1    3    3    0    0 -0.16473824323E+02 -0.98286336366E+01  0.85967045805E+01  0.21021233477E+02  0.51100000000E-03 0. -1.
        -11    1    3    3    0    0 -0.58465717633E+01 -0.16758678118E+02  0.74769567126E+01  0.19259817641E+02  0.51100000000E-03 0.  1.
        -12    1    3    3    0    0  0.18950110663E+02 -0.13042267555E+01 -0.99305554480E+00  0.19020879604E+02  0.00000000000E+00 0.  1.
</event>
<event>
 7    1  0.1661005E-011  0.5930195E+02  0.7816164E-02  0.1266605E+00
        -11   -1    0    0    0    0  0.00000000000E+00  0.00000000000E+00  0.45593999997E+02  0.45594000000E+02  0.51100000000E-03 0.  1.
         11   -1    0    0    0    0 -0.00000000000E+00 -0.00000000000E+00 -0.45593999997E+02  0.45594000000E+02  0.51100000000E-03 0. -1.
    9900012    2    1    2    0    0 -0.26437672760E+02  0.10762828831E+02 -0.14210248040E+02  0.59301950154E+02  0.50000011174E+02 0.  0.
        -12    1    1    2    0    0  0.26437672760E+02 -0.10762828831E+02  0.14210248040E+02  0.31886049846E+02  0.00000000000E+00 0.  1.
         11    1    3    3    0    0 -0.14889345176E+02  0.11187708108E+02 -0.25519367810E+02  0.31592650192E+02  0.51100000000E-03 0. -1.
        -11    1    3    3    0    0  0.39092161913E+01  0.44569951161E+01 -0.24813273970E+01  0.64268003398E+01  0.51100000000E-03 0.  1.
        -12    1    3    3    0    0 -0.15457543775E+02 -0.48818743934E+01  0.13790447167E+02  0.21282499623E+02  0.00000000000E+00 0.  1.
</event>
<event>
 7    1  0.1220856E-011  0.5930197E+02  0.7816164E-02  0.1266605E+00
        -11   -1    0    0    0    0  0.00000000000E+00  0.00000000000E+00  0.45593999997E+02  0.45594000000E+02  0.51100000000E-03 0. -1.
         11   -1    0    0    0    0 -0.00000000000E+00 -0.00000000000E+00 -0.45593999997E+02  0.45594000000E+02  0.51100000000E-03 0.  1.
    9900012    2    1    2    0    0 -0.19486688774E+02 -0.18355919264E+02  0.17321897581E+02  0.59301969403E+02  0.50000046279E+02 0.  0.
        -12    1    1    2    0    0  0.19486688774E+02  0.18355919264E+02 -0.17321897581E+02  0.31886030597E+02  0.00000000000E+00 0.  1.
         11    1    3    3    0    0 -0.53035473877E+00  0.67587884969E+01  0.13308422905E+02  0.14935749682E+02  0.51100000000E-03 0. -1.
        -11    1    3    3    0    0 -0.16675711768E+02  0.17766415485E+01 -0.14437174959E+01  0.16832116285E+02  0.51100000000E-03 0.  1.
        -12    1    3    3    0    0 -0.22806222672E+01 -0.26891349310E+02  0.54571921722E+01  0.27534103436E+02  0.00000000000E+00 0.  1.
</event>
<event>
 7    1  0.1220856E-011  0.5930191E+02  0.7816164E-02  0.1266605E+00
        -11   -1    0    0    0    0  0.00000000000E+00  0.00000000000E+00  0.45593999997E+02  0.45594000000E+02  0.51100000000E-03 0. -1.
         11   -1    0    0    0    0 -0.00000000000E+00 -0.00000000000E+00 -0.45593999997E+02  0.45594000000E+02  0.51100000000E-03 0.  1.
    9900012    2    1    2    0    0 -0.25020289371E+02  0.84986659953E+01  0.17846015555E+02  0.59301914083E+02  0.49999945387E+02 0.  0.
        -12    1    1    2    0    0  0.25020289371E+02 -0.84986659953E+01 -0.17846015555E+02  0.31886085917E+02  0.00000000000E+00 0.  1.
         11    1    3    3    0    0 -0.22528921932E+01 -0.27195713544E+01  0.86367261232E+01  0.93308429402E+01  0.51100000000E-03 0. -1.
        -11    1    3    3    0    0  0.82590948399E+01  0.13534421871E+02 -0.37082092420E+01  0.16283244117E+02  0.51100000000E-03 0.  1.
         12    1    3    3    0    0 -0.31026492018E+02 -0.23161845209E+01  0.12917498674E+02  0.33687827025E+02  0.00000000000E+00 0. -1.
</event>
<event>
 7    1  0.1457476E-011  0.5930199E+02  0.7816164E-02  0.1266605E+00
        -11   -1    0    0    0    0  0.00000000000E+00  0.00000000000E+00  0.45593999997E+02  0.45594000000E+02  0.51100000000E-03 0. -1.
         11   -1    0    0    0    0 -0.00000000000E+00 -0.00000000000E+00 -0.45593999997E+02  0.45594000000E+02  0.51100000000E-03 0.  1.
    9900012    2    1    2    0    0 -0.15059733338E+02  0.14334493448E+02  0.24175289190E+02  0.59301986169E+02  0.50000076855E+02 0.  0.
        -12    1    1    2    0    0  0.15059733338E+02 -0.14334493448E+02 -0.24175289190E+02  0.31886013831E+02  0.00000000000E+00 0.  1.
         11    1    3    3    0    0 -0.20363970678E+02  0.15334159920E+02  0.32236229594E+02  0.41097472682E+02  0.51100000000E-03 0. -1.
        -11    1    3    3    0    0  0.18344266952E+01 -0.77506750355E+01 -0.13614155043E+01  0.80803178925E+01  0.51100000000E-03 0.  1.
        -12    1    3    3    0    0  0.34698106444E+01  0.67510085642E+01 -0.66995248995E+01  0.10124195594E+02  0.00000000000E+00 0.  1.
</event>
<event>
 7    1  0.1220856E-011  0.5930194E+02  0.7816164E-02  0.1266605E+00
        -11   -1    0    0    0    0  0.00000000000E+00  0.00000000000E+00  0.45593999997E+02  0.45594000000E+02  0.51100000000E-03 0.  1.
         11   -1    0    0    0    0 -0.00000000000E+00 -0.00000000000E+00 -0.45593999997E+02  0.45594000000E+02  0.51100000000E-03 0. -1.
    9900012    2    1    2    0    0 -0.12785415275E+02 -0.90718450650E+01 -0.27766086073E+02  0.59301941096E+02  0.49999994654E+02 0.  0.
        -12    1    1    2    0    0  0.12785415275E+02  0.90718450650E+01  0.27766086073E+02  0.31886058904E+02  0.00000000000E+00 0.  1.
         11    1    3    3    0    0 -0.13469561597E+02 -0.14973081821E+02 -0.22083864676E+02  0.29888448406E+02  0.51100000000E-03 0. -1.
        -11    1    3    3    0    0 -0.46304226832E+00 -0.47974051361E+01 -0.14639917964E+02  0.15412874568E+02  0.51100000000E-03 0.  1.
        -12    1    3    3    0    0  0.11471885909E+01  0.10698641893E+02  0.89576965674E+01  0.14000618122E+02  0.00000000000E+00 0.  1.
</event>
<event>
 7    1  0.1220856E-011  0.5930197E+02  0.7816164E-02  0.1266605E+00
        -11   -1    0    0    0    0  0.00000000000E+00  0.00000000000E+00  0.45593999997E+02  0.45594000000E+02  0.51100000000E-03 0. -1.
         11   -1    0    0    0    0 -0.00000000000E+00 -0.00000000000E+00 -0.45593999997E+02  0.45594000000E+02  0.51100000000E-03 0.  1.
    9900012    2    1    2    0    0 -0.23106151433E+02 -0.15068045947E+02  0.15993091301E+02  0.59301965250E+02  0.50000038705E+02 0.  0.
        -12    1    1    2    0    0  0.23106151433E+02  0.15068045947E+02 -0.15993091301E+02  0.31886034750E+02  0.00000000000E+00 0.  1.
         11    1    3    3    0    0  0.13839862090E+01  0.39079223674E+01  0.68250255239E+01  0.79855024087E+01  0.51100000000E-03 0. -1.
        -11    1    3    3    0    0 -0.10054599373E+02  0.12346169287E+02  0.42427686281E+01  0.16477983812E+02  0.51100000000E-03 0.  1.
        -12    1    3    3    0    0 -0.14435538269E+02 -0.31322137602E+02  0.49252971487E+01  0.34838479029E+02  0.00000000000E+00 0.  1.
</event>
<event>
 7    1  0.1220856E-011  0.5930192E+02  0.7816164E-02  0.1266605E+00
        -11   -1    0    0    0    0  0.00000000000E+00  0.00000000000E+00  0.45593999997E+02  0.45594000000E+02  0.51100000000E-03 0.  1.
         11   -1    0    0    0    0 -0.00000000000E+00 -0.00000000000E+00 -0.45593999997E+02  0.45594000000E+02  0.51100000000E-03 0. -1.
    9900012    2    1    2    0    0  0.10511682719E+02 -0.15654336181E+02 -0.25713194350E+02  0.59301920302E+02  0.49999956729E+02 0.  0.
        -12    1    1    2    0    0 -0.10511682719E+02  0.15654336181E+02  0.25713194350E+02  0.31886079698E+02  0.00000000000E+00 0.  1.
         11    1    3    3    0    0  0.13256786603E+02 -0.78394599362E+01 -0.24930498173E+02  0.29304082694E+02  0.51100000000E-03 0. -1.
        -11    1    3    3    0    0  0.69988322192E+01  0.83638938964E+01  0.13595807604E+01  0.10990306349E+02  0.51100000000E-03 0.  1.
        -12    1    3    3    0    0 -0.97439361031E+01 -0.16178770141E+02 -0.21422769376E+01  0.19007531258E+02  0.00000000000E+00 0.  1.
</event>
<event>
 7    1  0.1220856E-011  0.5930191E+02  0.7816164E-02  0.1266605E+00
        -11   -1    0    0    0    0  0.00000000000E+00  0.00000000000E+00  0.45593999997E+02  0.45594000000E+02  0.51100000000E-03 0. -1.
         11   -1    0    0    0    0 -0.00000000000E+00 -0.00000000000E+00 -0.45593999997E+02  0.45594000000E+02  0.51100000000E-03 0.  1.
    9900012    2    1    2    0    0  0.22992490310E+02  0.15543770812E+02  0.15699014490E+02  0.59301914042E+02  0.49999945314E+02 0.  0.
        -12    1    1    2    0    0 -0.22992490310E+02 -0.15543770812E+02 -0.15699014490E+02  0.31886085958E+02  0.00000000000E+00 0.  1.
         11    1    3    3    0    0  0.57722267994E+01 -0.14780873942E+02  0.14998494019E+02  0.21834551972E+02  0.51100000000E-03 0. -1.
        -11    1    3    3    0    0 -0.16199010320E+01  0.26510868993E+01  0.24306523752E+01  0.39446688494E+01  0.51100000000E-03 0.  1.
        -12    1    3    3    0    0  0.18840164543E+02  0.27673557855E+02 -0.17301319040E+01  0.33522693221E+02  0.00000000000E+00 0.  1.
</event>
<event>
 7    1  0.1220856E-011  0.5930193E+02  0.7816164E-02  0.1266605E+00
        -11   -1    0    0    0    0  0.00000000000E+00  0.00000000000E+00  0.45593999997E+02  0.45594000000E+02  0.51100000000E-03 0.  1.
         11   -1    0    0    0    0 -0.00000000000E+00 -0.00000000000E+00 -0.45593999997E+02  0.45594000000E+02  0.51100000000E-03 0. -1.
    9900012    2    1    2    0    0  0.26274569811E+02  0.55082288198E+01 -0.17205457116E+02  0.59301931599E+02  0.49999977334E+02 0.  0.
        -12    1    1    2    0    0 -0.26274569811E+02 -0.55082288198E+01  0.17205457116E+02  0.31886068401E+02  0.00000000000E+00 0.  1.
         11    1    3    3    0    0  0.10339975484E+01  0.11574415144E+02 -0.10476393456E+02  0.15645799978E+02  0.51100000000E-03 0. -1.
        -11    1    3    3    0    0 -0.44522875312E+00  0.70400693183E+01  0.84996499362E+01  0.11045580743E+02  0.51100000000E-03 0.  1.
         12    1    3    3    0    0  0.25685801016E+02 -0.13106255643E+02 -0.15228713596E+02  0.32610550878E+02  0.00000000000E+00 0. -1.
</event>
<event>
 7    1  0.1220856E-011  0.5930195E+02  0.7816164E-02  0.1266605E+00
        -11   -1    0    0    0    0  0.00000000000E+00  0.00000000000E+00  0.45593999997E+02  0.45594000000E+02  0.51100000000E-03 0.  1.
         11   -1    0    0    0    0 -0.00000000000E+00 -0.00000000000E+00 -0.45593999997E+02  0.45594000000E+02  0.51100000000E-03 0. -1.
    9900012    2    1    2    0    0  0.16172437389E+01 -0.24863156785E+02 -0.19897948006E+02  0.59301946976E+02  0.50000005376E+02 0.  0.
        -12    1    1    2    0    0 -0.16172437389E+01  0.24863156785E+02  0.19897948006E+02  0.31886053024E+02  0.00000000000E+00 0.  1.
         11    1    3    3    0    0  0.19352828359E+02 -0.20853639000E+02 -0.19575692575E+02  0.34534243369E+02  0.51100000000E-03 0. -1.
        -11    1    3    3    0    0 -0.44552353698E+01 -0.79311856647E+01  0.44423997772E+01  0.10123623081E+02  0.51100000000E-03 0.  1.
        -12    1    3    3    0    0 -0.13280349251E+02  0.39216678794E+01 -0.47646552086E+01  0.14644080525E+02  0.00000000000E+00 0.  1.
</event>
<event>
 7    1  0.1220856E-011  0.5930193E+02  0.7816164E-02  0.1266605E+00
        -11   -1    0    0    0    0  0.00000000000E+00  0.00000000000E+00  0.45593999997E+02  0.45594000000E+02  0.51100000000E-03 0. -1.
         11   -1    0    0    0    0 -0.00000000000E+00 -0.00000000000E+00 -0.45593999997E+02  0.45594000000E+02  0.51100000000E-03 0.  1.
    9900012    2    1    2    0    0  0.27112264972E+02 -0.16487828436E+02  0.31301491279E+01  0.59301933575E+02  0.49999980938E+02 0.  0.
        -12    1    1    2    0    0 -0.27112264972E+02  0.16487828436E+02 -0.31301491279E+01  0.31886066425E+02  0.00000000000E+00 0.  1.
         11    1    3    3    0    0 -0.40388893440E+01  0.73568046915E+01  0.59704027540E+01  0.10299558811E+02  0.51100000000E-03 0. -1.
        -11    1    3    3    0    0  0.83204490602E+01  0.29850340179E+01  0.82272635080E+01  0.12075933328E+02  0.51100000000E-03 0.  1.
        -12    1    3    3    0    0  0.22830705256E+02 -0.26829667145E+02 -0.11067517134E+02  0.36926441436E+02  0.00000000000E+00 0.  1.
</event>
<event>
 7    1  0.1220856E-011  0.5930197E+02  0.7816164E-02  0.1266605E+00
        -11   -1    0    0    0    0  0.00000000000E+00  0.00000000000E+00  0.45593999997E+02  0.45594000000E+02  0.51100000000E-03 0.  1.
         11   -1    0    0    0    0 -0.00000000000E+00 -0.00000000000E+00 -0.45593999997E+02  0.45594000000E+02  0.51100000000E-03 0. -1.
    9900012    2    1    2    0    0  0.15286357338E+02  0.22119040060E+02 -0.17140424034E+02  0.59301971870E+02  0.50000050778E+02 0.  0.
        -12    1    1    2    0    0 -0.15286357338E+02 -0.22119040060E+02  0.17140424034E+02  0.31886028130E+02  0.00000000000E+00 0.  1.
         11    1    3    3    0    0 -0.29266427777E+01  0.79972353151E+01 -0.40154237340E+01  0.94151281806E+01  0.51100000000E-03 0. -1.
        -11    1    3    3    0    0 -0.95109739014E+01 -0.65579211039E+01  0.26802515597E+01  0.11859540566E+02  0.51100000000E-03 0.  1.
        -12    1    3    3    0    0  0.27723974017E+02  0.20679725849E+02 -0.15805251860E+02  0.38027303123E+02  0.00000000000E+00 0.  1.
</event>
<event>
 7    1  0.1220856E-011  0.5930207E+02  0.7816164E-02  0.1266604E+00
        -11   -1    0    0    0    0  0.00000000000E+00  0.00000000000E+00  0.45593999997E+02  0.45594000000E+02  0.51100000000E-03 0. -1.
         11   -1    0    0    0    0 -0.00000000000E+00 -0.00000000000E+00 -0.45593999997E+02  0.45594000000E+02  0.51100000000E-03 0.  1.
    9900012    2    1    2    0    0  0.24208691941E+02  0.12952741852E-01  0.20752145587E+02  0.59302070819E+02  0.50000231237E+02 0.  0.
        -12    1    1    2    0    0 -0.24208691941E+02 -0.12952741852E-01 -0.20752145587E+02  0.31885929181E+02  0.00000000000E+00 0.  1.
         11    1    3    3    0    0  0.20047828630E+02 -0.11979224683E+02  0.10997234074E+02  0.25813880265E+02  0.51100000000E-03 0. -1.
        -11    1    3    3    0    0  0.74326664577E+01 -0.61025614769E+01 -0.41102562697E+01  0.10458489093E+02  0.51100000000E-03 0.  1.
         12    1    3    3    0    0 -0.32718031465E+01  0.18094738902E+02  0.13865167783E+02  0.23029701462E+02  0.00000000000E+00 0. -1.
</event>
<event>
 7    1  0.1220856E-011  0.5930196E+02  0.7816164E-02  0.1266605E+00
        -11   -1    0    0    0    0  0.00000000000E+00  0.00000000000E+00  0.45593999997E+02  0.45594000000E+02  0.51100000000E-03 0. -1.
         11   -1    0    0    0    0 -0.00000000000E+00 -0.00000000000E+00 -0.45593999997E+02  0.45594000000E+02  0.51100000000E-03 0.  1.
    9900012    2    1    2    0    0  0.30311304582E+02  0.47430357324E+01  0.86860645800E+01  0.59301964008E+02  0.50000036439E+02 0.  0.
        -12    1    1    2    0    0 -0.30311304582E+02 -0.47430357324E+01 -0.86860645800E+01  0.31886035992E+02  0.00000000000E+00 0.  1.
         11    1    3    3    0    0  0.59259001428E+01  0.13013855716E+02 -0.31548811948E+01  0.14643428858E+02  0.51100000000E-03 0. -1.
        -11    1    3    3    0    0 -0.76402756619E+00  0.49664089751E+01 -0.83853049386E+01  0.97755969334E+01  0.51100000000E-03 0.  1.
        -12    1    3    3    0    0  0.25149432005E+02 -0.13237228959E+02  0.20226250713E+02  0.34882938216E+02  0.00000000000E+00 0.  1.
</event>
<event>
 7    1  0.1220856E-011  0.5930196E+02  0.7816164E-02  0.1266605E+00
        -11   -1    0    0    0    0  0.00000000000E+00  0.00000000000E+00  0.45593999997E+02  0.45594000000E+02  0.51100000000E-03 0.  1.
         11   -1    0    0    0    0 -0.00000000000E+00 -0.00000000000E+00 -0.45593999997E+02  0.45594000000E+02  0.51100000000E-03 0. -1.
    9900012    2    1    2    0    0 -0.22526608242E+01 -0.18546805381E+02 -0.25839137980E+02  0.59301960387E+02  0.50000029836E+02 0.  0.
        -12    1    1    2    0    0  0.22526608242E+01  0.18546805381E+02  0.25839137980E+02  0.31886039613E+02  0.00000000000E+00 0.  1.
         11    1    3    3    0    0  0.78167999639E+01 -0.24095798447E+01  0.75281771259E+01  0.11116739081E+02  0.51100000000E-03 0. -1.
        -11    1    3    3    0    0  0.37282968309E+01 -0.91286313932E+00  0.39986555370E+01  0.55428118077E+01  0.51100000000E-03 0.  1.
         12    1    3    3    0    0 -0.13797757619E+02 -0.15224362397E+02 -0.37365970643E+02  0.42642409498E+02  0.00000000000E+00 0. -1.
</event>
<event>
 7    1  0.1220856E-011  0.5930194E+02  0.7816164E-02  0.1266605E+00
        -11   -1    0    0    0    0  0.00000000000E+00  0.00000000000E+00  0.45593999997E+02  0.45594000000E+02  0.51100000000E-03 0.  1.
         11   -1    0    0    0    0 -0.00000000000E+00 -0.00000000000E+00 -0.45593999997E+02  0.45594000000E+02  0.51100000000E-03 0. -1.
    9900012    2    1    2    0    0 -0.22986670746E+01 -0.18777073056E+02 -0.25668240825E+02  0.59301938312E+02  0.49999989577E+02 0.  0.
        -12    1    1    2    0    0  0.22986670746E+01  0.18777073056E+02  0.25668240825E+02  0.31886061688E+02  0.00000000000E+00 0.  1.
         11    1    3    3    0    0  0.12388617006E+02 -0.10941377574E+01 -0.22199162556E+02  0.25445584827E+02  0.51100000000E-03 0. -1.
        -11    1    3    3    0    0  0.43438503633E+01  0.31352921179E+01 -0.15882849725E+01  0.55876419050E+01  0.51100000000E-03 0.  1.
         12    1    3    3    0    0 -0.19031134444E+02 -0.20818227417E+02 -0.18807932966E+01  0.28268711580E+02  0.00000000000E+00 0. -1.
</event>
<event>
 7    1  0.1220856E-011  0.5930189E+02  0.7816164E-02  0.1266605E+00
        -11   -1    0    0    0    0  0.00000000000E+00  0.00000000000E+00  0.45593999997E+02  0.45594000000E+02  0.51100000000E-03 0.  1.
         11   -1    0    0    0    0 -0.00000000000E+00 -0.00000000000E+00 -0.45593999997E+02  0.45594000000E+02  0.51100000000E-03 0. -1.
    9900012    2    1    2    0    0  0.31427052751E+02 -0.14271972627E+00  0.53892511575E+01  0.59301889520E+02  0.49999900591E+02 0.  0.
        -12    1    1    2    0    0 -0.31427052751E+02  0.14271972627E+00 -0.53892511575E+01  0.31886110480E+02  0.00000000000E+00 0.  1.
         11    1    3    3    0    0  0.34253762951E+02  0.81415397825E+01 -0.13376055468E+02  0.37663295215E+02  0.51100000000E-03 0. -1.
        -11    1    3    3    0    0  0.17190937154E+01 -0.45684503433E+01  0.78316440517E+01  0.92282539278E+01  0.51100000000E-03 0.  1.
        -12    1    3    3    0    0 -0.45458039159E+01 -0.37158091655E+01  0.10933662574E+02  0.12410340377E+02  0.00000000000E+00 0.  1.
</event>
<event>
 7    1  0.1220856E-011  0.5930190E+02  0.7816164E-02  0.1266605E+00
        -11   -1    0    0    0    0  0.00000000000E+00  0.00000000000E+00  0.45593999997E+02  0.45594000000E+02  0.51100000000E-03 0.  1.
         11   -1    0    0    0    0 -0.00000000000E+00 -0.00000000000E+00 -0.45593999997E+02  0.45594000000E+02  0.51100000000E-03 0. -1.
    9900012    2    1    2    0    0  0.21799093387E+02 -0.16283017338E+02 -0.16624875343E+02  0.59301896345E+02  0.49999913039E+02 0.  0.
        -12    1    1    2    0    0 -0.21799093387E+02  0.16283017338E+02  0.16624875343E+02  0.31886103655E+02  0.00000000000E+00 0.  1.
         11    1    3    3    0    0 -0.11433308923E+01 -0.31479805970E+01 -0.16033456221E+02  0.16379520934E+02  0.51100000000E-03 0. -1.
        -11    1    3    3    0    0  0.26710855618E+02 -0.82339212896E+01  0.10797027560E+02  0.29964029636E+02  0.51100000000E-03 0.  1.
         12    1    3    3    0    0 -0.37684313386E+01 -0.49011154511E+01 -0.11388446681E+02  0.12958345775E+02  0.00000000000E+00 0. -1.
</event>
<event>
 7    1  0.1220856E-011  0.5930194E+02  0.7816164E-02  0.1266605E+00
        -11   -1    0    0    0    0  0.00000000000E+00  0.00000000000E+00  0.45593999997E+02  0.45594000000E+02  0.51100000000E-03 0.  1.
         11   -1    0    0    0    0 -0.00000000000E+00 -0.00000000000E+00 -0.45593999997E+02  0.45594000000E+02  0.51100000000E-03 0. -1.
    9900012    2    1    2    0    0 -0.31941512695E+01  0.21532145310E+02 -0.23299889139E+02  0.59301941638E+02  0.49999995641E+02 0.  0.
        -12    1    1    2    0    0  0.31941512695E+01 -0.21532145310E+02  0.23299889139E+02  0.31886058362E+02  0.00000000000E+00 0.  1.
         11    1    3    3    0    0 -0.14017272955E+02 -0.97419946219E+00 -0.21975314949E+02  0.26083471261E+02  0.51100000000E-03 0. -1.
        -11    1    3    3    0    0  0.87874620080E+01 -0.94132546139E+00  0.29103972941E+01  0.93046222297E+01  0.51100000000E-03 0.  1.
        -12    1    3    3    0    0  0.20356596776E+01  0.23447670234E+02 -0.42349714843E+01  0.23913848147E+02  0.00000000000E+00 0.  1.
</event>
<event>
 7    1  0.1220856E-011  0.5930196E+02  0.7816164E-02  0.1266605E+00
        -11   -1    0    0    0    0  0.00000000000E+00  0.00000000000E+00  0.45593999997E+02  0.45594000000E+02  0.51100000000E-03 0.  1.
         11   -1    0    0    0    0 -0.00000000000E+00 -0.00000000000E+00 -0.45593999997E+02  0.45594000000E+02  0.51100000000E-03 0. -1.
    9900012    2    1    2    0    0 -0.14679860571E+02 -0.76088682662E+01 -0.27264015540E+02  0.59301957191E+02  0.50000024006E+02 0.  0.
        -12    1    1    2    0    0  0.14679860571E+02  0.76088682662E+01  0.27264015540E+02  0.31886042809E+02  0.00000000000E+00 0.  1.
         11    1    3    3    0    0  0.53009529283E+01 -0.61057471148E+01  0.51302998649E+01  0.95760235350E+01  0.51100000000E-03 0. -1.
        -11    1    3    3    0    0  0.64421372490E+01 -0.49964539745E+01 -0.50952310563E+00  0.81685554850E+01  0.51100000000E-03 0.  1.
         12    1    3    3    0    0 -0.26422950749E+02  0.34933328232E+01 -0.31884792299E+02  0.41557378171E+02  0.00000000000E+00 0. -1.
</event>
<event>
 7    1  0.1220856E-011  0.5930196E+02  0.7816164E-02  0.1266605E+00
        -11   -1    0    0    0    0  0.00000000000E+00  0.00000000000E+00  0.45593999997E+02  0.45594000000E+02  0.51100000000E-03 0.  1.
         11   -1    0    0    0    0 -0.00000000000E+00 -0.00000000000E+00 -0.45593999997E+02  0.45594000000E+02  0.51100000000E-03 0. -1.
    9900012    2    1    2    0    0  0.29401656085E+02 -0.12253839670E+02  0.14510524406E+01  0.59301960415E+02  0.50000029887E+02 0.  0.
        -12    1    1    2    0    0 -0.29401656085E+02  0.12253839670E+02 -0.14510524406E+01  0.31886039585E+02  0.00000000000E+00 0.  1.
         11    1    3    3    0    0  0.16355606463E+02 -0.14689548301E+01  0.10770354659E+02  0.19638335745E+02  0.51100000000E-03 0.  1.
        -11    1    3    3    0    0  0.29274122971E+01  0.71499477947E+01 -0.16203367398E+02  0.17951061571E+02  0.51100000000E-03 0. -1.
         12    1    3    3    0    0  0.10118637325E+02 -0.17934832634E+02  0.68840651799E+01  0.21712563099E+02  0.00000000000E+00 0. -1.
</event>
<event>
 7    1  0.1220856E-011  0.5930196E+02  0.7816164E-02  0.1266605E+00
        -11   -1    0    0    0    0  0.00000000000E+00  0.00000000000E+00  0.45593999997E+02  0.45594000000E+02  0.51100000000E-03 0.  1.
         11   -1    0    0    0    0 -0.00000000000E+00 -0.00000000000E+00 -0.45593999997E+02  0.45594000000E+02  0.51100000000E-03 0. -1.
    9900012    2    1    2    0    0 -0.57527286667E+01  0.88482464832E+01 -0.30088772781E+02  0.59301959160E+02  0.50000027599E+02 0.  0.
        -12    1    1    2    0    0  0.57527286667E+01 -0.88482464832E+01  0.30088772781E+02  0.31886040840E+02  0.00000000000E+00 0.  1.
         11    1    3    3    0    0 -0.10830100406E+02  0.12664219076E+02 -0.18449943416E+02  0.24861092734E+02  0.51100000000E-03 0. -1.
        -11    1    3    3    0    0  0.38374209133E+01  0.61504329977E+01  0.89592106276E+01  0.11524802847E+02  0.51100000000E-03 0.  1.
        -12    1    3    3    0    0  0.12399508264E+01 -0.99664055903E+01 -0.20598039993E+02  0.22916063580E+02  0.00000000000E+00 0.  1.
</event>
<event>
 7    1  0.1220856E-011  0.5930194E+02  0.7816164E-02  0.1266605E+00
        -11   -1    0    0    0    0  0.00000000000E+00  0.00000000000E+00  0.45593999997E+02  0.45594000000E+02  0.51100000000E-03 0. -1.
         11   -1    0    0    0    0 -0.00000000000E+00 -0.00000000000E+00 -0.45593999997E+02  0.45594000000E+02  0.51100000000E-03 0.  1.
    9900012    2    1    2    0    0 -0.25372737455E+02 -0.18307563151E+02  0.61464127960E+01  0.59301936199E+02  0.49999985722E+02 0.  0.
        -12    1    1    2    0    0  0.25372737455E+02  0.18307563151E+02 -0.61464127960E+01  0.31886063801E+02  0.00000000000E+00 0.  1.
         11    1    3    3    0    0 -0.10599300251E+02 -0.12648616524E+02  0.22469413985E+02  0.27878436665E+02  0.51100000000E-03 0. -1.
        -11    1    3    3    0    0 -0.17924364122E+02  0.87856609952E+00 -0.62388303438E+01  0.18999413462E+02  0.51100000000E-03 0.  1.
        -12    1    3    3    0    0  0.31509269184E+01 -0.65375127263E+01 -0.10084170845E+02  0.12424086072E+02  0.00000000000E+00 0.  1.
</event>
<event>
 7    1  0.1220856E-011  0.5930194E+02  0.7816164E-02  0.1266605E+00
        -11   -1    0    0    0    0  0.00000000000E+00  0.00000000000E+00  0.45593999997E+02  0.45594000000E+02  0.51100000000E-03 0.  1.
         11   -1    0    0    0    0 -0.00000000000E+00 -0.00000000000E+00 -0.45593999997E+02  0.45594000000E+02  0.51100000000E-03 0. -1.
    9900012    2    1    2    0    0 -0.30254698017E+02  0.79107066546E+01 -0.62285373971E+01  0.59301941762E+02  0.49999995868E+02 0.  0.
        -12    1    1    2    0    0  0.30254698017E+02 -0.79107066546E+01  0.62285373971E+01  0.31886058238E+02  0.00000000000E+00 0.  1.
         11    1    3    3    0    0 -0.32039959776E+02  0.37806394124E+01 -0.11376532823E+02  0.34209322649E+02  0.51100000000E-03 0. -1.
        -11    1    3    3    0    0 -0.85093137879E+01  0.84739990069E+01 -0.14819773461E+01  0.12100137909E+02  0.51100000000E-03 0.  1.
        -12    1    3    3    0    0  0.10294575547E+02 -0.43439317647E+01  0.66299727717E+01  0.12992481203E+02  0.00000000000E+00 0.  1.
</event>
<event>
 7    1  0.1220856E-011  0.5930195E+02  0.7816164E-02  0.1266605E+00
        -11   -1    0    0    0    0  0.00000000000E+00  0.00000000000E+00  0.45593999997E+02  0.45594000000E+02  0.51100000000E-03 0. -1.
         11   -1    0    0    0    0 -0.00000000000E+00 -0.00000000000E+00 -0.45593999997E+02  0.45594000000E+02  0.51100000000E-03 0.  1.
    9900012    2    1    2    0    0  0.27551591120E+02  0.15521921965E+02  0.40865921564E+01  0.59301945521E+02  0.50000002724E+02 0.  0.
        -12    1    1    2    0    0 -0.27551591120E+02 -0.15521921965E+02 -0.40865921564E+01  0.31886054479E+02  0.00000000000E+00 0.  1.
         11    1    3    3    0    0  0.25195579358E+02  0.19403705759E+02 -0.55924395782E+01  0.32289261327E+02  0.51100000000E-03 0. -1.
        -11    1    3    3    0    0  0.48905955793E+00  0.64342037083E+01 -0.55587196002E+01  0.85168961756E+01  0.51100000000E-03 0.  1.
         12    1    3    3    0    0  0.18669522041E+01 -0.10315987502E+02  0.15237751335E+02  0.18495788018E+02  0.00000000000E+00 0. -1.
</event>
<event>
 7    1  0.1220856E-011  0.5930193E+02  0.7816164E-02  0.1266605E+00
        -11   -1    0    0    0    0  0.00000000000E+00  0.00000000000E+00  0.45593999997E+02  0.45594000000E+02  0.51100000000E-03 0. -1.
         11   -1    0    0    0    0 -0.00000000000E+00 -0.00000000000E+00 -0.45593999997E+02  0.45594000000E+02  0.51100000000E-03 0.  1.
    9900012    2    1    2    0    0  0.25957944422E+02  0.17842216013E+02  0.49560007862E+01  0.59301929457E+02  0.49999973427E+02 0.  0.
        -12    1    1    2    0    0 -0.25957944422E+02 -0.17842216013E+02 -0.49560007862E+01  0.31886070543E+02  0.00000000000E+00 0.  1.
         11    1    3    3    0    0  0.15974695487E+02 -0.77815887609E+00 -0.86090923263E+01  0.18163504565E+02  0.51100000000E-03 0. -1.
        -11    1    3    3    0    0 -0.46826638854E+01 -0.19365087396E+01 -0.69513915716E+01  0.86022818022E+01  0.51100000000E-03 0.  1.
         12    1    3    3    0    0  0.14665912820E+02  0.20556883629E+02  0.20516484684E+02  0.32536143090E+02  0.00000000000E+00 0. -1.
</event>
<event>
 7    1  0.1220856E-011  0.5930187E+02  0.7816164E-02  0.1266605E+00
        -11   -1    0    0    0    0  0.00000000000E+00  0.00000000000E+00  0.45593999997E+02  0.45594000000E+02  0.51100000000E-03 0.  1.
         11   -1    0    0    0    0 -0.00000000000E+00 -0.00000000000E+00 -0.45593999997E+02  0.45594000000E+02  0.51100000000E-03 0. -1.
    9900012    2    1    2    0    0  0.81717500115E+01 -0.52027929267E+01 -0.30378916515E+02  0.59301872592E+02  0.49999869718E+02 0.  0.
        -12    1    1    2    0    0 -0.81717500115E+01  0.52027929267E+01  0.30378916515E+02  0.31886127408E+02  0.00000000000E+00 0.  1.
         11    1    3    3    0    0 -0.54317086044E+01  0.18044615983E+02 -0.92457996497E+01  0.20990389129E+02  0.51100000000E-03 0. -1.
        -11    1    3    3    0    0 -0.41239374719E+01 -0.46904574833E+01 -0.49747731189E+01  0.79847116116E+01  0.51100000000E-03 0.  1.
        -12    1    3    3    0    0  0.17727396088E+02 -0.18556951427E+02 -0.16158343746E+02  0.30326771851E+02  0.00000000000E+00 0.  1.
</event>
<event>
 7    1  0.1220856E-011  0.5930195E+02  0.7816164E-02  0.1266605E+00
        -11   -1    0    0    0    0  0.00000000000E+00  0.00000000000E+00  0.45593999997E+02  0.45594000000E+02  0.51100000000E-03 0. -1.
         11   -1    0    0    0    0 -0.00000000000E+00 -0.00000000000E+00 -0.45593999997E+02  0.45594000000E+02  0.51100000000E-03 0.  1.
    9900012    2    1    2    0    0  0.13859604326E+02  0.11455862317E+02  0.26332388677E+02  0.59301951218E+02  0.50000013114E+02 0.  0.
        -12    1    1    2    0    0 -0.13859604326E+02 -0.11455862317E+02 -0.26332388677E+02  0.31886048782E+02  0.00000000000E+00 0.  1.
         11    1    3    3    0    0 -0.59960636529E+01  0.10906315201E+02  0.22084817005E+02  0.25350337927E+02  0.51100000000E-03 0.  1.
        -11    1    3    3    0    0  0.13200713136E+02  0.10772641184E+02  0.10732197768E+02  0.20136749851E+02  0.51100000000E-03 0. -1.
         12    1    3    3    0    0  0.66549548424E+01 -0.10223094068E+02 -0.64846260956E+01  0.13814863441E+02  0.00000000000E+00 0. -1.
</event>
<event>
 7    1  0.1220856E-011  0.5930195E+02  0.7816164E-02  0.1266605E+00
        -11   -1    0    0    0    0  0.00000000000E+00  0.00000000000E+00  0.45593999997E+02  0.45594000000E+02  0.51100000000E-03 0.  1.
         11   -1    0    0    0    0 -0.00000000000E+00 -0.00000000000E+00 -0.45593999997E+02  0.45594000000E+02  0.51100000000E-03 0. -1.
    9900012    2    1    2    0    0 -0.19296753945E+02  0.20248112228E+02 -0.15309131997E+02  0.59301948440E+02  0.50000008046E+02 0.  0.
        -12    1    1    2    0    0  0.19296753945E+02 -0.20248112228E+02  0.15309131997E+02  0.31886051560E+02  0.00000000000E+00 0.  1.
         11    1    3    3    0    0 -0.18207731876E+02  0.54352658057E+01  0.28143695750E+01  0.19208963814E+02  0.51100000000E-03 0. -1.
        -11    1    3    3    0    0  0.15143751637E+01 -0.33933677340E+01  0.76066091190E+01  0.84657415071E+01  0.51100000000E-03 0.  1.
         12    1    3    3    0    0 -0.26033972322E+01  0.18206214157E+02 -0.25730110691E+02  0.31627243118E+02  0.00000000000E+00 0. -1.
</event>
<event>
 7    1  0.1220856E-011  0.5930195E+02  0.7816164E-02  0.1266605E+00
        -11   -1    0    0    0    0  0.00000000000E+00  0.00000000000E+00  0.45593999997E+02  0.45594000000E+02  0.51100000000E-03 0. -1.
         11   -1    0    0    0    0 -0.00000000000E+00 -0.00000000000E+00 -0.45593999997E+02  0.45594000000E+02  0.51100000000E-03 0.  1.
    9900012    2    1    2    0    0 -0.19777079291E+02  0.21312415989E+02 -0.13090767145E+02  0.59301950934E+02  0.50000012596E+02 0.  0.
        -12    1    1    2    0    0  0.19777079291E+02 -0.21312415989E+02  0.13090767145E+02  0.31886049066E+02  0.00000000000E+00 0.  1.
         11    1    3    3    0    0  0.11631672135E+02  0.15145582459E+02 -0.45360369335E+01  0.19628043611E+02  0.51100000000E-03 0. -1.
        -11    1    3    3    0    0 -0.11747139028E+02  0.41577013871E+01  0.72063638722E+01  0.14394910097E+02  0.51100000000E-03 0.  1.
        -12    1    3    3    0    0 -0.19661612398E+02  0.20091321433E+01 -0.15761094084E+02  0.25278997226E+02  0.00000000000E+00 0.  1.
</event>
<event>
 7    1  0.1220856E-011  0.5930190E+02  0.7816164E-02  0.1266605E+00
        -11   -1    0    0    0    0  0.00000000000E+00  0.00000000000E+00  0.45593999997E+02  0.45594000000E+02  0.51100000000E-03 0.  1.
         11   -1    0    0    0    0 -0.00000000000E+00 -0.00000000000E+00 -0.45593999997E+02  0.45594000000E+02  0.51100000000E-03 0. -1.
    9900012    2    1    2    0    0 -0.25316488115E+02 -0.65941342076E+01 -0.18229548680E+02  0.59301896107E+02  0.49999912603E+02 0.  0.
        -12    1    1    2    0    0  0.25316488115E+02  0.65941342076E+01  0.18229548680E+02  0.31886103893E+02  0.00000000000E+00 0.  1.
         11    1    3    3    0    0 -0.10088039282E+02 -0.11460990248E+02 -0.10118721380E+02  0.18316969090E+02  0.51100000000E-03 0. -1.
        -11    1    3    3    0    0 -0.20634837360E+02  0.17033431619E+02 -0.67955999625E+01  0.27606421078E+02  0.51100000000E-03 0.  1.
         12    1    3    3    0    0  0.54063885271E+01 -0.12166575578E+02 -0.13152273373E+01  0.13378505939E+02  0.00000000000E+00 0. -1.
</event>
<event>
 7    1  0.1220856E-011  0.5930197E+02  0.7816164E-02  0.1266605E+00
        -11   -1    0    0    0    0  0.00000000000E+00  0.00000000000E+00  0.45593999997E+02  0.45594000000E+02  0.51100000000E-03 0.  1.
         11   -1    0    0    0    0 -0.00000000000E+00 -0.00000000000E+00 -0.45593999997E+02  0.45594000000E+02  0.51100000000E-03 0. -1.
    9900012    2    1    2    0    0  0.75013107966E+01 -0.13694109593E+02 -0.27801447477E+02  0.59301971978E+02  0.50000050975E+02 0.  0.
        -12    1    1    2    0    0 -0.75013107966E+01  0.13694109593E+02  0.27801447477E+02  0.31886028022E+02  0.00000000000E+00 0.  1.
         11    1    3    3    0    0  0.21063004366E+02 -0.27151355971E+00 -0.22742789290E+02  0.30999328017E+02  0.51100000000E-03 0. -1.
        -11    1    3    3    0    0 -0.74425561963E+01 -0.16066112319E+02 -0.96914924999E+01  0.20185059696E+02  0.51100000000E-03 0.  1.
        -12    1    3    3    0    0 -0.61191373728E+01  0.26435162853E+01  0.46328343132E+01  0.81175842658E+01  0.00000000000E+00 0.  1.
</event>
<event>
 7    1  0.1220856E-011  0.5930198E+02  0.7816164E-02  0.1266605E+00
        -11   -1    0    0    0    0  0.00000000000E+00  0.00000000000E+00  0.45593999997E+02  0.45594000000E+02  0.51100000000E-03 0. -1.
         11   -1    0    0    0    0 -0.00000000000E+00 -0.00000000000E+00 -0.45593999997E+02  0.45594000000E+02  0.51100000000E-03 0.  1.
    9900012    2    1    2    0    0 -0.31093760948E+02  0.68894201817E+01 -0.15595529422E+01  0.59301979776E+02  0.50000065197E+02 0.  0.
        -12    1    1    2    0    0  0.31093760948E+02 -0.68894201817E+01  0.15595529422E+01  0.31886020224E+02  0.00000000000E+00 0.  1.
         11    1    3    3    0    0 -0.12283886065E+02  0.73726465765E+01  0.15184843480E+02  0.20876523805E+02  0.51100000000E-03 0. -1.
        -11    1    3    3    0    0  0.39161630550E+01  0.90322995114E+01 -0.34638354136E+01  0.10436327111E+02  0.51100000000E-03 0.  1.
         12    1    3    3    0    0 -0.22726037938E+02 -0.95155259061E+01 -0.13280561009E+02  0.27989128860E+02  0.00000000000E+00 0. -1.
</event>
<event>
 7    1  0.1220856E-011  0.5930194E+02  0.7816164E-02  0.1266605E+00
        -11   -1    0    0    0    0  0.00000000000E+00  0.00000000000E+00  0.45593999997E+02  0.45594000000E+02  0.51100000000E-03 0.  1.
         11   -1    0    0    0    0 -0.00000000000E+00 -0.00000000000E+00 -0.45593999997E+02  0.45594000000E+02  0.51100000000E-03 0. -1.
    9900012    2    1    2    0    0 -0.54814639039E+00 -0.19390866401E+02 -0.25306420461E+02  0.59301935947E+02  0.49999985263E+02 0.  0.
        -12    1    1    2    0    0  0.54814639039E+00  0.19390866401E+02  0.25306420461E+02  0.31886064053E+02  0.00000000000E+00 0.  1.
         11    1    3    3    0    0 -0.96089245167E+00  0.53009038834E+01  0.68697938644E+00  0.54309149527E+01  0.51100000000E-03 0. -1.
        -11    1    3    3    0    0 -0.14446112493E+02  0.38789757602E+01 -0.90419659251E+01  0.17478379992E+02  0.51100000000E-03 0.  1.
         12    1    3    3    0    0  0.14858858554E+02 -0.28570746045E+02 -0.16951433922E+02  0.36392641002E+02  0.00000000000E+00 0. -1.
</event>
<event>
 7    1  0.1220856E-011  0.5930197E+02  0.7816164E-02  0.1266605E+00
        -11   -1    0    0    0    0  0.00000000000E+00  0.00000000000E+00  0.45593999997E+02  0.45594000000E+02  0.51100000000E-03 0. -1.
         11   -1    0    0    0    0 -0.00000000000E+00 -0.00000000000E+00 -0.45593999997E+02  0.45594000000E+02  0.51100000000E-03 0.  1.
    9900012    2    1    2    0    0  0.11537715859E+02  0.22634722946E+02  0.19268346969E+02  0.59301972261E+02  0.50000051490E+02 0.  0.
        -12    1    1    2    0    0 -0.11537715859E+02 -0.22634722946E+02 -0.19268346969E+02  0.31886027739E+02  0.00000000000E+00 0.  1.
         11    1    3    3    0    0 -0.75093884432E+01  0.80338665090E+01  0.25276416422E+02  0.27565034977E+02  0.51100000000E-03 0. -1.
        -11    1    3    3    0    0 -0.28656732062E+01  0.59262480730E+01  0.19446440195E+01  0.68639740509E+01  0.51100000000E-03 0.  1.
        -12    1    3    3    0    0  0.21912777508E+02  0.86746083636E+01 -0.79527134727E+01  0.24872963233E+02  0.00000000000E+00 0.  1.
</event>
<event>
 7    1  0.1220856E-011  0.5930195E+02  0.7816164E-02  0.1266605E+00
        -11   -1    0    0    0    0  0.00000000000E+00  0.00000000000E+00  0.45593999997E+02  0.45594000000E+02  0.51100000000E-03 0. -1.
         11   -1    0    0    0    0 -0.00000000000E+00 -0.00000000000E+00 -0.45593999997E+02  0.45594000000E+02  0.51100000000E-03 0.  1.
    9900012    2    1    2    0    0  0.22616259280E+02  0.18647016062E+02 -0.12550450855E+02  0.59301949625E+02  0.50000010208E+02 0.  0.
        -12    1    1    2    0    0 -0.22616259280E+02 -0.18647016062E+02  0.12550450855E+02  0.31886050375E+02  0.00000000000E+00 0.  1.
         11    1    3    3    0    0  0.60644478799E+01  0.20203894280E+02  0.12060888996E+02  0.24298969439E+02  0.51100000000E-03 0. -1.
        -11    1    3    3    0    0 -0.16606801581E+01 -0.59288687289E+01 -0.63089616279E+01  0.88154602872E+01  0.51100000000E-03 0.  1.
        -12    1    3    3    0    0  0.18212491558E+02  0.43719905109E+01 -0.18302378224E+02  0.26187519898E+02  0.00000000000E+00 0.  1.
</event>
<event>
 7    1  0.1220856E-011  0.5930195E+02  0.7816164E-02  0.1266605E+00
        -11   -1    0    0    0    0  0.00000000000E+00  0.00000000000E+00  0.45593999997E+02  0.45594000000E+02  0.51100000000E-03 0.  1.
         11   -1    0    0    0    0 -0.00000000000E+00 -0.00000000000E+00 -0.45593999997E+02  0.45594000000E+02  0.51100000000E-03 0. -1.
    9900012    2    1    2    0    0 -0.31472066416E+02 -0.27710355757E+01  0.43070438972E+01  0.59301949292E+02  0.50000009600E+02 0.  0.
        -12    1    1    2    0    0  0.31472066416E+02  0.27710355757E+01 -0.43070438972E+01  0.31886050708E+02  0.00000000000E+00 0.  1.
         11    1    3    3    0    0 -0.10752589245E+02  0.17988588633E+01  0.15038013085E+02  0.18574065427E+02  0.51100000000E-03 0. -1.
        -11    1    3    3    0    0  0.20459565020E+01 -0.10625793365E+02  0.54823235097E+01  0.12130510870E+02  0.51100000000E-03 0.  1.
         12    1    3    3    0    0 -0.22765433673E+02  0.60558989257E+01 -0.16213292698E+02  0.28597372995E+02  0.00000000000E+00 0. -1.
</event>
<event>
 7    1  0.1220856E-011  0.5930212E+02  0.7816164E-02  0.1266604E+00
        -11   -1    0    0    0    0  0.00000000000E+00  0.00000000000E+00  0.45593999997E+02  0.45594000000E+02  0.51100000000E-03 0.  1.
         11   -1    0    0    0    0 -0.00000000000E+00 -0.00000000000E+00 -0.45593999997E+02  0.45594000000E+02  0.51100000000E-03 0. -1.
    9900012    2    1    2    0    0  0.23074026921E+02  0.69982366336E+01  0.20864395859E+02  0.59302124617E+02  0.50000329351E+02 0.  0.
        -12    1    1    2    0    0 -0.23074026921E+02 -0.69982366336E+01 -0.20864395859E+02  0.31885875383E+02  0.00000000000E+00 0.  1.
         11    1    3    3    0    0 -0.47870961259E+01  0.12151599945E+02  0.12484304252E+02  0.18067526766E+02  0.51100000000E-03 0. -1.
        -11    1    3    3    0    0  0.10689747265E+02 -0.16223688481E+02  0.80685207673E+00  0.19445559263E+02  0.51100000000E-03 0.  1.
         12    1    3    3    0    0  0.17171375783E+02  0.11070325169E+02  0.75732395305E+01  0.21789038588E+02  0.00000000000E+00 0. -1.
</event>
<event>
 7    1  0.1220856E-011  0.5930186E+02  0.7816164E-02  0.1266605E+00
        -11   -1    0    0    0    0  0.00000000000E+00  0.00000000000E+00  0.45593999997E+02  0.45594000000E+02  0.51100000000E-03 0.  1.
         11   -1    0    0    0    0 -0.00000000000E+00 -0.00000000000E+00 -0.45593999997E+02  0.45594000000E+02  0.51100000000E-03 0. -1.
    9900012    2    1    2    0    0 -0.71794580454E+01 -0.24011553741E+02 -0.19713619557E+02  0.59301856820E+02  0.49999840953E+02 0.  0.
        -12    1    1    2    0    0  0.71794580454E+01  0.24011553741E+02  0.19713619557E+02  0.31886143180E+02  0.00000000000E+00 0.  1.
         11    1    3    3    0    0 -0.22833023400E+01 -0.10944407156E+01 -0.80893503942E+01  0.84763706925E+01  0.51100000000E-03 0. -1.
        -11    1    3    3    0    0  0.15303023997E+02 -0.70592757634E+01  0.78547490840E+01  0.18593359062E+02  0.51100000000E-03 0.  1.
         12    1    3    3    0    0 -0.20199179703E+02 -0.15857837262E+02 -0.19479018247E+02  0.32232127065E+02  0.00000000000E+00 0. -1.
</event>
<event>
 7    1  0.1220856E-011  0.5930194E+02  0.7816164E-02  0.1266605E+00
        -11   -1    0    0    0    0  0.00000000000E+00  0.00000000000E+00  0.45593999997E+02  0.45594000000E+02  0.51100000000E-03 0.  1.
         11   -1    0    0    0    0 -0.00000000000E+00 -0.00000000000E+00 -0.45593999997E+02  0.45594000000E+02  0.51100000000E-03 0. -1.
    9900012    2    1    2    0    0  0.34413636308E+01 -0.22296029842E+02 -0.22533639142E+02  0.59301939984E+02  0.49999992626E+02 0.  0.
        -12    1    1    2    0    0 -0.34413636308E+01  0.22296029842E+02  0.22533639142E+02  0.31886060016E+02  0.00000000000E+00 0.  1.
         11    1    3    3    0    0  0.81433260209E+01 -0.13508186431E+02 -0.10531047494E+02  0.18965437535E+02  0.51100000000E-03 0. -1.
        -11    1    3    3    0    0 -0.68051709331E+01 -0.19858042066E+02 -0.17927801747E+02  0.27605402766E+02  0.51100000000E-03 0.  1.
        -12    1    3    3    0    0  0.21032085429E+01  0.11070198655E+02  0.59252100988E+01  0.12731099683E+02  0.00000000000E+00 0.  1.
</event>
<event>
 7    1  0.1220856E-011  0.5930195E+02  0.7816164E-02  0.1266605E+00
        -11   -1    0    0    0    0  0.00000000000E+00  0.00000000000E+00  0.45593999997E+02  0.45594000000E+02  0.51100000000E-03 0.  1.
         11   -1    0    0    0    0 -0.00000000000E+00 -0.00000000000E+00 -0.45593999997E+02  0.45594000000E+02  0.51100000000E-03 0. -1.
    9900012    2    1    2    0    0  0.21505487797E+02 -0.18001149546E+01 -0.23473250096E+02  0.59301954631E+02  0.50000019337E+02 0.  0.
        -12    1    1    2    0    0 -0.21505487797E+02  0.18001149546E+01  0.23473250096E+02  0.31886045369E+02  0.00000000000E+00 0.  1.
         11    1    3    3    0    0  0.13330492323E+02 -0.49087039886E+00 -0.15878435127E+02  0.20738073239E+02  0.51100000000E-03 0. -1.
        -11    1    3    3    0    0  0.15072587704E+02  0.55001309375E+01 -0.18155716790E+02  0.24229411731E+02  0.51100000000E-03 0.  1.
        -12    1    3    3    0    0 -0.68975922304E+01 -0.68093754933E+01  0.10560901821E+02  0.14334469661E+02  0.00000000000E+00 0.  1.
</event>
<event>
 7    1  0.1220856E-011  0.5930196E+02  0.7816164E-02  0.1266605E+00
        -11   -1    0    0    0    0  0.00000000000E+00  0.00000000000E+00  0.45593999997E+02  0.45594000000E+02  0.51100000000E-03 0.  1.
         11   -1    0    0    0    0 -0.00000000000E+00 -0.00000000000E+00 -0.45593999997E+02  0.45594000000E+02  0.51100000000E-03 0. -1.
    9900012    2    1    2    0    0 -0.12101741874E+02 -0.14943569268E+02 -0.25435353450E+02  0.59301958791E+02  0.50000026925E+02 0.  0.
        -12    1    1    2    0    0  0.12101741874E+02  0.14943569268E+02  0.25435353450E+02  0.31886041209E+02  0.00000000000E+00 0.  1.
         11    1    3    3    0    0 -0.11650116147E+02 -0.75998189788E+01 -0.11048367649E+02  0.17763695638E+02  0.51100000000E-03 0. -1.
        -11    1    3    3    0    0 -0.95087372793E+01  0.82388060816E+01  0.63252832468E+01  0.14082017565E+02  0.51100000000E-03 0.  1.
         12    1    3    3    0    0  0.90571115516E+01 -0.15582556371E+02 -0.20712269047E+02  0.27456245588E+02  0.00000000000E+00 0. -1.
</event>
<event>
 7    1  0.1220856E-011  0.5930195E+02  0.7816164E-02  0.1266605E+00
        -11   -1    0    0    0    0  0.00000000000E+00  0.00000000000E+00  0.45593999997E+02  0.45594000000E+02  0.51100000000E-03 0.  1.
         11   -1    0    0    0    0 -0.00000000000E+00 -0.00000000000E+00 -0.45593999997E+02  0.45594000000E+02  0.51100000000E-03 0. -1.
    9900012    2    1    2    0    0  0.23071958152E+02 -0.27451582192E+01 -0.21837338146E+02  0.59301945306E+02  0.50000002331E+02 0.  0.
        -12    1    1    2    0    0 -0.23071958152E+02  0.27451582192E+01  0.21837338146E+02  0.31886054694E+02  0.00000000000E+00 0.  1.
         11    1    3    3    0    0  0.24262937304E+02  0.12004426400E+02 -0.74022993303E+01  0.28064041324E+02  0.51100000000E-03 0. -1.
        -11    1    3    3    0    0  0.90420472091E+01 -0.12369777041E+02 -0.28258924845E+01  0.15580618420E+02  0.51100000000E-03 0.  1.
        -12    1    3    3    0    0 -0.10233026361E+02 -0.23798075781E+01 -0.11609146331E+02  0.15657285562E+02  0.00000000000E+00 0.  1.
</event>
<event>
 7    1  0.1220856E-011  0.5930196E+02  0.7816164E-02  0.1266605E+00
        -11   -1    0    0    0    0  0.00000000000E+00  0.00000000000E+00  0.45593999997E+02  0.45594000000E+02  0.51100000000E-03 0. -1.
         11   -1    0    0    0    0 -0.00000000000E+00 -0.00000000000E+00 -0.45593999997E+02  0.45594000000E+02  0.51100000000E-03 0.  1.
    9900012    2    1    2    0    0 -0.70644935066E+01  0.29934861442E+02 -0.84093281488E+01  0.59301956062E+02  0.50000021948E+02 0.  0.
        -12    1    1    2    0    0  0.70644935066E+01 -0.29934861442E+02  0.84093281488E+01  0.31886043938E+02  0.00000000000E+00 0.  1.
         11    1    3    3    0    0 -0.16997565140E+02  0.11457464847E+02 -0.10912633075E+02  0.23222322930E+02  0.51100000000E-03 0. -1.
        -11    1    3    3    0    0  0.93590873201E+01  0.72261937805E+01 -0.12572704764E+02  0.17259295969E+02  0.51100000000E-03 0.  1.
        -12    1    3    3    0    0  0.57398431293E+00  0.11251202815E+02  0.15076009689E+02  0.18820337163E+02  0.00000000000E+00 0.  1.
</event>
<event>
 7    1  0.1220856E-011  0.5930197E+02  0.7816164E-02  0.1266605E+00
        -11   -1    0    0    0    0  0.00000000000E+00  0.00000000000E+00  0.45593999997E+02  0.45594000000E+02  0.51100000000E-03 0. -1.
         11   -1    0    0    0    0 -0.00000000000E+00 -0.00000000000E+00 -0.45593999997E+02  0.45594000000E+02  0.51100000000E-03 0.  1.
    9900012    2    1    2    0    0  0.26984848674E+02 -0.24367533874E+01  0.16810688986E+02  0.59301967176E+02  0.50000042217E+02 0.  0.
        -12    1    1    2    0    0 -0.26984848674E+02  0.24367533874E+01 -0.16810688986E+02  0.31886032824E+02  0.00000000000E+00 0.  1.
         11    1    3    3    0    0  0.60115400086E+01  0.18196164485E+01  0.45458264631E+01  0.77533319153E+01  0.51100000000E-03 0. -1.
        -11    1    3    3    0    0  0.17285125962E+02  0.10613058647E+02  0.24597274641E+02  0.31881632853E+02  0.51100000000E-03 0.  1.
        -12    1    3    3    0    0  0.36881827033E+01 -0.14869428483E+02 -0.12332412117E+02  0.19667002408E+02  0.00000000000E+00 0.  1.
</event>
<event>
 7    1  0.1220856E-011  0.5930192E+02  0.7816164E-02  0.1266605E+00
        -11   -1    0    0    0    0  0.00000000000E+00  0.00000000000E+00  0.45593999997E+02  0.45594000000E+02  0.51100000000E-03 0. -1.
         11   -1    0    0    0    0 -0.00000000000E+00 -0.00000000000E+00 -0.45593999997E+02  0.45594000000E+02  0.51100000000E-03 0.  1.
    9900012    2    1    2    0    0 -0.62787062297E+01  0.18644215515E+02  0.25093688657E+02  0.59301919424E+02  0.49999955129E+02 0.  0.
        -12    1    1    2    0    0  0.62787062297E+01 -0.18644215515E+02 -0.25093688657E+02  0.31886080576E+02  0.00000000000E+00 0.  1.
         11    1    3    3    0    0 -0.12042815433E+02 -0.66895583814E+01  0.71117994530E+01  0.15503460472E+02  0.51100000000E-03 0. -1.
        -11    1    3    3    0    0  0.10030737377E+02  0.57028962177E+01 -0.55950199041E+01  0.12823531713E+02  0.51100000000E-03 0.  1.
         12    1    3    3    0    0 -0.42666281736E+01  0.19630877679E+02  0.23576909108E+02  0.30974927239E+02  0.00000000000E+00 0. -1.
</event>
<event>
 7    1  0.1220856E-011  0.5930196E+02  0.7816164E-02  0.1266605E+00
        -11   -1    0    0    0    0  0.00000000000E+00  0.00000000000E+00  0.45593999997E+02  0.45594000000E+02  0.51100000000E-03 0. -1.
         11   -1    0    0    0    0 -0.00000000000E+00 -0.00000000000E+00 -0.45593999997E+02  0.45594000000E+02  0.51100000000E-03 0.  1.
    9900012    2    1    2    0    0 -0.30290245958E+02  0.99016839773E+01 -0.10849191640E+01  0.59301962376E+02  0.50000033463E+02 0.  0.
        -12    1    1    2    0    0  0.30290245958E+02 -0.99016839773E+01  0.10849191640E+01  0.31886037624E+02  0.00000000000E+00 0.  1.
         11    1    3    3    0    0  0.36986227342E+01  0.65870497188E+01  0.11170512759E+02  0.13485154418E+02  0.51100000000E-03 0. -1.
        -11    1    3    3    0    0 -0.28406435471E+01  0.66870453188E+01 -0.12531522102E+02  0.14485333179E+02  0.51100000000E-03 0.  1.
         12    1    3    3    0    0 -0.31148225145E+02 -0.33724110602E+01  0.27609017921E+00  0.31331474779E+02  0.00000000000E+00 0. -1.
</event>
<event>
 7    1  0.1220856E-011  0.5930194E+02  0.7816164E-02  0.1266605E+00
        -11   -1    0    0    0    0  0.00000000000E+00  0.00000000000E+00  0.45593999997E+02  0.45594000000E+02  0.51100000000E-03 0.  1.
         11   -1    0    0    0    0 -0.00000000000E+00 -0.00000000000E+00 -0.45593999997E+02  0.45594000000E+02  0.51100000000E-03 0. -1.
    9900012    2    1    2    0    0  0.10430272348E+02  0.29370009304E+02 -0.67329778559E+01  0.59301936923E+02  0.49999987042E+02 0.  0.
        -12    1    1    2    0    0 -0.10430272348E+02 -0.29370009304E+02  0.67329778559E+01  0.31886063077E+02  0.00000000000E+00 0.  1.
         11    1    3    3    0    0  0.10937302304E+02  0.32482818496E+02 -0.11722704742E+02  0.36224023601E+02  0.51100000000E-03 0. -1.
        -11    1    3    3    0    0  0.42024770443E+01  0.87439920092E+01  0.12398107485E+01  0.97803548257E+01  0.51100000000E-03 0.  1.
        -12    1    3    3    0    0 -0.47095069998E+01 -0.11856801201E+02  0.37499161376E+01  0.13297558496E+02  0.00000000000E+00 0.  1.
</event>
<event>
 7    1  0.1220856E-011  0.5930198E+02  0.7816164E-02  0.1266605E+00
        -11   -1    0    0    0    0  0.00000000000E+00  0.00000000000E+00  0.45593999997E+02  0.45594000000E+02  0.51100000000E-03 0. -1.
         11   -1    0    0    0    0 -0.00000000000E+00 -0.00000000000E+00 -0.45593999997E+02  0.45594000000E+02  0.51100000000E-03 0.  1.
    9900012    2    1    2    0    0  0.46289701973E+01  0.25465262685E+02  0.18622873484E+02  0.59301978211E+02  0.50000062343E+02 0.  0.
        -12    1    1    2    0    0 -0.46289701973E+01 -0.25465262685E+02 -0.18622873484E+02  0.31886021789E+02  0.00000000000E+00 0.  1.
         11    1    3    3    0    0  0.35252834017E+01 -0.26846840503E+01  0.14097180418E+02  0.14777200260E+02  0.51100000000E-03 0. -1.
        -11    1    3    3    0    0  0.14351031127E+02  0.22671176091E+02  0.10738674407E+02  0.28900751686E+02  0.51100000000E-03 0.  1.
        -12    1    3    3    0    0 -0.13247344331E+02  0.54787706442E+01 -0.62129813410E+01  0.15624026266E+02  0.00000000000E+00 0.  1.
</event>
<event>
 7    1  0.1220856E-011  0.5930194E+02  0.7816164E-02  0.1266605E+00
        -11   -1    0    0    0    0  0.00000000000E+00  0.00000000000E+00  0.45593999997E+02  0.45594000000E+02  0.51100000000E-03 0. -1.
         11   -1    0    0    0    0 -0.00000000000E+00 -0.00000000000E+00 -0.45593999997E+02  0.45594000000E+02  0.51100000000E-03 0.  1.
    9900012    2    1    2    0    0 -0.24641332150E+02  0.15889296317E+02  0.12532188350E+02  0.59301941410E+02  0.49999995225E+02 0.  0.
        -12    1    1    2    0    0  0.24641332150E+02 -0.15889296317E+02 -0.12532188350E+02  0.31886058590E+02  0.00000000000E+00 0.  1.
         11    1    3    3    0    0  0.40702220601E+01 -0.37499853091E+01  0.11928324465E+02  0.13149677648E+02  0.51100000000E-03 0. -1.
        -11    1    3    3    0    0 -0.10618834917E+02  0.24908019983E+02 -0.18936016777E+01  0.27143228291E+02  0.51100000000E-03 0.  1.
         12    1    3    3    0    0 -0.18092719293E+02 -0.52687383566E+01  0.24974655622E+01  0.19009035471E+02  0.00000000000E+00 0. -1.
</event>
<event>
 7    1  0.1220856E-011  0.5930195E+02  0.7816164E-02  0.1266605E+00
        -11   -1    0    0    0    0  0.00000000000E+00  0.00000000000E+00  0.45593999997E+02  0.45594000000E+02  0.51100000000E-03 0.  1.
         11   -1    0    0    0    0 -0.00000000000E+00 -0.00000000000E+00 -0.45593999997E+02  0.45594000000E+02  0.51100000000E-03 0. -1.
    9900012    2    1    2    0    0 -0.25521333423E+02 -0.12541118047E+02  0.14425746233E+02  0.59301948882E+02  0.50000008853E+02 0.  0.
        -12    1    1    2    0    0  0.25521333423E+02  0.12541118047E+02 -0.14425746233E+02  0.31886051118E+02  0.00000000000E+00 0.  1.
         11    1    3    3    0    0 -0.71204857007E+01 -0.12443393526E+01 -0.52455765953E+01  0.89311685191E+01  0.51100000000E-03 0. -1.
        -11    1    3    3    0    0  0.11500979788E+01  0.91863164374E+01  0.20015230697E+02  0.22052677732E+02  0.51100000000E-03 0.  1.
         12    1    3    3    0    0 -0.19550945701E+02 -0.20483095132E+02 -0.34390786851E+00  0.28318102631E+02  0.00000000000E+00 0. -1.
</event>
<event>
 7    1  0.1220856E-011  0.5930196E+02  0.7816164E-02  0.1266605E+00
        -11   -1    0    0    0    0  0.00000000000E+00  0.00000000000E+00  0.45593999997E+02  0.45594000000E+02  0.51100000000E-03 0. -1.
         11   -1    0    0    0    0 -0.00000000000E+00 -0.00000000000E+00 -0.45593999997E+02  0.45594000000E+02  0.51100000000E-03 0.  1.
    9900012    2    1    2    0    0 -0.25582073169E+02  0.43718567586E+00  0.19028560532E+02  0.59301957366E+02  0.50000024326E+02 0.  0.
        -12    1    1    2    0    0  0.25582073169E+02 -0.43718567586E+00 -0.19028560532E+02  0.31886042634E+02  0.00000000000E+00 0.  1.
         11    1    3    3    0    0  0.36591030383E+01 -0.16324373733E+02  0.55370224384E+00  0.16738602070E+02  0.51100000000E-03 0. -1.
        -11    1    3    3    0    0 -0.22365951326E+01  0.58962502944E+00 -0.34855382517E+01  0.41831797269E+01  0.51100000000E-03 0.  1.
        -12    1    3    3    0    0 -0.27004581075E+02  0.16171934379E+02  0.21960396539E+02  0.38380175570E+02  0.00000000000E+00 0.  1.
</event>
<event>
 7    1  0.1220856E-011  0.5930196E+02  0.7816164E-02  0.1266605E+00
        -11   -1    0    0    0    0  0.00000000000E+00  0.00000000000E+00  0.45593999997E+02  0.45594000000E+02  0.51100000000E-03 0.  1.
         11   -1    0    0    0    0 -0.00000000000E+00 -0.00000000000E+00 -0.45593999997E+02  0.45594000000E+02  0.51100000000E-03 0. -1.
    9900012    2    1    2    0    0 -0.19827834930E+02 -0.21383489557E+02 -0.12896635182E+02  0.59301955048E+02  0.50000020099E+02 0.  0.
        -12    1    1    2    0    0  0.19827834930E+02  0.21383489557E+02  0.12896635182E+02  0.31886044952E+02  0.00000000000E+00 0.  1.
         11    1    3    3    0    0 -0.61203122474E+01 -0.40067285932E+01 -0.26657794403E+02  0.27643264980E+02  0.51100000000E-03 0. -1.
        -11    1    3    3    0    0  0.32855644841E+01 -0.82501520959E+01  0.21222170038E+01  0.91303750666E+01  0.51100000000E-03 0.  1.
         12    1    3    3    0    0 -0.16993087167E+02 -0.91266088683E+01  0.11638942218E+02  0.22528315002E+02  0.00000000000E+00 0. -1.
</event>
<event>
 7    1  0.1220856E-011  0.5930195E+02  0.7816164E-02  0.1266605E+00
        -11   -1    0    0    0    0  0.00000000000E+00  0.00000000000E+00  0.45593999997E+02  0.45594000000E+02  0.51100000000E-03 0.  1.
         11   -1    0    0    0    0 -0.00000000000E+00 -0.00000000000E+00 -0.45593999997E+02  0.45594000000E+02  0.51100000000E-03 0. -1.
    9900012    2    1    2    0    0  0.17452389870E+02 -0.26342864702E+02  0.42646805435E+01  0.59301953945E+02  0.50000018086E+02 0.  0.
        -12    1    1    2    0    0 -0.17452389870E+02  0.26342864702E+02 -0.42646805435E+01  0.31886046055E+02  0.00000000000E+00 0.  1.
         11    1    3    3    0    0  0.25354186990E+02 -0.15686070650E+02  0.23762993664E+00  0.29815165246E+02  0.51100000000E-03 0. -1.
        -11    1    3    3    0    0  0.53086751000E+01 -0.14497059913E+02  0.25960565660E+01  0.15655231949E+02  0.51100000000E-03 0.  1.
        -12    1    3    3    0    0 -0.13210472220E+02  0.38402658607E+01  0.14309940409E+01  0.13831556749E+02  0.00000000000E+00 0.  1.
</event>
<event>
 7    1  0.1220856E-011  0.5930207E+02  0.7816164E-02  0.1266604E+00
        -11   -1    0    0    0    0  0.00000000000E+00  0.00000000000E+00  0.45593999997E+02  0.45594000000E+02  0.51100000000E-03 0.  1.
         11   -1    0    0    0    0 -0.00000000000E+00 -0.00000000000E+00 -0.45593999997E+02  0.45594000000E+02  0.51100000000E-03 0. -1.
    9900012    2    1    2    0    0 -0.14615734411E+02 -0.21396373288E+02 -0.18581921515E+02  0.59302073803E+02  0.50000236678E+02 0.  0.
        -12    1    1    2    0    0  0.14615734411E+02  0.21396373288E+02  0.18581921515E+02  0.31885926197E+02  0.00000000000E+00 0.  1.
         11    1    3    3    0    0 -0.28973411626E+01  0.77667168239E+01 -0.16741463289E+02  0.18681356197E+02  0.51100000000E-03 0. -1.
        -11    1    3    3    0    0 -0.75808995548E+01  0.64285142023E+00  0.58086366731E+01  0.95720194457E+01  0.51100000000E-03 0.  1.
         12    1    3    3    0    0 -0.41374936932E+01 -0.29805941532E+02 -0.76490948996E+01  0.31048698161E+02  0.00000000000E+00 0. -1.
</event>
<event>
 7    1  0.1220856E-011  0.5930193E+02  0.7816164E-02  0.1266605E+00
        -11   -1    0    0    0    0  0.00000000000E+00  0.00000000000E+00  0.45593999997E+02  0.45594000000E+02  0.51100000000E-03 0. -1.
         11   -1    0    0    0    0 -0.00000000000E+00 -0.00000000000E+00 -0.45593999997E+02  0.45594000000E+02  0.51100000000E-03 0.  1.
    9900012    2    1    2    0    0 -0.72344882986E+01  0.17353348318E+02  0.25753542400E+02  0.59301929924E+02  0.49999974277E+02 0.  0.
        -12    1    1    2    0    0  0.72344882986E+01 -0.17353348318E+02 -0.25753542400E+02  0.31886070076E+02  0.00000000000E+00 0.  1.
         11    1    3    3    0    0 -0.11876131898E+02  0.60110095392E+01  0.27379472270E+02  0.30443558376E+02  0.51100000000E-03 0. -1.
        -11    1    3    3    0    0  0.55253192494E+01 -0.76583211599E+01  0.15623110851E+01  0.95718259483E+01  0.51100000000E-03 0.  1.
         12    1    3    3    0    0 -0.88367565018E+00  0.19000659939E+02 -0.31882409556E+01  0.19286545599E+02  0.00000000000E+00 0. -1.
</event>
<event>
 7    1  0.1220856E-011  0.5930194E+02  0.7816164E-02  0.1266605E+00
        -11   -1    0    0    0    0  0.00000000000E+00  0.00000000000E+00  0.45593999997E+02  0.45594000000E+02  0.51100000000E-03 0.  1.
         11   -1    0    0    0    0 -0.00000000000E+00 -0.00000000000E+00 -0.45593999997E+02  0.45594000000E+02  0.51100000000E-03 0. -1.
    9900012    2    1    2    0    0  0.83364391124E+01  0.10989668571E+02 -0.28748077314E+02  0.59301937502E+02  0.49999988098E+02 0.  0.
        -12    1    1    2    0    0 -0.83364391124E+01 -0.10989668571E+02  0.28748077314E+02  0.31886062498E+02  0.00000000000E+00 0.  1.
         11    1    3    3    0    0  0.12541039206E+01  0.20085115963E+02 -0.18125124014E+02  0.27083293387E+02  0.51100000000E-03 0.  1.
        -11    1    3    3    0    0 -0.48907711065E+01  0.85834113009E+00 -0.15199245571E+02  0.15989792297E+02  0.51100000000E-03 0. -1.
         12    1    3    3    0    0  0.11973106298E+02 -0.99537885218E+01  0.45762922712E+01  0.16228851818E+02  0.00000000000E+00 0. -1.
</event>
<event>
 7    1  0.1220856E-011  0.5930195E+02  0.7816164E-02  0.1266605E+00
        -11   -1    0    0    0    0  0.00000000000E+00  0.00000000000E+00  0.45593999997E+02  0.45594000000E+02  0.51100000000E-03 0.  1.
         11   -1    0    0    0    0 -0.00000000000E+00 -0.00000000000E+00 -0.45593999997E+02  0.45594000000E+02  0.51100000000E-03 0. -1.
    9900012    2    1    2    0    0 -0.30989912066E+02 -0.69763061397E+01 -0.27706923190E+01  0.59301949239E+02  0.50000009505E+02 0.  0.
        -12    1    1    2    0    0  0.30989912066E+02  0.69763061397E+01  0.27706923190E+01  0.31886050761E+02  0.00000000000E+00 0.  1.
         11    1    3    3    0    0 -0.10159660840E+02 -0.56070190406E+01 -0.49826026781E+01  0.12628685625E+02  0.51100000000E-03 0. -1.
        -11    1    3    3    0    0 -0.23405233066E+02  0.52623433303E+01 -0.14831940172E+02  0.28204319558E+02  0.51100000000E-03 0.  1.
        -12    1    3    3    0    0  0.25749818408E+01 -0.66316304294E+01  0.17043850531E+02  0.18468944056E+02  0.00000000000E+00 0.  1.
</event>
<event>
 7    1  0.1502138E-011  0.5930194E+02  0.7816164E-02  0.1266605E+00
        -11   -1    0    0    0    0  0.00000000000E+00  0.00000000000E+00  0.45593999997E+02  0.45594000000E+02  0.51100000000E-03 0. -1.
         11   -1    0    0    0    0 -0.00000000000E+00 -0.00000000000E+00 -0.45593999997E+02  0.45594000000E+02  0.51100000000E-03 0.  1.
    9900012    2    1    2    0    0  0.21561179725E+02  0.16257401112E+02  0.16956796455E+02  0.59301944928E+02  0.50000001641E+02 0.  0.
        -12    1    1    2    0    0 -0.21561179725E+02 -0.16257401112E+02 -0.16956796455E+02  0.31886055072E+02  0.00000000000E+00 0.  1.
         11    1    3    3    0    0 -0.64332785473E+01  0.10304715786E+02  0.11607641625E+02  0.16802130361E+02  0.51100000000E-03 0. -1.
        -11    1    3    3    0    0  0.19285951156E+02  0.15749875641E+02  0.12179268400E+02  0.27718965956E+02  0.51100000000E-03 0.  1.
        -12    1    3    3    0    0  0.87085071166E+01 -0.97971903150E+01 -0.68301135699E+01  0.14780848610E+02  0.00000000000E+00 0.  1.
</event>
<event>
 7    1  0.1220856E-011  0.5930197E+02  0.7816164E-02  0.1266605E+00
        -11   -1    0    0    0    0  0.00000000000E+00  0.00000000000E+00  0.45593999997E+02  0.45594000000E+02  0.51100000000E-03 0.  1.
         11   -1    0    0    0    0 -0.00000000000E+00 -0.00000000000E+00 -0.45593999997E+02  0.45594000000E+02  0.51100000000E-03 0. -1.
    9900012    2    1    2    0    0 -0.97251791685E+01 -0.83343236495E+01 -0.29200670241E+02  0.59301965392E+02  0.50000038962E+02 0.  0.
        -12    1    1    2    0    0  0.97251791685E+01  0.83343236495E+01  0.29200670241E+02  0.31886034608E+02  0.00000000000E+00 0.  1.
         11    1    3    3    0    0  0.34075825796E+01  0.61801959449E+00 -0.30100810127E+02  0.30299378505E+02  0.51100000000E-03 0. -1.
        -11    1    3    3    0    0 -0.51015607318E+00 -0.87828871402E+01 -0.92785860504E+01  0.12786380453E+02  0.51100000000E-03 0.  1.
        -12    1    3    3    0    0 -0.12622605675E+02 -0.16945610375E+00  0.10178725936E+02  0.16216206433E+02  0.00000000000E+00 0.  1.
</event>
<event>
 7    1  0.1220856E-011  0.5930194E+02  0.7816164E-02  0.1266605E+00
        -11   -1    0    0    0    0  0.00000000000E+00  0.00000000000E+00  0.45593999997E+02  0.45594000000E+02  0.51100000000E-03 0.  1.
         11   -1    0    0    0    0 -0.00000000000E+00 -0.00000000000E+00 -0.45593999997E+02  0.45594000000E+02  0.51100000000E-03 0. -1.
    9900012    2    1    2    0    0  0.19346642068E+02  0.21656168110E+01 -0.25253488483E+02  0.59301935081E+02  0.49999983683E+02 0.  0.
        -12    1    1    2    0    0 -0.19346642068E+02 -0.21656168110E+01  0.25253488483E+02  0.31886064919E+02  0.00000000000E+00 0.  1.
         11    1    3    3    0    0 -0.63580482109E+01  0.79951690476E+01 -0.29765519343E+02  0.31469567000E+02  0.51100000000E-03 0. -1.
        -11    1    3    3    0    0  0.48795156208E+01  0.11815082108E-01  0.38121977916E+01  0.61921453918E+01  0.51100000000E-03 0.  1.
        -12    1    3    3    0    0  0.20825174658E+02 -0.58413673187E+01  0.69983306833E+00  0.21640222689E+02  0.00000000000E+00 0.  1.
</event>
<event>
 7    1  0.1220856E-011  0.5930192E+02  0.7816164E-02  0.1266605E+00
        -11   -1    0    0    0    0  0.00000000000E+00  0.00000000000E+00  0.45593999997E+02  0.45594000000E+02  0.51100000000E-03 0.  1.
         11   -1    0    0    0    0 -0.00000000000E+00 -0.00000000000E+00 -0.45593999997E+02  0.45594000000E+02  0.51100000000E-03 0. -1.
    9900012    2    1    2    0    0  0.26347997720E+02  0.17956068434E+02 -0.29154436673E+00  0.59301915644E+02  0.49999948235E+02 0.  0.
        -12    1    1    2    0    0 -0.26347997720E+02 -0.17956068434E+02  0.29154436673E+00  0.31886084356E+02  0.00000000000E+00 0.  1.
         11    1    3    3    0    0  0.27086383102E+02 -0.39613679677E+01 -0.11424170880E+02  0.29662708343E+02  0.51100000000E-03 0. -1.
        -11    1    3    3    0    0  0.47259871117E+01  0.11292803909E+00  0.44265562328E+00  0.47480154995E+01  0.51100000000E-03 0.  1.
        -12    1    3    3    0    0 -0.54643724937E+01  0.21804508362E+02  0.10689970890E+02  0.24891191801E+02  0.00000000000E+00 0.  1.
</event>
<event>
 7    1  0.1220856E-011  0.5930195E+02  0.7816164E-02  0.1266605E+00
        -11   -1    0    0    0    0  0.00000000000E+00  0.00000000000E+00  0.45593999997E+02  0.45594000000E+02  0.51100000000E-03 0. -1.
         11   -1    0    0    0    0 -0.00000000000E+00 -0.00000000000E+00 -0.45593999997E+02  0.45594000000E+02  0.51100000000E-03 0.  1.
    9900012    2    1    2    0    0  0.49120593732E+00  0.31869791177E+02 -0.89191760738E+00  0.59301946779E+02  0.50000005019E+02 0.  0.
        -12    1    1    2    0    0 -0.49120593732E+00 -0.31869791177E+02  0.89191760738E+00  0.31886053221E+02  0.00000000000E+00 0.  1.
         11    1    3    3    0    0 -0.19211420341E+02  0.21464627195E+02  0.67893115224E+01  0.29595669334E+02  0.51100000000E-03 0. -1.
        -11    1    3    3    0    0  0.13954222304E+02  0.13868033969E+02 -0.22487497877E+00  0.19674685646E+02  0.51100000000E-03 0.  1.
        -12    1    3    3    0    0  0.57484039744E+01 -0.34628699867E+01 -0.74563541510E+01  0.10031591799E+02  0.00000000000E+00 0.  1.
</event>
<event>
 7    1  0.1220856E-011  0.5930196E+02  0.7816164E-02  0.1266605E+00
        -11   -1    0    0    0    0  0.00000000000E+00  0.00000000000E+00  0.45593999997E+02  0.45594000000E+02  0.51100000000E-03 0. -1.
         11   -1    0    0    0    0 -0.00000000000E+00 -0.00000000000E+00 -0.45593999997E+02  0.45594000000E+02  0.51100000000E-03 0.  1.
    9900012    2    1    2    0    0  0.28089642905E+02 -0.14934975857E+02 -0.21535864581E+01  0.59301961095E+02  0.50000031127E+02 0.  0.
        -12    1    1    2    0    0 -0.28089642905E+02  0.14934975857E+02  0.21535864581E+01  0.31886038905E+02  0.00000000000E+00 0.  1.
         11    1    3    3    0    0  0.13465521123E+02 -0.48794149557E+01  0.14154497832E+02  0.20136503136E+02  0.51100000000E-03 0. -1.
        -11    1    3    3    0    0  0.75324746913E+01 -0.18430024368E+02 -0.49294536021E+00  0.19915997805E+02  0.51100000000E-03 0.  1.
        -12    1    3    3    0    0  0.70916470914E+01  0.83744634663E+01 -0.15815138930E+02  0.19249460154E+02  0.00000000000E+00 0.  1.
</event>
<event>
 7    1  0.1220856E-011  0.5930195E+02  0.7816164E-02  0.1266605E+00
        -11   -1    0    0    0    0  0.00000000000E+00  0.00000000000E+00  0.45593999997E+02  0.45594000000E+02  0.51100000000E-03 0.  1.
         11   -1    0    0    0    0 -0.00000000000E+00 -0.00000000000E+00 -0.45593999997E+02  0.45594000000E+02  0.51100000000E-03 0. -1.
    9900012    2    1    2    0    0  0.15352879207E+02 -0.22829517580E+01 -0.27853143755E+02  0.59301946846E+02  0.50000005140E+02 0.  0.
        -12    1    1    2    0    0 -0.15352879207E+02  0.22829517580E+01  0.27853143755E+02  0.31886053154E+02  0.00000000000E+00 0.  1.
         11    1    3    3    0    0  0.50132109216E+01  0.11256574850E+01 -0.15556377456E+02  0.16382926123E+02  0.51100000000E-03 0. -1.
        -11    1    3    3    0    0  0.19094020077E+02  0.92345849497E+01  0.27700641279E+01  0.21390007420E+02  0.51100000000E-03 0.  1.
         12    1    3    3    0    0 -0.87543517923E+01 -0.12643194193E+02 -0.15066830427E+02  0.21529013303E+02  0.00000000000E+00 0. -1.
</event>
<event>
 7    1  0.1220856E-011  0.5930195E+02  0.7816164E-02  0.1266605E+00
        -11   -1    0    0    0    0  0.00000000000E+00  0.00000000000E+00  0.45593999997E+02  0.45594000000E+02  0.51100000000E-03 0.  1.
         11   -1    0    0    0    0 -0.00000000000E+00 -0.00000000000E+00 -0.45593999997E+02  0.45594000000E+02  0.51100000000E-03 0. -1.
    9900012    2    1    2    0    0  0.95005881909E+01  0.28766163502E+02 -0.99482078284E+01  0.59301950110E+02  0.50000011093E+02 0.  0.
        -12    1    1    2    0    0 -0.95005881909E+01 -0.28766163502E+02  0.99482078284E+01  0.31886049890E+02  0.00000000000E+00 0.  1.
         11    1    3    3    0    0 -0.14816626978E+02  0.12131994242E+01 -0.48419339516E+01  0.15634852494E+02  0.51100000000E-03 0. -1.
        -11    1    3    3    0    0  0.29251075995E+01 -0.21801311087E+01 -0.60059196232E+01  0.70271115618E+01  0.51100000000E-03 0.  1.
         12    1    3    3    0    0  0.21392107569E+02  0.29733095186E+02  0.89964574644E+00  0.36639986055E+02  0.00000000000E+00 0. -1.
</event>
<event>
 7    1  0.1220856E-011  0.5930194E+02  0.7816164E-02  0.1266605E+00
        -11   -1    0    0    0    0  0.00000000000E+00  0.00000000000E+00  0.45593999997E+02  0.45594000000E+02  0.51100000000E-03 0. -1.
         11   -1    0    0    0    0 -0.00000000000E+00 -0.00000000000E+00 -0.45593999997E+02  0.45594000000E+02  0.51100000000E-03 0.  1.
    9900012    2    1    2    0    0 -0.22796309684E+02  0.18549150816E+02  0.12368437308E+02  0.59301937643E+02  0.49999988356E+02 0.  0.
        -12    1    1    2    0    0  0.22796309684E+02 -0.18549150816E+02 -0.12368437308E+02  0.31886062357E+02  0.00000000000E+00 0.  1.
         11    1    3    3    0    0  0.89769328191E+00  0.91194208974E+01  0.10589305171E+01  0.92244796511E+01  0.51100000000E-03 0.  1.
        -11    1    3    3    0    0 -0.32781354317E+02 -0.35083806549E+01  0.73241084554E+01  0.33772303602E+02  0.51100000000E-03 0. -1.
         12    1    3    3    0    0  0.90873513512E+01  0.12938110574E+02  0.39853983353E+01  0.16305154390E+02  0.00000000000E+00 0. -1.
</event>
<event>
 7    1  0.1220856E-011  0.5930196E+02  0.7816164E-02  0.1266605E+00
        -11   -1    0    0    0    0  0.00000000000E+00  0.00000000000E+00  0.45593999997E+02  0.45594000000E+02  0.51100000000E-03 0. -1.
         11   -1    0    0    0    0 -0.00000000000E+00 -0.00000000000E+00 -0.45593999997E+02  0.45594000000E+02  0.51100000000E-03 0.  1.
    9900012    2    1    2    0    0 -0.18423752114E+02 -0.21750685069E+02  0.14289596479E+02  0.59301960571E+02  0.50000030171E+02 0.  0.
        -12    1    1    2    0    0  0.18423752114E+02  0.21750685069E+02 -0.14289596479E+02  0.31886039429E+02  0.00000000000E+00 0.  1.
         11    1    3    3    0    0  0.93246472084E+01 -0.12675928481E+01 -0.20699308804E+01  0.96353749953E+01  0.51100000000E-03 0. -1.
        -11    1    3    3    0    0 -0.13333805623E+02  0.55456175244E+00 -0.70115206805E+01  0.15075123006E+02  0.51100000000E-03 0.  1.
         12    1    3    3    0    0 -0.14414593699E+02 -0.21037653973E+02  0.23371048040E+02  0.34591462570E+02  0.00000000000E+00 0. -1.
</event>
<event>
 7    1  0.1220856E-011  0.5930189E+02  0.7816164E-02  0.1266605E+00
        -11   -1    0    0    0    0  0.00000000000E+00  0.00000000000E+00  0.45593999997E+02  0.45594000000E+02  0.51100000000E-03 0.  1.
         11   -1    0    0    0    0 -0.00000000000E+00 -0.00000000000E+00 -0.45593999997E+02  0.45594000000E+02  0.51100000000E-03 0. -1.
    9900012    2    1    2    0    0 -0.23880875653E+02  0.26003495325E+01 -0.20968208108E+02  0.59301893451E+02  0.49999907759E+02 0.  0.
        -12    1    1    2    0    0  0.23880875653E+02 -0.26003495325E+01  0.20968208108E+02  0.31886106549E+02  0.00000000000E+00 0.  1.
         11    1    3    3    0    0 -0.93734952463E+01  0.34261292859E+00 -0.31430323604E+02  0.32800076812E+02  0.51100000000E-03 0. -1.
        -11    1    3    3    0    0 -0.58263222898E+01  0.10710403796E+02  0.44851287981E+01  0.12991349487E+02  0.51100000000E-03 0.  1.
        -12    1    3    3    0    0 -0.86810581167E+01 -0.84526671918E+01  0.59769866979E+01  0.13510467152E+02  0.00000000000E+00 0.  1.
</event>
<event>
 7    1  0.1220856E-011  0.5930194E+02  0.7816164E-02  0.1266605E+00
        -11   -1    0    0    0    0  0.00000000000E+00  0.00000000000E+00  0.45593999997E+02  0.45594000000E+02  0.51100000000E-03 0.  1.
         11   -1    0    0    0    0 -0.00000000000E+00 -0.00000000000E+00 -0.45593999997E+02  0.45594000000E+02  0.51100000000E-03 0. -1.
    9900012    2    1    2    0    0 -0.90116993568E+01  0.13363838464E+02 -0.27512145282E+02  0.59301936559E+02  0.49999986378E+02 0.  0.
        -12    1    1    2    0    0  0.90116993568E+01 -0.13363838464E+02  0.27512145282E+02  0.31886063441E+02  0.00000000000E+00 0.  1.
         11    1    3    3    0    0 -0.22765101305E+02  0.14350773505E+02 -0.22363858539E+02  0.34990523097E+02  0.51100000000E-03 0. -1.
        -11    1    3    3    0    0 -0.10212965197E+00 -0.46302450885E+01 -0.84257974904E+01  0.96147627977E+01  0.51100000000E-03 0.  1.
        -12    1    3    3    0    0  0.13855531600E+02  0.36433100473E+01  0.32775107478E+01  0.14696650663E+02  0.00000000000E+00 0.  1.
</event>
<event>
 7    1  0.1220856E-011  0.5930193E+02  0.7816164E-02  0.1266605E+00
        -11   -1    0    0    0    0  0.00000000000E+00  0.00000000000E+00  0.45593999997E+02  0.45594000000E+02  0.51100000000E-03 0.  1.
         11   -1    0    0    0    0 -0.00000000000E+00 -0.00000000000E+00 -0.45593999997E+02  0.45594000000E+02  0.51100000000E-03 0. -1.
    9900012    2    1    2    0    0 -0.19108952114E+02  0.25249147507E+02  0.37483247473E+01  0.59301930328E+02  0.49999975015E+02 0.  0.
        -12    1    1    2    0    0  0.19108952114E+02 -0.25249147507E+02 -0.37483247473E+01  0.31886069672E+02  0.00000000000E+00 0.  1.
         11    1    3    3    0    0 -0.13692856731E+02  0.79256847220E+01  0.84936093088E+00  0.15843996277E+02  0.51100000000E-03 0. -1.
        -11    1    3    3    0    0 -0.18077812350E+02 -0.20179629817E+01  0.78578019779E+01  0.19814755263E+02  0.51100000000E-03 0.  1.
         12    1    3    3    0    0  0.12661716968E+02  0.19341425767E+02 -0.49588381615E+01  0.23643178788E+02  0.00000000000E+00 0. -1.
</event>
<event>
 7    1  0.1220856E-011  0.5930199E+02  0.7816164E-02  0.1266605E+00
        -11   -1    0    0    0    0  0.00000000000E+00  0.00000000000E+00  0.45593999997E+02  0.45594000000E+02  0.51100000000E-03 0.  1.
         11   -1    0    0    0    0 -0.00000000000E+00 -0.00000000000E+00 -0.45593999997E+02  0.45594000000E+02  0.51100000000E-03 0. -1.
    9900012    2    1    2    0    0 -0.37393020113E+01 -0.16896249047E+02 -0.26781562110E+02  0.59301989268E+02  0.50000082506E+02 0.  0.
        -12    1    1    2    0    0  0.37393020113E+01  0.16896249047E+02  0.26781562110E+02  0.31886010732E+02  0.00000000000E+00 0.  1.
         11    1    3    3    0    0  0.39125615882E+01 -0.13932217645E+02  0.68555273704E+01  0.16012903624E+02  0.51100000000E-03 0. -1.
        -11    1    3    3    0    0 -0.12173191788E+02  0.32318648109E+01 -0.48479724774E+01  0.13495717316E+02  0.51100000000E-03 0.  1.
         12    1    3    3    0    0  0.45213281888E+01 -0.61958962123E+01 -0.28789117003E+02  0.29793368327E+02  0.00000000000E+00 0. -1.
</event>
<event>
 7    1  0.1220856E-011  0.5930203E+02  0.7816164E-02  0.1266604E+00
        -11   -1    0    0    0    0  0.00000000000E+00  0.00000000000E+00  0.45593999997E+02  0.45594000000E+02  0.51100000000E-03 0. -1.
         11   -1    0    0    0    0 -0.00000000000E+00 -0.00000000000E+00 -0.45593999997E+02  0.45594000000E+02  0.51100000000E-03 0.  1.
    9900012    2    1    2    0    0  0.20342868721E+01  0.29453718746E+02  0.12043886794E+02  0.59302030042E+02  0.50000156870E+02 0.  0.
        -12    1    1    2    0    0 -0.20342868721E+01 -0.29453718746E+02 -0.12043886794E+02  0.31885969958E+02  0.00000000000E+00 0.  1.
         11    1    3    3    0    0  0.48666222093E+01 -0.47625889844E+01 -0.42510492099E+01  0.80273087152E+01  0.51100000000E-03 0. -1.
        -11    1    3    3    0    0 -0.11912396206E+02  0.12053671510E+01 -0.24805241883E+01  0.12227472913E+02  0.51100000000E-03 0.  1.
         12    1    3    3    0    0  0.90800608685E+01  0.33010940579E+02  0.18775460193E+02  0.39047248414E+02  0.00000000000E+00 0. -1.
</event>
<event>
 7    1  0.1220856E-011  0.5930196E+02  0.7816164E-02  0.1266605E+00
        -11   -1    0    0    0    0  0.00000000000E+00  0.00000000000E+00  0.45593999997E+02  0.45594000000E+02  0.51100000000E-03 0.  1.
         11   -1    0    0    0    0 -0.00000000000E+00 -0.00000000000E+00 -0.45593999997E+02  0.45594000000E+02  0.51100000000E-03 0. -1.
    9900012    2    1    2    0    0  0.27258844745E+02  0.16542460314E+02  0.14916960343E+00  0.59301955064E+02  0.50000020127E+02 0.  0.
        -12    1    1    2    0    0 -0.27258844745E+02 -0.16542460314E+02 -0.14916960343E+00  0.31886044936E+02  0.00000000000E+00 0.  1.
         11    1    3    3    0    0 -0.63990654466E+01  0.43625587053E+01 -0.81812858033E+01  0.11265584526E+02  0.51100000000E-03 0. -1.
        -11    1    3    3    0    0 -0.52933598329E+01 -0.43833040832E+00  0.44125142732E+01  0.69052208031E+01  0.51100000000E-03 0.  1.
        -12    1    3    3    0    0  0.38951270025E+02  0.12618232017E+02  0.39179411335E+01  0.41131149735E+02  0.00000000000E+00 0.  1.
</event>
<event>
 7    1  0.1220856E-011  0.5930195E+02  0.7816164E-02  0.1266605E+00
        -11   -1    0    0    0    0  0.00000000000E+00  0.00000000000E+00  0.45593999997E+02  0.45594000000E+02  0.51100000000E-03 0.  1.
         11   -1    0    0    0    0 -0.00000000000E+00 -0.00000000000E+00 -0.45593999997E+02  0.45594000000E+02  0.51100000000E-03 0. -1.
    9900012    2    1    2    0    0 -0.32987320244E+01 -0.29461685519E+02 -0.11740861373E+02  0.59301947055E+02  0.50000005521E+02 0.  0.
        -12    1    1    2    0    0  0.32987320244E+01  0.29461685519E+02  0.11740861373E+02  0.31886052945E+02  0.00000000000E+00 0.  1.
         11    1    3    3    0    0 -0.38047232753E+01 -0.16142562102E+02 -0.17179665821E+02  0.23878843112E+02  0.51100000000E-03 0. -1.
        -11    1    3    3    0    0 -0.15848619820E+02 -0.78015448773E+01  0.15685222371E+01  0.17734235674E+02  0.51100000000E-03 0.  1.
        -12    1    3    3    0    0  0.16354611071E+02 -0.55175785405E+01  0.38702822107E+01  0.17688868269E+02  0.00000000000E+00 0.  1.
</event>
<event>
 7    1  0.1220856E-011  0.5930194E+02  0.7816164E-02  0.1266605E+00
        -11   -1    0    0    0    0  0.00000000000E+00  0.00000000000E+00  0.45593999997E+02  0.45594000000E+02  0.51100000000E-03 0. -1.
         11   -1    0    0    0    0 -0.00000000000E+00 -0.00000000000E+00 -0.45593999997E+02  0.45594000000E+02  0.51100000000E-03 0.  1.
    9900012    2    1    2    0    0  0.23671092948E+02 -0.21041289713E+02 -0.36965643565E+01  0.59301935612E+02  0.49999984652E+02 0.  0.
        -12    1    1    2    0    0 -0.23671092948E+02  0.21041289713E+02  0.36965643565E+01  0.31886064388E+02  0.00000000000E+00 0.  1.
         11    1    3    3    0    0  0.15370056617E+02 -0.14242038178E+02  0.34021534768E+01  0.21228493597E+02  0.51100000000E-03 0. -1.
        -11    1    3    3    0    0  0.22479870571E+02 -0.34971060641E+01 -0.29859382862E+01  0.22945373377E+02  0.51100000000E-03 0.  1.
         12    1    3    3    0    0 -0.14178834240E+02 -0.33021454709E+01 -0.41127795472E+01  0.15128068638E+02  0.00000000000E+00 0. -1.
</event>
<event>
 7    1  0.1220856E-011  0.5930190E+02  0.7816164E-02  0.1266605E+00
        -11   -1    0    0    0    0  0.00000000000E+00  0.00000000000E+00  0.45593999997E+02  0.45594000000E+02  0.51100000000E-03 0.  1.
         11   -1    0    0    0    0 -0.00000000000E+00 -0.00000000000E+00 -0.45593999997E+02  0.45594000000E+02  0.51100000000E-03 0. -1.
    9900012    2    1    2    0    0 -0.18498998062E+01 -0.22872701910E+02 -0.22139120858E+02  0.59301901237E+02  0.49999921960E+02 0.  0.
        -12    1    1    2    0    0  0.18498998062E+01  0.22872701910E+02  0.22139120858E+02  0.31886098763E+02  0.00000000000E+00 0.  1.
         11    1    3    3    0    0  0.51505188489E+01 -0.14991105120E+02 -0.11136006238E+02  0.19371931043E+02  0.51100000000E-03 0. -1.
        -11    1    3    3    0    0  0.36188515069E+01 -0.19699792085E+02  0.94303226913E+00  0.20051613514E+02  0.51100000000E-03 0.  1.
        -12    1    3    3    0    0 -0.10619270162E+02  0.11818195295E+02 -0.11946146890E+02  0.19878356680E+02  0.00000000000E+00 0.  1.
</event>
<event>
 7    1  0.1220856E-011  0.5930194E+02  0.7816164E-02  0.1266605E+00
        -11   -1    0    0    0    0  0.00000000000E+00  0.00000000000E+00  0.45593999997E+02  0.45594000000E+02  0.51100000000E-03 0.  1.
         11   -1    0    0    0    0 -0.00000000000E+00 -0.00000000000E+00 -0.45593999997E+02  0.45594000000E+02  0.51100000000E-03 0. -1.
    9900012    2    1    2    0    0  0.19871175163E+02 -0.11401812837E+02  0.22177818800E+02  0.59301943721E+02  0.49999999440E+02 0.  0.
        -12    1    1    2    0    0 -0.19871175163E+02  0.11401812837E+02 -0.22177818800E+02  0.31886056279E+02  0.00000000000E+00 0.  1.
         11    1    3    3    0    0  0.36854773201E+01 -0.12120287419E+02  0.99472923242E+00  0.12707226161E+02  0.51100000000E-03 0. -1.
        -11    1    3    3    0    0 -0.23983758007E+01 -0.10647558766E+02  0.22251662681E+02  0.24784253197E+02  0.51100000000E-03 0.  1.
         12    1    3    3    0    0  0.18584073643E+02  0.11366033348E+02 -0.10685731135E+01  0.21810464363E+02  0.00000000000E+00 0. -1.
</event>
<event>
 7    1  0.1220856E-011  0.5930183E+02  0.7816164E-02  0.1266605E+00
        -11   -1    0    0    0    0  0.00000000000E+00  0.00000000000E+00  0.45593999997E+02  0.45594000000E+02  0.51100000000E-03 0.  1.
         11   -1    0    0    0    0 -0.00000000000E+00 -0.00000000000E+00 -0.45593999997E+02  0.45594000000E+02  0.51100000000E-03 0. -1.
    9900012    2    1    2    0    0 -0.10758383431E+02  0.22682927217E+02  0.19658832304E+02  0.59301832329E+02  0.49999796288E+02 0.  0.
        -12    1    1    2    0    0  0.10758383431E+02 -0.22682927217E+02 -0.19658832304E+02  0.31886167671E+02  0.00000000000E+00 0.  1.
         11    1    3    3    0    0 -0.27892024403E+00  0.11727631591E+02 -0.83900213822E+01  0.14422468522E+02  0.51100000000E-03 0. -1.
        -11    1    3    3    0    0 -0.17662371828E+02 -0.25919201545E+01  0.78035202112E+01  0.19482616781E+02  0.51100000000E-03 0.  1.
        -12    1    3    3    0    0  0.71829086417E+01  0.13547215781E+02  0.20245333475E+02  0.25396747026E+02  0.00000000000E+00 0.  1.
</event>
<event>
 7    1  0.1220856E-011  0.5930204E+02  0.7816164E-02  0.1266604E+00
        -11   -1    0    0    0    0  0.00000000000E+00  0.00000000000E+00  0.45593999997E+02  0.45594000000E+02  0.51100000000E-03 0. -1.
         11   -1    0    0    0    0 -0.00000000000E+00 -0.00000000000E+00 -0.45593999997E+02  0.45594000000E+02  0.51100000000E-03 0.  1.
    9900012    2    1    2    0    0  0.26474327522E+02  0.14714336100E+02  0.99655888398E+01  0.59302036543E+02  0.50000168726E+02 0.  0.
        -12    1    1    2    0    0 -0.26474327522E+02 -0.14714336100E+02 -0.99655888398E+01  0.31885963457E+02  0.00000000000E+00 0.  1.
         11    1    3    3    0    0 -0.18053073165E+01 -0.92846010618E+01  0.65670363433E+01  0.11514726136E+02  0.51100000000E-03 0. -1.
        -11    1    3    3    0    0  0.13956692479E+02  0.20317899611E+02  0.15119569508E+02  0.28917255954E+02  0.51100000000E-03 0.  1.
        -12    1    3    3    0    0  0.14322942360E+02  0.36810375508E+01 -0.11721017011E+02  0.18870054454E+02  0.00000000000E+00 0.  1.
</event>
<event>
 7    1  0.1371616E-011  0.5930195E+02  0.7816164E-02  0.1266605E+00
        -11   -1    0    0    0    0  0.00000000000E+00  0.00000000000E+00  0.45593999997E+02  0.45594000000E+02  0.51100000000E-03 0. -1.
         11   -1    0    0    0    0 -0.00000000000E+00 -0.00000000000E+00 -0.45593999997E+02  0.45594000000E+02  0.51100000000E-03 0.  1.
    9900012    2    1    2    0    0  0.88290924779E+01 -0.15583715965E+02  0.26380208924E+02  0.59301945052E+02  0.50000001868E+02 0.  0.
        -12    1    1    2    0    0 -0.88290924779E+01  0.15583715965E+02 -0.26380208924E+02  0.31886054948E+02  0.00000000000E+00 0.  1.
         11    1    3    3    0    0  0.10016358422E+02  0.23083217413E+01  0.92075429247E+01  0.13799805516E+02  0.51100000000E-03 0. -1.
        -11    1    3    3    0    0  0.93360652355E+01  0.15622648559E+01 -0.77112042962E+01  0.12209236566E+02  0.51100000000E-03 0.  1.
        -12    1    3    3    0    0 -0.10523331180E+02 -0.19454302562E+02  0.24883870296E+02  0.33292902970E+02  0.00000000000E+00 0.  1.
</event>
<event>
 7    1  0.1220856E-011  0.5930188E+02  0.7816164E-02  0.1266605E+00
        -11   -1    0    0    0    0  0.00000000000E+00  0.00000000000E+00  0.45593999997E+02  0.45594000000E+02  0.51100000000E-03 0. -1.
         11   -1    0    0    0    0 -0.00000000000E+00 -0.00000000000E+00 -0.45593999997E+02  0.45594000000E+02  0.51100000000E-03 0.  1.
    9900012    2    1    2    0    0 -0.28254932739E+02 -0.63674173766E+01  0.13335653970E+02  0.59301876138E+02  0.49999876186E+02 0.  0.
        -12    1    1    2    0    0  0.28254932739E+02  0.63674173766E+01 -0.13335653970E+02  0.31886123862E+02  0.00000000000E+00 0.  1.
         11    1    3    3    0    0 -0.22148737456E+02 -0.50335014417E+01  0.36149330991E+01  0.22999357583E+02  0.51100000000E-03 0. -1.
        -11    1    3    3    0    0 -0.10147895225E+02 -0.16402887400E+02  0.40984607328E+01  0.19718820279E+02  0.51100000000E-03 0.  1.
        -12    1    3    3    0    0  0.40416999425E+01  0.15068971465E+02  0.56222601378E+01  0.16583698276E+02  0.00000000000E+00 0.  1.
</event>
<event>
 7    1  0.1220856E-011  0.5930183E+02  0.7816164E-02  0.1266605E+00
        -11   -1    0    0    0    0  0.00000000000E+00  0.00000000000E+00  0.45593999997E+02  0.45594000000E+02  0.51100000000E-03 0. -1.
         11   -1    0    0    0    0 -0.00000000000E+00 -0.00000000000E+00 -0.45593999997E+02  0.45594000000E+02  0.51100000000E-03 0.  1.
    9900012    2    1    2    0    0  0.25825087519E+02  0.15691957527E+02 -0.10176209672E+02  0.59301828707E+02  0.49999789683E+02 0.  0.
        -12    1    1    2    0    0 -0.25825087519E+02 -0.15691957527E+02  0.10176209672E+02  0.31886171293E+02  0.00000000000E+00 0.  1.
         11    1    3    3    0    0  0.77296858396E+01  0.18439592320E+02 -0.18375047611E+02  0.27155275419E+02  0.51100000000E-03 0.  1.
        -11    1    3    3    0    0  0.11432114276E+02  0.10953346922E+02  0.36700318381E+01  0.16252328436E+02  0.51100000000E-03 0. -1.
        -12    1    3    3    0    0  0.66632874031E+01 -0.13700981715E+02  0.45288061005E+01  0.15894224853E+02  0.00000000000E+00 0.  1.
</event>
<event>
 7    1  0.1220856E-011  0.5930187E+02  0.7816164E-02  0.1266605E+00
        -11   -1    0    0    0    0  0.00000000000E+00  0.00000000000E+00  0.45593999997E+02  0.45594000000E+02  0.51100000000E-03 0.  1.
         11   -1    0    0    0    0 -0.00000000000E+00 -0.00000000000E+00 -0.45593999997E+02  0.45594000000E+02  0.51100000000E-03 0. -1.
    9900012    2    1    2    0    0 -0.15312147210E+02  0.21868634478E+02 -0.17436342475E+02  0.59301873471E+02  0.49999871321E+02 0.  0.
        -12    1    1    2    0    0  0.15312147210E+02 -0.21868634478E+02  0.17436342475E+02  0.31886126529E+02  0.00000000000E+00 0.  1.
         11    1    3    3    0    0 -0.74919181152E+01  0.19946629729E+02 -0.18934620073E+02  0.28504678777E+02  0.51100000000E-03 0. -1.
        -11    1    3    3    0    0  0.99167608980E+00  0.13793508128E+02 -0.49218689528E+01  0.14678865153E+02  0.51100000000E-03 0.  1.
         12    1    3    3    0    0 -0.88119051847E+01 -0.11871503379E+02  0.64201465503E+01  0.16118329541E+02  0.00000000000E+00 0. -1.
</event>
<event>
 7    1  0.1220856E-011  0.5930195E+02  0.7816164E-02  0.1266605E+00
        -11   -1    0    0    0    0  0.00000000000E+00  0.00000000000E+00  0.45593999997E+02  0.45594000000E+02  0.51100000000E-03 0. -1.
         11   -1    0    0    0    0 -0.00000000000E+00 -0.00000000000E+00 -0.45593999997E+02  0.45594000000E+02  0.51100000000E-03 0.  1.
    9900012    2    1    2    0    0 -0.29691915700E+02 -0.59023830626E+01 -0.10013603853E+02  0.59301949039E+02  0.50000009140E+02 0.  0.
        -12    1    1    2    0    0  0.29691915700E+02  0.59023830626E+01  0.10013603853E+02  0.31886050961E+02  0.00000000000E+00 0.  1.
         11    1    3    3    0    0 -0.23824462803E+02 -0.13634099609E+01 -0.24351434967E+00  0.23864685501E+02  0.51100000000E-03 0. -1.
        -11    1    3    3    0    0 -0.17240372471E+02 -0.11400089681E+02 -0.73482190784E+01  0.21936016310E+02  0.51100000000E-03 0.  1.
        -12    1    3    3    0    0  0.11372919574E+02  0.68611165792E+01 -0.24218704253E+01  0.13501247228E+02  0.00000000000E+00 0.  1.
</event>
<event>
 7    1  0.1220856E-011  0.5930192E+02  0.7816164E-02  0.1266605E+00
        -11   -1    0    0    0    0  0.00000000000E+00  0.00000000000E+00  0.45593999997E+02  0.45594000000E+02  0.51100000000E-03 0.  1.
         11   -1    0    0    0    0 -0.00000000000E+00 -0.00000000000E+00 -0.45593999997E+02  0.45594000000E+02  0.51100000000E-03 0. -1.
    9900012    2    1    2    0    0 -0.15533845944E+02  0.18498794056E+02 -0.20813850187E+02  0.59301919794E+02  0.49999955803E+02 0.  0.
        -12    1    1    2    0    0  0.15533845944E+02 -0.18498794056E+02  0.20813850187E+02  0.31886080206E+02  0.00000000000E+00 0.  1.
         11    1    3    3    0    0 -0.54762631359E+01  0.32507552150E+02 -0.23606884014E+02  0.40546459498E+02  0.51100000000E-03 0. -1.
        -11    1    3    3    0    0 -0.61687812205E+01 -0.29877322132E+01  0.82020795800E+00  0.69031258774E+01  0.51100000000E-03 0.  1.
        -12    1    3    3    0    0 -0.38888015875E+01 -0.11021025881E+02  0.19728258692E+01  0.11852334418E+02  0.00000000000E+00 0.  1.
</event>
<event>
 7    1  0.1220856E-011  0.5930197E+02  0.7816164E-02  0.1266605E+00
        -11   -1    0    0    0    0  0.00000000000E+00  0.00000000000E+00  0.45593999997E+02  0.45594000000E+02  0.51100000000E-03 0. -1.
         11   -1    0    0    0    0 -0.00000000000E+00 -0.00000000000E+00 -0.45593999997E+02  0.45594000000E+02  0.51100000000E-03 0.  1.
    9900012    2    1    2    0    0 -0.35345052512E+01  0.21106231363E+02  0.23637965314E+02  0.59301966476E+02  0.50000040940E+02 0.  0.
        -12    1    1    2    0    0  0.35345052512E+01 -0.21106231363E+02 -0.23637965314E+02  0.31886033524E+02  0.00000000000E+00 0.  1.
         11    1    3    3    0    0 -0.14259846231E+02 -0.43796090639E+01  0.10644423037E+02  0.18325608643E+02  0.51100000000E-03 0. -1.
        -11    1    3    3    0    0 -0.41242732310E+01  0.89858942263E+01  0.15761844704E+02  0.18606226739E+02  0.51100000000E-03 0.  1.
        -12    1    3    3    0    0  0.14849614211E+02  0.16499946200E+02 -0.27683024275E+01  0.22370131094E+02  0.00000000000E+00 0.  1.
</event>
<event>
 7    1  0.1220856E-011  0.5930185E+02  0.7816164E-02  0.1266605E+00
        -11   -1    0    0    0    0  0.00000000000E+00  0.00000000000E+00  0.45593999997E+02  0.45594000000E+02  0.51100000000E-03 0.  1.
         11   -1    0    0    0    0 -0.00000000000E+00 -0.00000000000E+00 -0.45593999997E+02  0.45594000000E+02  0.51100000000E-03 0. -1.
    9900012    2    1    2    0    0  0.26169141175E+02  0.16045834369E+02 -0.86274883363E+01  0.59301854021E+02  0.49999835848E+02 0.  0.
        -12    1    1    2    0    0 -0.26169141175E+02 -0.16045834369E+02  0.86274883363E+01  0.31886145979E+02  0.00000000000E+00 0.  1.
         11    1    3    3    0    0 -0.74477581813E+00 -0.36217375819E+01  0.22712227942E+01  0.43393694673E+01  0.51100000000E-03 0. -1.
        -11    1    3    3    0    0  0.77452552172E+01  0.11397723424E+02  0.15868472624E+02  0.21016790938E+02  0.51100000000E-03 0.  1.
         12    1    3    3    0    0  0.19168661776E+02  0.82698485263E+01 -0.26767183754E+02  0.33945693616E+02  0.00000000000E+00 0. -1.
</event>
<event>
 7    1  0.1220856E-011  0.5930161E+02  0.7816164E-02  0.1266606E+00
        -11   -1    0    0    0    0  0.00000000000E+00  0.00000000000E+00  0.45593999997E+02  0.45594000000E+02  0.51100000000E-03 0.  1.
         11   -1    0    0    0    0 -0.00000000000E+00 -0.00000000000E+00 -0.45593999997E+02  0.45594000000E+02  0.51100000000E-03 0. -1.
    9900012    2    1    2    0    0 -0.41912772343E+01 -0.30246195848E+02 -0.91838409522E+01  0.59301606307E+02  0.49999384074E+02 0.  0.
        -12    1    1    2    0    0  0.41912772343E+01  0.30246195848E+02  0.91838409522E+01  0.31886393693E+02  0.00000000000E+00 0.  1.
         11    1    3    3    0    0  0.16222104955E+02 -0.19255487863E+02 -0.32751845858E+01  0.25390103118E+02  0.51100000000E-03 0. -1.
        -11    1    3    3    0    0 -0.52513577913E+01 -0.13610356657E+02  0.45795546718E+01  0.15290221981E+02  0.51100000000E-03 0.  1.
         12    1    3    3    0    0 -0.15162024398E+02  0.26196486721E+01 -0.10488211038E+02  0.18621281207E+02  0.00000000000E+00 0. -1.
</event>
<event>
 7    1  0.1220856E-011  0.5930190E+02  0.7816164E-02  0.1266605E+00
        -11   -1    0    0    0    0  0.00000000000E+00  0.00000000000E+00  0.45593999997E+02  0.45594000000E+02  0.51100000000E-03 0. -1.
         11   -1    0    0    0    0 -0.00000000000E+00 -0.00000000000E+00 -0.45593999997E+02  0.45594000000E+02  0.51100000000E-03 0.  1.
    9900012    2    1    2    0    0  0.21782237251E+02 -0.12755638906E+02  0.19482066704E+02  0.59301904180E+02  0.49999927328E+02 0.  0.
        -12    1    1    2    0    0 -0.21782237251E+02  0.12755638906E+02 -0.19482066704E+02  0.31886095820E+02  0.00000000000E+00 0.  1.
         11    1    3    3    0    0  0.96962064180E+01  0.58239645883E+01  0.14555745530E+02  0.18433792627E+02  0.51100000000E-03 0. -1.
        -11    1    3    3    0    0  0.17336206735E+02 -0.12335933961E+02  0.16347983772E+02  0.26832366730E+02  0.51100000000E-03 0.  1.
        -12    1    3    3    0    0 -0.52501759021E+01 -0.62436695340E+01 -0.11421662598E+02  0.14035744824E+02  0.00000000000E+00 0.  1.
</event>
<event>
 7    1  0.1220856E-011  0.5930206E+02  0.7816164E-02  0.1266604E+00
        -11   -1    0    0    0    0  0.00000000000E+00  0.00000000000E+00  0.45593999997E+02  0.45594000000E+02  0.51100000000E-03 0. -1.
         11   -1    0    0    0    0 -0.00000000000E+00 -0.00000000000E+00 -0.45593999997E+02  0.45594000000E+02  0.51100000000E-03 0.  1.
    9900012    2    1    2    0    0 -0.78228859061E+01  0.77666310308E+01  0.29919813589E+02  0.59302057225E+02  0.50000206444E+02 0.  0.
        -12    1    1    2    0    0  0.78228859061E+01 -0.77666310308E+01 -0.29919813589E+02  0.31885942775E+02  0.00000000000E+00 0.  1.
         11    1    3    3    0    0  0.65457078453E+00  0.18699317659E+02  0.10450001557E+02  0.21431180010E+02  0.51100000000E-03 0. -1.
        -11    1    3    3    0    0  0.10690866636E+02 -0.13684900254E+01  0.89281062136E+01  0.13995659155E+02  0.51100000000E-03 0.  1.
        -12    1    3    3    0    0 -0.19168323326E+02 -0.95641966031E+01  0.10541705818E+02  0.23875218059E+02  0.00000000000E+00 0.  1.
</event>
<event>
 7    1  0.1220856E-011  0.5930194E+02  0.7816164E-02  0.1266605E+00
        -11   -1    0    0    0    0  0.00000000000E+00  0.00000000000E+00  0.45593999997E+02  0.45594000000E+02  0.51100000000E-03 0.  1.
         11   -1    0    0    0    0 -0.00000000000E+00 -0.00000000000E+00 -0.45593999997E+02  0.45594000000E+02  0.51100000000E-03 0. -1.
    9900012    2    1    2    0    0 -0.15569705515E+02  0.22622843823E+02 -0.16202223800E+02  0.59301939590E+02  0.49999991906E+02 0.  0.
        -12    1    1    2    0    0  0.15569705515E+02 -0.22622843823E+02  0.16202223800E+02  0.31886060410E+02  0.00000000000E+00 0.  1.
         11    1    3    3    0    0 -0.94454581116E+01  0.58263003651E+01 -0.75423003884E+01  0.13418224558E+02  0.51100000000E-03 0. -1.
        -11    1    3    3    0    0  0.57397730658E+01  0.17207396915E+01  0.14571282900E+02  0.15755260250E+02  0.51100000000E-03 0.  1.
         12    1    3    3    0    0 -0.11864020469E+02  0.15075803766E+02 -0.23231206311E+02  0.30128454782E+02  0.00000000000E+00 0. -1.
</event>
<event>
 7    1  0.1220856E-011  0.5930195E+02  0.7816164E-02  0.1266605E+00
        -11   -1    0    0    0    0  0.00000000000E+00  0.00000000000E+00  0.45593999997E+02  0.45594000000E+02  0.51100000000E-03 0. -1.
         11   -1    0    0    0    0 -0.00000000000E+00 -0.00000000000E+00 -0.45593999997E+02  0.45594000000E+02  0.51100000000E-03 0.  1.
    9900012    2    1    2    0    0  0.19654005576E+02  0.15922431107E+01  0.25058033275E+02  0.59301949682E+02  0.50000010312E+02 0.  0.
        -12    1    1    2    0    0 -0.19654005576E+02 -0.15922431107E+01 -0.25058033275E+02  0.31886050318E+02  0.00000000000E+00 0.  1.
         11    1    3    3    0    0 -0.76306267660E+01 -0.12857253626E+02  0.16007604272E+02  0.21903854237E+02  0.51100000000E-03 0. -1.
        -11    1    3    3    0    0  0.47933673683E+01 -0.42244089643E+01  0.44955836835E+01  0.78123155813E+01  0.51100000000E-03 0.  1.
        -12    1    3    3    0    0  0.22491264974E+02  0.18673905701E+02  0.45548453195E+01  0.29585779864E+02  0.00000000000E+00 0.  1.
</event>
<event>
 7    1  0.1220856E-011  0.5930193E+02  0.7816164E-02  0.1266605E+00
        -11   -1    0    0    0    0  0.00000000000E+00  0.00000000000E+00  0.45593999997E+02  0.45594000000E+02  0.51100000000E-03 0.  1.
         11   -1    0    0    0    0 -0.00000000000E+00 -0.00000000000E+00 -0.45593999997E+02  0.45594000000E+02  0.51100000000E-03 0. -1.
    9900012    2    1    2    0    0 -0.27416037545E+02 -0.99351979131E+01  0.12898600470E+02  0.59301934606E+02  0.49999982817E+02 0.  0.
        -12    1    1    2    0    0  0.27416037545E+02  0.99351979131E+01 -0.12898600470E+02  0.31886065394E+02  0.00000000000E+00 0.  1.
         11    1    3    3    0    0 -0.19686521298E+02  0.71305583080E+01  0.42499143635E+01  0.21365059208E+02  0.51100000000E-03 0. -1.
        -11    1    3    3    0    0  0.23688921736E+01  0.80405148198E+01 -0.23817937694E+01  0.87140387031E+01  0.51100000000E-03 0.  1.
        -12    1    3    3    0    0 -0.10098408421E+02 -0.25106271041E+02  0.11030479876E+02  0.29222836695E+02  0.00000000000E+00 0.  1.
</event>
<event>
 7    1  0.1220856E-011  0.5930194E+02  0.7816164E-02  0.1266605E+00
        -11   -1    0    0    0    0  0.00000000000E+00  0.00000000000E+00  0.45593999997E+02  0.45594000000E+02  0.51100000000E-03 0. -1.
         11   -1    0    0    0    0 -0.00000000000E+00 -0.00000000000E+00 -0.45593999997E+02  0.45594000000E+02  0.51100000000E-03 0.  1.
    9900012    2    1    2    0    0  0.23995373439E+01 -0.12825981034E+02  0.29093933583E+02  0.59301944423E+02  0.50000000721E+02 0.  0.
        -12    1    1    2    0    0 -0.23995373439E+01  0.12825981034E+02 -0.29093933583E+02  0.31886055577E+02  0.00000000000E+00 0.  1.
         11    1    3    3    0    0 -0.33038766964E+01 -0.78658275383E+01 -0.44763784640E+01  0.96345632232E+01  0.51100000000E-03 0. -1.
        -11    1    3    3    0    0  0.77054974266E+01 -0.18635766008E+02  0.10404792430E+02  0.22691984732E+02  0.51100000000E-03 0.  1.
        -12    1    3    3    0    0 -0.20020833863E+01  0.13675612512E+02  0.23165519617E+02  0.26975396468E+02  0.00000000000E+00 0.  1.
</event>
<event>
 7    1  0.1220856E-011  0.5930194E+02  0.7816164E-02  0.1266605E+00
        -11   -1    0    0    0    0  0.00000000000E+00  0.00000000000E+00  0.45593999997E+02  0.45594000000E+02  0.51100000000E-03 0.  1.
         11   -1    0    0    0    0 -0.00000000000E+00 -0.00000000000E+00 -0.45593999997E+02  0.45594000000E+02  0.51100000000E-03 0. -1.
    9900012    2    1    2    0    0 -0.13433078515E+02  0.90045281367E+00 -0.28904367589E+02  0.59301939106E+02  0.49999991023E+02 0.  0.
        -12    1    1    2    0    0  0.13433078515E+02 -0.90045281367E+00  0.28904367589E+02  0.31886060894E+02  0.00000000000E+00 0.  1.
         11    1    3    3    0    0 -0.84641695886E+01  0.27872363841E+01  0.33126760773E+01  0.95070855965E+01  0.51100000000E-03 0. -1.
        -11    1    3    3    0    0  0.14159662100E+02  0.63759548587E+01 -0.68651164496E+01  0.16978770723E+02  0.51100000000E-03 0.  1.
         12    1    3    3    0    0 -0.19128571026E+02 -0.82627384292E+01 -0.25351927216E+02  0.32816082786E+02  0.00000000000E+00 0. -1.
</event>
<event>
 7    1  0.1220856E-011  0.5930196E+02  0.7816164E-02  0.1266605E+00
        -11   -1    0    0    0    0  0.00000000000E+00  0.00000000000E+00  0.45593999997E+02  0.45594000000E+02  0.51100000000E-03 0.  1.
         11   -1    0    0    0    0 -0.00000000000E+00 -0.00000000000E+00 -0.45593999997E+02  0.45594000000E+02  0.51100000000E-03 0. -1.
    9900012    2    1    2    0    0 -0.10261353047E+02 -0.46174579784E+01 -0.29834595092E+02  0.59301963106E+02  0.50000034794E+02 0.  0.
        -12    1    1    2    0    0  0.10261353047E+02  0.46174579784E+01  0.29834595092E+02  0.31886036894E+02  0.00000000000E+00 0.  1.
         11    1    3    3    0    0 -0.14551320910E+02 -0.55982022890E+01 -0.83949776923E+01  0.17707525513E+02  0.51100000000E-03 0. -1.
        -11    1    3    3    0    0 -0.10345416542E+02 -0.56440379328E+01  0.31714973052E+01  0.12204146961E+02  0.51100000000E-03 0.  1.
         12    1    3    3    0    0  0.14635384405E+02  0.66247822434E+01 -0.24611114704E+02  0.29390290632E+02  0.00000000000E+00 0. -1.
</event>
<event>
 7    1  0.1220856E-011  0.5930193E+02  0.7816164E-02  0.1266605E+00
        -11   -1    0    0    0    0  0.00000000000E+00  0.00000000000E+00  0.45593999997E+02  0.45594000000E+02  0.51100000000E-03 0. -1.
         11   -1    0    0    0    0 -0.00000000000E+00 -0.00000000000E+00 -0.45593999997E+02  0.45594000000E+02  0.51100000000E-03 0.  1.
    9900012    2    1    2    0    0 -0.15122630532E+02  0.20481695221E+02  0.19197071469E+02  0.59301931783E+02  0.49999977669E+02 0.  0.
        -12    1    1    2    0    0  0.15122630532E+02 -0.20481695221E+02 -0.19197071469E+02  0.31886068217E+02  0.00000000000E+00 0.  1.
         11    1    3    3    0    0  0.25376320073E-01  0.22346594233E+02  0.57711441868E+01  0.23079796864E+02  0.51100000000E-03 0. -1.
        -11    1    3    3    0    0 -0.65939937745E+01  0.16380350861E+01 -0.93983811919E+01  0.11597132496E+02  0.51100000000E-03 0.  1.
         12    1    3    3    0    0 -0.85540130780E+01 -0.35029340987E+01  0.22824308474E+02  0.24625002423E+02  0.00000000000E+00 0. -1.
</event>
<event>
 7    1  0.1220856E-011  0.5930160E+02  0.7816164E-02  0.1266606E+00
        -11   -1    0    0    0    0  0.00000000000E+00  0.00000000000E+00  0.45593999997E+02  0.45594000000E+02  0.51100000000E-03 0.  1.
         11   -1    0    0    0    0 -0.00000000000E+00 -0.00000000000E+00 -0.45593999997E+02  0.45594000000E+02  0.51100000000E-03 0. -1.
    9900012    2    1    2    0    0 -0.25066557060E+02 -0.14285267906E+02 -0.13577241222E+02  0.59301597864E+02  0.49999368677E+02 0.  0.
        -12    1    1    2    0    0  0.25066557060E+02  0.14285267906E+02  0.13577241222E+02  0.31886402136E+02  0.00000000000E+00 0.  1.
         11    1    3    3    0    0 -0.27807318173E+01 -0.41836157017E+01 -0.68157263003E+01  0.84669495712E+01  0.51100000000E-03 0. -1.
        -11    1    3    3    0    0 -0.25969770352E+02  0.72591703526E+00 -0.20402369446E+02  0.33033507336E+02  0.51100000000E-03 0.  1.
        -12    1    3    3    0    0  0.36839451097E+01 -0.10827569239E+02  0.13640854524E+02  0.17801140956E+02  0.00000000000E+00 0.  1.
</event>
<event>
 7    1  0.1220856E-011  0.5930191E+02  0.7816164E-02  0.1266605E+00
        -11   -1    0    0    0    0  0.00000000000E+00  0.00000000000E+00  0.45593999997E+02  0.45594000000E+02  0.51100000000E-03 0.  1.
         11   -1    0    0    0    0 -0.00000000000E+00 -0.00000000000E+00 -0.45593999997E+02  0.45594000000E+02  0.51100000000E-03 0. -1.
    9900012    2    1    2    0    0  0.18785975624E+02  0.17487397374E+02 -0.18920910622E+02  0.59301908897E+02  0.49999935930E+02 0.  0.
        -12    1    1    2    0    0 -0.18785975624E+02 -0.17487397374E+02  0.18920910622E+02  0.31886091103E+02  0.00000000000E+00 0.  1.
         11    1    3    3    0    0 -0.61493435192E+01  0.20614949251E+02 -0.30697212911E+01  0.21730479686E+02  0.51100000000E-03 0. -1.
        -11    1    3    3    0    0 -0.33241895852E+01 -0.29397517177E+01  0.11595176988E+01  0.45865954820E+01  0.51100000000E-03 0.  1.
        -12    1    3    3    0    0  0.28259508728E+02 -0.18780015890E+00 -0.17010707030E+02  0.32984833729E+02  0.00000000000E+00 0.  1.
</event>
<event>
 7    1  0.1220856E-011  0.5930194E+02  0.7816164E-02  0.1266605E+00
        -11   -1    0    0    0    0  0.00000000000E+00  0.00000000000E+00  0.45593999997E+02  0.45594000000E+02  0.51100000000E-03 0.  1.
         11   -1    0    0    0    0 -0.00000000000E+00 -0.00000000000E+00 -0.45593999997E+02  0.45594000000E+02  0.51100000000E-03 0. -1.
    9900012    2    1    2    0    0 -0.26690357212E+02 -0.48066177416E+01  0.16770277284E+02  0.59301938118E+02  0.49999989222E+02 0.  0.
        -12    1    1    2    0    0  0.26690357212E+02  0.48066177416E+01 -0.16770277284E+02  0.31886061882E+02  0.00000000000E+00 0.  1.
         11    1    3    3    0    0 -0.12250427017E+02  0.83717146144E+01  0.22410766980E+02  0.26877519316E+02  0.51100000000E-03 0. -1.
        -11    1    3    3    0    0  0.26637451498E+01  0.40572352052E+01 -0.65183754106E+01  0.81268637240E+01  0.51100000000E-03 0.  1.
         12    1    3    3    0    0 -0.17103675345E+02 -0.17235567561E+02  0.87788571429E+00  0.24297555078E+02  0.00000000000E+00 0. -1.
</event>
<event>
 7    1  0.1220856E-011  0.5930193E+02  0.7816164E-02  0.1266605E+00
        -11   -1    0    0    0    0  0.00000000000E+00  0.00000000000E+00  0.45593999997E+02  0.45594000000E+02  0.51100000000E-03 0.  1.
         11   -1    0    0    0    0 -0.00000000000E+00 -0.00000000000E+00 -0.45593999997E+02  0.45594000000E+02  0.51100000000E-03 0. -1.
    9900012    2    1    2    0    0  0.27939834205E+02 -0.15363785281E+02 -0.20262447179E+00  0.59301932662E+02  0.49999979272E+02 0.  0.
        -12    1    1    2    0    0 -0.27939834205E+02  0.15363785281E+02  0.20262447179E+00  0.31886067338E+02  0.00000000000E+00 0.  1.
         11    1    3    3    0    0  0.11505978761E+02  0.10709376476E+02  0.10074299146E+02  0.18670023977E+02  0.51100000000E-03 0. -1.
        -11    1    3    3    0    0  0.14471904882E+02 -0.24911613808E+02  0.12933165145E+01  0.28839160898E+02  0.51100000000E-03 0.  1.
        -12    1    3    3    0    0  0.19619505630E+01 -0.11615479498E+01 -0.11570240133E+02  0.11792747788E+02  0.00000000000E+00 0.  1.
</event>
<event>
 7    1  0.1220856E-011  0.5930215E+02  0.7816164E-02  0.1266604E+00
        -11   -1    0    0    0    0  0.00000000000E+00  0.00000000000E+00  0.45593999997E+02  0.45594000000E+02  0.51100000000E-03 0.  1.
         11   -1    0    0    0    0 -0.00000000000E+00 -0.00000000000E+00 -0.45593999997E+02  0.45594000000E+02  0.51100000000E-03 0. -1.
    9900012    2    1    2    0    0  0.57789583254E+00  0.25610004474E+02 -0.18986867808E+02  0.59302149817E+02  0.50000375308E+02 0.  0.
        -12    1    1    2    0    0 -0.57789583254E+00 -0.25610004474E+02  0.18986867808E+02  0.31885850183E+02  0.00000000000E+00 0.  1.
         11    1    3    3    0    0  0.32869552855E+01  0.29609701608E+02 -0.12936071280E+02  0.32478923085E+02  0.51100000000E-03 0. -1.
        -11    1    3    3    0    0 -0.78408750239E+01  0.65117728395E+01  0.44337435501E+01  0.11114881411E+02  0.51100000000E-03 0.  1.
         12    1    3    3    0    0  0.51318155709E+01 -0.10511469973E+02 -0.10484540079E+02  0.15708345321E+02  0.00000000000E+00 0. -1.
</event>
<event>
 7    1  0.1220856E-011  0.5930195E+02  0.7816164E-02  0.1266605E+00
        -11   -1    0    0    0    0  0.00000000000E+00  0.00000000000E+00  0.45593999997E+02  0.45594000000E+02  0.51100000000E-03 0. -1.
         11   -1    0    0    0    0 -0.00000000000E+00 -0.00000000000E+00 -0.45593999997E+02  0.45594000000E+02  0.51100000000E-03 0.  1.
    9900012    2    1    2    0    0  0.52662117365E+01  0.15018543423E+02  0.27630248966E+02  0.59301948339E+02  0.50000007863E+02 0.  0.
        -12    1    1    2    0    0 -0.52662117365E+01 -0.15018543423E+02 -0.27630248966E+02  0.31886051661E+02  0.00000000000E+00 0.  1.
         11    1    3    3    0    0  0.12857506685E+00 -0.60171365038E+01  0.96620767334E+01  0.11383241644E+02  0.51100000000E-03 0. -1.
        -11    1    3    3    0    0 -0.11675031595E+01  0.43076623354E+01  0.27362288582E+02  0.27723886004E+02  0.51100000000E-03 0.  1.
        -12    1    3    3    0    0  0.63051398291E+01  0.16728017591E+02 -0.93941163492E+01  0.20194820692E+02  0.00000000000E+00 0.  1.
</event>
<event>
 7    1  0.1220856E-011  0.5930199E+02  0.7816164E-02  0.1266605E+00
        -11   -1    0    0    0    0  0.00000000000E+00  0.00000000000E+00  0.45593999997E+02  0.45594000000E+02  0.51100000000E-03 0.  1.
         11   -1    0    0    0    0 -0.00000000000E+00 -0.00000000000E+00 -0.45593999997E+02  0.45594000000E+02  0.51100000000E-03 0. -1.
    9900012    2    1    2    0    0 -0.20169557682E+02 -0.42134164949E+01 -0.24334211575E+02  0.59301987572E+02  0.50000079414E+02 0.  0.
        -12    1    1    2    0    0  0.20169557682E+02  0.42134164949E+01  0.24334211575E+02  0.31886012428E+02  0.00000000000E+00 0.  1.
         11    1    3    3    0    0  0.22438108025E+01 -0.13895395160E+02 -0.43599814254E+01  0.14735200435E+02  0.51100000000E-03 0. -1.
        -11    1    3    3    0    0 -0.29597112545E+02  0.79897242786E+01 -0.10178841259E+02  0.32302222441E+02  0.51100000000E-03 0.  1.
         12    1    3    3    0    0  0.71837440606E+01  0.16922543870E+01 -0.97953888903E+01  0.12264564695E+02  0.00000000000E+00 0. -1.
</event>
<event>
 7    1  0.1220856E-011  0.5930195E+02  0.7816164E-02  0.1266605E+00
        -11   -1    0    0    0    0  0.00000000000E+00  0.00000000000E+00  0.45593999997E+02  0.45594000000E+02  0.51100000000E-03 0.  1.
         11   -1    0    0    0    0 -0.00000000000E+00 -0.00000000000E+00 -0.45593999997E+02  0.45594000000E+02  0.51100000000E-03 0. -1.
    9900012    2    1    2    0    0  0.10315731287E+02 -0.11634074142E+02 -0.27837999248E+02  0.59301949833E+02  0.50000010587E+02 0.  0.
        -12    1    1    2    0    0 -0.10315731287E+02  0.11634074142E+02  0.27837999248E+02  0.31886050167E+02  0.00000000000E+00 0.  1.
         11    1    3    3    0    0  0.75536160176E+01 -0.39876546759E+01 -0.15477120425E+02  0.17677662789E+02  0.51100000000E-03 0. -1.
        -11    1    3    3    0    0  0.20437387768E+02  0.12443235079E+00 -0.64829926747E+01  0.21441350155E+02  0.51100000000E-03 0.  1.
         12    1    3    3    0    0 -0.17675272499E+02 -0.77708518169E+01 -0.58778861484E+01  0.20182936889E+02  0.00000000000E+00 0. -1.
</event>
<event>
 7    1  0.1220856E-011  0.5930178E+02  0.7816164E-02  0.1266605E+00
        -11   -1    0    0    0    0  0.00000000000E+00  0.00000000000E+00  0.45593999997E+02  0.45594000000E+02  0.51100000000E-03 0. -1.
         11   -1    0    0    0    0 -0.00000000000E+00 -0.00000000000E+00 -0.45593999997E+02  0.45594000000E+02  0.51100000000E-03 0.  1.
    9900012    2    1    2    0    0 -0.45889729468E+01  0.30744960369E+02  0.71007064537E+01  0.59301775812E+02  0.49999693214E+02 0.  0.
        -12    1    1    2    0    0  0.45889729468E+01 -0.30744960369E+02 -0.71007064537E+01  0.31886224188E+02  0.00000000000E+00 0.  1.
         11    1    3    3    0    0 -0.10378906394E+02  0.16150619004E+02  0.35623758930E+01  0.19525744913E+02  0.51100000000E-03 0. -1.
        -11    1    3    3    0    0  0.57812490098E+01  0.22784137334E+02  0.13320568202E+02  0.27018091932E+02  0.51100000000E-03 0.  1.
         12    1    3    3    0    0  0.86844370532E-02 -0.81897959683E+01 -0.97822376414E+01  0.12757938967E+02  0.00000000000E+00 0. -1.
</event>
<event>
 7    1  0.1220856E-011  0.5930196E+02  0.7816164E-02  0.1266605E+00
        -11   -1    0    0    0    0  0.00000000000E+00  0.00000000000E+00  0.45593999997E+02  0.45594000000E+02  0.51100000000E-03 0.  1.
         11   -1    0    0    0    0 -0.00000000000E+00 -0.00000000000E+00 -0.45593999997E+02  0.45594000000E+02  0.51100000000E-03 0. -1.
    9900012    2    1    2    0    0  0.51694314215E+01  0.17104439597E+02 -0.26408993047E+02  0.59301956205E+02  0.50000022208E+02 0.  0.
        -12    1    1    2    0    0 -0.51694314215E+01 -0.17104439597E+02  0.26408993047E+02  0.31886043795E+02  0.00000000000E+00 0.  1.
         11    1    3    3    0    0  0.60478872891E+00  0.14187529554E+02  0.18387722840E+01  0.14318968120E+02  0.51100000000E-03 0. -1.
        -11    1    3    3    0    0  0.13227926018E+02  0.67835816132E+01  0.33215503322E+00  0.14869611073E+02  0.51100000000E-03 0.  1.
         12    1    3    3    0    0 -0.86632833250E+01 -0.38666715703E+01 -0.28579920364E+02  0.30113377011E+02  0.00000000000E+00 0. -1.
</event>
<event>
 7    1  0.1220856E-011  0.5930190E+02  0.7816164E-02  0.1266605E+00
        -11   -1    0    0    0    0  0.00000000000E+00  0.00000000000E+00  0.45593999997E+02  0.45594000000E+02  0.51100000000E-03 0. -1.
         11   -1    0    0    0    0 -0.00000000000E+00 -0.00000000000E+00 -0.45593999997E+02  0.45594000000E+02  0.51100000000E-03 0.  1.
    9900012    2    1    2    0    0 -0.80617015598E+01  0.27746481228E+02  0.13485739185E+02  0.59301899361E+02  0.49999918539E+02 0.  0.
        -12    1    1    2    0    0  0.80617015598E+01 -0.27746481228E+02 -0.13485739185E+02  0.31886100639E+02  0.00000000000E+00 0.  1.
         11    1    3    3    0    0 -0.97174903443E+01  0.89429206000E+00 -0.74654890649E+01  0.12286696225E+02  0.51100000000E-03 0. -1.
        -11    1    3    3    0    0 -0.41436845991E+01  0.15263776459E+01 -0.73638398379E+01  0.85863897066E+01  0.51100000000E-03 0.  1.
        -12    1    3    3    0    0  0.57994733836E+01  0.25325811522E+02  0.28315068088E+02  0.38428813430E+02  0.00000000000E+00 0.  1.
</event>
<event>
 7    1  0.1220856E-011  0.5930174E+02  0.7816164E-02  0.1266605E+00
        -11   -1    0    0    0    0  0.00000000000E+00  0.00000000000E+00  0.45593999997E+02  0.45594000000E+02  0.51100000000E-03 0.  1.
         11   -1    0    0    0    0 -0.00000000000E+00 -0.00000000000E+00 -0.45593999997E+02  0.45594000000E+02  0.51100000000E-03 0. -1.
    9900012    2    1    2    0    0 -0.23330040020E+02 -0.21735001409E+02 -0.18067240080E+00  0.59301738129E+02  0.49999624489E+02 0.  0.
        -12    1    1    2    0    0  0.23330040020E+02  0.21735001409E+02  0.18067240080E+00  0.31886261871E+02  0.00000000000E+00 0.  1.
         11    1    3    3    0    0 -0.13789559900E+02 -0.30751700851E+01 -0.12787741486E+02  0.19056100490E+02  0.51100000000E-03 0.  1.
        -11    1    3    3    0    0  0.10412728911E+02 -0.15453915717E+01 -0.11263819972E+01  0.10586873719E+02  0.51100000000E-03 0. -1.
        -12    1    3    3    0    0 -0.19953209030E+02 -0.17114439752E+02  0.13733451082E+02  0.29658763920E+02  0.00000000000E+00 0.  1.
</event>
<event>
 7    1  0.1220856E-011  0.5930195E+02  0.7816164E-02  0.1266605E+00
        -11   -1    0    0    0    0  0.00000000000E+00  0.00000000000E+00  0.45593999997E+02  0.45594000000E+02  0.51100000000E-03 0. -1.
         11   -1    0    0    0    0 -0.00000000000E+00 -0.00000000000E+00 -0.45593999997E+02  0.45594000000E+02  0.51100000000E-03 0.  1.
    9900012    2    1    2    0    0  0.13439865106E+02 -0.28647403211E+02  0.39263696453E+01  0.59301951901E+02  0.50000014359E+02 0.  0.
        -12    1    1    2    0    0 -0.13439865106E+02  0.28647403211E+02 -0.39263696453E+01  0.31886048099E+02  0.00000000000E+00 0.  1.
         11    1    3    3    0    0  0.34459356635E+01  0.16174012404E+01  0.25948742461E+01  0.46069330344E+01  0.51100000000E-03 0. -1.
        -11    1    3    3    0    0 -0.96233230911E+00 -0.14628243384E+02 -0.20811942861E+02  0.25456797793E+02  0.51100000000E-03 0.  1.
         12    1    3    3    0    0  0.10956261752E+02 -0.15636561067E+02  0.22143438260E+02  0.29238221073E+02  0.00000000000E+00 0. -1.
</event>
<event>
 7    1  0.1220856E-011  0.5930173E+02  0.7816164E-02  0.1266605E+00
        -11   -1    0    0    0    0  0.00000000000E+00  0.00000000000E+00  0.45593999997E+02  0.45594000000E+02  0.51100000000E-03 0. -1.
         11   -1    0    0    0    0 -0.00000000000E+00 -0.00000000000E+00 -0.45593999997E+02  0.45594000000E+02  0.51100000000E-03 0.  1.
    9900012    2    1    2    0    0 -0.57769154836E+01  0.92560974803E+01  0.29961407157E+02  0.59301733177E+02  0.49999615457E+02 0.  0.
        -12    1    1    2    0    0  0.57769154836E+01 -0.92560974803E+01 -0.29961407157E+02  0.31886266823E+02  0.00000000000E+00 0.  1.
         11    1    3    3    0    0  0.66282420055E+00 -0.42532314711E+01  0.16794437925E+02  0.17337314076E+02  0.51100000000E-03 0. -1.
        -11    1    3    3    0    0  0.13513069582E+02  0.14487873359E+02  0.76761909377E+01  0.21246774615E+02  0.51100000000E-03 0.  1.
        -12    1    3    3    0    0 -0.19952809266E+02 -0.97854440710E+00  0.54907782943E+01  0.20717644486E+02  0.00000000000E+00 0.  1.
</event>
<event>
 7    1  0.1220856E-011  0.5930194E+02  0.7816164E-02  0.1266605E+00
        -11   -1    0    0    0    0  0.00000000000E+00  0.00000000000E+00  0.45593999997E+02  0.45594000000E+02  0.51100000000E-03 0. -1.
         11   -1    0    0    0    0 -0.00000000000E+00 -0.00000000000E+00 -0.45593999997E+02  0.45594000000E+02  0.51100000000E-03 0.  1.
    9900012    2    1    2    0    0  0.11782433947E+02 -0.28874626149E+02 -0.66446029769E+01  0.59301944526E+02  0.50000000910E+02 0.  0.
        -12    1    1    2    0    0 -0.11782433947E+02  0.28874626149E+02  0.66446029769E+01  0.31886055474E+02  0.00000000000E+00 0.  1.
         11    1    3    3    0    0  0.17661191991E+01  0.68005879690E+01  0.49932767936E+00  0.70438982206E+01  0.51100000000E-03 0. -1.
        -11    1    3    3    0    0 -0.39061626067E+00 -0.10660582326E+02 -0.19695335698E+02  0.22398813475E+02  0.51100000000E-03 0.  1.
         12    1    3    3    0    0  0.10406931009E+02 -0.25014631792E+02  0.12551405042E+02  0.29859232831E+02  0.00000000000E+00 0. -1.
</event>
<event>
 7    1  0.1220856E-011  0.5930195E+02  0.7816164E-02  0.1266605E+00
        -11   -1    0    0    0    0  0.00000000000E+00  0.00000000000E+00  0.45593999997E+02  0.45594000000E+02  0.51100000000E-03 0. -1.
         11   -1    0    0    0    0 -0.00000000000E+00 -0.00000000000E+00 -0.45593999997E+02  0.45594000000E+02  0.51100000000E-03 0.  1.
    9900012    2    1    2    0    0  0.18129124552E+02 -0.81579077885E+01  0.24929979254E+02  0.59301945335E+02  0.50000002384E+02 0.  0.
        -12    1    1    2    0    0 -0.18129124552E+02  0.81579077885E+01 -0.24929979254E+02  0.31886054665E+02  0.00000000000E+00 0.  1.
         11    1    3    3    0    0 -0.38858888829E+01 -0.81183439953E+01  0.72261682561E+01  0.11542319939E+02  0.51100000000E-03 0. -1.
        -11    1    3    3    0    0 -0.64255992319E+01  0.74288125601E+00  0.18188161139E+02  0.19304129194E+02  0.51100000000E-03 0.  1.
        -12    1    3    3    0    0  0.28440612666E+02 -0.78244504917E+00 -0.48435014102E+00  0.28455496203E+02  0.00000000000E+00 0.  1.
</event>
<event>
 7    1  0.1220856E-011  0.5930196E+02  0.7816164E-02  0.1266605E+00
        -11   -1    0    0    0    0  0.00000000000E+00  0.00000000000E+00  0.45593999997E+02  0.45594000000E+02  0.51100000000E-03 0.  1.
         11   -1    0    0    0    0 -0.00000000000E+00 -0.00000000000E+00 -0.45593999997E+02  0.45594000000E+02  0.51100000000E-03 0. -1.
    9900012    2    1    2    0    0 -0.16428803291E+02 -0.49368036034E+00 -0.27323442649E+02  0.59301955779E+02  0.50000021431E+02 0.  0.
        -12    1    1    2    0    0  0.16428803291E+02  0.49368036034E+00  0.27323442649E+02  0.31886044221E+02  0.00000000000E+00 0.  1.
         11    1    3    3    0    0 -0.20214266412E+02 -0.12107140265E+02 -0.12741530913E+02  0.26787049524E+02  0.51100000000E-03 0. -1.
        -11    1    3    3    0    0 -0.92634681746E+01  0.12862514025E+02 -0.66207936953E+01  0.17178213501E+02  0.51100000000E-03 0.  1.
        -12    1    3    3    0    0  0.13048931296E+02 -0.12490541206E+01 -0.79611180414E+01  0.15336692754E+02  0.00000000000E+00 0.  1.
</event>
<event>
 7    1  0.1220856E-011  0.5930195E+02  0.7816164E-02  0.1266605E+00
        -11   -1    0    0    0    0  0.00000000000E+00  0.00000000000E+00  0.45593999997E+02  0.45594000000E+02  0.51100000000E-03 0.  1.
         11   -1    0    0    0    0 -0.00000000000E+00 -0.00000000000E+00 -0.45593999997E+02  0.45594000000E+02  0.51100000000E-03 0. -1.
    9900012    2    1    2    0    0  0.65423578807E+01  0.20224409804E+02 -0.23767429565E+02  0.59301954358E+02  0.50000018840E+02 0.  0.
        -12    1    1    2    0    0 -0.65423578807E+01 -0.20224409804E+02  0.23767429565E+02  0.31886045642E+02  0.00000000000E+00 0.  1.
         11    1    3    3    0    0 -0.11745863313E+01  0.93566109464E+01 -0.17589730161E+02  0.19958066761E+02  0.51100000000E-03 0. -1.
        -11    1    3    3    0    0 -0.50455404953E+01  0.20404938970E+02  0.25567937410E+01  0.21174423434E+02  0.51100000000E-03 0.  1.
         12    1    3    3    0    0  0.12762484707E+02 -0.95371401132E+01 -0.87344931457E+01  0.18169464163E+02  0.00000000000E+00 0. -1.
</event>
<event>
 7    1  0.1220856E-011  0.5930193E+02  0.7816164E-02  0.1266605E+00
        -11   -1    0    0    0    0  0.00000000000E+00  0.00000000000E+00  0.45593999997E+02  0.45594000000E+02  0.51100000000E-03 0.  1.
         11   -1    0    0    0    0 -0.00000000000E+00 -0.00000000000E+00 -0.45593999997E+02  0.45594000000E+02  0.51100000000E-03 0. -1.
    9900012    2    1    2    0    0 -0.17513732900E+02 -0.25846433392E+02  0.64770903520E+01  0.59301926887E+02  0.49999968739E+02 0.  0.
        -12    1    1    2    0    0  0.17513732900E+02  0.25846433392E+02 -0.64770903520E+01  0.31886073113E+02  0.00000000000E+00 0.  1.
         11    1    3    3    0    0 -0.59195615865E+01 -0.20233875939E+02 -0.17831644316E+02  0.27611926484E+02  0.51100000000E-03 0. -1.
        -11    1    3    3    0    0 -0.37143399989E+01  0.53168504497E+01  0.52225567415E+01  0.83270834937E+01  0.51100000000E-03 0.  1.
        -12    1    3    3    0    0 -0.78798313142E+01 -0.10929407902E+02  0.19086177927E+02  0.23362916909E+02  0.00000000000E+00 0.  1.
</event>
<event>
 7    1  0.1220856E-011  0.5930191E+02  0.7816164E-02  0.1266605E+00
        -11   -1    0    0    0    0  0.00000000000E+00  0.00000000000E+00  0.45593999997E+02  0.45594000000E+02  0.51100000000E-03 0.  1.
         11   -1    0    0    0    0 -0.00000000000E+00 -0.00000000000E+00 -0.45593999997E+02  0.45594000000E+02  0.51100000000E-03 0. -1.
    9900012    2    1    2    0    0 -0.18853563873E+02 -0.10198780283E+02 -0.23606163930E+02  0.59301906394E+02  0.49999931366E+02 0.  0.
        -12    1    1    2    0    0  0.18853563873E+02  0.10198780283E+02  0.23606163930E+02  0.31886093606E+02  0.00000000000E+00 0.  1.
         11    1    3    3    0    0 -0.93174049570E+01  0.51446399624E+01  0.42569513883E+01  0.11463114361E+02  0.51100000000E-03 0. -1.
        -11    1    3    3    0    0  0.90076113486E+01 -0.17372536434E+01  0.27236151162E+01  0.95693882768E+01  0.51100000000E-03 0.  1.
         12    1    3    3    0    0 -0.18543770265E+02 -0.13606166601E+02 -0.30586730434E+02  0.38269403756E+02  0.00000000000E+00 0. -1.
</event>
<event>
 7    1  0.1220856E-011  0.5930195E+02  0.7816164E-02  0.1266605E+00
        -11   -1    0    0    0    0  0.00000000000E+00  0.00000000000E+00  0.45593999997E+02  0.45594000000E+02  0.51100000000E-03 0.  1.
         11   -1    0    0    0    0 -0.00000000000E+00 -0.00000000000E+00 -0.45593999997E+02  0.45594000000E+02  0.51100000000E-03 0. -1.
    9900012    2    1    2    0    0 -0.15374471502E+02  0.65140957516E+01 -0.27164546149E+02  0.59301946859E+02  0.50000005164E+02 0.  0.
        -12    1    1    2    0    0  0.15374471502E+02 -0.65140957516E+01  0.27164546149E+02  0.31886053141E+02  0.00000000000E+00 0.  1.
         11    1    3    3    0    0 -0.14955841221E+01  0.45056627417E+01  0.61589661546E+01  0.77762865792E+01  0.51100000000E-03 0. -1.
        -11    1    3    3    0    0 -0.17484056319E+02 -0.10215893548E+02 -0.55952561484E+01  0.21008655311E+02  0.51100000000E-03 0.  1.
         12    1    3    3    0    0  0.36051689395E+01  0.12224326558E+02 -0.27728256155E+02  0.30517004969E+02  0.00000000000E+00 0. -1.
</event>
<event>
 7    1  0.1220856E-011  0.5930194E+02  0.7816164E-02  0.1266605E+00
        -11   -1    0    0    0    0  0.00000000000E+00  0.00000000000E+00  0.45593999997E+02  0.45594000000E+02  0.51100000000E-03 0.  1.
         11   -1    0    0    0    0 -0.00000000000E+00 -0.00000000000E+00 -0.45593999997E+02  0.45594000000E+02  0.51100000000E-03 0. -1.
    9900012    2    1    2    0    0  0.25215959284E+02  0.13842348987E+02  0.13757385289E+02  0.59301939126E+02  0.49999991060E+02 0.  0.
        -12    1    1    2    0    0 -0.25215959284E+02 -0.13842348987E+02 -0.13757385289E+02  0.31886060874E+02  0.00000000000E+00 0.  1.
         11    1    3    3    0    0  0.10720868900E+02  0.14500764448E+02  0.23334498809E+01  0.18183899146E+02  0.51100000000E-03 0. -1.
        -11    1    3    3    0    0  0.23816572529E+02  0.95625240677E+01  0.75884197105E+01  0.26762942804E+02  0.51100000000E-03 0.  1.
        -12    1    3    3    0    0 -0.93214821453E+01 -0.10220939529E+02  0.38355156979E+01  0.14355097175E+02  0.00000000000E+00 0.  1.
</event>
<event>
 7    1  0.1220856E-011  0.5930195E+02  0.7816164E-02  0.1266605E+00
        -11   -1    0    0    0    0  0.00000000000E+00  0.00000000000E+00  0.45593999997E+02  0.45594000000E+02  0.51100000000E-03 0.  1.
         11   -1    0    0    0    0 -0.00000000000E+00 -0.00000000000E+00 -0.45593999997E+02  0.45594000000E+02  0.51100000000E-03 0. -1.
    9900012    2    1    2    0    0 -0.11935608254E+02  0.28824268631E+02  0.65896150764E+01  0.59301949236E+02  0.50000009498E+02 0.  0.
        -12    1    1    2    0    0  0.11935608254E+02 -0.28824268631E+02 -0.65896150764E+01  0.31886050764E+02  0.00000000000E+00 0.  1.
         11    1    3    3    0    0 -0.10904839910E+02  0.11392297364E+02  0.47663942622E+01  0.16474783374E+02  0.51100000000E-03 0. -1.
        -11    1    3    3    0    0  0.57223876922E+01  0.36527340198E+01 -0.17138522555E+02  0.18434129824E+02  0.51100000000E-03 0.  1.
         12    1    3    3    0    0 -0.67531560366E+01  0.13779237247E+02  0.18961743369E+02  0.24393036038E+02  0.00000000000E+00 0. -1.
</event>
<event>
 7    1  0.1220856E-011  0.5930196E+02  0.7816164E-02  0.1266605E+00
        -11   -1    0    0    0    0  0.00000000000E+00  0.00000000000E+00  0.45593999997E+02  0.45594000000E+02  0.51100000000E-03 0.  1.
         11   -1    0    0    0    0 -0.00000000000E+00 -0.00000000000E+00 -0.45593999997E+02  0.45594000000E+02  0.51100000000E-03 0. -1.
    9900012    2    1    2    0    0  0.24900516819E+01 -0.14880704778E+02 -0.28090633194E+02  0.59301962220E+02  0.50000033179E+02 0.  0.
        -12    1    1    2    0    0 -0.24900516819E+01  0.14880704778E+02  0.28090633194E+02  0.31886037780E+02  0.00000000000E+00 0.  1.
         11    1    3    3    0    0 -0.49961235832E+01 -0.12447295382E+02  0.57076534755E+01  0.14576478369E+02  0.51100000000E-03 0. -1.
        -11    1    3    3    0    0  0.42895079568E+01 -0.89740528385E+01  0.20797106559E+00  0.99487062016E+01  0.51100000000E-03 0.  1.
         12    1    3    3    0    0  0.31966673083E+01  0.65406434429E+01 -0.34006257735E+02  0.34776777649E+02  0.00000000000E+00 0. -1.
</event>
<event>
 7    1  0.1220856E-011  0.5930193E+02  0.7816164E-02  0.1266605E+00
        -11   -1    0    0    0    0  0.00000000000E+00  0.00000000000E+00  0.45593999997E+02  0.45594000000E+02  0.51100000000E-03 0.  1.
         11   -1    0    0    0    0 -0.00000000000E+00 -0.00000000000E+00 -0.45593999997E+02  0.45594000000E+02  0.51100000000E-03 0. -1.
    9900012    2    1    2    0    0 -0.54624595363E+00 -0.25520121120E+02 -0.19108806509E+02  0.59301930113E+02  0.49999974622E+02 0.  0.
        -12    1    1    2    0    0  0.54624595363E+00  0.25520121120E+02  0.19108806509E+02  0.31886069887E+02  0.00000000000E+00 0.  1.
         11    1    3    3    0    0  0.18762117861E+02 -0.25512182273E+02 -0.54231421601E+01  0.32129409925E+02  0.51100000000E-03 0. -1.
        -11    1    3    3    0    0 -0.10042623996E+01  0.29435673340E+01 -0.66510362135E+01  0.73423030850E+01  0.51100000000E-03 0.  1.
        -12    1    3    3    0    0 -0.18304101415E+02 -0.29515061813E+01 -0.70346281359E+01  0.19830217103E+02  0.00000000000E+00 0.  1.
</event>
<event>
 7    1  0.1220856E-011  0.5930195E+02  0.7816164E-02  0.1266605E+00
        -11   -1    0    0    0    0  0.00000000000E+00  0.00000000000E+00  0.45593999997E+02  0.45594000000E+02  0.51100000000E-03 0. -1.
         11   -1    0    0    0    0 -0.00000000000E+00 -0.00000000000E+00 -0.45593999997E+02  0.45594000000E+02  0.51100000000E-03 0.  1.
    9900012    2    1    2    0    0  0.31723719215E+02  0.27937366651E+01  0.15878018021E+01  0.59301945996E+02  0.50000003589E+02 0.  0.
        -12    1    1    2    0    0 -0.31723719215E+02 -0.27937366651E+01 -0.15878018021E+01  0.31886054004E+02  0.00000000000E+00 0.  1.
         11    1    3    3    0    0 -0.48271904331E+01 -0.73493856568E+01 -0.22864629966E+01  0.90853260979E+01  0.51100000000E-03 0.  1.
        -11    1    3    3    0    0  0.23079774975E+02  0.76266834427E+01 -0.13722332077E+02  0.27913163761E+02  0.51100000000E-03 0. -1.
         12    1    3    3    0    0  0.13471134673E+02  0.25164388792E+01  0.17596596876E+02  0.22303456137E+02  0.00000000000E+00 0. -1.
</event>
<event>
 7    1  0.1220856E-011  0.5930197E+02  0.7816164E-02  0.1266605E+00
        -11   -1    0    0    0    0  0.00000000000E+00  0.00000000000E+00  0.45593999997E+02  0.45594000000E+02  0.51100000000E-03 0.  1.
         11   -1    0    0    0    0 -0.00000000000E+00 -0.00000000000E+00 -0.45593999997E+02  0.45594000000E+02  0.51100000000E-03 0. -1.
    9900012    2    1    2    0    0 -0.16835386160E+02  0.17809910455E+02 -0.20398426766E+02  0.59301969327E+02  0.50000046140E+02 0.  0.
        -12    1    1    2    0    0  0.16835386160E+02 -0.17809910455E+02  0.20398426766E+02  0.31886030673E+02  0.00000000000E+00 0.  1.
         11    1    3    3    0    0  0.33928224109E+01  0.12404327284E+02 -0.94246454063E+01  0.15943729820E+02  0.51100000000E-03 0. -1.
        -11    1    3    3    0    0 -0.59508523350E+01  0.17231523708E+02  0.49817669818E+01  0.18898572839E+02  0.51100000000E-03 0.  1.
        -12    1    3    3    0    0 -0.14277356236E+02 -0.11825940537E+02 -0.15955548341E+02  0.24459666668E+02  0.00000000000E+00 0.  1.
</event>
<event>
 7    1  0.1220856E-011  0.5930193E+02  0.7816164E-02  0.1266605E+00
        -11   -1    0    0    0    0  0.00000000000E+00  0.00000000000E+00  0.45593999997E+02  0.45594000000E+02  0.51100000000E-03 0. -1.
         11   -1    0    0    0    0 -0.00000000000E+00 -0.00000000000E+00 -0.45593999997E+02  0.45594000000E+02  0.51100000000E-03 0.  1.
    9900012    2    1    2    0    0 -0.48525215600E+00  0.30087058990E+02  0.10547737074E+02  0.59301931793E+02  0.49999977687E+02 0.  0.
        -12    1    1    2    0    0  0.48525215600E+00 -0.30087058990E+02 -0.10547737074E+02  0.31886068207E+02  0.00000000000E+00 0.  1.
         11    1    3    3    0    0  0.94320969977E+01  0.83368448353E+01 -0.51236230719E+01  0.13591134950E+02  0.51100000000E-03 0. -1.
        -11    1    3    3    0    0  0.10094623296E+02  0.18981958017E+02  0.26178369384E+01  0.21658005913E+02  0.51100000000E-03 0.  1.
         12    1    3    3    0    0 -0.20011972450E+02  0.27682561382E+01  0.13053523207E+02  0.24052790930E+02  0.00000000000E+00 0. -1.
</event>
<event>
 7    1  0.1220856E-011  0.5930192E+02  0.7816164E-02  0.1266605E+00
        -11   -1    0    0    0    0  0.00000000000E+00  0.00000000000E+00  0.45593999997E+02  0.45594000000E+02  0.51100000000E-03 0.  1.
         11   -1    0    0    0    0 -0.00000000000E+00 -0.00000000000E+00 -0.45593999997E+02  0.45594000000E+02  0.51100000000E-03 0. -1.
    9900012    2    1    2    0    0 -0.63930522534E+01 -0.26765933541E+02 -0.16107000650E+02  0.59301924898E+02  0.49999965112E+02 0.  0.
        -12    1    1    2    0    0  0.63930522534E+01  0.26765933541E+02  0.16107000650E+02  0.31886075102E+02  0.00000000000E+00 0.  1.
         11    1    3    3    0    0 -0.19311859128E+02 -0.25953546018E+02 -0.17072435154E+02  0.36578716437E+02  0.51100000000E-03 0. -1.
        -11    1    3    3    0    0 -0.18238407153E+01  0.61369463059E+01  0.40909542673E+00  0.64152836450E+01  0.51100000000E-03 0.  1.
        -12    1    3    3    0    0  0.14742647590E+02 -0.69493338299E+01  0.55633907655E+00  0.16307924816E+02  0.00000000000E+00 0.  1.
</event>
<event>
 7    1  0.1220856E-011  0.5930195E+02  0.7816164E-02  0.1266605E+00
        -11   -1    0    0    0    0  0.00000000000E+00  0.00000000000E+00  0.45593999997E+02  0.45594000000E+02  0.51100000000E-03 0.  1.
         11   -1    0    0    0    0 -0.00000000000E+00 -0.00000000000E+00 -0.45593999997E+02  0.45594000000E+02  0.51100000000E-03 0. -1.
    9900012    2    1    2    0    0  0.15033491449E+02  0.26251323079E+02 -0.10078803567E+02  0.59301951172E+02  0.50000013029E+02 0.  0.
        -12    1    1    2    0    0 -0.15033491449E+02 -0.26251323079E+02  0.10078803567E+02  0.31886048828E+02  0.00000000000E+00 0.  1.
         11    1    3    3    0    0 -0.20084017663E+00  0.15630005369E+02  0.49325701778E+01  0.16391084572E+02  0.51100000000E-03 0. -1.
        -11    1    3    3    0    0  0.37548126675E+01  0.24874534886E+01  0.11801089777E+02  0.12631380099E+02  0.51100000000E-03 0.  1.
         12    1    3    3    0    0  0.11479518958E+02  0.81338642210E+01 -0.26812463522E+02  0.30279486501E+02  0.00000000000E+00 0. -1.
</event>
<event>
 7    1  0.1220856E-011  0.5930193E+02  0.7816164E-02  0.1266605E+00
        -11   -1    0    0    0    0  0.00000000000E+00  0.00000000000E+00  0.45593999997E+02  0.45594000000E+02  0.51100000000E-03 0. -1.
         11   -1    0    0    0    0 -0.00000000000E+00 -0.00000000000E+00 -0.45593999997E+02  0.45594000000E+02  0.51100000000E-03 0.  1.
    9900012    2    1    2    0    0 -0.10144229607E+02 -0.11390381375E+02  0.28001341394E+02  0.59301932478E+02  0.49999978936E+02 0.  0.
        -12    1    1    2    0    0  0.10144229607E+02  0.11390381375E+02 -0.28001341394E+02  0.31886067522E+02  0.00000000000E+00 0.  1.
         11    1    3    3    0    0 -0.89486130603E+01 -0.22847217401E+02  0.32562832138E+02  0.40772675357E+02  0.51100000000E-03 0.  1.
        -11    1    3    3    0    0  0.82327086693E+00  0.25826198999E+01  0.47751212461E+01  0.54908545458E+01  0.51100000000E-03 0. -1.
        -12    1    3    3    0    0 -0.20188874132E+01  0.88742161270E+01 -0.93366119898E+01  0.13038402575E+02  0.00000000000E+00 0.  1.
</event>
<event>
 7    1  0.1220856E-011  0.5930196E+02  0.7816164E-02  0.1266605E+00
        -11   -1    0    0    0    0  0.00000000000E+00  0.00000000000E+00  0.45593999997E+02  0.45594000000E+02  0.51100000000E-03 0.  1.
         11   -1    0    0    0    0 -0.00000000000E+00 -0.00000000000E+00 -0.45593999997E+02  0.45594000000E+02  0.51100000000E-03 0. -1.
    9900012    2    1    2    0    0  0.88140902115E+01  0.27463223520E+02  0.13594225059E+02  0.59301956230E+02  0.50000022253E+02 0.  0.
        -12    1    1    2    0    0 -0.88140902115E+01 -0.27463223520E+02 -0.13594225059E+02  0.31886043770E+02  0.00000000000E+00 0.  1.
         11    1    3    3    0    0  0.79399785291E+01  0.23947338508E+01 -0.27931981442E+01  0.87509979655E+01  0.51100000000E-03 0. -1.
        -11    1    3    3    0    0  0.14697587008E+02 -0.29329457405E+01  0.11613766108E+02  0.18960506271E+02  0.51100000000E-03 0.  1.
        -12    1    3    3    0    0 -0.13823475325E+02  0.28001435410E+02  0.47736570953E+01  0.31590451993E+02  0.00000000000E+00 0.  1.
</event>
<event>
 7    1  0.1220856E-011  0.5930194E+02  0.7816164E-02  0.1266605E+00
        -11   -1    0    0    0    0  0.00000000000E+00  0.00000000000E+00  0.45593999997E+02  0.45594000000E+02  0.51100000000E-03 0.  1.
         11   -1    0    0    0    0 -0.00000000000E+00 -0.00000000000E+00 -0.45593999997E+02  0.45594000000E+02  0.51100000000E-03 0. -1.
    9900012    2    1    2    0    0  0.15927001953E+02 -0.64913875372E+01 -0.26849830966E+02  0.59301938370E+02  0.49999989681E+02 0.  0.
        -12    1    1    2    0    0 -0.15927001953E+02  0.64913875372E+01  0.26849830966E+02  0.31886061630E+02  0.00000000000E+00 0.  1.
         11    1    3    3    0    0  0.31584118420E+01  0.10989135729E+02  0.18456902839E+01  0.11582022376E+02  0.51100000000E-03 0. -1.
        -11    1    3    3    0    0  0.73977739733E+01 -0.52044465502E+00  0.54598685788E+01  0.92091306624E+01  0.51100000000E-03 0.  1.
         12    1    3    3    0    0  0.53708161375E+01 -0.16960078611E+02 -0.34155389829E+02  0.38510785331E+02  0.00000000000E+00 0. -1.
</event>
<event>
 7    1  0.1220856E-011  0.5930190E+02  0.7816164E-02  0.1266605E+00
        -11   -1    0    0    0    0  0.00000000000E+00  0.00000000000E+00  0.45593999997E+02  0.45594000000E+02  0.51100000000E-03 0.  1.
         11   -1    0    0    0    0 -0.00000000000E+00 -0.00000000000E+00 -0.45593999997E+02  0.45594000000E+02  0.51100000000E-03 0. -1.
    9900012    2    1    2    0    0  0.29084879083E+02  0.12737410470E+02 -0.29243377300E+01  0.59301896947E+02  0.49999914137E+02 0.  0.
        -12    1    1    2    0    0 -0.29084879083E+02 -0.12737410470E+02  0.29243377300E+01  0.31886103053E+02  0.00000000000E+00 0.  1.
         11    1    3    3    0    0  0.24508355508E+02 -0.37192682594E+00  0.85707657444E+01  0.25966436894E+02  0.51100000000E-03 0.  1.
        -11    1    3    3    0    0 -0.76342271989E+01 -0.49361672536E+01 -0.98440143630E+00  0.91441904250E+01  0.51100000000E-03 0. -1.
         12    1    3    3    0    0  0.12210750773E+02  0.18045504549E+02 -0.10510702038E+02  0.24191269628E+02  0.00000000000E+00 0. -1.
</event>
<event>
 7    1  0.1220856E-011  0.5930193E+02  0.7816164E-02  0.1266605E+00
        -11   -1    0    0    0    0  0.00000000000E+00  0.00000000000E+00  0.45593999997E+02  0.45594000000E+02  0.51100000000E-03 0. -1.
         11   -1    0    0    0    0 -0.00000000000E+00 -0.00000000000E+00 -0.45593999997E+02  0.45594000000E+02  0.51100000000E-03 0.  1.
    9900012    2    1    2    0    0 -0.11237393082E+02  0.17633801723E+02  0.24072629043E+02  0.59301930384E+02  0.49999975118E+02 0.  0.
        -12    1    1    2    0    0  0.11237393082E+02 -0.17633801723E+02 -0.24072629043E+02  0.31886069616E+02  0.00000000000E+00 0.  1.
         11    1    3    3    0    0 -0.35856084021E+01  0.22530996900E+01  0.62081514332E+01  0.75149311577E+01  0.51100000000E-03 0. -1.
        -11    1    3    3    0    0 -0.24118821698E+01 -0.11727233757E+02  0.20822580173E+02  0.24019263780E+02  0.51100000000E-03 0.  1.
         12    1    3    3    0    0 -0.52399025096E+01  0.27107935789E+02 -0.29581025632E+01  0.27767735447E+02  0.00000000000E+00 0. -1.
</event>
