<event>
 7    1  0.6073302E-013  0.5052886E+02  0.7816164E-02  0.1300439E+00
        -11   -1    0    0    0    0  0.00000000000E+00  0.00000000000E+00  0.45593999997E+02  0.45594000000E+02  0.51100000000E-03 0.  1.
         11   -1    0    0    0    0 -0.00000000000E+00 -0.00000000000E+00 -0.45593999997E+02  0.45594000000E+02  0.51100000000E-03 0. -1.
    9900012    2    1    2    0    0 -0.14814378125E+02  0.29303340971E+02  0.23979446152E+02  0.50528862908E+02  0.30000009294E+02 0.  0.
         12    1    1    2    0    0  0.14814378125E+02 -0.29303340971E+02 -0.23979446152E+02  0.40659137092E+02  0.00000000000E+00 0. -1.
         11    1    3    3    0    0 -0.56174019792E+01  0.66894101044E+01 -0.13584590388E+01  0.88401823376E+01  0.51100000000E-03 0. -1.
        -11    1    3    3    0    0  0.78715287447E+00  0.14430702237E+02  0.24878128661E+02  0.28771271481E+02  0.51100000000E-03 0.  1.
        -12    1    3    3    0    0 -0.99841290204E+01  0.81832286304E+01  0.45977652987E+00  0.12917409089E+02  0.00000000000E+00 0.  1.
</event>
<event>
 7    1  0.6073302E-013  0.5052886E+02  0.7816164E-02  0.1300439E+00
        -11   -1    0    0    0    0  0.00000000000E+00  0.00000000000E+00  0.45593999997E+02  0.45594000000E+02  0.51100000000E-03 0. -1.
         11   -1    0    0    0    0 -0.00000000000E+00 -0.00000000000E+00 -0.45593999997E+02  0.45594000000E+02  0.51100000000E-03 0.  1.
    9900012    2    1    2    0    0 -0.38614551769E+02 -0.55482794194E+01  0.11458566636E+02  0.50528858812E+02  0.29999996844E+02 0.  0.
         12    1    1    2    0    0  0.38614551769E+02  0.55482794194E+01 -0.11458566636E+02  0.40659141188E+02  0.00000000000E+00 0. -1.
         11    1    3    3    0    0 -0.29677038228E+02 -0.82631410439E+01  0.51235116245E+01  0.31229096521E+02  0.51100000000E-03 0. -1.
        -11    1    3    3    0    0 -0.12828164127E+02  0.46204265805E+01  0.61658399741E+01  0.14964214630E+02  0.51100000000E-03 0.  1.
         12    1    3    3    0    0  0.38906505861E+01 -0.19055649560E+01  0.16921503731E+00  0.43355476602E+01  0.00000000000E+00 0. -1.
</event>
<event>
 7    1  0.6073302E-013  0.5052885E+02  0.7816164E-02  0.1300439E+00
        -11   -1    0    0    0    0  0.00000000000E+00  0.00000000000E+00  0.45593999997E+02  0.45594000000E+02  0.51100000000E-03 0.  1.
         11   -1    0    0    0    0 -0.00000000000E+00 -0.00000000000E+00 -0.45593999997E+02  0.45594000000E+02  0.51100000000E-03 0. -1.
    9900012    2    1    2    0    0  0.37289416813E+01  0.38480188930E+02  0.12591114306E+02  0.50528854588E+02  0.29999984006E+02 0.  0.
         12    1    1    2    0    0 -0.37289416813E+01 -0.38480188930E+02 -0.12591114306E+02  0.40659145412E+02  0.00000000000E+00 0. -1.
         11    1    3    3    0    0  0.36298467307E+01 -0.19843967761E+01 -0.25815188903E+01  0.48762544946E+01  0.51100000000E-03 0. -1.
        -11    1    3    3    0    0  0.29437113988E+01  0.39119441334E+02  0.11637211579E+02  0.40919687446E+02  0.51100000000E-03 0.  1.
         12    1    3    3    0    0 -0.28446164482E+01  0.13451443726E+01  0.35354216172E+01  0.47329126479E+01  0.00000000000E+00 0. -1.
</event>
<event>
 7    1  0.6073302E-013  0.5052893E+02  0.7816164E-02  0.1300439E+00
        -11   -1    0    0    0    0  0.00000000000E+00  0.00000000000E+00  0.45593999997E+02  0.45594000000E+02  0.51100000000E-03 0. -1.
         11   -1    0    0    0    0 -0.00000000000E+00 -0.00000000000E+00 -0.45593999997E+02  0.45594000000E+02  0.51100000000E-03 0.  1.
    9900012    2    1    2    0    0 -0.35154527895E+02 -0.19543478990E+02 -0.59474252256E+01  0.50528926359E+02  0.30000202161E+02 0.  0.
         12    1    1    2    0    0  0.35154527895E+02  0.19543478990E+02  0.59474252256E+01  0.40659073641E+02  0.00000000000E+00 0. -1.
         11    1    3    3    0    0 -0.25182291709E+02 -0.70291274009E+01 -0.70003647475E+00  0.26154282614E+02  0.51100000000E-03 0. -1.
        -11    1    3    3    0    0 -0.47595742906E+00 -0.13612162010E+02 -0.57892827504E+01  0.14799773143E+02  0.51100000000E-03 0.  1.
        -12    1    3    3    0    0 -0.94962787568E+01  0.10978104213E+01  0.54189399957E+00  0.95748706025E+01  0.00000000000E+00 0.  1.
</event>
<event>
 7    1  0.6073302E-013  0.5052890E+02  0.7816164E-02  0.1300439E+00
        -11   -1    0    0    0    0  0.00000000000E+00  0.00000000000E+00  0.45593999997E+02  0.45594000000E+02  0.51100000000E-03 0. -1.
         11   -1    0    0    0    0 -0.00000000000E+00 -0.00000000000E+00 -0.45593999997E+02  0.45594000000E+02  0.51100000000E-03 0.  1.
    9900012    2    1    2    0    0 -0.21073709116E+02  0.19718895363E+02 -0.28639600943E+02  0.50528895332E+02  0.30000107851E+02 0.  0.
         12    1    1    2    0    0  0.21073709116E+02 -0.19718895363E+02  0.28639600943E+02  0.40659104668E+02  0.00000000000E+00 0. -1.
         11    1    3    3    0    0  0.25059076863E+01  0.39817705551E-01 -0.31448793278E+01  0.40213710386E+01  0.51100000000E-03 0. -1.
        -11    1    3    3    0    0 -0.26388641102E+02  0.97051877078E+01 -0.15477454274E+02  0.32095212084E+02  0.51100000000E-03 0.  1.
        -12    1    3    3    0    0  0.28090242994E+01  0.99738899492E+01 -0.10017267341E+02  0.14412312209E+02  0.00000000000E+00 0.  1.
</event>
<event>
 7    1  0.6073302E-013  0.5052886E+02  0.7816164E-02  0.1300439E+00
        -11   -1    0    0    0    0  0.00000000000E+00  0.00000000000E+00  0.45593999997E+02  0.45594000000E+02  0.51100000000E-03 0. -1.
         11   -1    0    0    0    0 -0.00000000000E+00 -0.00000000000E+00 -0.45593999997E+02  0.45594000000E+02  0.51100000000E-03 0.  1.
    9900012    2    1    2    0    0 -0.24799387965E+02  0.12170719813E+02 -0.29833361776E+02  0.50528861556E+02  0.30000005185E+02 0.  0.
         12    1    1    2    0    0  0.24799387965E+02 -0.12170719813E+02  0.29833361776E+02  0.40659138444E+02  0.00000000000E+00 0. -1.
         11    1    3    3    0    0 -0.12687607070E+02 -0.51786611362E+01 -0.50999347055E+01  0.14622012125E+02  0.51100000000E-03 0. -1.
        -11    1    3    3    0    0 -0.11948793779E+02  0.11864389817E+02 -0.25298958807E+02  0.30390372415E+02  0.51100000000E-03 0.  1.
         12    1    3    3    0    0 -0.16298711522E+00  0.54849911322E+01  0.56553173721E+00  0.55164770158E+01  0.00000000000E+00 0. -1.
</event>
<event>
 7    1  0.6073302E-013  0.5052886E+02  0.7816164E-02  0.1300439E+00
        -11   -1    0    0    0    0  0.00000000000E+00  0.00000000000E+00  0.45593999997E+02  0.45594000000E+02  0.51100000000E-03 0. -1.
         11   -1    0    0    0    0 -0.00000000000E+00 -0.00000000000E+00 -0.45593999997E+02  0.45594000000E+02  0.51100000000E-03 0.  1.
    9900012    2    1    2    0    0 -0.26623254219E+01 -0.37125482500E+02 -0.16363863275E+02  0.50528862665E+02  0.30000008557E+02 0.  0.
         12    1    1    2    0    0  0.26623254219E+01  0.37125482500E+02  0.16363863275E+02  0.40659137335E+02  0.00000000000E+00 0. -1.
         11    1    3    3    0    0 -0.10809923735E+02 -0.19887270778E+02 -0.18597965830E+02  0.29295773132E+02  0.51100000000E-03 0. -1.
        -11    1    3    3    0    0  0.36772398374E+01 -0.36458208914E+01 -0.30149948707E+01  0.59920194531E+01  0.51100000000E-03 0.  1.
         12    1    3    3    0    0  0.44703584757E+01 -0.13592390831E+02  0.52490974254E+01  0.15241070080E+02  0.00000000000E+00 0. -1.
</event>
<event>
 7    1  0.6073302E-013  0.5052886E+02  0.7816164E-02  0.1300439E+00
        -11   -1    0    0    0    0  0.00000000000E+00  0.00000000000E+00  0.45593999997E+02  0.45594000000E+02  0.51100000000E-03 0.  1.
         11   -1    0    0    0    0 -0.00000000000E+00 -0.00000000000E+00 -0.45593999997E+02  0.45594000000E+02  0.51100000000E-03 0. -1.
    9900012    2    1    2    0    0 -0.62509728488E+01  0.32177529778E+02  0.24056128059E+02  0.50528863495E+02  0.30000011079E+02 0.  0.
         12    1    1    2    0    0  0.62509728488E+01 -0.32177529778E+02 -0.24056128059E+02  0.40659136505E+02  0.00000000000E+00 0. -1.
         11    1    3    3    0    0 -0.44004007403E+01  0.61040945317E+00 -0.22739389792E+01  0.49906838327E+01  0.51100000000E-03 0. -1.
        -11    1    3    3    0    0 -0.46573945501E+01  0.25696101653E+02  0.28521966361E+02  0.38671482122E+02  0.51100000000E-03 0.  1.
         12    1    3    3    0    0  0.28068224416E+01  0.58710186719E+01 -0.21918993234E+01  0.68666975402E+01  0.00000000000E+00 0. -1.
</event>
<event>
 7    1  0.6073302E-013  0.5052884E+02  0.7816164E-02  0.1300439E+00
        -11   -1    0    0    0    0  0.00000000000E+00  0.00000000000E+00  0.45593999997E+02  0.45594000000E+02  0.51100000000E-03 0.  1.
         11   -1    0    0    0    0 -0.00000000000E+00 -0.00000000000E+00 -0.45593999997E+02  0.45594000000E+02  0.51100000000E-03 0. -1.
    9900012    2    1    2    0    0  0.16137648795E+02 -0.24453492231E+02  0.28191672495E+02  0.50528838806E+02  0.29999936035E+02 0.  0.
         12    1    1    2    0    0 -0.16137648795E+02  0.24453492231E+02 -0.28191672495E+02  0.40659161194E+02  0.00000000000E+00 0. -1.
         11    1    3    3    0    0  0.59402304153E+01 -0.14037375300E+02  0.12977350909E+02  0.20018638305E+02  0.51100000000E-03 0. -1.
        -11    1    3    3    0    0 -0.61297978566E+01 -0.89279933659E+00  0.83584633820E+01  0.10403625464E+02  0.51100000000E-03 0.  1.
        -12    1    3    3    0    0  0.16327216236E+02 -0.95233175943E+01  0.68558582044E+01  0.20106575038E+02  0.00000000000E+00 0.  1.
</event>
<event>
 7    1  0.6073302E-013  0.5052886E+02  0.7816164E-02  0.1300439E+00
        -11   -1    0    0    0    0  0.00000000000E+00  0.00000000000E+00  0.45593999997E+02  0.45594000000E+02  0.51100000000E-03 0.  1.
         11   -1    0    0    0    0 -0.00000000000E+00 -0.00000000000E+00 -0.45593999997E+02  0.45594000000E+02  0.51100000000E-03 0. -1.
    9900012    2    1    2    0    0  0.24007565379E+02 -0.66968085334E+01  0.32124064178E+02  0.50528856634E+02  0.29999990224E+02 0.  0.
         12    1    1    2    0    0 -0.24007565379E+02  0.66968085334E+01 -0.32124064178E+02  0.40659143366E+02  0.00000000000E+00 0. -1.
         11    1    3    3    0    0 -0.91264637745E+00  0.26981204889E+01 -0.12571628817E+01  0.31133962734E+01  0.51100000000E-03 0. -1.
        -11    1    3    3    0    0  0.22154369631E+02 -0.46062153315E+01  0.34978195765E+02  0.41659422616E+02  0.51100000000E-03 0.  1.
        -12    1    3    3    0    0  0.27658421255E+01 -0.47887136907E+01 -0.15969687054E+01  0.57560377449E+01  0.00000000000E+00 0.  1.
</event>
<event>
 7    1  0.6073302E-013  0.5052886E+02  0.7816164E-02  0.1300439E+00
        -11   -1    0    0    0    0  0.00000000000E+00  0.00000000000E+00  0.45593999997E+02  0.45594000000E+02  0.51100000000E-03 0.  1.
         11   -1    0    0    0    0 -0.00000000000E+00 -0.00000000000E+00 -0.45593999997E+02  0.45594000000E+02  0.51100000000E-03 0. -1.
    9900012    2    1    2    0    0  0.11518785987E+02 -0.31905451415E+02  0.22417079926E+02  0.50528859170E+02  0.29999997934E+02 0.  0.
         12    1    1    2    0    0 -0.11518785987E+02  0.31905451415E+02 -0.22417079926E+02  0.40659140830E+02  0.00000000000E+00 0. -1.
         11    1    3    3    0    0  0.26122649099E+01  0.37585377972E+01 -0.30825752819E+01  0.55184060164E+01  0.51100000000E-03 0. -1.
        -11    1    3    3    0    0  0.75067695127E+01 -0.22871564087E+02  0.14659185248E+02  0.28184246393E+02  0.51100000000E-03 0.  1.
         12    1    3    3    0    0  0.13997515640E+01 -0.12792425125E+02  0.10840469960E+02  0.16826206761E+02  0.00000000000E+00 0. -1.
</event>
<event>
 7    1  0.6073302E-013  0.5052886E+02  0.7816164E-02  0.1300439E+00
        -11   -1    0    0    0    0  0.00000000000E+00  0.00000000000E+00  0.45593999997E+02  0.45594000000E+02  0.51100000000E-03 0.  1.
         11   -1    0    0    0    0 -0.00000000000E+00 -0.00000000000E+00 -0.45593999997E+02  0.45594000000E+02  0.51100000000E-03 0. -1.
    9900012    2    1    2    0    0  0.19003051290E+02  0.34136774570E+02  0.11257469713E+02  0.50528856370E+02  0.29999989422E+02 0.  0.
         12    1    1    2    0    0 -0.19003051290E+02 -0.34136774570E+02 -0.11257469713E+02  0.40659143630E+02  0.00000000000E+00 0. -1.
         11    1    3    3    0    0 -0.39678936405E+00  0.10344949240E+02 -0.79460970654E+01  0.13050512458E+02  0.51100000000E-03 0. -1.
        -11    1    3    3    0    0  0.65069951248E+01  0.14452137385E+02  0.12580067301E+02  0.20235200867E+02  0.51100000000E-03 0.  1.
         12    1    3    3    0    0  0.12892845529E+02  0.93396879459E+01  0.66234994768E+01  0.17243143046E+02  0.00000000000E+00 0. -1.
</event>
<event>
 7    1  0.6073302E-013  0.5052885E+02  0.7816164E-02  0.1300439E+00
        -11   -1    0    0    0    0  0.00000000000E+00  0.00000000000E+00  0.45593999997E+02  0.45594000000E+02  0.51100000000E-03 0. -1.
         11   -1    0    0    0    0 -0.00000000000E+00 -0.00000000000E+00 -0.45593999997E+02  0.45594000000E+02  0.51100000000E-03 0.  1.
    9900012    2    1    2    0    0  0.31513836716E+01  0.31575150240E+02 -0.25421358718E+02  0.50528845917E+02  0.29999957649E+02 0.  0.
         12    1    1    2    0    0 -0.31513836716E+01 -0.31575150240E+02  0.25421358718E+02  0.40659154083E+02  0.00000000000E+00 0. -1.
         11    1    3    3    0    0  0.41577377249E+01 -0.14800607527E+01 -0.28336345464E+01  0.52446971146E+01  0.51100000000E-03 0. -1.
        -11    1    3    3    0    0 -0.10619770862E+01  0.31971675784E+02 -0.11272952017E+02  0.33917477725E+02  0.51100000000E-03 0.  1.
        -12    1    3    3    0    0  0.55623032940E-01  0.10835352082E+01 -0.11314772155E+02  0.11366671077E+02  0.00000000000E+00 0.  1.
</event>
<event>
 7    1  0.6073302E-013  0.5052886E+02  0.7816164E-02  0.1300439E+00
        -11   -1    0    0    0    0  0.00000000000E+00  0.00000000000E+00  0.45593999997E+02  0.45594000000E+02  0.51100000000E-03 0.  1.
         11   -1    0    0    0    0 -0.00000000000E+00 -0.00000000000E+00 -0.45593999997E+02  0.45594000000E+02  0.51100000000E-03 0. -1.
    9900012    2    1    2    0    0  0.34343455258E+02 -0.15234128735E+02  0.15543946319E+02  0.50528857553E+02  0.29999993017E+02 0.  0.
         12    1    1    2    0    0 -0.34343455258E+02  0.15234128735E+02 -0.15543946319E+02  0.40659142447E+02  0.00000000000E+00 0. -1.
         11    1    3    3    0    0 -0.46115013333E+01 -0.15277555398E+00  0.51245695823E+01  0.68956869550E+01  0.51100000000E-03 0. -1.
        -11    1    3    3    0    0  0.20176324267E+02 -0.68804818538E+01  0.88519063376E+01  0.23082056614E+02  0.51100000000E-03 0.  1.
         12    1    3    3    0    0  0.18778632324E+02 -0.82008713276E+01  0.15674703989E+01  0.20551113983E+02  0.00000000000E+00 0. -1.
</event>
<event>
 7    1  0.6073302E-013  0.5052886E+02  0.7816164E-02  0.1300439E+00
        -11   -1    0    0    0    0  0.00000000000E+00  0.00000000000E+00  0.45593999997E+02  0.45594000000E+02  0.51100000000E-03 0.  1.
         11   -1    0    0    0    0 -0.00000000000E+00 -0.00000000000E+00 -0.45593999997E+02  0.45594000000E+02  0.51100000000E-03 0. -1.
    9900012    2    1    2    0    0  0.10829806489E+02  0.22395445524E+02  0.32160920804E+02  0.50528861842E+02  0.30000006055E+02 0.  0.
         12    1    1    2    0    0 -0.10829806489E+02 -0.22395445524E+02 -0.32160920804E+02  0.40659138158E+02  0.00000000000E+00 0. -1.
         11    1    3    3    0    0  0.17520818441E+02  0.15860091119E+02  0.13785622987E+02  0.27359915398E+02  0.51100000000E-03 0. -1.
        -11    1    3    3    0    0 -0.10342235297E+01  0.67083332656E+01  0.15276819329E+02  0.16716834706E+02  0.51100000000E-03 0.  1.
         12    1    3    3    0    0 -0.56567884226E+01 -0.17297886097E+00  0.30984784876E+01  0.64521117383E+01  0.00000000000E+00 0. -1.
</event>
<event>
 7    1  0.6686973E-013  0.5052885E+02  0.7816164E-02  0.1300439E+00
        -11   -1    0    0    0    0  0.00000000000E+00  0.00000000000E+00  0.45593999997E+02  0.45594000000E+02  0.51100000000E-03 0.  1.
         11   -1    0    0    0    0 -0.00000000000E+00 -0.00000000000E+00 -0.45593999997E+02  0.45594000000E+02  0.51100000000E-03 0. -1.
    9900012    2    1    2    0    0  0.28341699105E+02  0.19969309012E+02  0.21240077418E+02  0.50528854666E+02  0.29999984243E+02 0.  0.
         12    1    1    2    0    0 -0.28341699105E+02 -0.19969309012E+02 -0.21240077418E+02  0.40659145334E+02  0.00000000000E+00 0. -1.
         11    1    3    3    0    0 -0.31668122916E+01  0.53761016765E+01 -0.25970682882E+01  0.67583972420E+01  0.51100000000E-03 0. -1.
        -11    1    3    3    0    0  0.14560160124E+02  0.49863586468E+01  0.17452673386E+02  0.23269246743E+02  0.51100000000E-03 0.  1.
        -12    1    3    3    0    0  0.16948351272E+02  0.96068486886E+01  0.63844723196E+01  0.20501210681E+02  0.00000000000E+00 0.  1.
</event>
<event>
 7    1  0.6073302E-013  0.5052886E+02  0.7816164E-02  0.1300439E+00
        -11   -1    0    0    0    0  0.00000000000E+00  0.00000000000E+00  0.45593999997E+02  0.45594000000E+02  0.51100000000E-03 0.  1.
         11   -1    0    0    0    0 -0.00000000000E+00 -0.00000000000E+00 -0.45593999997E+02  0.45594000000E+02  0.51100000000E-03 0. -1.
    9900012    2    1    2    0    0 -0.37053200496E+02 -0.10804302977E+01  0.16705053963E+02  0.50528858045E+02  0.29999994513E+02 0.  0.
         12    1    1    2    0    0  0.37053200496E+02  0.10804302977E+01 -0.16705053963E+02  0.40659141955E+02  0.00000000000E+00 0. -1.
         11    1    3    3    0    0  0.31177125741E+01  0.42062259779E+01  0.20380501895E+01  0.56183732083E+01  0.51100000000E-03 0. -1.
        -11    1    3    3    0    0 -0.28748352510E+02 -0.74694820053E+01  0.57458587318E+01  0.30253525849E+02  0.51100000000E-03 0.  1.
         12    1    3    3    0    0 -0.11422560560E+02  0.21828257297E+01  0.89211450416E+01  0.14656958988E+02  0.00000000000E+00 0. -1.
</event>
<event>
 7    1  0.6073302E-013  0.5052886E+02  0.7816164E-02  0.1300439E+00
        -11   -1    0    0    0    0  0.00000000000E+00  0.00000000000E+00  0.45593999997E+02  0.45594000000E+02  0.51100000000E-03 0.  1.
         11   -1    0    0    0    0 -0.00000000000E+00 -0.00000000000E+00 -0.45593999997E+02  0.45594000000E+02  0.51100000000E-03 0. -1.
    9900012    2    1    2    0    0  0.31628496911E+02 -0.16572592559E+02  0.19446147765E+02  0.50528864447E+02  0.30000013974E+02 0.  0.
         12    1    1    2    0    0 -0.31628496911E+02  0.16572592559E+02 -0.19446147765E+02  0.40659135553E+02  0.00000000000E+00 0. -1.
         11    1    3    3    0    0 -0.25071627696E+01 -0.27321228263E+01  0.10557040539E+02  0.11189346071E+02  0.51100000000E-03 0. -1.
        -11    1    3    3    0    0  0.24118258348E+02 -0.13571835035E+02  0.96023208086E+01  0.29293167414E+02  0.51100000000E-03 0.  1.
         12    1    3    3    0    0  0.10017401332E+02 -0.26863469783E+00 -0.71321358194E+00  0.10046350963E+02  0.00000000000E+00 0. -1.
</event>
<event>
 7    1  0.6073302E-013  0.5052884E+02  0.7816164E-02  0.1300439E+00
        -11   -1    0    0    0    0  0.00000000000E+00  0.00000000000E+00  0.45593999997E+02  0.45594000000E+02  0.51100000000E-03 0.  1.
         11   -1    0    0    0    0 -0.00000000000E+00 -0.00000000000E+00 -0.45593999997E+02  0.45594000000E+02  0.51100000000E-03 0. -1.
    9900012    2    1    2    0    0  0.36924063938E+02 -0.18141646686E+01  0.16926008510E+02  0.50528837992E+02  0.29999933561E+02 0.  0.
         12    1    1    2    0    0 -0.36924063938E+02  0.18141646686E+01 -0.16926008510E+02  0.40659162008E+02  0.00000000000E+00 0. -1.
         11    1    3    3    0    0  0.47193102970E+01 -0.11929673353E+02  0.61871383166E+01  0.14243232666E+02  0.51100000000E-03 0. -1.
        -11    1    3    3    0    0  0.50435036086E+01  0.66272732992E+00  0.46436470720E+01  0.68876407103E+01  0.51100000000E-03 0.  1.
         12    1    3    3    0    0  0.27161250032E+02  0.94527813541E+01  0.60952231211E+01  0.29397964615E+02  0.00000000000E+00 0. -1.
</event>
<event>
 7    1  0.6073302E-013  0.5052889E+02  0.7816164E-02  0.1300439E+00
        -11   -1    0    0    0    0  0.00000000000E+00  0.00000000000E+00  0.45593999997E+02  0.45594000000E+02  0.51100000000E-03 0.  1.
         11   -1    0    0    0    0 -0.00000000000E+00 -0.00000000000E+00 -0.45593999997E+02  0.45594000000E+02  0.51100000000E-03 0. -1.
    9900012    2    1    2    0    0  0.29744209224E+02 -0.25796824399E+02 -0.10147373072E+02  0.50528888946E+02  0.30000088441E+02 0.  0.
         12    1    1    2    0    0 -0.29744209224E+02  0.25796824399E+02  0.10147373072E+02  0.40659111054E+02  0.00000000000E+00 0. -1.
         11    1    3    3    0    0  0.35692939688E+01 -0.19068932768E+02 -0.64830999397E+01  0.20454697296E+02  0.51100000000E-03 0. -1.
        -11    1    3    3    0    0  0.16880296738E+02 -0.99343119450E+01 -0.48295431304E+01  0.20173236203E+02  0.51100000000E-03 0.  1.
         12    1    3    3    0    0  0.92946185168E+01  0.32064203147E+01  0.11652699986E+01  0.99009554477E+01  0.00000000000E+00 0. -1.
</event>
<event>
 7    1  0.6073302E-013  0.5052886E+02  0.7816164E-02  0.1300439E+00
        -11   -1    0    0    0    0  0.00000000000E+00  0.00000000000E+00  0.45593999997E+02  0.45594000000E+02  0.51100000000E-03 0. -1.
         11   -1    0    0    0    0 -0.00000000000E+00 -0.00000000000E+00 -0.45593999997E+02  0.45594000000E+02  0.51100000000E-03 0.  1.
    9900012    2    1    2    0    0  0.31257316886E+02 -0.22546697257E+02 -0.12953457726E+02  0.50528862242E+02  0.30000007271E+02 0.  0.
         12    1    1    2    0    0 -0.31257316886E+02  0.22546697257E+02  0.12953457726E+02  0.40659137758E+02  0.00000000000E+00 0. -1.
         11    1    3    3    0    0  0.12592442024E+02 -0.14169715467E+02  0.89368138555E+00  0.18977594664E+02  0.51100000000E-03 0. -1.
        -11    1    3    3    0    0  0.14913882635E+02 -0.24043651416E+01 -0.17895548239E+02  0.23419127098E+02  0.51100000000E-03 0.  1.
         12    1    3    3    0    0  0.37509922272E+01 -0.59726166488E+01  0.40484091281E+01  0.81321404802E+01  0.00000000000E+00 0. -1.
</event>
<event>
 7    1  0.6073302E-013  0.5052892E+02  0.7816164E-02  0.1300439E+00
        -11   -1    0    0    0    0  0.00000000000E+00  0.00000000000E+00  0.45593999997E+02  0.45594000000E+02  0.51100000000E-03 0.  1.
         11   -1    0    0    0    0 -0.00000000000E+00 -0.00000000000E+00 -0.45593999997E+02  0.45594000000E+02  0.51100000000E-03 0. -1.
    9900012    2    1    2    0    0 -0.34211700366E+02 -0.19084078364E+02  0.10886609668E+02  0.50528920337E+02  0.30000183857E+02 0.  0.
         12    1    1    2    0    0  0.34211700366E+02  0.19084078364E+02 -0.10886609668E+02  0.40659079663E+02  0.00000000000E+00 0. -1.
         11    1    3    3    0    0  0.69065663991E+00  0.35325154630E+01 -0.29842406105E+01  0.46756137963E+01  0.51100000000E-03 0. -1.
        -11    1    3    3    0    0 -0.12429154920E+02 -0.75986850536E+01  0.11795360678E+02  0.18744450922E+02  0.51100000000E-03 0.  1.
         12    1    3    3    0    0 -0.22473202086E+02 -0.15017908773E+02  0.20754896001E+01  0.27108855619E+02  0.00000000000E+00 0. -1.
</event>
<event>
 7    1  0.6073302E-013  0.5052885E+02  0.7816164E-02  0.1300439E+00
        -11   -1    0    0    0    0  0.00000000000E+00  0.00000000000E+00  0.45593999997E+02  0.45594000000E+02  0.51100000000E-03 0. -1.
         11   -1    0    0    0    0 -0.00000000000E+00 -0.00000000000E+00 -0.45593999997E+02  0.45594000000E+02  0.51100000000E-03 0.  1.
    9900012    2    1    2    0    0  0.20163518674E+02  0.32606158234E+02 -0.13543908211E+02  0.50528849865E+02  0.29999969649E+02 0.  0.
         12    1    1    2    0    0 -0.20163518674E+02 -0.32606158234E+02  0.13543908211E+02  0.40659150135E+02  0.00000000000E+00 0. -1.
         11    1    3    3    0    0  0.18237029369E+02  0.20486489641E+02  0.25633542986E+00  0.27429021239E+02  0.51100000000E-03 0. -1.
        -11    1    3    3    0    0 -0.31338473107E+01  0.11841298522E+02 -0.56195797628E+01  0.13476536151E+02  0.51100000000E-03 0.  1.
        -12    1    3    3    0    0  0.50603366154E+01  0.27837006994E+00 -0.81806638782E+01  0.96232924742E+01  0.00000000000E+00 0.  1.
</event>
<event>
 7    1  0.6073302E-013  0.5052886E+02  0.7816164E-02  0.1300439E+00
        -11   -1    0    0    0    0  0.00000000000E+00  0.00000000000E+00  0.45593999997E+02  0.45594000000E+02  0.51100000000E-03 0.  1.
         11   -1    0    0    0    0 -0.00000000000E+00 -0.00000000000E+00 -0.45593999997E+02  0.45594000000E+02  0.51100000000E-03 0. -1.
    9900012    2    1    2    0    0 -0.78475461496E+01  0.21356161537E+02  0.33697122959E+02  0.50528859431E+02  0.29999998725E+02 0.  0.
         12    1    1    2    0    0  0.78475461496E+01 -0.21356161537E+02 -0.33697122959E+02  0.40659140569E+02  0.00000000000E+00 0. -1.
         11    1    3    3    0    0  0.37480511346E+01  0.39129294246E+01 -0.28358943753E+01  0.61156521449E+01  0.51100000000E-03 0. -1.
        -11    1    3    3    0    0 -0.44504118640E+01 -0.97398998228E-01  0.15420250489E+02  0.16049915194E+02  0.51100000000E-03 0.  1.
        -12    1    3    3    0    0 -0.71451854202E+01  0.17540631110E+02  0.21112766845E+02  0.28363292092E+02  0.00000000000E+00 0.  1.
</event>
<event>
 7    1  0.6073302E-013  0.5052886E+02  0.7816164E-02  0.1300439E+00
        -11   -1    0    0    0    0  0.00000000000E+00  0.00000000000E+00  0.45593999997E+02  0.45594000000E+02  0.51100000000E-03 0.  1.
         11   -1    0    0    0    0 -0.00000000000E+00 -0.00000000000E+00 -0.45593999997E+02  0.45594000000E+02  0.51100000000E-03 0. -1.
    9900012    2    1    2    0    0 -0.85072598440E+01 -0.10643518583E+02  0.38308061613E+02  0.50528861514E+02  0.30000005059E+02 0.  0.
         12    1    1    2    0    0  0.85072598440E+01  0.10643518583E+02 -0.38308061613E+02  0.40659138486E+02  0.00000000000E+00 0. -1.
         11    1    3    3    0    0 -0.23526305577E+01  0.36789016761E+01  0.13234744139E+01  0.45629785085E+01  0.51100000000E-03 0. -1.
        -11    1    3    3    0    0 -0.45841977257E+01 -0.75529215649E+01  0.37936463408E+02  0.38951723314E+02  0.51100000000E-03 0.  1.
        -12    1    3    3    0    0 -0.15704315605E+01 -0.67694986945E+01 -0.95187620957E+00  0.70141596916E+01  0.00000000000E+00 0.  1.
</event>
<event>
 7    1  0.6073302E-013  0.5052886E+02  0.7816164E-02  0.1300439E+00
        -11   -1    0    0    0    0  0.00000000000E+00  0.00000000000E+00  0.45593999997E+02  0.45594000000E+02  0.51100000000E-03 0.  1.
         11   -1    0    0    0    0 -0.00000000000E+00 -0.00000000000E+00 -0.45593999997E+02  0.45594000000E+02  0.51100000000E-03 0. -1.
    9900012    2    1    2    0    0 -0.85806116682E+01  0.27040929358E+02  0.29126052722E+02  0.50528859523E+02  0.29999999007E+02 0.  0.
         12    1    1    2    0    0  0.85806116682E+01 -0.27040929358E+02 -0.29126052722E+02  0.40659140477E+02  0.00000000000E+00 0. -1.
         11    1    3    3    0    0 -0.10803495347E+02 -0.20225323459E+01  0.75516813472E+01  0.13335443008E+02  0.51100000000E-03 0. -1.
        -11    1    3    3    0    0  0.17252085629E+01  0.29317516566E+02  0.20023122560E+02  0.35544599582E+02  0.51100000000E-03 0.  1.
         12    1    3    3    0    0  0.49767511549E+00 -0.25405486149E+00  0.15512488144E+01  0.16488169327E+01  0.00000000000E+00 0. -1.
</event>
<event>
 7    1  0.6073302E-013  0.5052888E+02  0.7816164E-02  0.1300439E+00
        -11   -1    0    0    0    0  0.00000000000E+00  0.00000000000E+00  0.45593999997E+02  0.45594000000E+02  0.51100000000E-03 0. -1.
         11   -1    0    0    0    0 -0.00000000000E+00 -0.00000000000E+00 -0.45593999997E+02  0.45594000000E+02  0.51100000000E-03 0.  1.
    9900012    2    1    2    0    0 -0.36103872407E+02  0.61874125853E+01 -0.17646266664E+02  0.50528875508E+02  0.30000047594E+02 0.  0.
         12    1    1    2    0    0  0.36103872407E+02 -0.61874125853E+01  0.17646266664E+02  0.40659124492E+02  0.00000000000E+00 0. -1.
         11    1    3    3    0    0 -0.19744029109E+02 -0.33993510360E+01 -0.17686125013E+02  0.26724170542E+02  0.51100000000E-03 0.  1.
        -11    1    3    3    0    0 -0.19940943836E+01  0.63811477152E+01 -0.48889391443E+01  0.82823417456E+01  0.51100000000E-03 0. -1.
         12    1    3    3    0    0 -0.14365748915E+02  0.32056159061E+01  0.49287974936E+01  0.15522363221E+02  0.00000000000E+00 0. -1.
</event>
<event>
 7    1  0.6073302E-013  0.5052884E+02  0.7816164E-02  0.1300439E+00
        -11   -1    0    0    0    0  0.00000000000E+00  0.00000000000E+00  0.45593999997E+02  0.45594000000E+02  0.51100000000E-03 0. -1.
         11   -1    0    0    0    0 -0.00000000000E+00 -0.00000000000E+00 -0.45593999997E+02  0.45594000000E+02  0.51100000000E-03 0.  1.
    9900012    2    1    2    0    0 -0.40132305040E+02 -0.43288055965E+01  0.48812370710E+01  0.50528844314E+02  0.29999952777E+02 0.  0.
         12    1    1    2    0    0  0.40132305040E+02  0.43288055965E+01 -0.48812370710E+01  0.40659155686E+02  0.00000000000E+00 0. -1.
         11    1    3    3    0    0 -0.34297871982E+00 -0.19389056195E+01  0.12543593161E+01  0.23346106653E+01  0.51100000000E-03 0. -1.
        -11    1    3    3    0    0 -0.38084401419E+02  0.59253533296E+01  0.67893614558E+01  0.39136004813E+02  0.51100000000E-03 0.  1.
        -12    1    3    3    0    0 -0.17049249017E+01 -0.83152533066E+01 -0.31624837009E+01  0.90582288352E+01  0.00000000000E+00 0.  1.
</event>
<event>
 7    1  0.6073302E-013  0.5052886E+02  0.7816164E-02  0.1300439E+00
        -11   -1    0    0    0    0  0.00000000000E+00  0.00000000000E+00  0.45593999997E+02  0.45594000000E+02  0.51100000000E-03 0. -1.
         11   -1    0    0    0    0 -0.00000000000E+00 -0.00000000000E+00 -0.45593999997E+02  0.45594000000E+02  0.51100000000E-03 0.  1.
    9900012    2    1    2    0    0 -0.36809385637E+02  0.15365065609E+02 -0.78834771855E+01  0.50528864192E+02  0.30000013198E+02 0.  0.
         12    1    1    2    0    0  0.36809385637E+02 -0.15365065609E+02  0.78834771855E+01  0.40659135808E+02  0.00000000000E+00 0. -1.
         11    1    3    3    0    0  0.16561399107E+01  0.48618292647E+01 -0.60366920907E+01  0.79260226382E+01  0.51100000000E-03 0. -1.
        -11    1    3    3    0    0 -0.32862417618E+02  0.14253542172E+02 -0.15448414805E+01  0.35853709594E+02  0.51100000000E-03 0.  1.
         12    1    3    3    0    0 -0.56031079292E+01 -0.37503058278E+01 -0.30194361433E+00  0.67491319601E+01  0.00000000000E+00 0. -1.
</event>
<event>
 7    1  0.6073302E-013  0.5052887E+02  0.7816164E-02  0.1300439E+00
        -11   -1    0    0    0    0  0.00000000000E+00  0.00000000000E+00  0.45593999997E+02  0.45594000000E+02  0.51100000000E-03 0.  1.
         11   -1    0    0    0    0 -0.00000000000E+00 -0.00000000000E+00 -0.45593999997E+02  0.45594000000E+02  0.51100000000E-03 0. -1.
    9900012    2    1    2    0    0 -0.27878321742E+02 -0.10590428276E+01  0.29577737124E+02  0.50528869067E+02  0.30000028016E+02 0.  0.
         12    1    1    2    0    0  0.27878321742E+02  0.10590428276E+01 -0.29577737124E+02  0.40659130933E+02  0.00000000000E+00 0. -1.
         11    1    3    3    0    0 -0.17943464915E+02  0.12086210807E+02  0.23228003687E+02  0.31742472814E+02  0.51100000000E-03 0. -1.
        -11    1    3    3    0    0 -0.73965229130E+01 -0.10219209429E+02  0.75859468289E+01  0.14720305095E+02  0.51100000000E-03 0.  1.
         12    1    3    3    0    0 -0.25383339133E+01 -0.29260442059E+01 -0.12362133913E+01  0.40660911572E+01  0.00000000000E+00 0. -1.
</event>
<event>
 7    1  0.6073302E-013  0.5052887E+02  0.7816164E-02  0.1300439E+00
        -11   -1    0    0    0    0  0.00000000000E+00  0.00000000000E+00  0.45593999997E+02  0.45594000000E+02  0.51100000000E-03 0.  1.
         11   -1    0    0    0    0 -0.00000000000E+00 -0.00000000000E+00 -0.45593999997E+02  0.45594000000E+02  0.51100000000E-03 0. -1.
    9900012    2    1    2    0    0  0.36662119793E+02  0.80228617474E+01 -0.15642484120E+02  0.50528872516E+02  0.30000038500E+02 0.  0.
         12    1    1    2    0    0 -0.36662119793E+02 -0.80228617474E+01  0.15642484120E+02  0.40659127484E+02  0.00000000000E+00 0. -1.
         11    1    3    3    0    0 -0.68916519169E+00  0.74437718996E+01 -0.43843675548E+01  0.86664507079E+01  0.51100000000E-03 0. -1.
        -11    1    3    3    0    0  0.15899060455E+02 -0.72591439751E+01 -0.51329433852E+01  0.18215993046E+02  0.51100000000E-03 0.  1.
         12    1    3    3    0    0  0.21452224530E+02  0.78382338228E+01 -0.61251731800E+01  0.23646428762E+02  0.00000000000E+00 0. -1.
</event>
<event>
 7    1  0.6073302E-013  0.5052889E+02  0.7816164E-02  0.1300439E+00
        -11   -1    0    0    0    0  0.00000000000E+00  0.00000000000E+00  0.45593999997E+02  0.45594000000E+02  0.51100000000E-03 0. -1.
         11   -1    0    0    0    0 -0.00000000000E+00 -0.00000000000E+00 -0.45593999997E+02  0.45594000000E+02  0.51100000000E-03 0.  1.
    9900012    2    1    2    0    0 -0.17346096922E+02 -0.36025276588E+02 -0.73794238109E+01  0.50528886293E+02  0.30000080376E+02 0.  0.
         12    1    1    2    0    0  0.17346096922E+02  0.36025276588E+02  0.73794238109E+01  0.40659113707E+02  0.00000000000E+00 0. -1.
         11    1    3    3    0    0 -0.21826569696E+00 -0.42095483530E+00 -0.20323034446E+01  0.20868877401E+01  0.51100000000E-03 0. -1.
        -11    1    3    3    0    0 -0.54731081903E+01 -0.17331621560E+01  0.83153689406E+01  0.10104658589E+02  0.51100000000E-03 0.  1.
        -12    1    3    3    0    0 -0.11654723035E+02 -0.33871159596E+02 -0.13662489307E+02  0.38337339964E+02  0.00000000000E+00 0.  1.
</event>
<event>
 7    1  0.6073302E-013  0.5052886E+02  0.7816164E-02  0.1300439E+00
        -11   -1    0    0    0    0  0.00000000000E+00  0.00000000000E+00  0.45593999997E+02  0.45594000000E+02  0.51100000000E-03 0.  1.
         11   -1    0    0    0    0 -0.00000000000E+00 -0.00000000000E+00 -0.45593999997E+02  0.45594000000E+02  0.51100000000E-03 0. -1.
    9900012    2    1    2    0    0  0.22272679836E+02  0.33784552508E+02 -0.39619847883E+01  0.50528861067E+02  0.30000003701E+02 0.  0.
         12    1    1    2    0    0 -0.22272679836E+02 -0.33784552508E+02  0.39619847883E+01  0.40659138933E+02  0.00000000000E+00 0. -1.
         11    1    3    3    0    0  0.19228198634E+02  0.76213021453E+01  0.18292830339E-01  0.20683524941E+02  0.51100000000E-03 0. -1.
        -11    1    3    3    0    0 -0.49649849767E+01  0.14265492398E+02 -0.63668368948E+00  0.15118224617E+02  0.51100000000E-03 0.  1.
        -12    1    3    3    0    0  0.80094661792E+01  0.11897757965E+02 -0.33435939292E+01  0.14727111510E+02  0.00000000000E+00 0.  1.
</event>
<event>
 7    1  0.6073302E-013  0.5052887E+02  0.7816164E-02  0.1300439E+00
        -11   -1    0    0    0    0  0.00000000000E+00  0.00000000000E+00  0.45593999997E+02  0.45594000000E+02  0.51100000000E-03 0. -1.
         11   -1    0    0    0    0 -0.00000000000E+00 -0.00000000000E+00 -0.45593999997E+02  0.45594000000E+02  0.51100000000E-03 0.  1.
    9900012    2    1    2    0    0 -0.25718725691E+02 -0.23973187116E+02 -0.20420534075E+02  0.50528871091E+02  0.30000034170E+02 0.  0.
         12    1    1    2    0    0  0.25718725691E+02  0.23973187116E+02  0.20420534075E+02  0.40659128909E+02  0.00000000000E+00 0. -1.
         11    1    3    3    0    0 -0.24405084467E+02 -0.22680254212E+02 -0.17664157322E+02  0.37709740560E+02  0.51100000000E-03 0. -1.
        -11    1    3    3    0    0  0.47872276280E+00  0.22889404976E+01 -0.67617718006E+01  0.71547174807E+01  0.51100000000E-03 0.  1.
         12    1    3    3    0    0 -0.17923639875E+01 -0.35818734016E+01  0.40053950470E+01  0.56644130509E+01  0.00000000000E+00 0. -1.
</event>
<event>
 7    1  0.6073302E-013  0.5052886E+02  0.7816164E-02  0.1300439E+00
        -11   -1    0    0    0    0  0.00000000000E+00  0.00000000000E+00  0.45593999997E+02  0.45594000000E+02  0.51100000000E-03 0.  1.
         11   -1    0    0    0    0 -0.00000000000E+00 -0.00000000000E+00 -0.45593999997E+02  0.45594000000E+02  0.51100000000E-03 0. -1.
    9900012    2    1    2    0    0 -0.11104430794E+02 -0.29189836846E+02  0.26034799675E+02  0.50528858931E+02  0.29999997206E+02 0.  0.
         12    1    1    2    0    0  0.11104430794E+02  0.29189836846E+02 -0.26034799675E+02  0.40659141069E+02  0.00000000000E+00 0. -1.
         11    1    3    3    0    0  0.47612702060E+00  0.10733729236E+01  0.52647523354E+01  0.53941119554E+01  0.51100000000E-03 0. -1.
        -11    1    3    3    0    0 -0.34839450147E+01 -0.20567100060E+02  0.41150237920E-01  0.20860133541E+02  0.51100000000E-03 0.  1.
        -12    1    3    3    0    0 -0.80966128000E+01 -0.96961097097E+01  0.20728897102E+02  0.24274613435E+02  0.00000000000E+00 0.  1.
</event>
<event>
 7    1  0.6073302E-013  0.5052887E+02  0.7816164E-02  0.1300439E+00
        -11   -1    0    0    0    0  0.00000000000E+00  0.00000000000E+00  0.45593999997E+02  0.45594000000E+02  0.51100000000E-03 0. -1.
         11   -1    0    0    0    0 -0.00000000000E+00 -0.00000000000E+00 -0.45593999997E+02  0.45594000000E+02  0.51100000000E-03 0.  1.
    9900012    2    1    2    0    0 -0.10012223666E+02  0.19527723206E+02 -0.34228467687E+02  0.50528873146E+02  0.30000040413E+02 0.  0.
         12    1    1    2    0    0  0.10012223666E+02 -0.19527723206E+02  0.34228467687E+02  0.40659126854E+02  0.00000000000E+00 0. -1.
         11    1    3    3    0    0  0.63707871001E+00 -0.23971985700E+01  0.33419190248E+01  0.41618329251E+01  0.51100000000E-03 0. -1.
        -11    1    3    3    0    0 -0.10929818820E+02  0.21385302921E+02 -0.28472423150E+02  0.37248771802E+02  0.51100000000E-03 0.  1.
         12    1    3    3    0    0  0.28051644355E+00  0.53961885576E+00 -0.90979635620E+01  0.91182684190E+01  0.00000000000E+00 0. -1.
</event>
<event>
 7    1  0.6073302E-013  0.5052891E+02  0.7816164E-02  0.1300439E+00
        -11   -1    0    0    0    0  0.00000000000E+00  0.00000000000E+00  0.45593999997E+02  0.45594000000E+02  0.51100000000E-03 0.  1.
         11   -1    0    0    0    0 -0.00000000000E+00 -0.00000000000E+00 -0.45593999997E+02  0.45594000000E+02  0.51100000000E-03 0. -1.
    9900012    2    1    2    0    0  0.21007530969E+02 -0.15466607415E+02  0.31187008966E+02  0.50528907160E+02  0.30000143802E+02 0.  0.
         12    1    1    2    0    0 -0.21007530969E+02  0.15466607415E+02 -0.31187008966E+02  0.40659092840E+02  0.00000000000E+00 0. -1.
         11    1    3    3    0    0  0.32224215627E+01 -0.11980802112E+02  0.58499303728E+01  0.13716606928E+02  0.51100000000E-03 0. -1.
        -11    1    3    3    0    0  0.11711584758E+01  0.37629001764E+01  0.15890746768E+02  0.16372136788E+02  0.51100000000E-03 0.  1.
        -12    1    3    3    0    0  0.16613950931E+02 -0.72487054797E+01  0.94463318250E+01  0.20440163444E+02  0.00000000000E+00 0.  1.
</event>
<event>
 7    1  0.6073302E-013  0.5052883E+02  0.7816164E-02  0.1300439E+00
        -11   -1    0    0    0    0  0.00000000000E+00  0.00000000000E+00  0.45593999997E+02  0.45594000000E+02  0.51100000000E-03 0.  1.
         11   -1    0    0    0    0 -0.00000000000E+00 -0.00000000000E+00 -0.45593999997E+02  0.45594000000E+02  0.51100000000E-03 0. -1.
    9900012    2    1    2    0    0 -0.61764029116E+01 -0.25967886122E+01  0.40103323401E+02  0.50528833606E+02  0.29999920229E+02 0.  0.
         12    1    1    2    0    0  0.61764029116E+01  0.25967886122E+01 -0.40103323401E+02  0.40659166394E+02  0.00000000000E+00 0. -1.
         11    1    3    3    0    0  0.10367010576E+02 -0.69197981273E+01  0.17551201745E+02  0.21526801838E+02  0.51100000000E-03 0. -1.
        -11    1    3    3    0    0 -0.11283768596E+02  0.46314203465E+01  0.19234424580E+02  0.22775789280E+02  0.51100000000E-03 0.  1.
         12    1    3    3    0    0 -0.52596448918E+01 -0.30841083140E+00  0.33176970759E+01  0.62262424877E+01  0.00000000000E+00 0. -1.
</event>
<event>
 7    1  0.6073302E-013  0.5052886E+02  0.7816164E-02  0.1300439E+00
        -11   -1    0    0    0    0  0.00000000000E+00  0.00000000000E+00  0.45593999997E+02  0.45594000000E+02  0.51100000000E-03 0.  1.
         11   -1    0    0    0    0 -0.00000000000E+00 -0.00000000000E+00 -0.45593999997E+02  0.45594000000E+02  0.51100000000E-03 0. -1.
    9900012    2    1    2    0    0  0.54886856005E+01 -0.14557765670E+02  0.37564764071E+02  0.50528859446E+02  0.29999998772E+02 0.  0.
         12    1    1    2    0    0 -0.54886856005E+01  0.14557765670E+02 -0.37564764071E+02  0.40659140554E+02  0.00000000000E+00 0. -1.
         11    1    3    3    0    0  0.23222404386E+01  0.14822853748E+01 -0.14857476290E+01  0.31300825653E+01  0.51100000000E-03 0. -1.
        -11    1    3    3    0    0 -0.21910419987E+01 -0.14632284546E+02  0.39156377996E+02  0.41858408403E+02  0.51100000000E-03 0.  1.
        -12    1    3    3    0    0  0.53574871605E+01 -0.14077664983E+01 -0.10586629587E+00  0.55403684771E+01  0.00000000000E+00 0.  1.
</event>
<event>
 7    1  0.6073302E-013  0.5052887E+02  0.7816164E-02  0.1300439E+00
        -11   -1    0    0    0    0  0.00000000000E+00  0.00000000000E+00  0.45593999997E+02  0.45594000000E+02  0.51100000000E-03 0.  1.
         11   -1    0    0    0    0 -0.00000000000E+00 -0.00000000000E+00 -0.45593999997E+02  0.45594000000E+02  0.51100000000E-03 0. -1.
    9900012    2    1    2    0    0 -0.39698755212E+02 -0.71180308492E+01 -0.51485268047E+01  0.50528869945E+02  0.30000030685E+02 0.  0.
         12    1    1    2    0    0  0.39698755212E+02  0.71180308492E+01  0.51485268047E+01  0.40659130055E+02  0.00000000000E+00 0. -1.
         11    1    3    3    0    0 -0.75098675695E+01  0.99953127143E+01  0.19913512929E+01  0.12659773592E+02  0.51100000000E-03 0. -1.
        -11    1    3    3    0    0 -0.10979360341E+02 -0.30075542237E+01  0.11417684267E+00  0.11384409186E+02  0.51100000000E-03 0.  1.
         12    1    3    3    0    0 -0.21209527302E+02 -0.14105789340E+02 -0.72540549402E+01  0.26484687167E+02  0.00000000000E+00 0. -1.
</event>
<event>
 7    1  0.6073302E-013  0.5052887E+02  0.7816164E-02  0.1300439E+00
        -11   -1    0    0    0    0  0.00000000000E+00  0.00000000000E+00  0.45593999997E+02  0.45594000000E+02  0.51100000000E-03 0. -1.
         11   -1    0    0    0    0 -0.00000000000E+00 -0.00000000000E+00 -0.45593999997E+02  0.45594000000E+02  0.51100000000E-03 0.  1.
    9900012    2    1    2    0    0  0.34272034535E+02 -0.20631851142E+02  0.72745751740E+01  0.50528867242E+02  0.30000022468E+02 0.  0.
         12    1    1    2    0    0 -0.34272034535E+02  0.20631851142E+02 -0.72745751740E+01  0.40659132758E+02  0.00000000000E+00 0. -1.
         11    1    3    3    0    0 -0.31216023448E+01  0.10553582125E+01  0.21611976046E+01  0.39406798275E+01  0.51100000000E-03 0. -1.
        -11    1    3    3    0    0  0.33673028874E+02 -0.20484174766E+02 -0.88936471964E+00  0.39424171003E+02  0.51100000000E-03 0.  1.
         12    1    3    3    0    0  0.37206080060E+01 -0.12030345882E+01  0.60027422890E+01  0.71640164114E+01  0.00000000000E+00 0. -1.
</event>
<event>
 7    1  0.6073302E-013  0.5052886E+02  0.7816164E-02  0.1300439E+00
        -11   -1    0    0    0    0  0.00000000000E+00  0.00000000000E+00  0.45593999997E+02  0.45594000000E+02  0.51100000000E-03 0.  1.
         11   -1    0    0    0    0 -0.00000000000E+00 -0.00000000000E+00 -0.45593999997E+02  0.45594000000E+02  0.51100000000E-03 0. -1.
    9900012    2    1    2    0    0  0.35822148485E+01  0.31357218022E+01  0.40379462453E+02  0.50528855857E+02  0.29999987863E+02 0.  0.
         12    1    1    2    0    0 -0.35822148485E+01 -0.31357218022E+01 -0.40379462453E+02  0.40659144143E+02  0.00000000000E+00 0. -1.
         11    1    3    3    0    0 -0.29294171120E+01 -0.15539772479E+01 -0.99653931021E+00  0.34625742968E+01  0.51100000000E-03 0. -1.
        -11    1    3    3    0    0  0.25974165605E+01  0.12648437256E+02  0.18768462365E+02  0.22781236086E+02  0.51100000000E-03 0.  1.
        -12    1    3    3    0    0  0.39142154000E+01 -0.79587382057E+01  0.22607539399E+02  0.24285045474E+02  0.00000000000E+00 0.  1.
</event>
<event>
 7    1  0.6073302E-013  0.5052887E+02  0.7816164E-02  0.1300439E+00
        -11   -1    0    0    0    0  0.00000000000E+00  0.00000000000E+00  0.45593999997E+02  0.45594000000E+02  0.51100000000E-03 0.  1.
         11   -1    0    0    0    0 -0.00000000000E+00 -0.00000000000E+00 -0.45593999997E+02  0.45594000000E+02  0.51100000000E-03 0. -1.
    9900012    2    1    2    0    0 -0.17721064741E+02 -0.28027457236E+02  0.23528507284E+02  0.50528866343E+02  0.30000019736E+02 0.  0.
         12    1    1    2    0    0  0.17721064741E+02  0.28027457236E+02 -0.23528507284E+02  0.40659133657E+02  0.00000000000E+00 0. -1.
         11    1    3    3    0    0 -0.55250312660E+00 -0.33319834526E+00  0.16481183486E+02  0.16493807632E+02  0.51100000000E-03 0. -1.
        -11    1    3    3    0    0 -0.60603845503E+01 -0.44258386009E+01  0.19224168718E+01  0.77467409346E+01  0.51100000000E-03 0.  1.
         12    1    3    3    0    0 -0.11108177065E+02 -0.23268420290E+02  0.51249069267E+01  0.26288317776E+02  0.00000000000E+00 0. -1.
</event>
<event>
 7    1  0.6073302E-013  0.5052886E+02  0.7816164E-02  0.1300439E+00
        -11   -1    0    0    0    0  0.00000000000E+00  0.00000000000E+00  0.45593999997E+02  0.45594000000E+02  0.51100000000E-03 0. -1.
         11   -1    0    0    0    0 -0.00000000000E+00 -0.00000000000E+00 -0.45593999997E+02  0.45594000000E+02  0.51100000000E-03 0.  1.
    9900012    2    1    2    0    0 -0.30141470062E+02  0.25338860426E+02 -0.10129147010E+02  0.50528859769E+02  0.29999999754E+02 0.  0.
         12    1    1    2    0    0  0.30141470062E+02 -0.25338860426E+02  0.10129147010E+02  0.40659140231E+02  0.00000000000E+00 0. -1.
         11    1    3    3    0    0  0.31408476604E+01  0.68330192418E+00  0.30223516620E+01  0.44120783510E+01  0.51100000000E-03 0. -1.
        -11    1    3    3    0    0 -0.22885365046E+02  0.24374453343E+02 -0.12503655136E+02  0.35695872325E+02  0.51100000000E-03 0.  1.
         12    1    3    3    0    0 -0.10396952677E+02  0.28110515890E+00 -0.64784353653E+00  0.10420909093E+02  0.00000000000E+00 0. -1.
</event>
<event>
 7    1  0.6073302E-013  0.5052886E+02  0.7816164E-02  0.1300439E+00
        -11   -1    0    0    0    0  0.00000000000E+00  0.00000000000E+00  0.45593999997E+02  0.45594000000E+02  0.51100000000E-03 0.  1.
         11   -1    0    0    0    0 -0.00000000000E+00 -0.00000000000E+00 -0.45593999997E+02  0.45594000000E+02  0.51100000000E-03 0. -1.
    9900012    2    1    2    0    0 -0.29758740318E+02 -0.17047963438E+02 -0.21839190870E+02  0.50528856618E+02  0.29999990176E+02 0.  0.
         12    1    1    2    0    0  0.29758740318E+02  0.17047963438E+02  0.21839190870E+02  0.40659143382E+02  0.00000000000E+00 0. -1.
         11    1    3    3    0    0 -0.25599168093E+02 -0.10332536174E+02 -0.26124448021E+02  0.38007440002E+02  0.51100000000E-03 0. -1.
        -11    1    3    3    0    0 -0.71492622131E+00  0.21033377190E+01  0.13918157188E+01  0.26215072608E+01  0.51100000000E-03 0.  1.
         12    1    3    3    0    0 -0.34446460040E+01 -0.88187649828E+01  0.28934414324E+01  0.98999093550E+01  0.00000000000E+00 0. -1.
</event>
<event>
 7    1  0.6073302E-013  0.5052889E+02  0.7816164E-02  0.1300439E+00
        -11   -1    0    0    0    0  0.00000000000E+00  0.00000000000E+00  0.45593999997E+02  0.45594000000E+02  0.51100000000E-03 0.  1.
         11   -1    0    0    0    0 -0.00000000000E+00 -0.00000000000E+00 -0.45593999997E+02  0.45594000000E+02  0.51100000000E-03 0. -1.
    9900012    2    1    2    0    0  0.24043786849E+02 -0.17101919601E+02  0.27974696428E+02  0.50528893021E+02  0.30000100827E+02 0.  0.
         12    1    1    2    0    0 -0.24043786849E+02  0.17101919601E+02 -0.27974696428E+02  0.40659106979E+02  0.00000000000E+00 0. -1.
         11    1    3    3    0    0  0.99494882427E+00  0.52066032094E+01  0.59783531459E-01  0.53011521837E+01  0.51100000000E-03 0. -1.
        -11    1    3    3    0    0  0.10863476772E+02 -0.20161333290E+02  0.15204848284E+02  0.27489668954E+02  0.51100000000E-03 0.  1.
        -12    1    3    3    0    0  0.12185361252E+02 -0.21471895205E+01  0.12710064612E+02  0.17738071883E+02  0.00000000000E+00 0.  1.
</event>
<event>
 7    1  0.6073302E-013  0.5052886E+02  0.7816164E-02  0.1300439E+00
        -11   -1    0    0    0    0  0.00000000000E+00  0.00000000000E+00  0.45593999997E+02  0.45594000000E+02  0.51100000000E-03 0.  1.
         11   -1    0    0    0    0 -0.00000000000E+00 -0.00000000000E+00 -0.45593999997E+02  0.45594000000E+02  0.51100000000E-03 0. -1.
    9900012    2    1    2    0    0  0.28921608335E+02 -0.77385485962E+01  0.27510385111E+02  0.50528857707E+02  0.29999993486E+02 0.  0.
         12    1    1    2    0    0 -0.28921608335E+02  0.77385485962E+01 -0.27510385111E+02  0.40659142293E+02  0.00000000000E+00 0. -1.
         11    1    3    3    0    0  0.27545950535E+02 -0.77120337896E+01  0.86929821116E+01  0.29896869306E+02  0.51100000000E-03 0. -1.
        -11    1    3    3    0    0  0.35662132769E+01 -0.17804924179E+01  0.43709750167E+01  0.59155264554E+01  0.51100000000E-03 0.  1.
         12    1    3    3    0    0 -0.21905554761E+01  0.17539776113E+01  0.14446427982E+02  0.14716461946E+02  0.00000000000E+00 0. -1.
</event>
<event>
 7    1  0.6073302E-013  0.5052885E+02  0.7816164E-02  0.1300439E+00
        -11   -1    0    0    0    0  0.00000000000E+00  0.00000000000E+00  0.45593999997E+02  0.45594000000E+02  0.51100000000E-03 0.  1.
         11   -1    0    0    0    0 -0.00000000000E+00 -0.00000000000E+00 -0.45593999997E+02  0.45594000000E+02  0.51100000000E-03 0. -1.
    9900012    2    1    2    0    0  0.13998599266E+02 -0.17306986332E+02  0.34024609391E+02  0.50528848490E+02  0.29999965471E+02 0.  0.
         12    1    1    2    0    0 -0.13998599266E+02  0.17306986332E+02 -0.34024609391E+02  0.40659151510E+02  0.00000000000E+00 0. -1.
         11    1    3    3    0    0  0.17346240340E+02 -0.97086137959E+01  0.10483707827E+02  0.22473481391E+02  0.51100000000E-03 0. -1.
        -11    1    3    3    0    0  0.42632384882E+01 -0.40001640008E+01  0.14832566785E+02  0.15943072230E+02  0.51100000000E-03 0.  1.
         12    1    3    3    0    0 -0.76108795623E+01 -0.35982085351E+01  0.87083347781E+01  0.12112294869E+02  0.00000000000E+00 0. -1.
</event>
<event>
 7    1  0.6073302E-013  0.5052886E+02  0.7816164E-02  0.1300439E+00
        -11   -1    0    0    0    0  0.00000000000E+00  0.00000000000E+00  0.45593999997E+02  0.45594000000E+02  0.51100000000E-03 0. -1.
         11   -1    0    0    0    0 -0.00000000000E+00 -0.00000000000E+00 -0.45593999997E+02  0.45594000000E+02  0.51100000000E-03 0.  1.
    9900012    2    1    2    0    0  0.39711904300E+02 -0.31589809504E+00 -0.87195346772E+01  0.50528863023E+02  0.30000009644E+02 0.  0.
         12    1    1    2    0    0 -0.39711904300E+02  0.31589809504E+00  0.87195346772E+01  0.40659136977E+02  0.00000000000E+00 0. -1.
         11    1    3    3    0    0 -0.60225665815E+00  0.55436480062E+01  0.22598277103E+01  0.60167738731E+01  0.51100000000E-03 0. -1.
        -11    1    3    3    0    0  0.18494828416E+02 -0.24347508312E+01  0.22136615707E+01  0.18785286465E+02  0.51100000000E-03 0.  1.
         12    1    3    3    0    0  0.21819332542E+02 -0.34247952701E+01 -0.13193023958E+02  0.25726802685E+02  0.00000000000E+00 0. -1.
</event>
<event>
 7    1  0.6073302E-013  0.5052884E+02  0.7816164E-02  0.1300439E+00
        -11   -1    0    0    0    0  0.00000000000E+00  0.00000000000E+00  0.45593999997E+02  0.45594000000E+02  0.51100000000E-03 0. -1.
         11   -1    0    0    0    0 -0.00000000000E+00 -0.00000000000E+00 -0.45593999997E+02  0.45594000000E+02  0.51100000000E-03 0.  1.
    9900012    2    1    2    0    0 -0.36021510996E+02 -0.18788959838E+02  0.16101892773E+01  0.50528843888E+02  0.29999951482E+02 0.  0.
         12    1    1    2    0    0  0.36021510996E+02  0.18788959838E+02 -0.16101892773E+01  0.40659156112E+02  0.00000000000E+00 0. -1.
         11    1    3    3    0    0 -0.45357115921E+01  0.12111679500E+01  0.95113719604E+01  0.10606875331E+02  0.51100000000E-03 0. -1.
        -11    1    3    3    0    0 -0.28286506636E+02 -0.21510074111E+02 -0.65479370959E+01  0.36134266651E+02  0.51100000000E-03 0.  1.
        -12    1    3    3    0    0 -0.31992927682E+01  0.15099463229E+01 -0.13532455872E+01  0.37877019067E+01  0.00000000000E+00 0.  1.
</event>
<event>
 7    1  0.6073302E-013  0.5052886E+02  0.7816164E-02  0.1300439E+00
        -11   -1    0    0    0    0  0.00000000000E+00  0.00000000000E+00  0.45593999997E+02  0.45594000000E+02  0.51100000000E-03 0.  1.
         11   -1    0    0    0    0 -0.00000000000E+00 -0.00000000000E+00 -0.45593999997E+02  0.45594000000E+02  0.51100000000E-03 0. -1.
    9900012    2    1    2    0    0  0.13029350481E+02  0.28997326196E+02  0.25348698418E+02  0.50528863119E+02  0.30000009936E+02 0.  0.
         12    1    1    2    0    0 -0.13029350481E+02 -0.28997326196E+02 -0.25348698418E+02  0.40659136881E+02  0.00000000000E+00 0. -1.
         11    1    3    3    0    0 -0.20552465102E+01  0.33816163274E+01  0.10250690164E+02  0.10987994189E+02  0.51100000000E-03 0. -1.
        -11    1    3    3    0    0  0.15491171806E+02  0.14037295991E+02  0.50907544208E+00  0.20911270663E+02  0.51100000000E-03 0.  1.
        -12    1    3    3    0    0 -0.40657481506E+00  0.11578413877E+02  0.14588932812E+02  0.18629598267E+02  0.00000000000E+00 0.  1.
</event>
<event>
 7    1  0.6073302E-013  0.5052886E+02  0.7816164E-02  0.1300439E+00
        -11   -1    0    0    0    0  0.00000000000E+00  0.00000000000E+00  0.45593999997E+02  0.45594000000E+02  0.51100000000E-03 0.  1.
         11   -1    0    0    0    0 -0.00000000000E+00 -0.00000000000E+00 -0.45593999997E+02  0.45594000000E+02  0.51100000000E-03 0. -1.
    9900012    2    1    2    0    0 -0.65896802502E+01 -0.32037837654E+02  0.24151986050E+02  0.50528863788E+02  0.30000011970E+02 0.  0.
         12    1    1    2    0    0  0.65896802502E+01  0.32037837654E+02 -0.24151986050E+02  0.40659136212E+02  0.00000000000E+00 0. -1.
         11    1    3    3    0    0 -0.16539241275E+02 -0.11684655944E+02  0.15086236081E+02  0.25252172300E+02  0.51100000000E-03 0. -1.
        -11    1    3    3    0    0  0.74233674375E+01 -0.10116255163E+02  0.74965634816E+01  0.14616547709E+02  0.51100000000E-03 0.  1.
         12    1    3    3    0    0  0.25261935871E+01 -0.10236926547E+02  0.15691864867E+01  0.10660143779E+02  0.00000000000E+00 0. -1.
</event>
<event>
 7    1  0.6073302E-013  0.5052883E+02  0.7816164E-02  0.1300439E+00
        -11   -1    0    0    0    0  0.00000000000E+00  0.00000000000E+00  0.45593999997E+02  0.45594000000E+02  0.51100000000E-03 0.  1.
         11   -1    0    0    0    0 -0.00000000000E+00 -0.00000000000E+00 -0.45593999997E+02  0.45594000000E+02  0.51100000000E-03 0. -1.
    9900012    2    1    2    0    0  0.18756914779E+02 -0.33741270301E+02  0.12762162386E+02  0.50528831756E+02  0.29999914605E+02 0.  0.
         12    1    1    2    0    0 -0.18756914779E+02  0.33741270301E+02 -0.12762162386E+02  0.40659168244E+02  0.00000000000E+00 0. -1.
         11    1    3    3    0    0 -0.58952461985E+01 -0.14065768340E+02  0.43798696785E+01  0.15867672337E+02  0.51100000000E-03 0. -1.
        -11    1    3    3    0    0  0.90135609698E+01 -0.59273949831E+01  0.86647194072E+01  0.13836750171E+02  0.51100000000E-03 0.  1.
         12    1    3    3    0    0  0.15638600007E+02 -0.13748106978E+02 -0.28242670005E+00  0.20824409248E+02  0.00000000000E+00 0. -1.
</event>
<event>
 7    1  0.6073302E-013  0.5052888E+02  0.7816164E-02  0.1300439E+00
        -11   -1    0    0    0    0  0.00000000000E+00  0.00000000000E+00  0.45593999997E+02  0.45594000000E+02  0.51100000000E-03 0.  1.
         11   -1    0    0    0    0 -0.00000000000E+00 -0.00000000000E+00 -0.45593999997E+02  0.45594000000E+02  0.51100000000E-03 0. -1.
    9900012    2    1    2    0    0  0.19072350720E+02  0.23330194758E+02  0.27296734570E+02  0.50528877191E+02  0.30000052709E+02 0.  0.
         12    1    1    2    0    0 -0.19072350720E+02 -0.23330194758E+02 -0.27296734570E+02  0.40659122809E+02  0.00000000000E+00 0. -1.
         11    1    3    3    0    0  0.14447048451E+02  0.48208809266E+01  0.83546639512E-01  0.15230399934E+02  0.51100000000E-03 0. -1.
        -11    1    3    3    0    0 -0.19567150708E+01  0.13838339213E+02  0.13778849790E+02  0.19626132269E+02  0.51100000000E-03 0.  1.
         12    1    3    3    0    0  0.65820173399E+01  0.46709746181E+01  0.13434338140E+02  0.15672344988E+02  0.00000000000E+00 0. -1.
</event>
<event>
 7    1  0.6073302E-013  0.5052888E+02  0.7816164E-02  0.1300439E+00
        -11   -1    0    0    0    0  0.00000000000E+00  0.00000000000E+00  0.45593999997E+02  0.45594000000E+02  0.51100000000E-03 0.  1.
         11   -1    0    0    0    0 -0.00000000000E+00 -0.00000000000E+00 -0.45593999997E+02  0.45594000000E+02  0.51100000000E-03 0. -1.
    9900012    2    1    2    0    0  0.29543176084E+02 -0.27537752065E+02 -0.46943869401E+01  0.50528876661E+02  0.30000051100E+02 0.  0.
         12    1    1    2    0    0 -0.29543176084E+02  0.27537752065E+02  0.46943869401E+01  0.40659123339E+02  0.00000000000E+00 0. -1.
         11    1    3    3    0    0  0.18947252837E+02 -0.31190511518E+01 -0.10243128123E+02  0.21763468110E+02  0.51100000000E-03 0. -1.
        -11    1    3    3    0    0  0.11808286195E+02 -0.18214532099E+02  0.56961787193E+01  0.22442175802E+02  0.51100000000E-03 0.  1.
         12    1    3    3    0    0 -0.12123629477E+01 -0.62041688135E+01 -0.14743753654E+00  0.63232327499E+01  0.00000000000E+00 0. -1.
</event>
<event>
 7    1  0.6073302E-013  0.5052886E+02  0.7816164E-02  0.1300439E+00
        -11   -1    0    0    0    0  0.00000000000E+00  0.00000000000E+00  0.45593999997E+02  0.45594000000E+02  0.51100000000E-03 0.  1.
         11   -1    0    0    0    0 -0.00000000000E+00 -0.00000000000E+00 -0.45593999997E+02  0.45594000000E+02  0.51100000000E-03 0. -1.
    9900012    2    1    2    0    0  0.76690038425E+00  0.96000912522E+00  0.40640568005E+02  0.50528861772E+02  0.30000005842E+02 0.  0.
         12    1    1    2    0    0 -0.76690038425E+00 -0.96000912522E+00 -0.40640568005E+02  0.40659138228E+02  0.00000000000E+00 0. -1.
         11    1    3    3    0    0  0.14445621291E+02  0.15102100717E+01  0.12942855195E+02  0.19454413633E+02  0.51100000000E-03 0. -1.
        -11    1    3    3    0    0 -0.32024203280E+01 -0.15106375562E+01  0.61740240606E+01  0.71173095440E+01  0.51100000000E-03 0.  1.
         12    1    3    3    0    0 -0.10476300579E+02  0.96043660981E+00  0.21523688749E+02  0.23957138595E+02  0.00000000000E+00 0. -1.
</event>
<event>
 7    1  0.6073302E-013  0.5052887E+02  0.7816164E-02  0.1300439E+00
        -11   -1    0    0    0    0  0.00000000000E+00  0.00000000000E+00  0.45593999997E+02  0.45594000000E+02  0.51100000000E-03 0.  1.
         11   -1    0    0    0    0 -0.00000000000E+00 -0.00000000000E+00 -0.45593999997E+02  0.45594000000E+02  0.51100000000E-03 0. -1.
    9900012    2    1    2    0    0  0.34031214195E+02  0.15295966997E+02  0.16157810352E+02  0.50528868414E+02  0.30000026032E+02 0.  0.
         12    1    1    2    0    0 -0.34031214195E+02 -0.15295966997E+02 -0.16157810352E+02  0.40659131586E+02  0.00000000000E+00 0. -1.
         11    1    3    3    0    0 -0.38674186682E+01 -0.22578330652E+01  0.22371702273E+01  0.50059632632E+01  0.51100000000E-03 0. -1.
        -11    1    3    3    0    0  0.35894096741E+02  0.12749038582E+02  0.11559485167E+02  0.39806354558E+02  0.51100000000E-03 0.  1.
         12    1    3    3    0    0  0.20045361216E+01  0.48047614804E+01  0.23611549579E+01  0.57165505930E+01  0.00000000000E+00 0. -1.
</event>
<event>
 7    1  0.6073302E-013  0.5052885E+02  0.7816164E-02  0.1300439E+00
        -11   -1    0    0    0    0  0.00000000000E+00  0.00000000000E+00  0.45593999997E+02  0.45594000000E+02  0.51100000000E-03 0.  1.
         11   -1    0    0    0    0 -0.00000000000E+00 -0.00000000000E+00 -0.45593999997E+02  0.45594000000E+02  0.51100000000E-03 0. -1.
    9900012    2    1    2    0    0 -0.57163961575E+01 -0.27203456062E+02  0.29672561782E+02  0.50528854295E+02  0.29999983115E+02 0.  0.
         12    1    1    2    0    0  0.57163961575E+01  0.27203456062E+02 -0.29672561782E+02  0.40659145705E+02  0.00000000000E+00 0. -1.
         11    1    3    3    0    0 -0.37445561561E+01 -0.26523482364E+02  0.18249171888E+02  0.32412175064E+02  0.51100000000E-03 0. -1.
        -11    1    3    3    0    0  0.50221233077E+01  0.19306332442E+01  0.85815220505E+01  0.10128750575E+02  0.51100000000E-03 0.  1.
        -12    1    3    3    0    0 -0.69939633090E+01 -0.26106069424E+01  0.28418678436E+01  0.79879286562E+01  0.00000000000E+00 0.  1.
</event>
<event>
 7    1  0.6073302E-013  0.5052886E+02  0.7816164E-02  0.1300439E+00
        -11   -1    0    0    0    0  0.00000000000E+00  0.00000000000E+00  0.45593999997E+02  0.45594000000E+02  0.51100000000E-03 0.  1.
         11   -1    0    0    0    0 -0.00000000000E+00 -0.00000000000E+00 -0.45593999997E+02  0.45594000000E+02  0.51100000000E-03 0. -1.
    9900012    2    1    2    0    0  0.20823567231E+02  0.21835818645E+02  0.27253294559E+02  0.50528855980E+02  0.29999988237E+02 0.  0.
         12    1    1    2    0    0 -0.20823567231E+02 -0.21835818645E+02 -0.27253294559E+02  0.40659144020E+02  0.00000000000E+00 0. -1.
         11    1    3    3    0    0  0.74596831119E+01  0.16020535741E+02 -0.16719798367E+01  0.17751055022E+02  0.51100000000E-03 0. -1.
        -11    1    3    3    0    0  0.66480589963E+01  0.33360194296E+00  0.14363670967E+02  0.15831077746E+02  0.51100000000E-03 0.  1.
         12    1    3    3    0    0  0.67158251232E+01  0.54816809609E+01  0.14561603428E+02  0.16946723213E+02  0.00000000000E+00 0. -1.
</event>
<event>
 7    1  0.6073302E-013  0.5052886E+02  0.7816164E-02  0.1300439E+00
        -11   -1    0    0    0    0  0.00000000000E+00  0.00000000000E+00  0.45593999997E+02  0.45594000000E+02  0.51100000000E-03 0.  1.
         11   -1    0    0    0    0 -0.00000000000E+00 -0.00000000000E+00 -0.45593999997E+02  0.45594000000E+02  0.51100000000E-03 0. -1.
    9900012    2    1    2    0    0 -0.13725620007E+02 -0.30384635964E+02  0.23271160920E+02  0.50528859849E+02  0.29999999997E+02 0.  0.
         12    1    1    2    0    0  0.13725620007E+02  0.30384635964E+02 -0.23271160920E+02  0.40659140151E+02  0.00000000000E+00 0. -1.
         11    1    3    3    0    0 -0.75829035657E+01 -0.11444815065E+01  0.88390820719E+01  0.11702121027E+02  0.51100000000E-03 0. -1.
        -11    1    3    3    0    0 -0.11868647319E+02 -0.16471248817E+02  0.25359342141E+01  0.20459662494E+02  0.51100000000E-03 0.  1.
        -12    1    3    3    0    0  0.57259308773E+01 -0.12768905640E+02  0.11896144634E+02  0.18367076328E+02  0.00000000000E+00 0.  1.
</event>
<event>
 7    1  0.6073302E-013  0.5052886E+02  0.7816164E-02  0.1300439E+00
        -11   -1    0    0    0    0  0.00000000000E+00  0.00000000000E+00  0.45593999997E+02  0.45594000000E+02  0.51100000000E-03 0.  1.
         11   -1    0    0    0    0 -0.00000000000E+00 -0.00000000000E+00 -0.45593999997E+02  0.45594000000E+02  0.51100000000E-03 0. -1.
    9900012    2    1    2    0    0 -0.29711911049E+02 -0.53495696226E+00  0.27750352630E+02  0.50528857016E+02  0.29999991386E+02 0.  0.
         12    1    1    2    0    0  0.29711911049E+02  0.53495696226E+00 -0.27750352630E+02  0.40659142984E+02  0.00000000000E+00 0. -1.
         11    1    3    3    0    0 -0.84670080887E+01 -0.24653233468E+01  0.14628103940E+01  0.89391196260E+01  0.51100000000E-03 0. -1.
        -11    1    3    3    0    0 -0.12888946770E+02  0.40380543779E+01  0.29458394008E+02  0.32407218482E+02  0.51100000000E-03 0.  1.
        -12    1    3    3    0    0 -0.83559561903E+01 -0.21076879934E+01 -0.31708517719E+01  0.91825189077E+01  0.00000000000E+00 0.  1.
</event>
<event>
 7    1  0.6073302E-013  0.5052886E+02  0.7816164E-02  0.1300439E+00
        -11   -1    0    0    0    0  0.00000000000E+00  0.00000000000E+00  0.45593999997E+02  0.45594000000E+02  0.51100000000E-03 0.  1.
         11   -1    0    0    0    0 -0.00000000000E+00 -0.00000000000E+00 -0.45593999997E+02  0.45594000000E+02  0.51100000000E-03 0. -1.
    9900012    2    1    2    0    0  0.16773350085E+02 -0.20361805336E+02  0.30938923517E+02  0.50528863536E+02  0.30000011204E+02 0.  0.
         12    1    1    2    0    0 -0.16773350085E+02  0.20361805336E+02 -0.30938923517E+02  0.40659136464E+02  0.00000000000E+00 0. -1.
         11    1    3    3    0    0 -0.31697249057E+01 -0.78431034644E+00  0.82858027641E+01  0.89059994613E+01  0.51100000000E-03 0. -1.
        -11    1    3    3    0    0  0.10349844468E+02 -0.10089141332E+02 -0.89670258394E+00  0.14481509905E+02  0.51100000000E-03 0.  1.
        -12    1    3    3    0    0  0.95932305221E+01 -0.94883536572E+01  0.23549823337E+02  0.27141354170E+02  0.00000000000E+00 0.  1.
</event>
<event>
 7    1  0.6073302E-013  0.5052880E+02  0.7816164E-02  0.1300439E+00
        -11   -1    0    0    0    0  0.00000000000E+00  0.00000000000E+00  0.45593999997E+02  0.45594000000E+02  0.51100000000E-03 0.  1.
         11   -1    0    0    0    0 -0.00000000000E+00 -0.00000000000E+00 -0.45593999997E+02  0.45594000000E+02  0.51100000000E-03 0. -1.
    9900012    2    1    2    0    0  0.33233157470E+02  0.18604235264E+02  0.14234119312E+02  0.50528800822E+02  0.29999820579E+02 0.  0.
         12    1    1    2    0    0 -0.33233157470E+02 -0.18604235264E+02 -0.14234119312E+02  0.40659199178E+02  0.00000000000E+00 0. -1.
         11    1    3    3    0    0  0.47689338192E+01  0.16313831927E+02  0.33068179323E+01  0.17315279005E+02  0.51100000000E-03 0. -1.
        -11    1    3    3    0    0  0.15384204964E+02 -0.34405161285E+00 -0.85703245665E+00  0.15411899259E+02  0.51100000000E-03 0.  1.
        -12    1    3    3    0    0  0.13080018686E+02  0.26344549493E+01  0.11784333837E+02  0.17801622558E+02  0.00000000000E+00 0.  1.
</event>
<event>
 7    1  0.6073302E-013  0.5052887E+02  0.7816164E-02  0.1300439E+00
        -11   -1    0    0    0    0  0.00000000000E+00  0.00000000000E+00  0.45593999997E+02  0.45594000000E+02  0.51100000000E-03 0. -1.
         11   -1    0    0    0    0 -0.00000000000E+00 -0.00000000000E+00 -0.45593999997E+02  0.45594000000E+02  0.51100000000E-03 0.  1.
    9900012    2    1    2    0    0 -0.17201010782E+02  0.36708392765E+02  0.31279118289E+01  0.50528871828E+02  0.30000036407E+02 0.  0.
         12    1    1    2    0    0  0.17201010782E+02 -0.36708392765E+02 -0.31279118289E+01  0.40659128172E+02  0.00000000000E+00 0. -1.
         11    1    3    3    0    0 -0.14853381674E+02  0.10282367675E+02  0.11471216973E+02  0.21399505865E+02  0.51100000000E-03 0. -1.
        -11    1    3    3    0    0 -0.15255291118E+01  0.18968488049E+02 -0.99239527262E+01  0.21461957411E+02  0.51100000000E-03 0.  1.
        -12    1    3    3    0    0 -0.82209999632E+00  0.74575370402E+01  0.15806475816E+01  0.76674085510E+01  0.00000000000E+00 0.  1.
</event>
<event>
 7    1  0.6073302E-013  0.5052888E+02  0.7816164E-02  0.1300439E+00
        -11   -1    0    0    0    0  0.00000000000E+00  0.00000000000E+00  0.45593999997E+02  0.45594000000E+02  0.51100000000E-03 0. -1.
         11   -1    0    0    0    0 -0.00000000000E+00 -0.00000000000E+00 -0.45593999997E+02  0.45594000000E+02  0.51100000000E-03 0.  1.
    9900012    2    1    2    0    0 -0.37206593999E+02 -0.66864691415E+01 -0.14970801987E+02  0.50528875332E+02  0.30000047059E+02 0.  0.
         12    1    1    2    0    0  0.37206593999E+02  0.66864691415E+01  0.14970801987E+02  0.40659124668E+02  0.00000000000E+00 0. -1.
         11    1    3    3    0    0 -0.78216255984E+01  0.33236754794E+01 -0.14861689907E+02  0.17120002128E+02  0.51100000000E-03 0. -1.
        -11    1    3    3    0    0 -0.19458065722E+02 -0.11230006394E+02  0.35779880183E+01  0.22749315677E+02  0.51100000000E-03 0.  1.
         12    1    3    3    0    0 -0.99269026794E+01  0.12198617731E+01 -0.36871000981E+01  0.10659557528E+02  0.00000000000E+00 0. -1.
</event>
<event>
 7    1  0.6073302E-013  0.5052888E+02  0.7816164E-02  0.1300439E+00
        -11   -1    0    0    0    0  0.00000000000E+00  0.00000000000E+00  0.45593999997E+02  0.45594000000E+02  0.51100000000E-03 0.  1.
         11   -1    0    0    0    0 -0.00000000000E+00 -0.00000000000E+00 -0.45593999997E+02  0.45594000000E+02  0.51100000000E-03 0. -1.
    9900012    2    1    2    0    0  0.15728833642E+02 -0.37459953127E+02 -0.15874006151E+01  0.50528878801E+02  0.30000057603E+02 0.  0.
         12    1    1    2    0    0 -0.15728833642E+02  0.37459953127E+02  0.15874006151E+01  0.40659121199E+02  0.00000000000E+00 0. -1.
         11    1    3    3    0    0  0.10160453290E+02 -0.79235788783E+00 -0.24457963982E+00  0.10194236683E+02  0.51100000000E-03 0. -1.
        -11    1    3    3    0    0  0.66925174710E+01 -0.37433200575E+02  0.51735742287E+00  0.38030276811E+02  0.51100000000E-03 0.  1.
         12    1    3    3    0    0 -0.11241371192E+01  0.76560533604E+00 -0.18601783981E+01  0.23043653066E+01  0.00000000000E+00 0. -1.
</event>
<event>
 7    1  0.6073302E-013  0.5052886E+02  0.7816164E-02  0.1300439E+00
        -11   -1    0    0    0    0  0.00000000000E+00  0.00000000000E+00  0.45593999997E+02  0.45594000000E+02  0.51100000000E-03 0. -1.
         11   -1    0    0    0    0 -0.00000000000E+00 -0.00000000000E+00 -0.45593999997E+02  0.45594000000E+02  0.51100000000E-03 0.  1.
    9900012    2    1    2    0    0 -0.28763844841E+02 -0.30484393950E+01 -0.28574706283E+02  0.50528860905E+02  0.30000003206E+02 0.  0.
         12    1    1    2    0    0  0.28763844841E+02  0.30484393950E+01  0.28574706283E+02  0.40659139095E+02  0.00000000000E+00 0. -1.
         11    1    3    3    0    0  0.26837267703E+01 -0.12307118858E+01  0.41261346594E+01  0.50736602776E+01  0.51100000000E-03 0. -1.
        -11    1    3    3    0    0 -0.12612150847E+02 -0.49476046228E+00 -0.11644334853E+02  0.17172701341E+02  0.51100000000E-03 0.  1.
         12    1    3    3    0    0 -0.18835420764E+02 -0.13229670469E+01 -0.21056506090E+02  0.28282499286E+02  0.00000000000E+00 0. -1.
</event>
<event>
 7    1  0.6073302E-013  0.5052886E+02  0.7816164E-02  0.1300439E+00
        -11   -1    0    0    0    0  0.00000000000E+00  0.00000000000E+00  0.45593999997E+02  0.45594000000E+02  0.51100000000E-03 0.  1.
         11   -1    0    0    0    0 -0.00000000000E+00 -0.00000000000E+00 -0.45593999997E+02  0.45594000000E+02  0.51100000000E-03 0. -1.
    9900012    2    1    2    0    0 -0.62263260569E+01  0.23501445708E+02  0.32589576044E+02  0.50528861381E+02  0.30000004654E+02 0.  0.
         12    1    1    2    0    0  0.62263260569E+01 -0.23501445708E+02 -0.32589576044E+02  0.40659138619E+02  0.00000000000E+00 0. -1.
         11    1    3    3    0    0  0.22517915915E+01  0.27623716472E+02  0.21305939005E+02  0.34958308229E+02  0.51100000000E-03 0. -1.
        -11    1    3    3    0    0 -0.29611561384E+01  0.35499619906E+00  0.60526288330E+01  0.67475020584E+01  0.51100000000E-03 0.  1.
         12    1    3    3    0    0 -0.55169615100E+01 -0.44772669627E+01  0.52310082054E+01  0.88230510938E+01  0.00000000000E+00 0. -1.
</event>
<event>
 7    1  0.6073302E-013  0.5052886E+02  0.7816164E-02  0.1300439E+00
        -11   -1    0    0    0    0  0.00000000000E+00  0.00000000000E+00  0.45593999997E+02  0.45594000000E+02  0.51100000000E-03 0.  1.
         11   -1    0    0    0    0 -0.00000000000E+00 -0.00000000000E+00 -0.45593999997E+02  0.45594000000E+02  0.51100000000E-03 0. -1.
    9900012    2    1    2    0    0  0.27105508302E+02  0.74380954414E+01  0.29379105703E+02  0.50528859626E+02  0.29999999318E+02 0.  0.
         12    1    1    2    0    0 -0.27105508302E+02 -0.74380954414E+01 -0.29379105703E+02  0.40659140374E+02  0.00000000000E+00 0. -1.
         11    1    3    3    0    0 -0.13814571977E+00 -0.12971670158E+01 -0.15736273480E+00  0.13139595877E+01  0.51100000000E-03 0. -1.
        -11    1    3    3    0    0 -0.19855013593E+01  0.25183018366E+01  0.16159172879E+02  0.16474311159E+02  0.51100000000E-03 0.  1.
        -12    1    3    3    0    0  0.29229155381E+02  0.62169606206E+01  0.13377295559E+02  0.32740588878E+02  0.00000000000E+00 0.  1.
</event>
<event>
 7    1  0.6073302E-013  0.5052886E+02  0.7816164E-02  0.1300439E+00
        -11   -1    0    0    0    0  0.00000000000E+00  0.00000000000E+00  0.45593999997E+02  0.45594000000E+02  0.51100000000E-03 0. -1.
         11   -1    0    0    0    0 -0.00000000000E+00 -0.00000000000E+00 -0.45593999997E+02  0.45594000000E+02  0.51100000000E-03 0.  1.
    9900012    2    1    2    0    0  0.65404262608E+01  0.29713636121E+02 -0.26971992602E+02  0.50528859181E+02  0.29999997967E+02 0.  0.
         12    1    1    2    0    0 -0.65404262608E+01 -0.29713636121E+02  0.26971992602E+02  0.40659140819E+02  0.00000000000E+00 0. -1.
         11    1    3    3    0    0  0.12142041519E+01 -0.30079885392E+01  0.10172630710E+01  0.33995751487E+01  0.51100000000E-03 0. -1.
        -11    1    3    3    0    0  0.81318692924E+01  0.27787798755E+02 -0.14262726512E+02  0.32275601089E+02  0.51100000000E-03 0.  1.
        -12    1    3    3    0    0 -0.28056471835E+01  0.49338259051E+01 -0.13726529161E+02  0.14853682944E+02  0.00000000000E+00 0.  1.
</event>
<event>
 7    1  0.6073302E-013  0.5052887E+02  0.7816164E-02  0.1300439E+00
        -11   -1    0    0    0    0  0.00000000000E+00  0.00000000000E+00  0.45593999997E+02  0.45594000000E+02  0.51100000000E-03 0.  1.
         11   -1    0    0    0    0 -0.00000000000E+00 -0.00000000000E+00 -0.45593999997E+02  0.45594000000E+02  0.51100000000E-03 0. -1.
    9900012    2    1    2    0    0 -0.37610390026E+02  0.97159153303E+01  0.12009358533E+02  0.50528866451E+02  0.30000020064E+02 0.  0.
         12    1    1    2    0    0  0.37610390026E+02 -0.97159153303E+01 -0.12009358533E+02  0.40659133549E+02  0.00000000000E+00 0. -1.
         11    1    3    3    0    0 -0.39345606688E+01 -0.81358760516E+01  0.25153324199E+01  0.93808392070E+01  0.51100000000E-03 0.  1.
        -11    1    3    3    0    0 -0.13348898377E+02  0.13800810326E+02  0.30387093522E+01  0.19439372632E+02  0.51100000000E-03 0. -1.
        -12    1    3    3    0    0 -0.20326930980E+02  0.40509810563E+01  0.64553167607E+01  0.21708654612E+02  0.00000000000E+00 0.  1.
</event>
<event>
 7    1  0.6073302E-013  0.5052888E+02  0.7816164E-02  0.1300439E+00
        -11   -1    0    0    0    0  0.00000000000E+00  0.00000000000E+00  0.45593999997E+02  0.45594000000E+02  0.51100000000E-03 0.  1.
         11   -1    0    0    0    0 -0.00000000000E+00 -0.00000000000E+00 -0.45593999997E+02  0.45594000000E+02  0.51100000000E-03 0. -1.
    9900012    2    1    2    0    0  0.59100464961E+01 -0.21049471602E+02  0.34280536269E+02  0.50528879606E+02  0.30000060051E+02 0.  0.
         12    1    1    2    0    0 -0.59100464961E+01  0.21049471602E+02 -0.34280536269E+02  0.40659120394E+02  0.00000000000E+00 0. -1.
         11    1    3    3    0    0 -0.56849079264E+01 -0.11043133815E+02  0.25424054783E+02  0.28295786691E+02  0.51100000000E-03 0. -1.
        -11    1    3    3    0    0  0.98353722183E+01 -0.71982624863E+01  0.12396155248E+02  0.17384308864E+02  0.51100000000E-03 0.  1.
         12    1    3    3    0    0  0.17595822042E+01 -0.28080753005E+01 -0.35396737623E+01  0.48487840507E+01  0.00000000000E+00 0. -1.
</event>
<event>
 7    1  0.6073302E-013  0.5052887E+02  0.7816164E-02  0.1300439E+00
        -11   -1    0    0    0    0  0.00000000000E+00  0.00000000000E+00  0.45593999997E+02  0.45594000000E+02  0.51100000000E-03 0. -1.
         11   -1    0    0    0    0 -0.00000000000E+00 -0.00000000000E+00 -0.45593999997E+02  0.45594000000E+02  0.51100000000E-03 0.  1.
    9900012    2    1    2    0    0  0.30241929778E+02  0.25451226311E+02 -0.95302475527E+01  0.50528869957E+02  0.30000030722E+02 0.  0.
         12    1    1    2    0    0 -0.30241929778E+02 -0.25451226311E+02  0.95302475527E+01  0.40659130043E+02  0.00000000000E+00 0. -1.
         11    1    3    3    0    0 -0.27262072830E+01  0.14247627663E+01  0.74353617704E+00  0.31646487005E+01  0.51100000000E-03 0. -1.
        -11    1    3    3    0    0  0.19804190531E+02  0.68938694951E+01 -0.14306506270E+02  0.25385183102E+02  0.51100000000E-03 0.  1.
        -12    1    3    3    0    0  0.13163946530E+02  0.17132594050E+02  0.40327225403E+01  0.21979038155E+02  0.00000000000E+00 0.  1.
</event>
<event>
 7    1  0.6073302E-013  0.5052887E+02  0.7816164E-02  0.1300439E+00
        -11   -1    0    0    0    0  0.00000000000E+00  0.00000000000E+00  0.45593999997E+02  0.45594000000E+02  0.51100000000E-03 0. -1.
         11   -1    0    0    0    0 -0.00000000000E+00 -0.00000000000E+00 -0.45593999997E+02  0.45594000000E+02  0.51100000000E-03 0.  1.
    9900012    2    1    2    0    0  0.38663766756E+02  0.66992262595E+00 -0.12563024404E+02  0.50528865254E+02  0.30000016426E+02 0.  0.
         12    1    1    2    0    0 -0.38663766756E+02 -0.66992262595E+00  0.12563024404E+02  0.40659134746E+02  0.00000000000E+00 0. -1.
         11    1    3    3    0    0  0.12536915607E+02 -0.11500744747E+02 -0.42741246080E+01  0.17541651122E+02  0.51100000000E-03 0.  1.
        -11    1    3    3    0    0  0.45115442601E+01  0.89543834842E+01 -0.17646485782E+01  0.10180815294E+02  0.51100000000E-03 0. -1.
        -12    1    3    3    0    0  0.21615306890E+02  0.32162838888E+01 -0.65242512176E+01  0.22806398838E+02  0.00000000000E+00 0.  1.
</event>
<event>
 7    1  0.6073302E-013  0.5052885E+02  0.7816164E-02  0.1300439E+00
        -11   -1    0    0    0    0  0.00000000000E+00  0.00000000000E+00  0.45593999997E+02  0.45594000000E+02  0.51100000000E-03 0.  1.
         11   -1    0    0    0    0 -0.00000000000E+00 -0.00000000000E+00 -0.45593999997E+02  0.45594000000E+02  0.51100000000E-03 0. -1.
    9900012    2    1    2    0    0 -0.95237059829E+00  0.24529806104E+02  0.32412153879E+02  0.50528854456E+02  0.29999983605E+02 0.  0.
         12    1    1    2    0    0  0.95237059829E+00 -0.24529806104E+02 -0.32412153879E+02  0.40659145544E+02  0.00000000000E+00 0. -1.
         11    1    3    3    0    0 -0.50271200572E+01  0.14242733339E+01 -0.32663429003E+01  0.61619385588E+01  0.51100000000E-03 0. -1.
        -11    1    3    3    0    0 -0.22552699263E+01  0.17848344524E+02  0.22187545388E+02  0.28564607739E+02  0.51100000000E-03 0.  1.
        -12    1    3    3    0    0  0.63300193852E+01  0.52571882465E+01  0.13490951392E+02  0.15802308158E+02  0.00000000000E+00 0.  1.
</event>
<event>
 7    1  0.6073302E-013  0.5052886E+02  0.7816164E-02  0.1300439E+00
        -11   -1    0    0    0    0  0.00000000000E+00  0.00000000000E+00  0.45593999997E+02  0.45594000000E+02  0.51100000000E-03 0.  1.
         11   -1    0    0    0    0 -0.00000000000E+00 -0.00000000000E+00 -0.45593999997E+02  0.45594000000E+02  0.51100000000E-03 0. -1.
    9900012    2    1    2    0    0 -0.44174061124E+01  0.10725740132E+02  0.38969353481E+02  0.50528862172E+02  0.30000007059E+02 0.  0.
         12    1    1    2    0    0  0.44174061124E+01 -0.10725740132E+02 -0.38969353481E+02  0.40659137828E+02  0.00000000000E+00 0. -1.
         11    1    3    3    0    0 -0.13243880801E+01 -0.90095353057E+01  0.20476880291E+02  0.22410451957E+02  0.51100000000E-03 0.  1.
        -11    1    3    3    0    0 -0.52126705976E+01  0.11249082438E+02  0.11654014455E+02  0.17015576500E+02  0.51100000000E-03 0. -1.
        -12    1    3    3    0    0  0.21196525653E+01  0.84861929997E+01  0.68384587355E+01  0.11102833715E+02  0.00000000000E+00 0.  1.
</event>
<event>
 7    1  0.6073302E-013  0.5052886E+02  0.7816164E-02  0.1300439E+00
        -11   -1    0    0    0    0  0.00000000000E+00  0.00000000000E+00  0.45593999997E+02  0.45594000000E+02  0.51100000000E-03 0.  1.
         11   -1    0    0    0    0 -0.00000000000E+00 -0.00000000000E+00 -0.45593999997E+02  0.45594000000E+02  0.51100000000E-03 0. -1.
    9900012    2    1    2    0    0 -0.51938501608E+01  0.10557739441E+02  0.38919453086E+02  0.50528858714E+02  0.29999996548E+02 0.  0.
         12    1    1    2    0    0  0.51938501608E+01 -0.10557739441E+02 -0.38919453086E+02  0.40659141286E+02  0.00000000000E+00 0. -1.
         11    1    3    3    0    0 -0.22944605503E+01 -0.35897508683E+01  0.24354908087E+01  0.49073899635E+01  0.51100000000E-03 0. -1.
        -11    1    3    3    0    0 -0.48212398017E+01  0.20335312988E+02  0.28416632368E+02  0.35274272536E+02  0.51100000000E-03 0.  1.
        -12    1    3    3    0    0  0.19218501912E+01 -0.61878226781E+01  0.80673299090E+01  0.10347196215E+02  0.00000000000E+00 0.  1.
</event>
<event>
 7    1  0.6073302E-013  0.5052889E+02  0.7816164E-02  0.1300439E+00
        -11   -1    0    0    0    0  0.00000000000E+00  0.00000000000E+00  0.45593999997E+02  0.45594000000E+02  0.51100000000E-03 0. -1.
         11   -1    0    0    0    0 -0.00000000000E+00 -0.00000000000E+00 -0.45593999997E+02  0.45594000000E+02  0.51100000000E-03 0.  1.
    9900012    2    1    2    0    0 -0.28681002921E+02 -0.10747740725E+02 -0.26740414016E+02  0.50528885389E+02  0.30000077627E+02 0.  0.
         12    1    1    2    0    0  0.28681002921E+02  0.10747740725E+02  0.26740414016E+02  0.40659114611E+02  0.00000000000E+00 0. -1.
         11    1    3    3    0    0 -0.30476840472E+01  0.73499027482E+01 -0.98973517296E+00  0.80180436787E+01  0.51100000000E-03 0. -1.
        -11    1    3    3    0    0 -0.10909444701E+02 -0.22652162025E+01 -0.14034428550E+02  0.17919608620E+02  0.51100000000E-03 0.  1.
         12    1    3    3    0    0 -0.14723874173E+02 -0.15832427271E+02 -0.11716250293E+02  0.24591233090E+02  0.00000000000E+00 0. -1.
</event>
<event>
 7    1  0.6073302E-013  0.5052886E+02  0.7816164E-02  0.1300439E+00
        -11   -1    0    0    0    0  0.00000000000E+00  0.00000000000E+00  0.45593999997E+02  0.45594000000E+02  0.51100000000E-03 0. -1.
         11   -1    0    0    0    0 -0.00000000000E+00 -0.00000000000E+00 -0.45593999997E+02  0.45594000000E+02  0.51100000000E-03 0.  1.
    9900012    2    1    2    0    0  0.54667528741E+01 -0.18351203585E+02 -0.35868001218E+02  0.50528861158E+02  0.30000003975E+02 0.  0.
         12    1    1    2    0    0 -0.54667528741E+01  0.18351203585E+02  0.35868001218E+02  0.40659138842E+02  0.00000000000E+00 0. -1.
         11    1    3    3    0    0 -0.54161379713E+01 -0.15095295899E+02 -0.23613842852E+02  0.28544983505E+02  0.51100000000E-03 0. -1.
        -11    1    3    3    0    0  0.44863546374E+01  0.54423063649E+01 -0.71425606605E+01  0.10038040125E+02  0.51100000000E-03 0.  1.
         12    1    3    3    0    0  0.63965362080E+01 -0.86982140505E+01 -0.51115977055E+01  0.11945837527E+02  0.00000000000E+00 0. -1.
</event>
<event>
 7    1  0.6073302E-013  0.5052895E+02  0.7816164E-02  0.1300438E+00
        -11   -1    0    0    0    0  0.00000000000E+00  0.00000000000E+00  0.45593999997E+02  0.45594000000E+02  0.51100000000E-03 0. -1.
         11   -1    0    0    0    0 -0.00000000000E+00 -0.00000000000E+00 -0.45593999997E+02  0.45594000000E+02  0.51100000000E-03 0.  1.
    9900012    2    1    2    0    0  0.21872036654E+02  0.34143461719E+02 -0.29993519550E+01  0.50528953311E+02  0.30000284083E+02 0.  0.
         12    1    1    2    0    0 -0.21872036654E+02 -0.34143461719E+02  0.29993519550E+01  0.40659046689E+02  0.00000000000E+00 0. -1.
         11    1    3    3    0    0  0.80973707916E+01  0.30205629645E+02  0.72114277836E+01  0.32092867851E+02  0.51100000000E-03 0. -1.
        -11    1    3    3    0    0  0.50949092106E+01  0.30375576344E+01 -0.69090233719E+01  0.91060123249E+01  0.51100000000E-03 0.  1.
         12    1    3    3    0    0  0.86797566515E+01  0.90027443927E+00 -0.33017563667E+01  0.93300731348E+01  0.00000000000E+00 0. -1.
</event>
<event>
 7    1  0.6073302E-013  0.5052887E+02  0.7816164E-02  0.1300439E+00
        -11   -1    0    0    0    0  0.00000000000E+00  0.00000000000E+00  0.45593999997E+02  0.45594000000E+02  0.51100000000E-03 0.  1.
         11   -1    0    0    0    0 -0.00000000000E+00 -0.00000000000E+00 -0.45593999997E+02  0.45594000000E+02  0.51100000000E-03 0. -1.
    9900012    2    1    2    0    0 -0.86911845073E+01  0.34568287317E+02  0.19561735981E+02  0.50528871987E+02  0.30000036891E+02 0.  0.
         12    1    1    2    0    0  0.86911845073E+01 -0.34568287317E+02 -0.19561735981E+02  0.40659128013E+02  0.00000000000E+00 0. -1.
         11    1    3    3    0    0 -0.57336351091E+01 -0.30121653663E+00  0.71644302167E+01  0.91811961942E+01  0.51100000000E-03 0. -1.
        -11    1    3    3    0    0  0.76946780385E+01  0.15339218430E+02  0.62997419486E+01  0.18280766971E+02  0.51100000000E-03 0.  1.
         12    1    3    3    0    0 -0.10652227437E+02  0.19530285424E+02  0.60975638158E+01  0.23066908822E+02  0.00000000000E+00 0. -1.
</event>
<event>
 7    1  0.6073302E-013  0.5052886E+02  0.7816164E-02  0.1300439E+00
        -11   -1    0    0    0    0  0.00000000000E+00  0.00000000000E+00  0.45593999997E+02  0.45594000000E+02  0.51100000000E-03 0.  1.
         11   -1    0    0    0    0 -0.00000000000E+00 -0.00000000000E+00 -0.45593999997E+02  0.45594000000E+02  0.51100000000E-03 0. -1.
    9900012    2    1    2    0    0  0.27653253094E+02  0.23896165642E+01  0.29711166161E+02  0.50528855043E+02  0.29999985388E+02 0.  0.
         12    1    1    2    0    0 -0.27653253094E+02 -0.23896165642E+01 -0.29711166161E+02  0.40659144957E+02  0.00000000000E+00 0. -1.
         11    1    3    3    0    0  0.10099955139E+02 -0.12518814115E+02  0.12326686153E+02  0.20265166973E+02  0.51100000000E-03 0. -1.
        -11    1    3    3    0    0  0.70102787336E+00  0.51905666793E+01  0.27176265938E+01  0.59007556377E+01  0.51100000000E-03 0.  1.
         12    1    3    3    0    0  0.16852270081E+02  0.97178640000E+01  0.14666853415E+02  0.24362932432E+02  0.00000000000E+00 0. -1.
</event>
<event>
 7    1  0.6073302E-013  0.5052886E+02  0.7816164E-02  0.1300439E+00
        -11   -1    0    0    0    0  0.00000000000E+00  0.00000000000E+00  0.45593999997E+02  0.45594000000E+02  0.51100000000E-03 0. -1.
         11   -1    0    0    0    0 -0.00000000000E+00 -0.00000000000E+00 -0.45593999997E+02  0.45594000000E+02  0.51100000000E-03 0.  1.
    9900012    2    1    2    0    0  0.30561837437E+02  0.24755536147E+02  0.10310343519E+02  0.50528860056E+02  0.30000000628E+02 0.  0.
         12    1    1    2    0    0 -0.30561837437E+02 -0.24755536147E+02 -0.10310343519E+02  0.40659139944E+02  0.00000000000E+00 0. -1.
         11    1    3    3    0    0  0.11630138377E+02  0.13631372180E+02  0.10123123143E+02  0.20580380186E+02  0.51100000000E-03 0.  1.
        -11    1    3    3    0    0  0.12570324597E+02  0.59503862398E+01 -0.98095545812E+01  0.17019033998E+02  0.51100000000E-03 0. -1.
        -12    1    3    3    0    0  0.63613744638E+01  0.51737777272E+01  0.99967749565E+01  0.12929445873E+02  0.00000000000E+00 0.  1.
</event>
<event>
 7    1  0.6073302E-013  0.5052885E+02  0.7816164E-02  0.1300439E+00
        -11   -1    0    0    0    0  0.00000000000E+00  0.00000000000E+00  0.45593999997E+02  0.45594000000E+02  0.51100000000E-03 0.  1.
         11   -1    0    0    0    0 -0.00000000000E+00 -0.00000000000E+00 -0.45593999997E+02  0.45594000000E+02  0.51100000000E-03 0. -1.
    9900012    2    1    2    0    0  0.20244162902E+01 -0.39512653684E+02 -0.93711491698E+01  0.50528849748E+02  0.29999969293E+02 0.  0.
         12    1    1    2    0    0 -0.20244162902E+01  0.39512653684E+02  0.93711491698E+01  0.40659150252E+02  0.00000000000E+00 0. -1.
         11    1    3    3    0    0  0.72451681864E+01 -0.27366230063E+02 -0.12836482851E+02  0.31083408793E+02  0.51100000000E-03 0. -1.
        -11    1    3    3    0    0  0.31453968574E+01 -0.81473195908E+01  0.49742541098E+01  0.10050648840E+02  0.51100000000E-03 0.  1.
         12    1    3    3    0    0 -0.83661487536E+01 -0.39991040304E+01 -0.15089204282E+01  0.93947921144E+01  0.00000000000E+00 0. -1.
</event>
<event>
 7    1  0.6073302E-013  0.5052889E+02  0.7816164E-02  0.1300439E+00
        -11   -1    0    0    0    0  0.00000000000E+00  0.00000000000E+00  0.45593999997E+02  0.45594000000E+02  0.51100000000E-03 0.  1.
         11   -1    0    0    0    0 -0.00000000000E+00 -0.00000000000E+00 -0.45593999997E+02  0.45594000000E+02  0.51100000000E-03 0. -1.
    9900012    2    1    2    0    0  0.35025428761E+02  0.16841178310E+02  0.11948122804E+02  0.50528885581E+02  0.30000078213E+02 0.  0.
         12    1    1    2    0    0 -0.35025428761E+02 -0.16841178310E+02 -0.11948122804E+02  0.40659114419E+02  0.00000000000E+00 0. -1.
         11    1    3    3    0    0  0.31024326609E+01 -0.48149326204E+01 -0.44739976551E+01  0.72681029047E+01  0.51100000000E-03 0. -1.
        -11    1    3    3    0    0  0.28407946632E+02  0.15919027876E+02  0.16555963424E+02  0.36531175803E+02  0.51100000000E-03 0.  1.
        -12    1    3    3    0    0  0.35150494677E+01  0.57370830550E+01 -0.13384296493E+00  0.67296068741E+01  0.00000000000E+00 0.  1.
</event>
<event>
 7    1  0.6073302E-013  0.5052881E+02  0.7816164E-02  0.1300439E+00
        -11   -1    0    0    0    0  0.00000000000E+00  0.00000000000E+00  0.45593999997E+02  0.45594000000E+02  0.51100000000E-03 0.  1.
         11   -1    0    0    0    0 -0.00000000000E+00 -0.00000000000E+00 -0.45593999997E+02  0.45594000000E+02  0.51100000000E-03 0. -1.
    9900012    2    1    2    0    0  0.13129129441E+02  0.27627483896E+02  0.26786530623E+02  0.50528805110E+02  0.29999833613E+02 0.  0.
         12    1    1    2    0    0 -0.13129129441E+02 -0.27627483896E+02 -0.26786530623E+02  0.40659194890E+02  0.00000000000E+00 0. -1.
         11    1    3    3    0    0 -0.34690703289E+01  0.16562187792E+02  0.14254073808E+02  0.22125079294E+02  0.51100000000E-03 0. -1.
        -11    1    3    3    0    0  0.76628994191E+01 -0.19529728709E+01  0.94391292141E+01  0.12313865807E+02  0.51100000000E-03 0.  1.
         12    1    3    3    0    0  0.89353003505E+01  0.13018268975E+02  0.30933276009E+01  0.16089860009E+02  0.00000000000E+00 0. -1.
</event>
<event>
 7    1  0.6073302E-013  0.5052887E+02  0.7816164E-02  0.1300439E+00
        -11   -1    0    0    0    0  0.00000000000E+00  0.00000000000E+00  0.45593999997E+02  0.45594000000E+02  0.51100000000E-03 0.  1.
         11   -1    0    0    0    0 -0.00000000000E+00 -0.00000000000E+00 -0.45593999997E+02  0.45594000000E+02  0.51100000000E-03 0. -1.
    9900012    2    1    2    0    0 -0.40595521089E+01  0.15483112166E+01  0.40426322630E+02  0.50528870738E+02  0.30000033096E+02 0.  0.
         12    1    1    2    0    0  0.40595521089E+01 -0.15483112166E+01 -0.40426322630E+02  0.40659129262E+02  0.00000000000E+00 0. -1.
         11    1    3    3    0    0 -0.57949283051E+01 -0.39443848590E+01  0.16185975241E+02  0.17638740339E+02  0.51100000000E-03 0. -1.
        -11    1    3    3    0    0  0.93139498273E+01  0.59709235875E+01  0.22539434463E+02  0.25108319260E+02  0.51100000000E-03 0.  1.
        -12    1    3    3    0    0 -0.75785736311E+01 -0.47822751186E+00  0.17009129258E+01  0.77818111399E+01  0.00000000000E+00 0.  1.
</event>
<event>
 7    1  0.6073302E-013  0.5052886E+02  0.7816164E-02  0.1300439E+00
        -11   -1    0    0    0    0  0.00000000000E+00  0.00000000000E+00  0.45593999997E+02  0.45594000000E+02  0.51100000000E-03 0. -1.
         11   -1    0    0    0    0 -0.00000000000E+00 -0.00000000000E+00 -0.45593999997E+02  0.45594000000E+02  0.51100000000E-03 0.  1.
    9900012    2    1    2    0    0  0.26779469258E+02 -0.27231023341E+02 -0.13946219058E+02  0.50528860413E+02  0.30000001711E+02 0.  0.
         12    1    1    2    0    0 -0.26779469258E+02  0.27231023341E+02  0.13946219058E+02  0.40659139587E+02  0.00000000000E+00 0. -1.
         11    1    3    3    0    0 -0.54519573551E+01 -0.44858360668E+01 -0.59168542846E+00  0.70849598536E+01  0.51100000000E-03 0. -1.
        -11    1    3    3    0    0  0.14478680978E+02 -0.17721900266E+02 -0.70193644676E+01  0.23936779852E+02  0.51100000000E-03 0.  1.
         12    1    3    3    0    0  0.17752745635E+02 -0.50232870081E+01 -0.63351691624E+01  0.19507120707E+02  0.00000000000E+00 0. -1.
</event>
<event>
 7    1  0.6073302E-013  0.5052886E+02  0.7816164E-02  0.1300439E+00
        -11   -1    0    0    0    0  0.00000000000E+00  0.00000000000E+00  0.45593999997E+02  0.45594000000E+02  0.51100000000E-03 0.  1.
         11   -1    0    0    0    0 -0.00000000000E+00 -0.00000000000E+00 -0.45593999997E+02  0.45594000000E+02  0.51100000000E-03 0. -1.
    9900012    2    1    2    0    0 -0.28598648984E+02  0.12762823933E+02  0.25930549331E+02  0.50528858505E+02  0.29999995912E+02 0.  0.
         12    1    1    2    0    0  0.28598648984E+02 -0.12762823933E+02 -0.25930549331E+02  0.40659141495E+02  0.00000000000E+00 0. -1.
         11    1    3    3    0    0 -0.26079786379E+02  0.81232363041E+01  0.12222491933E+02  0.29925432911E+02  0.51100000000E-03 0. -1.
        -11    1    3    3    0    0 -0.43734726745E+01  0.19502413295E+01  0.15942102070E+02  0.16645759915E+02  0.51100000000E-03 0.  1.
         12    1    3    3    0    0  0.18546100691E+01  0.26893462997E+01 -0.22340446717E+01  0.39576656786E+01  0.00000000000E+00 0. -1.
</event>
<event>
 7    1  0.6073302E-013  0.5052886E+02  0.7816164E-02  0.1300439E+00
        -11   -1    0    0    0    0  0.00000000000E+00  0.00000000000E+00  0.45593999997E+02  0.45594000000E+02  0.51100000000E-03 0. -1.
         11   -1    0    0    0    0 -0.00000000000E+00 -0.00000000000E+00 -0.45593999997E+02  0.45594000000E+02  0.51100000000E-03 0.  1.
    9900012    2    1    2    0    0  0.27539729845E+01 -0.19396193470E+02 -0.35628206099E+02  0.50528858861E+02  0.29999996995E+02 0.  0.
         12    1    1    2    0    0 -0.27539729845E+01  0.19396193470E+02  0.35628206099E+02  0.40659141139E+02  0.00000000000E+00 0. -1.
         11    1    3    3    0    0  0.16784681628E+01 -0.13864594976E+02 -0.94980700081E+01  0.16889570254E+02  0.51100000000E-03 0. -1.
        -11    1    3    3    0    0  0.60388277863E+01  0.35690398481E+01 -0.20865215815E+02  0.22012785324E+02  0.51100000000E-03 0.  1.
        -12    1    3    3    0    0 -0.49633229646E+01 -0.91006383420E+01 -0.52649202755E+01  0.11626503283E+02  0.00000000000E+00 0.  1.
</event>
<event>
 7    1  0.6073302E-013  0.5052893E+02  0.7816164E-02  0.1300439E+00
        -11   -1    0    0    0    0  0.00000000000E+00  0.00000000000E+00  0.45593999997E+02  0.45594000000E+02  0.51100000000E-03 0.  1.
         11   -1    0    0    0    0 -0.00000000000E+00 -0.00000000000E+00 -0.45593999997E+02  0.45594000000E+02  0.51100000000E-03 0. -1.
    9900012    2    1    2    0    0  0.85861787691E+01 -0.23437946530E+01  0.39672965840E+02  0.50528928961E+02  0.30000210069E+02 0.  0.
         12    1    1    2    0    0 -0.85861787691E+01  0.23437946530E+01 -0.39672965840E+02  0.40659071039E+02  0.00000000000E+00 0. -1.
         11    1    3    3    0    0  0.33603800093E+01  0.59237241010E+01  0.33024881993E+02  0.33719808599E+02  0.51100000000E-03 0.  1.
        -11    1    3    3    0    0  0.76831963270E+01 -0.95775842158E+01  0.67708401677E+01  0.14021622661E+02  0.51100000000E-03 0. -1.
         12    1    3    3    0    0 -0.24573975672E+01  0.13100654618E+01 -0.12275632145E+00  0.27874977007E+01  0.00000000000E+00 0. -1.
</event>
<event>
 7    1  0.6073302E-013  0.5052886E+02  0.7816164E-02  0.1300439E+00
        -11   -1    0    0    0    0  0.00000000000E+00  0.00000000000E+00  0.45593999997E+02  0.45594000000E+02  0.51100000000E-03 0.  1.
         11   -1    0    0    0    0 -0.00000000000E+00 -0.00000000000E+00 -0.45593999997E+02  0.45594000000E+02  0.51100000000E-03 0. -1.
    9900012    2    1    2    0    0 -0.17913496940E+02 -0.13281884982E+02  0.33997994963E+02  0.50528862001E+02  0.30000006538E+02 0.  0.
         12    1    1    2    0    0  0.17913496940E+02  0.13281884982E+02 -0.33997994963E+02  0.40659137999E+02  0.00000000000E+00 0. -1.
         11    1    3    3    0    0 -0.36170186702E+01 -0.18461878165E+02  0.13474260338E+02  0.23140429153E+02  0.51100000000E-03 0. -1.
        -11    1    3    3    0    0 -0.59111886829E+01  0.73609545966E+01  0.99040456478E+01  0.13682687041E+02  0.51100000000E-03 0.  1.
         12    1    3    3    0    0 -0.83852895872E+01 -0.21809614135E+01  0.10619688977E+02  0.13705745807E+02  0.00000000000E+00 0. -1.
</event>
<event>
 7    1  0.6073302E-013  0.5052886E+02  0.7816164E-02  0.1300439E+00
        -11   -1    0    0    0    0  0.00000000000E+00  0.00000000000E+00  0.45593999997E+02  0.45594000000E+02  0.51100000000E-03 0. -1.
         11   -1    0    0    0    0 -0.00000000000E+00 -0.00000000000E+00 -0.45593999997E+02  0.45594000000E+02  0.51100000000E-03 0.  1.
    9900012    2    1    2    0    0 -0.27467768930E+02  0.17042550238E+01 -0.29929637531E+02  0.50528855667E+02  0.29999987284E+02 0.  0.
         12    1    1    2    0    0  0.27467768930E+02 -0.17042550238E+01  0.29929637531E+02  0.40659144333E+02  0.00000000000E+00 0. -1.
         11    1    3    3    0    0 -0.10554031078E+02  0.11162924484E+02 -0.22241557567E+02  0.27031191951E+02  0.51100000000E-03 0. -1.
        -11    1    3    3    0    0 -0.15744327367E+02 -0.36551887456E+01 -0.66951970391E+01  0.17494853891E+02  0.51100000000E-03 0.  1.
        -12    1    3    3    0    0 -0.11694104844E+01 -0.58034807147E+01 -0.99288292539E+00  0.60028098246E+01  0.00000000000E+00 0.  1.
</event>
<event>
 7    1  0.6073302E-013  0.5052885E+02  0.7816164E-02  0.1300439E+00
        -11   -1    0    0    0    0  0.00000000000E+00  0.00000000000E+00  0.45593999997E+02  0.45594000000E+02  0.51100000000E-03 0. -1.
         11   -1    0    0    0    0 -0.00000000000E+00 -0.00000000000E+00 -0.45593999997E+02  0.45594000000E+02  0.51100000000E-03 0.  1.
    9900012    2    1    2    0    0  0.11856368347E+02 -0.38593509373E+02 -0.48097541453E+01  0.50528853784E+02  0.29999981562E+02 0.  0.
         12    1    1    2    0    0 -0.11856368347E+02  0.38593509373E+02  0.48097541453E+01  0.40659146216E+02  0.00000000000E+00 0. -1.
         11    1    3    3    0    0  0.33566312830E+00 -0.37487416385E+01  0.10069438607E+02  0.10749852451E+02  0.51100000000E-03 0. -1.
        -11    1    3    3    0    0  0.66088433347E+01 -0.16310211500E+02 -0.55293994040E+01  0.18446519114E+02  0.51100000000E-03 0.  1.
         12    1    3    3    0    0  0.49118618836E+01 -0.18534556234E+02 -0.93497933479E+01  0.21332482219E+02  0.00000000000E+00 0. -1.
</event>
<event>
 7    1  0.6073302E-013  0.5052885E+02  0.7816164E-02  0.1300439E+00
        -11   -1    0    0    0    0  0.00000000000E+00  0.00000000000E+00  0.45593999997E+02  0.45594000000E+02  0.51100000000E-03 0.  1.
         11   -1    0    0    0    0 -0.00000000000E+00 -0.00000000000E+00 -0.45593999997E+02  0.45594000000E+02  0.51100000000E-03 0. -1.
    9900012    2    1    2    0    0  0.18254359224E+02 -0.40300488112E+01  0.36106831565E+02  0.50528853308E+02  0.29999980114E+02 0.  0.
         12    1    1    2    0    0 -0.18254359224E+02  0.40300488112E+01 -0.36106831565E+02  0.40659146692E+02  0.00000000000E+00 0. -1.
         11    1    3    3    0    0  0.84209100854E+01 -0.10797831889E+02  0.15253016121E+02  0.20497790154E+02  0.51100000000E-03 0.  1.
        -11    1    3    3    0    0  0.12085496118E+02  0.11029371128E+02  0.13371518810E+02  0.21130635566E+02  0.51100000000E-03 0. -1.
         12    1    3    3    0    0 -0.22520469790E+01 -0.42615880506E+01  0.74822966344E+01  0.89004275872E+01  0.00000000000E+00 0. -1.
</event>
<event>
 7    1  0.6073302E-013  0.5052886E+02  0.7816164E-02  0.1300439E+00
        -11   -1    0    0    0    0  0.00000000000E+00  0.00000000000E+00  0.45593999997E+02  0.45594000000E+02  0.51100000000E-03 0.  1.
         11   -1    0    0    0    0 -0.00000000000E+00 -0.00000000000E+00 -0.45593999997E+02  0.45594000000E+02  0.51100000000E-03 0. -1.
    9900012    2    1    2    0    0 -0.24547276282E+02 -0.20178342532E+02  0.25365952303E+02  0.50528858144E+02  0.29999994814E+02 0.  0.
         12    1    1    2    0    0  0.24547276282E+02  0.20178342532E+02 -0.25365952303E+02  0.40659141856E+02  0.00000000000E+00 0. -1.
         11    1    3    3    0    0  0.31199450787E+00  0.24845241199E+01  0.44629081805E+00  0.25434968902E+01  0.51100000000E-03 0. -1.
        -11    1    3    3    0    0 -0.28200325726E+02 -0.24277748622E+02  0.23510041358E+02  0.44015786873E+02  0.51100000000E-03 0.  1.
        -12    1    3    3    0    0  0.33410549352E+01  0.16148819699E+01  0.14096201279E+01  0.39695743805E+01  0.00000000000E+00 0.  1.
</event>
<event>
 7    1  0.6073302E-013  0.5052886E+02  0.7816164E-02  0.1300439E+00
        -11   -1    0    0    0    0  0.00000000000E+00  0.00000000000E+00  0.45593999997E+02  0.45594000000E+02  0.51100000000E-03 0.  1.
         11   -1    0    0    0    0 -0.00000000000E+00 -0.00000000000E+00 -0.45593999997E+02  0.45594000000E+02  0.51100000000E-03 0. -1.
    9900012    2    1    2    0    0 -0.74085270703E+01  0.25911871232E+02  0.30444285198E+02  0.50528857789E+02  0.29999993736E+02 0.  0.
         12    1    1    2    0    0  0.74085270703E+01 -0.25911871232E+02 -0.30444285198E+02  0.40659142211E+02  0.00000000000E+00 0. -1.
         11    1    3    3    0    0 -0.76635448091E+01  0.19519676866E+02  0.52849016781E+01  0.21625861601E+02  0.51100000000E-03 0. -1.
        -11    1    3    3    0    0  0.60566474873E+01  0.24654562566E+01  0.77700896065E+01  0.10155577093E+02  0.51100000000E-03 0.  1.
         12    1    3    3    0    0 -0.58016297485E+01  0.39267381097E+01  0.17389293913E+02  0.18747419095E+02  0.00000000000E+00 0. -1.
</event>
<event>
 7    1  0.6073302E-013  0.5052886E+02  0.7816164E-02  0.1300439E+00
        -11   -1    0    0    0    0  0.00000000000E+00  0.00000000000E+00  0.45593999997E+02  0.45594000000E+02  0.51100000000E-03 0.  1.
         11   -1    0    0    0    0 -0.00000000000E+00 -0.00000000000E+00 -0.45593999997E+02  0.45594000000E+02  0.51100000000E-03 0. -1.
    9900012    2    1    2    0    0  0.15234444342E+02  0.14792357733E+01  0.37668147653E+02  0.50528858587E+02  0.29999996161E+02 0.  0.
         12    1    1    2    0    0 -0.15234444342E+02 -0.14792357733E+01 -0.37668147653E+02  0.40659141413E+02  0.00000000000E+00 0. -1.
         11    1    3    3    0    0 -0.52638018775E+01 -0.70236529266E+01  0.88718084662E+01  0.12479915719E+02  0.51100000000E-03 0. -1.
        -11    1    3    3    0    0  0.15526646627E+02  0.81523267785E+01  0.14011960223E+02  0.22447098185E+02  0.51100000000E-03 0.  1.
        -12    1    3    3    0    0  0.49715995923E+01  0.35056192140E+00  0.14784378963E+02  0.15601844683E+02  0.00000000000E+00 0.  1.
</event>
<event>
 7    1  0.6073302E-013  0.5052886E+02  0.7816164E-02  0.1300439E+00
        -11   -1    0    0    0    0  0.00000000000E+00  0.00000000000E+00  0.45593999997E+02  0.45594000000E+02  0.51100000000E-03 0. -1.
         11   -1    0    0    0    0 -0.00000000000E+00 -0.00000000000E+00 -0.45593999997E+02  0.45594000000E+02  0.51100000000E-03 0.  1.
    9900012    2    1    2    0    0  0.57643359628E+01 -0.22833443292E+02 -0.33144708955E+02  0.50528862855E+02  0.30000009134E+02 0.  0.
         12    1    1    2    0    0 -0.57643359628E+01  0.22833443292E+02  0.33144708955E+02  0.40659137145E+02  0.00000000000E+00 0. -1.
         11    1    3    3    0    0 -0.41623474367E+01 -0.19302826587E+02 -0.31077841676E+02  0.36820598772E+02  0.51100000000E-03 0. -1.
        -11    1    3    3    0    0  0.18007908015E+01 -0.49814650315E+01 -0.84318044672E+00  0.53636549942E+01  0.51100000000E-03 0.  1.
         12    1    3    3    0    0  0.81258925980E+01  0.14508483263E+01 -0.12236868318E+01  0.83446090886E+01  0.00000000000E+00 0. -1.
</event>
<event>
 7    1  0.6073302E-013  0.5052886E+02  0.7816164E-02  0.1300439E+00
        -11   -1    0    0    0    0  0.00000000000E+00  0.00000000000E+00  0.45593999997E+02  0.45594000000E+02  0.51100000000E-03 0. -1.
         11   -1    0    0    0    0 -0.00000000000E+00 -0.00000000000E+00 -0.45593999997E+02  0.45594000000E+02  0.51100000000E-03 0.  1.
    9900012    2    1    2    0    0  0.19839843079E+02 -0.14011519357E+02 -0.32607106337E+02  0.50528862875E+02  0.30000009195E+02 0.  0.
         12    1    1    2    0    0 -0.19839843079E+02  0.14011519357E+02  0.32607106337E+02  0.40659137125E+02  0.00000000000E+00 0. -1.
         11    1    3    3    0    0 -0.57830435939E+00  0.40883631370E+01 -0.36270407603E+01  0.54958688131E+01  0.51100000000E-03 0. -1.
        -11    1    3    3    0    0  0.18970366695E+02 -0.97748956133E+01 -0.29678127307E+02  0.36554269758E+02  0.51100000000E-03 0.  1.
        -12    1    3    3    0    0  0.14477807433E+01 -0.83249868806E+01  0.69806173104E+00  0.84787243040E+01  0.00000000000E+00 0.  1.
</event>
<event>
 7    1  0.6073302E-013  0.5052886E+02  0.7816164E-02  0.1300439E+00
        -11   -1    0    0    0    0  0.00000000000E+00  0.00000000000E+00  0.45593999997E+02  0.45594000000E+02  0.51100000000E-03 0.  1.
         11   -1    0    0    0    0 -0.00000000000E+00 -0.00000000000E+00 -0.45593999997E+02  0.45594000000E+02  0.51100000000E-03 0. -1.
    9900012    2    1    2    0    0  0.77078926934E+01  0.37005190211E+02  0.14978974273E+02  0.50528863479E+02  0.30000011031E+02 0.  0.
         12    1    1    2    0    0 -0.77078926934E+01 -0.37005190211E+02 -0.14978974273E+02  0.40659136521E+02  0.00000000000E+00 0. -1.
         11    1    3    3    0    0  0.37163387430E+00  0.10874768576E+02 -0.44460950321E+00  0.10890196563E+02  0.51100000000E-03 0. -1.
        -11    1    3    3    0    0  0.85838634131E+01  0.13139754691E+02  0.20341231251E+02  0.25692441564E+02  0.51100000000E-03 0.  1.
        -12    1    3    3    0    0 -0.12476045940E+01  0.12990666944E+02 -0.49176474748E+01  0.13946225352E+02  0.00000000000E+00 0.  1.
</event>
<event>
 7    1  0.6073302E-013  0.5052886E+02  0.7816164E-02  0.1300439E+00
        -11   -1    0    0    0    0  0.00000000000E+00  0.00000000000E+00  0.45593999997E+02  0.45594000000E+02  0.51100000000E-03 0. -1.
         11   -1    0    0    0    0 -0.00000000000E+00 -0.00000000000E+00 -0.45593999997E+02  0.45594000000E+02  0.51100000000E-03 0.  1.
    9900012    2    1    2    0    0  0.14642239842E+02  0.35618331593E+02 -0.13042415341E+02  0.50528864115E+02  0.30000012962E+02 0.  0.
         12    1    1    2    0    0 -0.14642239842E+02 -0.35618331593E+02  0.13042415341E+02  0.40659135885E+02  0.00000000000E+00 0. -1.
         11    1    3    3    0    0  0.31574432622E+01  0.24469479062E+02 -0.15067724120E+02  0.28909534136E+02  0.51100000000E-03 0.  1.
        -11    1    3    3    0    0 -0.14644369453E+01  0.57367338178E+01  0.44111035329E+01  0.73832597884E+01  0.51100000000E-03 0. -1.
         12    1    3    3    0    0  0.12949233525E+02  0.54121187124E+01 -0.23857947534E+01  0.14236070190E+02  0.00000000000E+00 0. -1.
</event>
<event>
 7    1  0.6073302E-013  0.5052886E+02  0.7816164E-02  0.1300439E+00
        -11   -1    0    0    0    0  0.00000000000E+00  0.00000000000E+00  0.45593999997E+02  0.45594000000E+02  0.51100000000E-03 0.  1.
         11   -1    0    0    0    0 -0.00000000000E+00 -0.00000000000E+00 -0.45593999997E+02  0.45594000000E+02  0.51100000000E-03 0. -1.
    9900012    2    1    2    0    0  0.10384304261E+02 -0.38036516103E+01  0.39126254531E+02  0.50528864075E+02  0.30000012841E+02 0.  0.
         12    1    1    2    0    0 -0.10384304261E+02  0.38036516103E+01 -0.39126254531E+02  0.40659135925E+02  0.00000000000E+00 0. -1.
         11    1    3    3    0    0 -0.14096290796E+01  0.15956600143E+01 -0.17849632306E+01  0.27783590515E+01  0.51100000000E-03 0. -1.
        -11    1    3    3    0    0  0.16837398208E+02 -0.81546218695E+01  0.33526926703E+02  0.38393367274E+02  0.51100000000E-03 0.  1.
        -12    1    3    3    0    0 -0.50434648672E+01  0.27553102449E+01  0.73842910593E+01  0.93571377494E+01  0.00000000000E+00 0.  1.
</event>
<event>
 7    1  0.6073302E-013  0.5052895E+02  0.7816164E-02  0.1300438E+00
        -11   -1    0    0    0    0  0.00000000000E+00  0.00000000000E+00  0.45593999997E+02  0.45594000000E+02  0.51100000000E-03 0. -1.
         11   -1    0    0    0    0 -0.00000000000E+00 -0.00000000000E+00 -0.45593999997E+02  0.45594000000E+02  0.51100000000E-03 0.  1.
    9900012    2    1    2    0    0 -0.39769612289E+02 -0.81027421111E+01  0.24252812195E+01  0.50528948360E+02  0.30000269033E+02 0.  0.
         12    1    1    2    0    0  0.39769612289E+02  0.81027421111E+01 -0.24252812195E+01  0.40659051640E+02  0.00000000000E+00 0. -1.
         11    1    3    3    0    0  0.29778744077E+00 -0.10951155225E+01  0.98338218706E+00  0.15016644613E+01  0.51100000000E-03 0. -1.
        -11    1    3    3    0    0 -0.10848200276E+02  0.83728526462E+01  0.72454929233E+01  0.15501137978E+02  0.51100000000E-03 0.  1.
        -12    1    3    3    0    0 -0.29219199454E+02 -0.15380479235E+02 -0.58035938908E+01  0.33526145920E+02  0.00000000000E+00 0.  1.
</event>
<event>
 7    1  0.6073302E-013  0.5052883E+02  0.7816164E-02  0.1300439E+00
        -11   -1    0    0    0    0  0.00000000000E+00  0.00000000000E+00  0.45593999997E+02  0.45594000000E+02  0.51100000000E-03 0. -1.
         11   -1    0    0    0    0 -0.00000000000E+00 -0.00000000000E+00 -0.45593999997E+02  0.45594000000E+02  0.51100000000E-03 0.  1.
    9900012    2    1    2    0    0 -0.16934901256E+02 -0.36847026573E+02  0.29451771221E+01  0.50528827405E+02  0.29999901380E+02 0.  0.
         12    1    1    2    0    0  0.16934901256E+02  0.36847026573E+02 -0.29451771221E+01  0.40659172595E+02  0.00000000000E+00 0. -1.
         11    1    3    3    0    0 -0.38412208284E+01 -0.13095314436E+02  0.13273016981E+02  0.19037206141E+02  0.51100000000E-03 0. -1.
        -11    1    3    3    0    0 -0.12084277907E+02 -0.22136222382E+02 -0.48367399645E+01  0.25679489240E+02  0.51100000000E-03 0.  1.
         12    1    3    3    0    0 -0.10094025200E+01 -0.16154897554E+01 -0.54910998949E+01  0.58121320230E+01  0.00000000000E+00 0. -1.
</event>
<event>
 7    1  0.6073302E-013  0.5052889E+02  0.7816164E-02  0.1300439E+00
        -11   -1    0    0    0    0  0.00000000000E+00  0.00000000000E+00  0.45593999997E+02  0.45594000000E+02  0.51100000000E-03 0.  1.
         11   -1    0    0    0    0 -0.00000000000E+00 -0.00000000000E+00 -0.45593999997E+02  0.45594000000E+02  0.51100000000E-03 0. -1.
    9900012    2    1    2    0    0 -0.31636662749E+02  0.18457216446E+02  0.17652640196E+02  0.50528893090E+02  0.30000101035E+02 0.  0.
         12    1    1    2    0    0  0.31636662749E+02 -0.18457216446E+02 -0.17652640196E+02  0.40659106910E+02  0.00000000000E+00 0. -1.
         11    1    3    3    0    0 -0.68701515722E+01  0.16440061653E+02 -0.27504386360E+01  0.18028852508E+02  0.51100000000E-03 0. -1.
        -11    1    3    3    0    0 -0.14953097834E+02  0.35042360594E+01  0.12917329830E+02  0.20068189141E+02  0.51100000000E-03 0.  1.
         12    1    3    3    0    0 -0.98134133433E+01 -0.14870812663E+01  0.74857490022E+01  0.12431851441E+02  0.00000000000E+00 0. -1.
</event>
<event>
 7    1  0.6073302E-013  0.5052886E+02  0.7816164E-02  0.1300439E+00
        -11   -1    0    0    0    0  0.00000000000E+00  0.00000000000E+00  0.45593999997E+02  0.45594000000E+02  0.51100000000E-03 0.  1.
         11   -1    0    0    0    0 -0.00000000000E+00 -0.00000000000E+00 -0.45593999997E+02  0.45594000000E+02  0.51100000000E-03 0. -1.
    9900012    2    1    2    0    0  0.14706973378E+02  0.25555039281E+02  0.27996623287E+02  0.50528855714E+02  0.29999987428E+02 0.  0.
         12    1    1    2    0    0 -0.14706973378E+02 -0.25555039281E+02 -0.27996623287E+02  0.40659144286E+02  0.00000000000E+00 0. -1.
         11    1    3    3    0    0  0.46924133553E+01 -0.46756741079E+01  0.95111071564E+01  0.11590592352E+02  0.51100000000E-03 0. -1.
        -11    1    3    3    0    0 -0.20477139174E+01  0.98985000277E+01  0.25399211269E+01  0.10422314267E+02  0.51100000000E-03 0.  1.
         12    1    3    3    0    0  0.12062273941E+02  0.20332213361E+02  0.15945595004E+02  0.28515949095E+02  0.00000000000E+00 0. -1.
</event>
<event>
 7    1  0.6073302E-013  0.5052886E+02  0.7816164E-02  0.1300439E+00
        -11   -1    0    0    0    0  0.00000000000E+00  0.00000000000E+00  0.45593999997E+02  0.45594000000E+02  0.51100000000E-03 0.  1.
         11   -1    0    0    0    0 -0.00000000000E+00 -0.00000000000E+00 -0.45593999997E+02  0.45594000000E+02  0.51100000000E-03 0. -1.
    9900012    2    1    2    0    0  0.53483848961E+01  0.21840922594E+02  0.33875279817E+02  0.50528859534E+02  0.29999999041E+02 0.  0.
         12    1    1    2    0    0 -0.53483848961E+01 -0.21840922594E+02 -0.33875279817E+02  0.40659140466E+02  0.00000000000E+00 0. -1.
         11    1    3    3    0    0 -0.75438431665E+01  0.14756337343E+02  0.18182662808E+02  0.24602200889E+02  0.51100000000E-03 0. -1.
        -11    1    3    3    0    0  0.14538103292E+02  0.92499903691E+01  0.15538049191E+02  0.23202365011E+02  0.51100000000E-03 0.  1.
         12    1    3    3    0    0 -0.16458752298E+01 -0.21654051182E+01  0.15456781677E+00  0.27242936347E+01  0.00000000000E+00 0. -1.
</event>
<event>
 7    1  0.6073302E-013  0.5052887E+02  0.7816164E-02  0.1300439E+00
        -11   -1    0    0    0    0  0.00000000000E+00  0.00000000000E+00  0.45593999997E+02  0.45594000000E+02  0.51100000000E-03 0.  1.
         11   -1    0    0    0    0 -0.00000000000E+00 -0.00000000000E+00 -0.45593999997E+02  0.45594000000E+02  0.51100000000E-03 0. -1.
    9900012    2    1    2    0    0  0.28595766011E+02  0.27838066712E+01  0.28769731248E+02  0.50528870036E+02  0.30000030962E+02 0.  0.
         12    1    1    2    0    0 -0.28595766011E+02 -0.27838066712E+01 -0.28769731248E+02  0.40659129964E+02  0.00000000000E+00 0. -1.
         11    1    3    3    0    0  0.10106519702E+02 -0.10907757478E+02  0.44081755981E+01  0.15509768730E+02  0.51100000000E-03 0. -1.
        -11    1    3    3    0    0  0.63062010787E+01  0.39699703432E+01  0.15228599023E+02  0.16954027989E+02  0.51100000000E-03 0.  1.
         12    1    3    3    0    0  0.12183045230E+02  0.97215938064E+01  0.91329566265E+01  0.18065073317E+02  0.00000000000E+00 0. -1.
</event>
<event>
 7    1  0.6073302E-013  0.5052894E+02  0.7816164E-02  0.1300439E+00
        -11   -1    0    0    0    0  0.00000000000E+00  0.00000000000E+00  0.45593999997E+02  0.45594000000E+02  0.51100000000E-03 0. -1.
         11   -1    0    0    0    0 -0.00000000000E+00 -0.00000000000E+00 -0.45593999997E+02  0.45594000000E+02  0.51100000000E-03 0.  1.
    9900012    2    1    2    0    0 -0.37306880548E+02  0.76892483057E+01 -0.14220796783E+02  0.50528942744E+02  0.30000251965E+02 0.  0.
         12    1    1    2    0    0  0.37306880548E+02 -0.76892483057E+01  0.14220796783E+02  0.40659057256E+02  0.00000000000E+00 0. -1.
         11    1    3    3    0    0  0.34393418754E+01 -0.92653497088E+00 -0.29788571487E+01  0.46433963606E+01  0.51100000000E-03 0. -1.
        -11    1    3    3    0    0 -0.36184998165E+02  0.12345773042E+02 -0.11679167425E+02  0.39977182945E+02  0.51100000000E-03 0.  1.
        -12    1    3    3    0    0 -0.45612242586E+01 -0.37299897650E+01  0.43722779025E+00  0.59083634388E+01  0.00000000000E+00 0.  1.
</event>
<event>
 7    1  0.6073302E-013  0.5052885E+02  0.7816164E-02  0.1300439E+00
        -11   -1    0    0    0    0  0.00000000000E+00  0.00000000000E+00  0.45593999997E+02  0.45594000000E+02  0.51100000000E-03 0.  1.
         11   -1    0    0    0    0 -0.00000000000E+00 -0.00000000000E+00 -0.45593999997E+02  0.45594000000E+02  0.51100000000E-03 0. -1.
    9900012    2    1    2    0    0  0.17349530783E+02 -0.27959862056E+02  0.23883180091E+02  0.50528851019E+02  0.29999973158E+02 0.  0.
         12    1    1    2    0    0 -0.17349530783E+02  0.27959862056E+02 -0.23883180091E+02  0.40659148981E+02  0.00000000000E+00 0. -1.
         11    1    3    3    0    0 -0.26787342371E+01 -0.16323245778E+02  0.19175060752E+01  0.16652351175E+02  0.51100000000E-03 0. -1.
        -11    1    3    3    0    0  0.52088450238E+01 -0.66795131746E+01  0.13934463045E+02  0.16306968552E+02  0.51100000000E-03 0.  1.
         12    1    3    3    0    0  0.14819419996E+02 -0.49571031035E+01  0.80312109709E+01  0.17569531293E+02  0.00000000000E+00 0. -1.
</event>
<event>
 7    1  0.6073302E-013  0.5052884E+02  0.7816164E-02  0.1300439E+00
        -11   -1    0    0    0    0  0.00000000000E+00  0.00000000000E+00  0.45593999997E+02  0.45594000000E+02  0.51100000000E-03 0. -1.
         11   -1    0    0    0    0 -0.00000000000E+00 -0.00000000000E+00 -0.45593999997E+02  0.45594000000E+02  0.51100000000E-03 0.  1.
    9900012    2    1    2    0    0  0.15353262968E+02 -0.29307084636E+02 -0.23633432476E+02  0.50528843292E+02  0.29999949670E+02 0.  0.
         12    1    1    2    0    0 -0.15353262968E+02  0.29307084636E+02  0.23633432476E+02  0.40659156708E+02  0.00000000000E+00 0. -1.
         11    1    3    3    0    0  0.90758371956E+00  0.18505059678E+01  0.86725986424E+00  0.22361172774E+01  0.51100000000E-03 0. -1.
        -11    1    3    3    0    0  0.75161104343E+01 -0.33144698928E+02 -0.17430152111E+02  0.38195198467E+02  0.51100000000E-03 0.  1.
        -12    1    3    3    0    0  0.69295688142E+01  0.19871083239E+01 -0.70705402290E+01  0.10097527547E+02  0.00000000000E+00 0.  1.
</event>
<event>
 7    1  0.6073302E-013  0.5052878E+02  0.7816164E-02  0.1300439E+00
        -11   -1    0    0    0    0  0.00000000000E+00  0.00000000000E+00  0.45593999997E+02  0.45594000000E+02  0.51100000000E-03 0. -1.
         11   -1    0    0    0    0 -0.00000000000E+00 -0.00000000000E+00 -0.45593999997E+02  0.45594000000E+02  0.51100000000E-03 0.  1.
    9900012    2    1    2    0    0  0.38818451379E+02  0.76491048744E+01 -0.93696790005E+01  0.50528783856E+02  0.29999769009E+02 0.  0.
         12    1    1    2    0    0 -0.38818451379E+02 -0.76491048744E+01  0.93696790005E+01  0.40659216144E+02  0.00000000000E+00 0. -1.
         11    1    3    3    0    0  0.87098788769E+01  0.10018884453E+02 -0.37165059452E+01  0.13785951271E+02  0.51100000000E-03 0. -1.
        -11    1    3    3    0    0  0.27327100475E+02 -0.92190414566E+01 -0.54298471794E+01  0.29346965540E+02  0.51100000000E-03 0.  1.
        -12    1    3    3    0    0  0.27814720272E+01  0.68492618777E+01 -0.22332587581E+00  0.73958670455E+01  0.00000000000E+00 0.  1.
</event>
<event>
 7    1  0.6073302E-013  0.5052887E+02  0.7816164E-02  0.1300439E+00
        -11   -1    0    0    0    0  0.00000000000E+00  0.00000000000E+00  0.45593999997E+02  0.45594000000E+02  0.51100000000E-03 0. -1.
         11   -1    0    0    0    0 -0.00000000000E+00 -0.00000000000E+00 -0.45593999997E+02  0.45594000000E+02  0.51100000000E-03 0.  1.
    9900012    2    1    2    0    0 -0.15113407396E+02  0.16663662024E+02 -0.33868458497E+02  0.50528865772E+02  0.30000018002E+02 0.  0.
         12    1    1    2    0    0  0.15113407396E+02 -0.16663662024E+02  0.33868458497E+02  0.40659134228E+02  0.00000000000E+00 0. -1.
         11    1    3    3    0    0  0.10460919796E+01 -0.16825650899E+01 -0.47345832704E+00  0.20370313596E+01  0.51100000000E-03 0. -1.
        -11    1    3    3    0    0 -0.17126196721E+02  0.15508117957E+02 -0.37112059824E+02  0.43716282108E+02  0.51100000000E-03 0.  1.
        -12    1    3    3    0    0  0.96669734532E+00  0.28381091570E+01  0.37170596540E+01  0.47755523048E+01  0.00000000000E+00 0.  1.
</event>
<event>
 7    1  0.6073302E-013  0.5052885E+02  0.7816164E-02  0.1300439E+00
        -11   -1    0    0    0    0  0.00000000000E+00  0.00000000000E+00  0.45593999997E+02  0.45594000000E+02  0.51100000000E-03 0.  1.
         11   -1    0    0    0    0 -0.00000000000E+00 -0.00000000000E+00 -0.45593999997E+02  0.45594000000E+02  0.51100000000E-03 0. -1.
    9900012    2    1    2    0    0 -0.29069834286E+02  0.12643266991E+02  0.25460935499E+02  0.50528847253E+02  0.29999961710E+02 0.  0.
         12    1    1    2    0    0  0.29069834286E+02 -0.12643266991E+02 -0.25460935499E+02  0.40659152747E+02  0.00000000000E+00 0. -1.
         11    1    3    3    0    0 -0.35455510966E+01  0.23879649840E+01  0.92141569241E+01  0.10157460186E+02  0.51100000000E-03 0. -1.
        -11    1    3    3    0    0 -0.59187198630E+01  0.74465574588E+01 -0.54753402316E+01  0.10975509725E+02  0.51100000000E-03 0.  1.
        -12    1    3    3    0    0 -0.19605563327E+02  0.28087445478E+01  0.21722118807E+02  0.29395877343E+02  0.00000000000E+00 0.  1.
</event>
<event>
 7    1  0.6073302E-013  0.5052890E+02  0.7816164E-02  0.1300439E+00
        -11   -1    0    0    0    0  0.00000000000E+00  0.00000000000E+00  0.45593999997E+02  0.45594000000E+02  0.51100000000E-03 0.  1.
         11   -1    0    0    0    0 -0.00000000000E+00 -0.00000000000E+00 -0.45593999997E+02  0.45594000000E+02  0.51100000000E-03 0. -1.
    9900012    2    1    2    0    0 -0.10355462575E+02 -0.10576858281E+02  0.37868945022E+02  0.50528898518E+02  0.30000117535E+02 0.  0.
         12    1    1    2    0    0  0.10355462575E+02  0.10576858281E+02 -0.37868945022E+02  0.40659101482E+02  0.00000000000E+00 0. -1.
         11    1    3    3    0    0  0.92231174538E+01 -0.70424805764E+01  0.14669896157E+02  0.18704766285E+02  0.51100000000E-03 0. -1.
        -11    1    3    3    0    0 -0.93291408382E+01 -0.21260156226E+01  0.17668288226E+02  0.20092815142E+02  0.51100000000E-03 0.  1.
         12    1    3    3    0    0 -0.10249439190E+02 -0.14083620821E+01  0.55307606382E+01  0.11731317092E+02  0.00000000000E+00 0. -1.
</event>
<event>
 7    1  0.6073302E-013  0.5052886E+02  0.7816164E-02  0.1300439E+00
        -11   -1    0    0    0    0  0.00000000000E+00  0.00000000000E+00  0.45593999997E+02  0.45594000000E+02  0.51100000000E-03 0.  1.
         11   -1    0    0    0    0 -0.00000000000E+00 -0.00000000000E+00 -0.45593999997E+02  0.45594000000E+02  0.51100000000E-03 0. -1.
    9900012    2    1    2    0    0  0.31136556523E+02 -0.17103809738E+02 -0.19777260200E+02  0.50528862273E+02  0.30000007365E+02 0.  0.
         12    1    1    2    0    0 -0.31136556523E+02  0.17103809738E+02  0.19777260200E+02  0.40659137727E+02  0.00000000000E+00 0. -1.
         11    1    3    3    0    0  0.27722675779E+02 -0.59506357122E+01 -0.16767311312E+02  0.32940849209E+02  0.51100000000E-03 0. -1.
        -11    1    3    3    0    0  0.64201342415E+01 -0.12454425706E+02 -0.29094098259E+01  0.14310678151E+02  0.51100000000E-03 0.  1.
         12    1    3    3    0    0 -0.30062534976E+01  0.13012516805E+01 -0.10053906245E+00  0.32773349128E+01  0.00000000000E+00 0. -1.
</event>
<event>
 7    1  0.6073302E-013  0.5052886E+02  0.7816164E-02  0.1300439E+00
        -11   -1    0    0    0    0  0.00000000000E+00  0.00000000000E+00  0.45593999997E+02  0.45594000000E+02  0.51100000000E-03 0.  1.
         11   -1    0    0    0    0 -0.00000000000E+00 -0.00000000000E+00 -0.45593999997E+02  0.45594000000E+02  0.51100000000E-03 0. -1.
    9900012    2    1    2    0    0  0.10815353540E+02  0.45551051394E-01  0.39194283993E+02  0.50528857795E+02  0.29999993753E+02 0.  0.
         12    1    1    2    0    0 -0.10815353540E+02 -0.45551051394E-01 -0.39194283993E+02  0.40659142205E+02  0.00000000000E+00 0. -1.
         11    1    3    3    0    0  0.23051077652E+01 -0.97971186180E+01  0.21240692248E+02  0.23504554079E+02  0.51100000000E-03 0. -1.
        -11    1    3    3    0    0  0.10494967865E+02  0.11754886443E+02  0.10139663016E+02  0.18738582447E+02  0.51100000000E-03 0.  1.
        -12    1    3    3    0    0 -0.19847220898E+01 -0.19122167736E+01  0.78139287288E+01  0.82857212687E+01  0.00000000000E+00 0.  1.
</event>
<event>
 7    1  0.6073302E-013  0.5052886E+02  0.7816164E-02  0.1300439E+00
        -11   -1    0    0    0    0  0.00000000000E+00  0.00000000000E+00  0.45593999997E+02  0.45594000000E+02  0.51100000000E-03 0.  1.
         11   -1    0    0    0    0 -0.00000000000E+00 -0.00000000000E+00 -0.45593999997E+02  0.45594000000E+02  0.51100000000E-03 0. -1.
    9900012    2    1    2    0    0  0.73570722429E+01 -0.10137245443E+02  0.38681714301E+02  0.50528864761E+02  0.30000014927E+02 0.  0.
         12    1    1    2    0    0 -0.73570722429E+01  0.10137245443E+02 -0.38681714301E+02  0.40659135239E+02  0.00000000000E+00 0. -1.
         11    1    3    3    0    0 -0.62647701151E+01  0.59294535359E+01  0.50912016020E+01  0.10016291621E+02  0.51100000000E-03 0. -1.
        -11    1    3    3    0    0  0.29851132556E+01 -0.81946243427E+01  0.18428571966E+02  0.20388110119E+02  0.51100000000E-03 0.  1.
         12    1    3    3    0    0  0.10636729102E+02 -0.78720746359E+01  0.15161940733E+02  0.20124463020E+02  0.00000000000E+00 0. -1.
</event>
<event>
 7    1  0.6073302E-013  0.5052886E+02  0.7816164E-02  0.1300439E+00
        -11   -1    0    0    0    0  0.00000000000E+00  0.00000000000E+00  0.45593999997E+02  0.45594000000E+02  0.51100000000E-03 0.  1.
         11   -1    0    0    0    0 -0.00000000000E+00 -0.00000000000E+00 -0.45593999997E+02  0.45594000000E+02  0.51100000000E-03 0. -1.
    9900012    2    1    2    0    0  0.18652922280E+01  0.30889591115E+02  0.26372700621E+02  0.50528862130E+02  0.30000006929E+02 0.  0.
         12    1    1    2    0    0 -0.18652922280E+01 -0.30889591115E+02 -0.26372700621E+02  0.40659137870E+02  0.00000000000E+00 0. -1.
         11    1    3    3    0    0 -0.14563153724E+01 -0.31946292873E+01  0.46794461542E+01  0.58501048981E+01  0.51100000000E-03 0. -1.
        -11    1    3    3    0    0  0.45043646397E+01  0.36026506998E+02  0.18472601407E+02  0.40736169558E+02  0.51100000000E-03 0.  1.
        -12    1    3    3    0    0 -0.11827570392E+01 -0.19422865957E+01  0.32206530592E+01  0.39425876733E+01  0.00000000000E+00 0.  1.
</event>
<event>
 7    1  0.6073302E-013  0.5052886E+02  0.7816164E-02  0.1300439E+00
        -11   -1    0    0    0    0  0.00000000000E+00  0.00000000000E+00  0.45593999997E+02  0.45594000000E+02  0.51100000000E-03 0. -1.
         11   -1    0    0    0    0 -0.00000000000E+00 -0.00000000000E+00 -0.45593999997E+02  0.45594000000E+02  0.51100000000E-03 0.  1.
    9900012    2    1    2    0    0  0.30877960410E+02 -0.23308911596E+02  0.12506471337E+02  0.50528860508E+02  0.30000002001E+02 0.  0.
         12    1    1    2    0    0 -0.30877960410E+02  0.23308911596E+02 -0.12506471337E+02  0.40659139492E+02  0.00000000000E+00 0. -1.
         11    1    3    3    0    0 -0.13323746814E+01 -0.49606892326E+01 -0.11971208857E+00  0.51378975466E+01  0.51100000000E-03 0. -1.
        -11    1    3    3    0    0  0.14929826166E+02 -0.38171156720E+01  0.16395165546E+02  0.22500478549E+02  0.51100000000E-03 0.  1.
        -12    1    3    3    0    0  0.17280508926E+02 -0.14531106692E+02 -0.37689821206E+01  0.22890484412E+02  0.00000000000E+00 0.  1.
</event>
<event>
 7    1  0.6073302E-013  0.5052887E+02  0.7816164E-02  0.1300439E+00
        -11   -1    0    0    0    0  0.00000000000E+00  0.00000000000E+00  0.45593999997E+02  0.45594000000E+02  0.51100000000E-03 0. -1.
         11   -1    0    0    0    0 -0.00000000000E+00 -0.00000000000E+00 -0.45593999997E+02  0.45594000000E+02  0.51100000000E-03 0.  1.
    9900012    2    1    2    0    0 -0.30616653270E+02 -0.48613020868E+00 -0.26749755671E+02  0.50528865620E+02  0.30000017540E+02 0.  0.
         12    1    1    2    0    0  0.30616653270E+02  0.48613020868E+00  0.26749755671E+02  0.40659134380E+02  0.00000000000E+00 0. -1.
         11    1    3    3    0    0 -0.42531829623E+01 -0.47012018136E+01 -0.59864390584E+01  0.87194218079E+01  0.51100000000E-03 0. -1.
        -11    1    3    3    0    0 -0.35360970355E+01  0.10208172011E+02 -0.68796561284E+00  0.10825158428E+02  0.51100000000E-03 0.  1.
        -12    1    3    3    0    0 -0.22827373272E+02 -0.59931004063E+01 -0.20075351000E+02  0.30984285384E+02  0.00000000000E+00 0.  1.
</event>
<event>
 7    1  0.6073302E-013  0.5052892E+02  0.7816164E-02  0.1300439E+00
        -11   -1    0    0    0    0  0.00000000000E+00  0.00000000000E+00  0.45593999997E+02  0.45594000000E+02  0.51100000000E-03 0.  1.
         11   -1    0    0    0    0 -0.00000000000E+00 -0.00000000000E+00 -0.45593999997E+02  0.45594000000E+02  0.51100000000E-03 0. -1.
    9900012    2    1    2    0    0  0.91701326094E+01  0.39249188230E+02 -0.53451698353E+01  0.50528917997E+02  0.30000176743E+02 0.  0.
         12    1    1    2    0    0 -0.91701326094E+01 -0.39249188230E+02  0.53451698353E+01  0.40659082003E+02  0.00000000000E+00 0. -1.
         11    1    3    3    0    0  0.16872912586E+02  0.28215053591E+02 -0.78049137422E+01  0.33789067864E+02  0.51100000000E-03 0. -1.
        -11    1    3    3    0    0 -0.43804852780E+01 -0.35626503237E+00  0.20962053569E+01  0.48692559188E+01  0.51100000000E-03 0.  1.
         12    1    3    3    0    0 -0.33222946989E+01  0.11390399671E+02  0.36353855000E+00  0.11870594214E+02  0.00000000000E+00 0. -1.
</event>
<event>
 7    1  0.6073302E-013  0.5052886E+02  0.7816164E-02  0.1300439E+00
        -11   -1    0    0    0    0  0.00000000000E+00  0.00000000000E+00  0.45593999997E+02  0.45594000000E+02  0.51100000000E-03 0. -1.
         11   -1    0    0    0    0 -0.00000000000E+00 -0.00000000000E+00 -0.45593999997E+02  0.45594000000E+02  0.51100000000E-03 0.  1.
    9900012    2    1    2    0    0 -0.15263933435E+02  0.97886781464E+01 -0.36391756180E+02  0.50528858326E+02  0.29999995369E+02 0.  0.
         12    1    1    2    0    0  0.15263933435E+02 -0.97886781464E+01  0.36391756180E+02  0.40659141674E+02  0.00000000000E+00 0. -1.
         11    1    3    3    0    0 -0.16918345431E+02  0.29890126840E+01 -0.26436245240E+02  0.31528394688E+02  0.51100000000E-03 0.  1.
        -11    1    3    3    0    0  0.58148659976E+01  0.26128124978E+01  0.10989096343E+01  0.64689302334E+01  0.51100000000E-03 0. -1.
         12    1    3    3    0    0 -0.41604540010E+01  0.41868529646E+01 -0.11054420574E+02  0.12531533405E+02  0.00000000000E+00 0. -1.
</event>
<event>
 7    1  0.6073302E-013  0.5052886E+02  0.7816164E-02  0.1300439E+00
        -11   -1    0    0    0    0  0.00000000000E+00  0.00000000000E+00  0.45593999997E+02  0.45594000000E+02  0.51100000000E-03 0.  1.
         11   -1    0    0    0    0 -0.00000000000E+00 -0.00000000000E+00 -0.45593999997E+02  0.45594000000E+02  0.51100000000E-03 0. -1.
    9900012    2    1    2    0    0  0.26914915188E+02 -0.21614411319E+02  0.21484176340E+02  0.50528864873E+02  0.30000015269E+02 0.  0.
         12    1    1    2    0    0 -0.26914915188E+02  0.21614411319E+02 -0.21484176340E+02  0.40659135127E+02  0.00000000000E+00 0. -1.
         11    1    3    3    0    0  0.11602764157E+02 -0.17629369419E+01  0.10564669221E+02  0.15790640226E+02  0.51100000000E-03 0. -1.
        -11    1    3    3    0    0  0.66066853107E+01 -0.50699263536E+01 -0.62921450450E+01  0.10437601906E+02  0.51100000000E-03 0.  1.
        -12    1    3    3    0    0  0.87054657207E+01 -0.14781548024E+02  0.17211652164E+02  0.24300622741E+02  0.00000000000E+00 0.  1.
</event>
<event>
 7    1  0.6073302E-013  0.5052886E+02  0.7816164E-02  0.1300439E+00
        -11   -1    0    0    0    0  0.00000000000E+00  0.00000000000E+00  0.45593999997E+02  0.45594000000E+02  0.51100000000E-03 0. -1.
         11   -1    0    0    0    0 -0.00000000000E+00 -0.00000000000E+00 -0.45593999997E+02  0.45594000000E+02  0.51100000000E-03 0.  1.
    9900012    2    1    2    0    0 -0.36567551698E+02 -0.17755659901E+02  0.84641126732E+00  0.50528859481E+02  0.29999998878E+02 0.  0.
         12    1    1    2    0    0  0.36567551698E+02  0.17755659901E+02 -0.84641126732E+00  0.40659140519E+02  0.00000000000E+00 0. -1.
         11    1    3    3    0    0 -0.21851322395E+02 -0.12641887132E+02  0.14171069136E+02  0.28950247000E+02  0.51100000000E-03 0. -1.
        -11    1    3    3    0    0 -0.46916887419E+01  0.31325766774E+00 -0.73049761934E+01  0.86875054569E+01  0.51100000000E-03 0.  1.
         12    1    3    3    0    0 -0.10024540561E+02 -0.54270304368E+01 -0.60196816752E+01  0.12891107024E+02  0.00000000000E+00 0. -1.
</event>
<event>
 7    1  0.6073302E-013  0.5052880E+02  0.7816164E-02  0.1300439E+00
        -11   -1    0    0    0    0  0.00000000000E+00  0.00000000000E+00  0.45593999997E+02  0.45594000000E+02  0.51100000000E-03 0.  1.
         11   -1    0    0    0    0 -0.00000000000E+00 -0.00000000000E+00 -0.45593999997E+02  0.45594000000E+02  0.51100000000E-03 0. -1.
    9900012    2    1    2    0    0  0.14029666911E+02  0.37689580199E+02 -0.59862122554E+01  0.50528797519E+02  0.29999810539E+02 0.  0.
         12    1    1    2    0    0 -0.14029666911E+02 -0.37689580199E+02  0.59862122554E+01  0.40659202481E+02  0.00000000000E+00 0. -1.
         11    1    3    3    0    0  0.59199301764E+01  0.11095046840E+02 -0.11311717486E+02  0.16914508282E+02  0.51100000000E-03 0. -1.
        -11    1    3    3    0    0 -0.16574397064E+01  0.18717002358E+02  0.85718990090E+01  0.20653104767E+02  0.51100000000E-03 0.  1.
         12    1    3    3    0    0  0.97671764414E+01  0.78775310004E+01 -0.32463937781E+01  0.12961184470E+02  0.00000000000E+00 0. -1.
</event>
<event>
 7    1  0.6073302E-013  0.5052886E+02  0.7816164E-02  0.1300439E+00
        -11   -1    0    0    0    0  0.00000000000E+00  0.00000000000E+00  0.45593999997E+02  0.45594000000E+02  0.51100000000E-03 0. -1.
         11   -1    0    0    0    0 -0.00000000000E+00 -0.00000000000E+00 -0.45593999997E+02  0.45594000000E+02  0.51100000000E-03 0.  1.
    9900012    2    1    2    0    0  0.38754047627E+02 -0.12458943344E+01  0.12236715477E+02  0.50528859997E+02  0.30000000446E+02 0.  0.
         12    1    1    2    0    0 -0.38754047627E+02  0.12458943344E+01 -0.12236715477E+02  0.40659140003E+02  0.00000000000E+00 0. -1.
         11    1    3    3    0    0  0.37270281666E+01  0.46179121795E+01 -0.11663973621E+01  0.60478372101E+01  0.51100000000E-03 0. -1.
        -11    1    3    3    0    0  0.36144217058E+02 -0.77006451527E+01  0.68508762090E+01  0.37585088367E+02  0.51100000000E-03 0.  1.
        -12    1    3    3    0    0 -0.11171975974E+01  0.18368386388E+01  0.65522366303E+01  0.68959344193E+01  0.00000000000E+00 0.  1.
</event>
<event>
 7    1  0.6073302E-013  0.5052887E+02  0.7816164E-02  0.1300439E+00
        -11   -1    0    0    0    0  0.00000000000E+00  0.00000000000E+00  0.45593999997E+02  0.45594000000E+02  0.51100000000E-03 0. -1.
         11   -1    0    0    0    0 -0.00000000000E+00 -0.00000000000E+00 -0.45593999997E+02  0.45594000000E+02  0.51100000000E-03 0.  1.
    9900012    2    1    2    0    0 -0.38089017310E+02  0.13905627384E+02  0.30042488590E+01  0.50528865433E+02  0.30000016969E+02 0.  0.
         12    1    1    2    0    0  0.38089017310E+02 -0.13905627384E+02 -0.30042488590E+01  0.40659134567E+02  0.00000000000E+00 0. -1.
         11    1    3    3    0    0 -0.10003387671E+01 -0.44170262010E+01  0.66865201978E+01  0.80759117582E+01  0.51100000000E-03 0. -1.
        -11    1    3    3    0    0 -0.27050631960E+02  0.90911766799E+01 -0.39706534009E+01  0.28812363172E+02  0.51100000000E-03 0.  1.
         12    1    3    3    0    0 -0.10038046583E+02  0.92314769048E+01  0.28838206208E+00  0.13640590503E+02  0.00000000000E+00 0. -1.
</event>
<event>
 7    1  0.6073302E-013  0.5052886E+02  0.7816164E-02  0.1300439E+00
        -11   -1    0    0    0    0  0.00000000000E+00  0.00000000000E+00  0.45593999997E+02  0.45594000000E+02  0.51100000000E-03 0.  1.
         11   -1    0    0    0    0 -0.00000000000E+00 -0.00000000000E+00 -0.45593999997E+02  0.45594000000E+02  0.51100000000E-03 0. -1.
    9900012    2    1    2    0    0 -0.39672753639E+02  0.88371534518E+01  0.10690155593E+01  0.50528862568E+02  0.30000008263E+02 0.  0.
         12    1    1    2    0    0  0.39672753639E+02 -0.88371534518E+01 -0.10690155593E+01  0.40659137432E+02  0.00000000000E+00 0. -1.
         11    1    3    3    0    0 -0.32478721395E+01 -0.46138802472E+01 -0.31368549484E+01  0.64557279681E+01  0.51100000000E-03 0. -1.
        -11    1    3    3    0    0 -0.27979869328E+02  0.16939850987E+02 -0.24027809238E+01  0.32796417418E+02  0.51100000000E-03 0.  1.
         12    1    3    3    0    0 -0.84450121718E+01 -0.34888172884E+01  0.66086514315E+01  0.11276717182E+02  0.00000000000E+00 0. -1.
</event>
<event>
 7    1  0.6073302E-013  0.5052888E+02  0.7816164E-02  0.1300439E+00
        -11   -1    0    0    0    0  0.00000000000E+00  0.00000000000E+00  0.45593999997E+02  0.45594000000E+02  0.51100000000E-03 0. -1.
         11   -1    0    0    0    0 -0.00000000000E+00 -0.00000000000E+00 -0.45593999997E+02  0.45594000000E+02  0.51100000000E-03 0.  1.
    9900012    2    1    2    0    0 -0.13205954246E+02 -0.28369726101E+02  0.25960079883E+02  0.50528876373E+02  0.30000050223E+02 0.  0.
         12    1    1    2    0    0  0.13205954246E+02  0.28369726101E+02 -0.25960079883E+02  0.40659123627E+02  0.00000000000E+00 0. -1.
         11    1    3    3    0    0 -0.15721448517E+02 -0.66590519922E+01  0.60630948675E+01  0.18118168686E+02  0.51100000000E-03 0.  1.
        -11    1    3    3    0    0  0.62654572622E+01 -0.72300205828E+01  0.34282719474E+01  0.10162785107E+02  0.51100000000E-03 0. -1.
        -12    1    3    3    0    0 -0.37499629915E+01 -0.14480653526E+02  0.16468713068E+02  0.22247922579E+02  0.00000000000E+00 0.  1.
</event>
<event>
 7    1  0.6073302E-013  0.5052886E+02  0.7816164E-02  0.1300439E+00
        -11   -1    0    0    0    0  0.00000000000E+00  0.00000000000E+00  0.45593999997E+02  0.45594000000E+02  0.51100000000E-03 0. -1.
         11   -1    0    0    0    0 -0.00000000000E+00 -0.00000000000E+00 -0.45593999997E+02  0.45594000000E+02  0.51100000000E-03 0.  1.
    9900012    2    1    2    0    0 -0.30150184121E+02 -0.20684870657E+02 -0.17783920331E+02  0.50528864508E+02  0.30000014158E+02 0.  0.
         12    1    1    2    0    0  0.30150184121E+02  0.20684870657E+02  0.17783920331E+02  0.40659135492E+02  0.00000000000E+00 0. -1.
         11    1    3    3    0    0 -0.46055143253E+01 -0.10051612603E+02  0.30561249069E+01  0.11471075705E+02  0.51100000000E-03 0. -1.
        -11    1    3    3    0    0 -0.14383202335E+02 -0.96115667059E+01 -0.21775566883E+02  0.27810682071E+02  0.51100000000E-03 0.  1.
        -12    1    3    3    0    0 -0.11161467460E+02 -0.10216913486E+01  0.93552164496E+00  0.11247106732E+02  0.00000000000E+00 0.  1.
</event>
<event>
 7    1  0.6073302E-013  0.5052886E+02  0.7816164E-02  0.1300439E+00
        -11   -1    0    0    0    0  0.00000000000E+00  0.00000000000E+00  0.45593999997E+02  0.45594000000E+02  0.51100000000E-03 0.  1.
         11   -1    0    0    0    0 -0.00000000000E+00 -0.00000000000E+00 -0.45593999997E+02  0.45594000000E+02  0.51100000000E-03 0. -1.
    9900012    2    1    2    0    0  0.27782704696E+02 -0.18200744321E+02  0.23452502798E+02  0.50528860049E+02  0.30000000605E+02 0.  0.
         12    1    1    2    0    0 -0.27782704696E+02  0.18200744321E+02 -0.23452502798E+02  0.40659139951E+02  0.00000000000E+00 0. -1.
         11    1    3    3    0    0  0.11050356957E+02  0.17956430546E+01  0.16411667841E+02  0.19866493511E+02  0.51100000000E-03 0. -1.
        -11    1    3    3    0    0  0.17904047511E+02 -0.20206634434E+02  0.38674689870E+01  0.27273069300E+02  0.51100000000E-03 0.  1.
        -12    1    3    3    0    0 -0.11716997722E+01  0.21024705831E+00  0.31733659702E+01  0.33892972372E+01  0.00000000000E+00 0.  1.
</event>
<event>
 7    1  0.6073302E-013  0.5052886E+02  0.7816164E-02  0.1300439E+00
        -11   -1    0    0    0    0  0.00000000000E+00  0.00000000000E+00  0.45593999997E+02  0.45594000000E+02  0.51100000000E-03 0.  1.
         11   -1    0    0    0    0 -0.00000000000E+00 -0.00000000000E+00 -0.45593999997E+02  0.45594000000E+02  0.51100000000E-03 0. -1.
    9900012    2    1    2    0    0 -0.31130643599E+02  0.13378789940E+02  0.22473463550E+02  0.50528861358E+02  0.30000004585E+02 0.  0.
         12    1    1    2    0    0  0.31130643599E+02 -0.13378789940E+02 -0.22473463550E+02  0.40659138642E+02  0.00000000000E+00 0. -1.
         11    1    3    3    0    0 -0.13369860391E+02  0.16047769467E+02  0.24184539372E+02  0.31955844796E+02  0.51100000000E-03 0.  1.
        -11    1    3    3    0    0 -0.10533269151E+02 -0.33134398552E+01 -0.23477189503E+01  0.11288951555E+02  0.51100000000E-03 0. -1.
        -12    1    3    3    0    0 -0.72275140574E+01  0.64446032845E+00  0.63664312819E+00  0.72840650078E+01  0.00000000000E+00 0.  1.
</event>
<event>
 7    1  0.6073302E-013  0.5052886E+02  0.7816164E-02  0.1300439E+00
        -11   -1    0    0    0    0  0.00000000000E+00  0.00000000000E+00  0.45593999997E+02  0.45594000000E+02  0.51100000000E-03 0. -1.
         11   -1    0    0    0    0 -0.00000000000E+00 -0.00000000000E+00 -0.45593999997E+02  0.45594000000E+02  0.51100000000E-03 0.  1.
    9900012    2    1    2    0    0  0.16336722892E+02  0.41370545459E+00 -0.37230446946E+02  0.50528857770E+02  0.29999993678E+02 0.  0.
         12    1    1    2    0    0 -0.16336722892E+02 -0.41370545459E+00  0.37230446946E+02  0.40659142230E+02  0.00000000000E+00 0. -1.
         11    1    3    3    0    0 -0.54843750592E+01 -0.55682708016E+01 -0.13790002257E+02  0.15850809822E+02  0.51100000000E-03 0. -1.
        -11    1    3    3    0    0  0.16711603676E+02 -0.93303053556E+00 -0.17575448288E+02  0.24270241577E+02  0.51100000000E-03 0.  1.
         12    1    3    3    0    0  0.51094942753E+01  0.69150067918E+01 -0.58649964010E+01  0.10407806371E+02  0.00000000000E+00 0. -1.
</event>
<event>
 7    1  0.6073302E-013  0.5052886E+02  0.7816164E-02  0.1300439E+00
        -11   -1    0    0    0    0  0.00000000000E+00  0.00000000000E+00  0.45593999997E+02  0.45594000000E+02  0.51100000000E-03 0. -1.
         11   -1    0    0    0    0 -0.00000000000E+00 -0.00000000000E+00 -0.45593999997E+02  0.45594000000E+02  0.51100000000E-03 0.  1.
    9900012    2    1    2    0    0  0.23043028542E+02 -0.74966152930E+01 -0.32649426097E+02  0.50528862900E+02  0.30000009272E+02 0.  0.
         12    1    1    2    0    0 -0.23043028542E+02  0.74966152930E+01  0.32649426097E+02  0.40659137100E+02  0.00000000000E+00 0. -1.
         11    1    3    3    0    0  0.85212545304E+01  0.10068881466E+02 -0.63614922248E+01  0.14644546300E+02  0.51100000000E-03 0. -1.
        -11    1    3    3    0    0  0.49903786262E+00 -0.23425990293E+01 -0.77056044387E+01  0.80692719019E+01  0.51100000000E-03 0.  1.
         12    1    3    3    0    0  0.14022736149E+02 -0.15222897730E+02 -0.18582329434E+02  0.27815044698E+02  0.00000000000E+00 0. -1.
</event>
<event>
 7    1  0.6073302E-013  0.5052893E+02  0.7816164E-02  0.1300439E+00
        -11   -1    0    0    0    0  0.00000000000E+00  0.00000000000E+00  0.45593999997E+02  0.45594000000E+02  0.51100000000E-03 0. -1.
         11   -1    0    0    0    0 -0.00000000000E+00 -0.00000000000E+00 -0.45593999997E+02  0.45594000000E+02  0.51100000000E-03 0.  1.
    9900012    2    1    2    0    0  0.40118903515E+01 -0.13697357814E+02 -0.38071608636E+02  0.50528926481E+02  0.30000202530E+02 0.  0.
         12    1    1    2    0    0 -0.40118903515E+01  0.13697357814E+02  0.38071608636E+02  0.40659073519E+02  0.00000000000E+00 0. -1.
         11    1    3    3    0    0 -0.24019170333E+01 -0.55234415338E+01 -0.18725704056E+01  0.63074663691E+01  0.51100000000E-03 0. -1.
        -11    1    3    3    0    0  0.11283306258E+02 -0.12375810606E+02 -0.33070187409E+02  0.37069003005E+02  0.51100000000E-03 0.  1.
        -12    1    3    3    0    0 -0.48694988731E+01  0.42018943254E+01 -0.31288508218E+01  0.71524571067E+01  0.00000000000E+00 0.  1.
</event>
<event>
 7    1  0.6073302E-013  0.5052886E+02  0.7816164E-02  0.1300439E+00
        -11   -1    0    0    0    0  0.00000000000E+00  0.00000000000E+00  0.45593999997E+02  0.45594000000E+02  0.51100000000E-03 0.  1.
         11   -1    0    0    0    0 -0.00000000000E+00 -0.00000000000E+00 -0.45593999997E+02  0.45594000000E+02  0.51100000000E-03 0. -1.
    9900012    2    1    2    0    0 -0.60041109491E+01 -0.38399276164E+02 -0.11942007118E+02  0.50528864591E+02  0.30000014410E+02 0.  0.
         12    1    1    2    0    0  0.60041109491E+01  0.38399276164E+02  0.11942007118E+02  0.40659135409E+02  0.00000000000E+00 0. -1.
         11    1    3    3    0    0  0.41457137227E+01 -0.12988320873E+01 -0.32457119541E+01  0.54229653707E+01  0.51100000000E-03 0. -1.
        -11    1    3    3    0    0 -0.15625640329E+02 -0.21673867868E+02 -0.32778813092E+00  0.26721239294E+02  0.51100000000E-03 0.  1.
        -12    1    3    3    0    0  0.54758156574E+01 -0.15426576209E+02 -0.83685070332E+01  0.18384659926E+02  0.00000000000E+00 0.  1.
</event>
<event>
 7    1  0.6073302E-013  0.5052886E+02  0.7816164E-02  0.1300439E+00
        -11   -1    0    0    0    0  0.00000000000E+00  0.00000000000E+00  0.45593999997E+02  0.45594000000E+02  0.51100000000E-03 0.  1.
         11   -1    0    0    0    0 -0.00000000000E+00 -0.00000000000E+00 -0.45593999997E+02  0.45594000000E+02  0.51100000000E-03 0. -1.
    9900012    2    1    2    0    0 -0.21908439255E+01 -0.27025770359E+02  0.30298084539E+02  0.50528856043E+02  0.29999988428E+02 0.  0.
         12    1    1    2    0    0  0.21908439255E+01  0.27025770359E+02 -0.30298084539E+02  0.40659143957E+02  0.00000000000E+00 0. -1.
         11    1    3    3    0    0 -0.45969653629E+01 -0.23550997139E+02  0.47473907098E+01  0.24460565725E+02  0.51100000000E-03 0. -1.
        -11    1    3    3    0    0  0.63348581013E+00 -0.30610175447E+01  0.19525609595E+02  0.19774239885E+02  0.51100000000E-03 0.  1.
         12    1    3    3    0    0  0.17726356273E+01 -0.41375567497E+00  0.60250842338E+01  0.62940504328E+01  0.00000000000E+00 0. -1.
</event>
<event>
 7    1  0.6073302E-013  0.5052886E+02  0.7816164E-02  0.1300439E+00
        -11   -1    0    0    0    0  0.00000000000E+00  0.00000000000E+00  0.45593999997E+02  0.45594000000E+02  0.51100000000E-03 0.  1.
         11   -1    0    0    0    0 -0.00000000000E+00 -0.00000000000E+00 -0.45593999997E+02  0.45594000000E+02  0.51100000000E-03 0. -1.
    9900012    2    1    2    0    0  0.23934040790E+02 -0.70788935063E+01  0.32096989005E+02  0.50528859023E+02  0.29999997486E+02 0.  0.
         12    1    1    2    0    0 -0.23934040790E+02  0.70788935063E+01 -0.32096989005E+02  0.40659140977E+02  0.00000000000E+00 0. -1.
         11    1    3    3    0    0 -0.31238253575E+01 -0.30523165013E+01 -0.28881373259E-01  0.43675800259E+01  0.51100000000E-03 0. -1.
        -11    1    3    3    0    0  0.12007600631E+02  0.69724360960E+01  0.18205149230E+02  0.22895955904E+02  0.51100000000E-03 0.  1.
         12    1    3    3    0    0  0.15050265517E+02 -0.10999013101E+02  0.13920721148E+02  0.23265323093E+02  0.00000000000E+00 0. -1.
</event>
<event>
 7    1  0.6073302E-013  0.5052886E+02  0.7816164E-02  0.1300439E+00
        -11   -1    0    0    0    0  0.00000000000E+00  0.00000000000E+00  0.45593999997E+02  0.45594000000E+02  0.51100000000E-03 0.  1.
         11   -1    0    0    0    0 -0.00000000000E+00 -0.00000000000E+00 -0.45593999997E+02  0.45594000000E+02  0.51100000000E-03 0. -1.
    9900012    2    1    2    0    0 -0.20088171194E+02 -0.35303128508E+02 -0.18221057452E+01  0.50528861129E+02  0.30000003888E+02 0.  0.
         12    1    1    2    0    0  0.20088171194E+02  0.35303128508E+02  0.18221057452E+01  0.40659138871E+02  0.00000000000E+00 0. -1.
         11    1    3    3    0    0 -0.24728113023E+02 -0.22643946646E+02 -0.18991994530E+01  0.33583252555E+02  0.51100000000E-03 0. -1.
        -11    1    3    3    0    0 -0.29565661013E+01 -0.40020014287E+01  0.18176823919E+01  0.52972887485E+01  0.51100000000E-03 0.  1.
         12    1    3    3    0    0  0.75965079298E+01 -0.86571804335E+01 -0.17405886841E+01  0.11648319825E+02  0.00000000000E+00 0. -1.
</event>
<event>
 7    1  0.6073302E-013  0.5052886E+02  0.7816164E-02  0.1300439E+00
        -11   -1    0    0    0    0  0.00000000000E+00  0.00000000000E+00  0.45593999997E+02  0.45594000000E+02  0.51100000000E-03 0.  1.
         11   -1    0    0    0    0 -0.00000000000E+00 -0.00000000000E+00 -0.45593999997E+02  0.45594000000E+02  0.51100000000E-03 0. -1.
    9900012    2    1    2    0    0 -0.35023819155E+02  0.60170030949E+01  0.19755841788E+02  0.50528861800E+02  0.30000005927E+02 0.  0.
         12    1    1    2    0    0  0.35023819155E+02 -0.60170030949E+01 -0.19755841788E+02  0.40659138200E+02  0.00000000000E+00 0. -1.
         11    1    3    3    0    0 -0.26432468156E+02 -0.45247106143E+01  0.68716163312E+01  0.27683343191E+02  0.51100000000E-03 0. -1.
        -11    1    3    3    0    0 -0.10817613502E+02  0.11981777448E+02  0.11726791818E+02  0.19952478525E+02  0.51100000000E-03 0.  1.
         12    1    3    3    0    0  0.22262625026E+01 -0.14400637383E+01  0.11574336386E+01  0.28930400842E+01  0.00000000000E+00 0. -1.
</event>
<event>
 7    1  0.6073302E-013  0.5052886E+02  0.7816164E-02  0.1300439E+00
        -11   -1    0    0    0    0  0.00000000000E+00  0.00000000000E+00  0.45593999997E+02  0.45594000000E+02  0.51100000000E-03 0.  1.
         11   -1    0    0    0    0 -0.00000000000E+00 -0.00000000000E+00 -0.45593999997E+02  0.45594000000E+02  0.51100000000E-03 0. -1.
    9900012    2    1    2    0    0 -0.44208988427E+01  0.17339732733E+02  0.36509657335E+02  0.50528858881E+02  0.29999997055E+02 0.  0.
         12    1    1    2    0    0  0.44208988427E+01 -0.17339732733E+02 -0.36509657335E+02  0.40659141119E+02  0.00000000000E+00 0. -1.
         11    1    3    3    0    0 -0.11849677450E+02 -0.17754078784E+01  0.17887296857E+02  0.21529568456E+02  0.51100000000E-03 0. -1.
        -11    1    3    3    0    0  0.39450031926E+01  0.87995797490E+01  0.14379745454E+02  0.17313946215E+02  0.51100000000E-03 0.  1.
         12    1    3    3    0    0  0.34837754151E+01  0.10315560863E+02  0.42426150233E+01  0.11685344209E+02  0.00000000000E+00 0. -1.
</event>
<event>
 7    1  0.6073302E-013  0.5052886E+02  0.7816164E-02  0.1300439E+00
        -11   -1    0    0    0    0  0.00000000000E+00  0.00000000000E+00  0.45593999997E+02  0.45594000000E+02  0.51100000000E-03 0.  1.
         11   -1    0    0    0    0 -0.00000000000E+00 -0.00000000000E+00 -0.45593999997E+02  0.45594000000E+02  0.51100000000E-03 0. -1.
    9900012    2    1    2    0    0 -0.10756752351E+02 -0.86073973378E+01  0.38254023100E+02  0.50528864576E+02  0.30000014367E+02 0.  0.
         12    1    1    2    0    0  0.10756752351E+02  0.86073973378E+01 -0.38254023100E+02  0.40659135424E+02  0.00000000000E+00 0. -1.
         11    1    3    3    0    0 -0.30296514791E+01 -0.12268783855E+02  0.12809007575E+02  0.17993680020E+02  0.51100000000E-03 0. -1.
        -11    1    3    3    0    0 -0.15947623896E+01  0.60118181041E+01 -0.37650599562E-01  0.62198586660E+01  0.51100000000E-03 0.  1.
        -12    1    3    3    0    0 -0.61323384827E+01 -0.23504315873E+01  0.25482666124E+02  0.26315325890E+02  0.00000000000E+00 0.  1.
</event>
<event>
 7    1  0.6073302E-013  0.5052886E+02  0.7816164E-02  0.1300439E+00
        -11   -1    0    0    0    0  0.00000000000E+00  0.00000000000E+00  0.45593999997E+02  0.45594000000E+02  0.51100000000E-03 0. -1.
         11   -1    0    0    0    0 -0.00000000000E+00 -0.00000000000E+00 -0.45593999997E+02  0.45594000000E+02  0.51100000000E-03 0.  1.
    9900012    2    1    2    0    0 -0.19213005303E+02 -0.10818854953E+02  0.34161065842E+02  0.50528860625E+02  0.30000002357E+02 0.  0.
         12    1    1    2    0    0  0.19213005303E+02  0.10818854953E+02 -0.34161065842E+02  0.40659139375E+02  0.00000000000E+00 0. -1.
         11    1    3    3    0    0 -0.23590637308E+00 -0.39594768931E+01  0.29370161300E+02  0.29636792744E+02  0.51100000000E-03 0. -1.
        -11    1    3    3    0    0 -0.11193407918E+02 -0.40490065486E+01  0.15463741896E+01  0.12003254069E+02  0.51100000000E-03 0.  1.
         12    1    3    3    0    0 -0.77836910110E+01 -0.28103715112E+01  0.32445303521E+01  0.88888138124E+01  0.00000000000E+00 0. -1.
</event>
<event>
 7    1  0.6073302E-013  0.5052885E+02  0.7816164E-02  0.1300439E+00
        -11   -1    0    0    0    0  0.00000000000E+00  0.00000000000E+00  0.45593999997E+02  0.45594000000E+02  0.51100000000E-03 0.  1.
         11   -1    0    0    0    0 -0.00000000000E+00 -0.00000000000E+00 -0.45593999997E+02  0.45594000000E+02  0.51100000000E-03 0. -1.
    9900012    2    1    2    0    0  0.17927754241E+02  0.18265704323E+02  0.31593137213E+02  0.50528847949E+02  0.29999963826E+02 0.  0.
         12    1    1    2    0    0 -0.17927754241E+02 -0.18265704323E+02 -0.31593137213E+02  0.40659152051E+02  0.00000000000E+00 0. -1.
         11    1    3    3    0    0 -0.49394726691E+01  0.92182420651E+01  0.49417340685E+01  0.11566983742E+02  0.51100000000E-03 0. -1.
        -11    1    3    3    0    0  0.13301922787E+02  0.89699386840E+01  0.24288085535E+02  0.29108624994E+02  0.51100000000E-03 0.  1.
        -12    1    3    3    0    0  0.95653041228E+01  0.77523573827E-01  0.23633176097E+01  0.98532392131E+01  0.00000000000E+00 0.  1.
</event>
<event>
 7    1  0.6073302E-013  0.5052886E+02  0.7816164E-02  0.1300439E+00
        -11   -1    0    0    0    0  0.00000000000E+00  0.00000000000E+00  0.45593999997E+02  0.45594000000E+02  0.51100000000E-03 0.  1.
         11   -1    0    0    0    0 -0.00000000000E+00 -0.00000000000E+00 -0.45593999997E+02  0.45594000000E+02  0.51100000000E-03 0. -1.
    9900012    2    1    2    0    0 -0.68090514813E+00  0.39984828632E+02  0.73427297601E+01  0.50528857943E+02  0.29999994202E+02 0.  0.
         12    1    1    2    0    0  0.68090514813E+00 -0.39984828632E+02 -0.73427297601E+01  0.40659142057E+02  0.00000000000E+00 0. -1.
         11    1    3    3    0    0 -0.11077020192E+02  0.68480104338E+01  0.45355287880E+01  0.13790092272E+02  0.51100000000E-03 0. -1.
        -11    1    3    3    0    0  0.29852225778E+01  0.11416592658E+02 -0.45369986696E+01  0.12642566944E+02  0.51100000000E-03 0.  1.
         12    1    3    3    0    0  0.74108924660E+01  0.21720225540E+02  0.73441996417E+01  0.24096198726E+02  0.00000000000E+00 0. -1.
</event>
<event>
 7    1  0.6073302E-013  0.5052886E+02  0.7816164E-02  0.1300439E+00
        -11   -1    0    0    0    0  0.00000000000E+00  0.00000000000E+00  0.45593999997E+02  0.45594000000E+02  0.51100000000E-03 0. -1.
         11   -1    0    0    0    0 -0.00000000000E+00 -0.00000000000E+00 -0.45593999997E+02  0.45594000000E+02  0.51100000000E-03 0.  1.
    9900012    2    1    2    0    0  0.26940472088E+02 -0.12185266942E+02 -0.27908700086E+02  0.50528864406E+02  0.30000013849E+02 0.  0.
         12    1    1    2    0    0 -0.26940472088E+02  0.12185266942E+02  0.27908700086E+02  0.40659135594E+02  0.00000000000E+00 0. -1.
         11    1    3    3    0    0 -0.37556134455E+01 -0.14214559290E+01 -0.91244286100E+00  0.41179754183E+01  0.51100000000E-03 0. -1.
        -11    1    3    3    0    0  0.28374874358E+02 -0.13327189437E+02 -0.28747751795E+02  0.42534464927E+02  0.51100000000E-03 0.  1.
        -12    1    3    3    0    0  0.23212111751E+01  0.25633784248E+01  0.17514945698E+01  0.38764240604E+01  0.00000000000E+00 0.  1.
</event>
<event>
 7    1  0.6073302E-013  0.5052885E+02  0.7816164E-02  0.1300439E+00
        -11   -1    0    0    0    0  0.00000000000E+00  0.00000000000E+00  0.45593999997E+02  0.45594000000E+02  0.51100000000E-03 0.  1.
         11   -1    0    0    0    0 -0.00000000000E+00 -0.00000000000E+00 -0.45593999997E+02  0.45594000000E+02  0.51100000000E-03 0. -1.
    9900012    2    1    2    0    0 -0.26946464875E+02 -0.24347538533E+02  0.18282552593E+02  0.50528851814E+02  0.29999975574E+02 0.  0.
         12    1    1    2    0    0  0.26946464875E+02  0.24347538533E+02 -0.18282552593E+02  0.40659148186E+02  0.00000000000E+00 0. -1.
         11    1    3    3    0    0  0.53162712642E+01 -0.26227247357E+01 -0.25280557553E+00  0.59334084735E+01  0.51100000000E-03 0. -1.
        -11    1    3    3    0    0 -0.10915546847E+02 -0.35613747617E+01  0.10187741300E+02  0.15350004111E+02  0.51100000000E-03 0.  1.
         12    1    3    3    0    0 -0.21347189293E+02 -0.18163439036E+02  0.83476168680E+01  0.29245439229E+02  0.00000000000E+00 0. -1.
</event>
<event>
 7    1  0.6073302E-013  0.5052887E+02  0.7816164E-02  0.1300439E+00
        -11   -1    0    0    0    0  0.00000000000E+00  0.00000000000E+00  0.45593999997E+02  0.45594000000E+02  0.51100000000E-03 0.  1.
         11   -1    0    0    0    0 -0.00000000000E+00 -0.00000000000E+00 -0.45593999997E+02  0.45594000000E+02  0.51100000000E-03 0. -1.
    9900012    2    1    2    0    0 -0.22316236280E+02 -0.26782262060E+02  0.20925117575E+02  0.50528874231E+02  0.30000043713E+02 0.  0.
         12    1    1    2    0    0  0.22316236280E+02  0.26782262060E+02 -0.20925117575E+02  0.40659125769E+02  0.00000000000E+00 0. -1.
         11    1    3    3    0    0  0.23865572421E+01  0.18234988816E+01 -0.26027005026E+01  0.39742739976E+01  0.51100000000E-03 0. -1.
        -11    1    3    3    0    0 -0.15630115280E+02 -0.25952732890E+02  0.14922551197E+02  0.33771694992E+02  0.51100000000E-03 0.  1.
         12    1    3    3    0    0 -0.90726782418E+01 -0.26530280512E+01  0.86052668809E+01  0.12782905241E+02  0.00000000000E+00 0. -1.
</event>
<event>
 7    1  0.6073302E-013  0.5052886E+02  0.7816164E-02  0.1300439E+00
        -11   -1    0    0    0    0  0.00000000000E+00  0.00000000000E+00  0.45593999997E+02  0.45594000000E+02  0.51100000000E-03 0.  1.
         11   -1    0    0    0    0 -0.00000000000E+00 -0.00000000000E+00 -0.45593999997E+02  0.45594000000E+02  0.51100000000E-03 0. -1.
    9900012    2    1    2    0    0 -0.27862326345E+02 -0.20361210917E+02 -0.21500643397E+02  0.50528858275E+02  0.29999995212E+02 0.  0.
         12    1    1    2    0    0  0.27862326345E+02  0.20361210917E+02  0.21500643397E+02  0.40659141725E+02  0.00000000000E+00 0. -1.
         11    1    3    3    0    0 -0.15383113662E+02  0.13904492498E+01 -0.18129658137E+02  0.23817179503E+02  0.51100000000E-03 0. -1.
        -11    1    3    3    0    0 -0.10245080147E+02 -0.19740884268E+02 -0.56407431847E+01  0.22945199124E+02  0.51100000000E-03 0.  1.
        -12    1    3    3    0    0 -0.22341325353E+01 -0.20107758994E+01  0.22697579247E+01  0.37664796481E+01  0.00000000000E+00 0.  1.
</event>
<event>
 7    1  0.6073302E-013  0.5052886E+02  0.7816164E-02  0.1300439E+00
        -11   -1    0    0    0    0  0.00000000000E+00  0.00000000000E+00  0.45593999997E+02  0.45594000000E+02  0.51100000000E-03 0. -1.
         11   -1    0    0    0    0 -0.00000000000E+00 -0.00000000000E+00 -0.45593999997E+02  0.45594000000E+02  0.51100000000E-03 0.  1.
    9900012    2    1    2    0    0  0.26226772474E+02  0.31045238703E+02 -0.12309056118E+01  0.50528861185E+02  0.30000004059E+02 0.  0.
         12    1    1    2    0    0 -0.26226772474E+02 -0.31045238703E+02  0.12309056118E+01  0.40659138815E+02  0.00000000000E+00 0. -1.
         11    1    3    3    0    0  0.17677145756E+02  0.47693235312E+01 -0.69252022808E+01  0.19575146383E+02  0.51100000000E-03 0. -1.
        -11    1    3    3    0    0 -0.26343047132E+01  0.12016856030E+02  0.24477830641E+01  0.12543366070E+02  0.51100000000E-03 0.  1.
        -12    1    3    3    0    0  0.11183931431E+02  0.14259059142E+02  0.32465136049E+01  0.18410348732E+02  0.00000000000E+00 0.  1.
</event>
<event>
 7    1  0.6073302E-013  0.5052886E+02  0.7816164E-02  0.1300439E+00
        -11   -1    0    0    0    0  0.00000000000E+00  0.00000000000E+00  0.45593999997E+02  0.45594000000E+02  0.51100000000E-03 0.  1.
         11   -1    0    0    0    0 -0.00000000000E+00 -0.00000000000E+00 -0.45593999997E+02  0.45594000000E+02  0.51100000000E-03 0. -1.
    9900012    2    1    2    0    0 -0.42904187177E+01  0.34312319314E+02  0.21387437861E+02  0.50528862679E+02  0.30000008598E+02 0.  0.
         12    1    1    2    0    0  0.42904187177E+01 -0.34312319314E+02 -0.21387437861E+02  0.40659137321E+02  0.00000000000E+00 0. -1.
         11    1    3    3    0    0 -0.55594329846E+00 -0.71026925032E+00  0.68736996859E+01  0.69326259809E+01  0.51100000000E-03 0. -1.
        -11    1    3    3    0    0  0.64059139626E+01  0.24205380407E+02  0.38504684402E+01  0.25333027490E+02  0.51100000000E-03 0.  1.
        -12    1    3    3    0    0 -0.10140389382E+02  0.10817208157E+02  0.10663269735E+02  0.18263209208E+02  0.00000000000E+00 0.  1.
</event>
<event>
 7    1  0.6073302E-013  0.5052886E+02  0.7816164E-02  0.1300439E+00
        -11   -1    0    0    0    0  0.00000000000E+00  0.00000000000E+00  0.45593999997E+02  0.45594000000E+02  0.51100000000E-03 0.  1.
         11   -1    0    0    0    0 -0.00000000000E+00 -0.00000000000E+00 -0.45593999997E+02  0.45594000000E+02  0.51100000000E-03 0. -1.
    9900012    2    1    2    0    0 -0.69863828768E+01 -0.90282056977E+01  0.39023679532E+02  0.50528860707E+02  0.30000002606E+02 0.  0.
         12    1    1    2    0    0  0.69863828768E+01  0.90282056977E+01 -0.39023679532E+02  0.40659139293E+02  0.00000000000E+00 0. -1.
         11    1    3    3    0    0  0.69655387687E+01 -0.13463833715E+02  0.13029141053E+02  0.19988798500E+02  0.51100000000E-03 0. -1.
        -11    1    3    3    0    0 -0.62856305318E+01 -0.10783757926E+01  0.81271605036E+01  0.10330671984E+02  0.51100000000E-03 0.  1.
         12    1    3    3    0    0 -0.76662911137E+01  0.55140038102E+01  0.17867377975E+02  0.20209390223E+02  0.00000000000E+00 0. -1.
</event>
<event>
 7    1  0.6073302E-013  0.5052886E+02  0.7816164E-02  0.1300439E+00
        -11   -1    0    0    0    0  0.00000000000E+00  0.00000000000E+00  0.45593999997E+02  0.45594000000E+02  0.51100000000E-03 0.  1.
         11   -1    0    0    0    0 -0.00000000000E+00 -0.00000000000E+00 -0.45593999997E+02  0.45594000000E+02  0.51100000000E-03 0. -1.
    9900012    2    1    2    0    0  0.38624648988E+02  0.11936103153E+02  0.43395094635E+01  0.50528863139E+02  0.30000009998E+02 0.  0.
         12    1    1    2    0    0 -0.38624648988E+02 -0.11936103153E+02 -0.43395094635E+01  0.40659136861E+02  0.00000000000E+00 0. -1.
         11    1    3    3    0    0  0.37938655620E+02  0.92184330080E+01  0.31027585976E+01  0.39165650876E+02  0.51100000000E-03 0.  1.
        -11    1    3    3    0    0 -0.34275726319E+01  0.40311333487E+01 -0.23115366369E+01  0.57742092192E+01  0.51100000000E-03 0. -1.
         12    1    3    3    0    0  0.41135659995E+01 -0.13134632042E+01  0.35482875028E+01  0.55890030438E+01  0.00000000000E+00 0. -1.
</event>
<event>
 7    1  0.6073302E-013  0.5052886E+02  0.7816164E-02  0.1300439E+00
        -11   -1    0    0    0    0  0.00000000000E+00  0.00000000000E+00  0.45593999997E+02  0.45594000000E+02  0.51100000000E-03 0.  1.
         11   -1    0    0    0    0 -0.00000000000E+00 -0.00000000000E+00 -0.45593999997E+02  0.45594000000E+02  0.51100000000E-03 0. -1.
    9900012    2    1    2    0    0 -0.10931549660E+02 -0.14025292518E+01  0.39136939810E+02  0.50528856822E+02  0.29999990795E+02 0.  0.
         12    1    1    2    0    0  0.10931549660E+02  0.14025292518E+01 -0.39136939810E+02  0.40659143178E+02  0.00000000000E+00 0. -1.
         11    1    3    3    0    0 -0.58023904922E+01 -0.12958653972E+02  0.24238369485E+02  0.28090799272E+02  0.51100000000E-03 0. -1.
        -11    1    3    3    0    0 -0.39647329730E+01  0.14760110354E+01 -0.21279361772E+00  0.42359175521E+01  0.51100000000E-03 0.  1.
         12    1    3    3    0    0 -0.11644261951E+01  0.10080113685E+02  0.15111363943E+02  0.18202139997E+02  0.00000000000E+00 0. -1.
</event>
<event>
 7    1  0.6073302E-013  0.5052886E+02  0.7816164E-02  0.1300439E+00
        -11   -1    0    0    0    0  0.00000000000E+00  0.00000000000E+00  0.45593999997E+02  0.45594000000E+02  0.51100000000E-03 0.  1.
         11   -1    0    0    0    0 -0.00000000000E+00 -0.00000000000E+00 -0.45593999997E+02  0.45594000000E+02  0.51100000000E-03 0. -1.
    9900012    2    1    2    0    0  0.26489116898E+02 -0.40369281021E+01  0.30580961671E+02  0.50528864258E+02  0.30000013398E+02 0.  0.
         12    1    1    2    0    0 -0.26489116898E+02  0.40369281021E+01 -0.30580961671E+02  0.40659135742E+02  0.00000000000E+00 0. -1.
         11    1    3    3    0    0  0.11347599667E+01  0.13962398498E+01  0.20268366466E+02  0.20348067362E+02  0.51100000000E-03 0. -1.
        -11    1    3    3    0    0  0.22767780564E+02 -0.20158978659E+01  0.50755319804E+01  0.23413600773E+02  0.51100000000E-03 0.  1.
        -12    1    3    3    0    0  0.25865763676E+01 -0.34172700859E+01  0.52370632250E+01  0.67671961230E+01  0.00000000000E+00 0.  1.
</event>
<event>
 7    1  0.6073302E-013  0.5052885E+02  0.7816164E-02  0.1300439E+00
        -11   -1    0    0    0    0  0.00000000000E+00  0.00000000000E+00  0.45593999997E+02  0.45594000000E+02  0.51100000000E-03 0. -1.
         11   -1    0    0    0    0 -0.00000000000E+00 -0.00000000000E+00 -0.45593999997E+02  0.45594000000E+02  0.51100000000E-03 0.  1.
    9900012    2    1    2    0    0 -0.54781259224E+01 -0.21990800457E+02 -0.33757383448E+02  0.50528854588E+02  0.29999984006E+02 0.  0.
         12    1    1    2    0    0  0.54781259224E+01  0.21990800457E+02  0.33757383448E+02  0.40659145412E+02  0.00000000000E+00 0. -1.
         11    1    3    3    0    0 -0.72860084262E+01 -0.11642434754E+02 -0.50480233297E+01  0.14632660236E+02  0.51100000000E-03 0. -1.
        -11    1    3    3    0    0 -0.92532315453E+00 -0.77580116820E+01 -0.30670808144E+02  0.31650299219E+02  0.51100000000E-03 0.  1.
        -12    1    3    3    0    0  0.27332056583E+01 -0.25903540206E+01  0.19614480253E+01  0.42458951327E+01  0.00000000000E+00 0.  1.
</event>
<event>
 7    1  0.6073302E-013  0.5052886E+02  0.7816164E-02  0.1300439E+00
        -11   -1    0    0    0    0  0.00000000000E+00  0.00000000000E+00  0.45593999997E+02  0.45594000000E+02  0.51100000000E-03 0.  1.
         11   -1    0    0    0    0 -0.00000000000E+00 -0.00000000000E+00 -0.45593999997E+02  0.45594000000E+02  0.51100000000E-03 0. -1.
    9900012    2    1    2    0    0  0.13274374335E+02  0.27130378013E+01  0.38335310846E+02  0.50528860243E+02  0.30000001194E+02 0.  0.
         12    1    1    2    0    0 -0.13274374335E+02 -0.27130378013E+01 -0.38335310846E+02  0.40659139757E+02  0.00000000000E+00 0. -1.
         11    1    3    3    0    0  0.93689311641E-01  0.71589666885E+01  0.35017741696E+02  0.35742157399E+02  0.51100000000E-03 0.  1.
        -11    1    3    3    0    0  0.73150726692E+01 -0.43519090203E+01  0.24440111449E+01  0.88556530541E+01  0.51100000000E-03 0. -1.
        -12    1    3    3    0    0  0.58656123542E+01 -0.94019866900E-01  0.87355800532E+00  0.59310497902E+01  0.00000000000E+00 0.  1.
</event>
<event>
 7    1  0.6073302E-013  0.5052878E+02  0.7816164E-02  0.1300439E+00
        -11   -1    0    0    0    0  0.00000000000E+00  0.00000000000E+00  0.45593999997E+02  0.45594000000E+02  0.51100000000E-03 0. -1.
         11   -1    0    0    0    0 -0.00000000000E+00 -0.00000000000E+00 -0.45593999997E+02  0.45594000000E+02  0.51100000000E-03 0.  1.
    9900012    2    1    2    0    0  0.30382808063E+01 -0.11557828062E+02 -0.38863315704E+02  0.50528783981E+02  0.29999769388E+02 0.  0.
         12    1    1    2    0    0 -0.30382808063E+01  0.11557828062E+02  0.38863315704E+02  0.40659216019E+02  0.00000000000E+00 0. -1.
         11    1    3    3    0    0  0.23464047811E+01 -0.10630335206E+02 -0.23366323669E+01  0.11134158839E+02  0.51100000000E-03 0. -1.
        -11    1    3    3    0    0  0.57631606705E+01  0.36254111223E+01 -0.25822238496E+02  0.26704786611E+02  0.51100000000E-03 0.  1.
        -12    1    3    3    0    0 -0.50712846452E+01 -0.45529039782E+01 -0.10704444841E+02  0.12689838531E+02  0.00000000000E+00 0.  1.
</event>
<event>
 7    1  0.6073302E-013  0.5052891E+02  0.7816164E-02  0.1300439E+00
        -11   -1    0    0    0    0  0.00000000000E+00  0.00000000000E+00  0.45593999997E+02  0.45594000000E+02  0.51100000000E-03 0.  1.
         11   -1    0    0    0    0 -0.00000000000E+00 -0.00000000000E+00 -0.45593999997E+02  0.45594000000E+02  0.51100000000E-03 0. -1.
    9900012    2    1    2    0    0 -0.20468025925E+01 -0.20817439911E+02  0.34865547142E+02  0.50528910206E+02  0.30000153063E+02 0.  0.
         12    1    1    2    0    0  0.20468025925E+01  0.20817439911E+02 -0.34865547142E+02  0.40659089794E+02  0.00000000000E+00 0. -1.
         11    1    3    3    0    0 -0.74685325716E+01  0.10841861222E+01 -0.24745104048E-01  0.75468570214E+01  0.51100000000E-03 0. -1.
        -11    1    3    3    0    0  0.17261744459E+01 -0.13035372155E+02  0.28661076475E+02  0.31533441144E+02  0.51100000000E-03 0.  1.
        -12    1    3    3    0    0  0.36955555332E+01 -0.88662538780E+01  0.62292157715E+01  0.11448612041E+02  0.00000000000E+00 0.  1.
</event>
<event>
 7    1  0.6073302E-013  0.5052885E+02  0.7816164E-02  0.1300439E+00
        -11   -1    0    0    0    0  0.00000000000E+00  0.00000000000E+00  0.45593999997E+02  0.45594000000E+02  0.51100000000E-03 0.  1.
         11   -1    0    0    0    0 -0.00000000000E+00 -0.00000000000E+00 -0.45593999997E+02  0.45594000000E+02  0.51100000000E-03 0. -1.
    9900012    2    1    2    0    0  0.45699980290E+01 -0.10273792205E+02  0.39073400115E+02  0.50528852385E+02  0.29999977309E+02 0.  0.
         12    1    1    2    0    0 -0.45699980290E+01  0.10273792205E+02 -0.39073400115E+02  0.40659147615E+02  0.00000000000E+00 0. -1.
         11    1    3    3    0    0 -0.25162900114E+01 -0.61803231522E+01  0.50129979381E+01  0.83461523036E+01  0.51100000000E-03 0. -1.
        -11    1    3    3    0    0  0.98901205156E+01 -0.31161293136E+01  0.36744778193E+02  0.38179883059E+02  0.51100000000E-03 0.  1.
        -12    1    3    3    0    0 -0.28038324752E+01 -0.97733973943E+00 -0.26843760162E+01  0.40028170220E+01  0.00000000000E+00 0.  1.
</event>
<event>
 7    1  0.6073302E-013  0.5052889E+02  0.7816164E-02  0.1300439E+00
        -11   -1    0    0    0    0  0.00000000000E+00  0.00000000000E+00  0.45593999997E+02  0.45594000000E+02  0.51100000000E-03 0.  1.
         11   -1    0    0    0    0 -0.00000000000E+00 -0.00000000000E+00 -0.45593999997E+02  0.45594000000E+02  0.51100000000E-03 0. -1.
    9900012    2    1    2    0    0  0.14720663222E+02  0.31067676491E+02  0.21708637239E+02  0.50528888118E+02  0.30000085923E+02 0.  0.
         12    1    1    2    0    0 -0.14720663222E+02 -0.31067676491E+02 -0.21708637239E+02  0.40659111882E+02  0.00000000000E+00 0. -1.
         11    1    3    3    0    0 -0.23594209059E+00 -0.53340898005E+01  0.52652430978E+01  0.74987310800E+01  0.51100000000E-03 0. -1.
        -11    1    3    3    0    0  0.13597293169E+02  0.35764321824E+02  0.15759280360E+02  0.41380285339E+02  0.51100000000E-03 0.  1.
        -12    1    3    3    0    0  0.13593121445E+01  0.63744446749E+00  0.68411378150E+00  0.16498716985E+01  0.00000000000E+00 0.  1.
</event>
<event>
 7    1  0.6073302E-013  0.5052886E+02  0.7816164E-02  0.1300439E+00
        -11   -1    0    0    0    0  0.00000000000E+00  0.00000000000E+00  0.45593999997E+02  0.45594000000E+02  0.51100000000E-03 0. -1.
         11   -1    0    0    0    0 -0.00000000000E+00 -0.00000000000E+00 -0.45593999997E+02  0.45594000000E+02  0.51100000000E-03 0.  1.
    9900012    2    1    2    0    0  0.36581608278E+02  0.12442842819E+02 -0.12654135854E+02  0.50528861349E+02  0.30000004557E+02 0.  0.
         12    1    1    2    0    0 -0.36581608278E+02 -0.12442842819E+02  0.12654135854E+02  0.40659138651E+02  0.00000000000E+00 0. -1.
         11    1    3    3    0    0  0.13355315937E+02 -0.83955951863E+01 -0.69331657553E+01  0.17231345565E+02  0.51100000000E-03 0. -1.
        -11    1    3    3    0    0  0.11111207125E+02  0.47047204330E+01 -0.51338108894E+01  0.13112945231E+02  0.51100000000E-03 0.  1.
         12    1    3    3    0    0  0.12115085215E+02  0.16133717573E+02 -0.58715920980E+00  0.20184570553E+02  0.00000000000E+00 0. -1.
</event>
<event>
 7    1  0.6073302E-013  0.5052886E+02  0.7816164E-02  0.1300439E+00
        -11   -1    0    0    0    0  0.00000000000E+00  0.00000000000E+00  0.45593999997E+02  0.45594000000E+02  0.51100000000E-03 0. -1.
         11   -1    0    0    0    0 -0.00000000000E+00 -0.00000000000E+00 -0.45593999997E+02  0.45594000000E+02  0.51100000000E-03 0.  1.
    9900012    2    1    2    0    0  0.39539785780E+02  0.74116854813E+01  0.59023647081E+01  0.50528860186E+02  0.30000001023E+02 0.  0.
         12    1    1    2    0    0 -0.39539785780E+02 -0.74116854813E+01 -0.59023647081E+01  0.40659139814E+02  0.00000000000E+00 0. -1.
         11    1    3    3    0    0  0.49116380138E+01  0.49031220597E+01 -0.86410893606E+01  0.11083014911E+02  0.51100000000E-03 0. -1.
        -11    1    3    3    0    0  0.19807267766E+02  0.22568458368E+01  0.14451588945E+02  0.24622543183E+02  0.51100000000E-03 0.  1.
         12    1    3    3    0    0  0.14820880001E+02  0.25171758485E+00  0.91865123371E-01  0.14823302093E+02  0.00000000000E+00 0. -1.
</event>
<event>
 7    1  0.6073302E-013  0.5052886E+02  0.7816164E-02  0.1300439E+00
        -11   -1    0    0    0    0  0.00000000000E+00  0.00000000000E+00  0.45593999997E+02  0.45594000000E+02  0.51100000000E-03 0.  1.
         11   -1    0    0    0    0 -0.00000000000E+00 -0.00000000000E+00 -0.45593999997E+02  0.45594000000E+02  0.51100000000E-03 0. -1.
    9900012    2    1    2    0    0  0.15673185777E+02  0.33103641242E+02  0.17654052178E+02  0.50528863583E+02  0.30000011346E+02 0.  0.
         12    1    1    2    0    0 -0.15673185777E+02 -0.33103641242E+02 -0.17654052178E+02  0.40659136417E+02  0.00000000000E+00 0. -1.
         11    1    3    3    0    0  0.12699011453E+02  0.28294317366E+01  0.25756369151E+01  0.13262898689E+02  0.51100000000E-03 0. -1.
        -11    1    3    3    0    0 -0.29196121326E+01  0.19459546749E+02  0.28013804340E+01  0.19875759791E+02  0.51100000000E-03 0.  1.
        -12    1    3    3    0    0  0.58937864562E+01  0.10814662757E+02  0.12277034829E+02  0.17390205103E+02  0.00000000000E+00 0.  1.
</event>
<event>
 7    1  0.6073302E-013  0.5052885E+02  0.7816164E-02  0.1300439E+00
        -11   -1    0    0    0    0  0.00000000000E+00  0.00000000000E+00  0.45593999997E+02  0.45594000000E+02  0.51100000000E-03 0.  1.
         11   -1    0    0    0    0 -0.00000000000E+00 -0.00000000000E+00 -0.45593999997E+02  0.45594000000E+02  0.51100000000E-03 0. -1.
    9900012    2    1    2    0    0 -0.53433491021E+01 -0.22346231856E+02  0.33544909972E+02  0.50528850441E+02  0.29999971402E+02 0.  0.
         12    1    1    2    0    0  0.53433491021E+01  0.22346231856E+02 -0.33544909972E+02  0.40659149559E+02  0.00000000000E+00 0. -1.
         11    1    3    3    0    0 -0.80906784074E+01 -0.81888981620E+00  0.10735531306E+01  0.82025711950E+01  0.51100000000E-03 0. -1.
        -11    1    3    3    0    0  0.36431324593E+01 -0.13675747004E+02  0.31282246445E+02  0.34334784303E+02  0.51100000000E-03 0.  1.
        -12    1    3    3    0    0 -0.89580315407E+00 -0.78515950355E+01  0.11891103967E+01  0.79914949432E+01  0.00000000000E+00 0.  1.
</event>
<event>
 7    1  0.6073302E-013  0.5052886E+02  0.7816164E-02  0.1300439E+00
        -11   -1    0    0    0    0  0.00000000000E+00  0.00000000000E+00  0.45593999997E+02  0.45594000000E+02  0.51100000000E-03 0.  1.
         11   -1    0    0    0    0 -0.00000000000E+00 -0.00000000000E+00 -0.45593999997E+02  0.45594000000E+02  0.51100000000E-03 0. -1.
    9900012    2    1    2    0    0  0.37470076229E+01 -0.40028527067E+02  0.60698406610E+01  0.50528855753E+02  0.29999987545E+02 0.  0.
         12    1    1    2    0    0 -0.37470076229E+01  0.40028527067E+02 -0.60698406610E+01  0.40659144247E+02  0.00000000000E+00 0. -1.
         11    1    3    3    0    0 -0.41385106377E-01 -0.25394301680E+02 -0.72011898690E+00  0.25404543731E+02  0.51100000000E-03 0. -1.
        -11    1    3    3    0    0  0.11137515420E+02 -0.81981975637E+01  0.66716536545E+01  0.15354662347E+02  0.51100000000E-03 0.  1.
         12    1    3    3    0    0 -0.73491226910E+01 -0.64360278232E+01  0.11830599332E+00  0.97696496752E+01  0.00000000000E+00 0. -1.
</event>
<event>
 7    1  0.6073302E-013  0.5052883E+02  0.7816164E-02  0.1300439E+00
        -11   -1    0    0    0    0  0.00000000000E+00  0.00000000000E+00  0.45593999997E+02  0.45594000000E+02  0.51100000000E-03 0.  1.
         11   -1    0    0    0    0 -0.00000000000E+00 -0.00000000000E+00 -0.45593999997E+02  0.45594000000E+02  0.51100000000E-03 0. -1.
    9900012    2    1    2    0    0  0.16575486802E+01  0.38968430440E+02  0.11483993711E+02  0.50528829446E+02  0.29999907584E+02 0.  0.
         12    1    1    2    0    0 -0.16575486802E+01 -0.38968430440E+02 -0.11483993711E+02  0.40659170554E+02  0.00000000000E+00 0. -1.
         11    1    3    3    0    0  0.85573967436E+01  0.30687481071E+01 -0.29032653811E+01  0.95433329663E+01  0.51100000000E-03 0. -1.
        -11    1    3    3    0    0 -0.68831461728E+01  0.36155924919E+02  0.15432053325E+02  0.39909608844E+02  0.51100000000E-03 0.  1.
        -12    1    3    3    0    0 -0.16701890593E-01 -0.25624258618E+00 -0.10447942328E+01  0.10758876359E+01  0.00000000000E+00 0.  1.
</event>
<event>
 7    1  0.6073302E-013  0.5052884E+02  0.7816164E-02  0.1300439E+00
        -11   -1    0    0    0    0  0.00000000000E+00  0.00000000000E+00  0.45593999997E+02  0.45594000000E+02  0.51100000000E-03 0.  1.
         11   -1    0    0    0    0 -0.00000000000E+00 -0.00000000000E+00 -0.45593999997E+02  0.45594000000E+02  0.51100000000E-03 0. -1.
    9900012    2    1    2    0    0  0.56827367938E+01  0.71421787701E+01  0.39621498241E+02  0.50528839434E+02  0.29999937943E+02 0.  0.
         12    1    1    2    0    0 -0.56827367938E+01 -0.71421787701E+01 -0.39621498241E+02  0.40659160566E+02  0.00000000000E+00 0. -1.
         11    1    3    3    0    0  0.28558618697E+01  0.34551840991E+01 -0.39750519685E+01  0.59912671941E+01  0.51100000000E-03 0. -1.
        -11    1    3    3    0    0 -0.89038862707E+00  0.42166428068E+01  0.12647674956E+02  0.13361757015E+02  0.51100000000E-03 0.  1.
         12    1    3    3    0    0  0.37172635511E+01 -0.52964813582E+00  0.30948875254E+02  0.31175815225E+02  0.00000000000E+00 0. -1.
</event>
<event>
 7    1  0.6073302E-013  0.5052886E+02  0.7816164E-02  0.1300439E+00
        -11   -1    0    0    0    0  0.00000000000E+00  0.00000000000E+00  0.45593999997E+02  0.45594000000E+02  0.51100000000E-03 0.  1.
         11   -1    0    0    0    0 -0.00000000000E+00 -0.00000000000E+00 -0.45593999997E+02  0.45594000000E+02  0.51100000000E-03 0. -1.
    9900012    2    1    2    0    0 -0.34961729085E+02  0.19938559437E+02  0.57703395953E+01  0.50528862379E+02  0.30000007687E+02 0.  0.
         12    1    1    2    0    0  0.34961729085E+02 -0.19938559437E+02 -0.57703395953E+01  0.40659137621E+02  0.00000000000E+00 0. -1.
         11    1    3    3    0    0 -0.94073349898E+01  0.35491391545E+01 -0.87376106491E+01  0.13320667418E+02  0.51100000000E-03 0. -1.
        -11    1    3    3    0    0 -0.13417891202E+02  0.64479758466E-01  0.89206382706E+01  0.16112782173E+02  0.51100000000E-03 0.  1.
        -12    1    3    3    0    0 -0.12136502894E+02  0.16324940524E+02  0.55873119738E+01  0.21095412788E+02  0.00000000000E+00 0.  1.
</event>
<event>
 7    1  0.6073302E-013  0.5052886E+02  0.7816164E-02  0.1300439E+00
        -11   -1    0    0    0    0  0.00000000000E+00  0.00000000000E+00  0.45593999997E+02  0.45594000000E+02  0.51100000000E-03 0.  1.
         11   -1    0    0    0    0 -0.00000000000E+00 -0.00000000000E+00 -0.45593999997E+02  0.45594000000E+02  0.51100000000E-03 0. -1.
    9900012    2    1    2    0    0 -0.18248933687E+02 -0.24002930468E+02  0.27276395501E+02  0.50528855847E+02  0.29999987831E+02 0.  0.
         12    1    1    2    0    0  0.18248933687E+02  0.24002930468E+02 -0.27276395501E+02  0.40659144153E+02  0.00000000000E+00 0. -1.
         11    1    3    3    0    0 -0.20154252549E+02 -0.11416597175E+02  0.40067692482E+01  0.23507164587E+02  0.51100000000E-03 0. -1.
        -11    1    3    3    0    0 -0.12015274423E+00 -0.10390933700E+02  0.20324169524E+02  0.22826690670E+02  0.51100000000E-03 0.  1.
         12    1    3    3    0    0  0.20254716064E+01 -0.21953995937E+01  0.29454567282E+01  0.41950005891E+01  0.00000000000E+00 0. -1.
</event>
<event>
 7    1  0.6073302E-013  0.5052886E+02  0.7816164E-02  0.1300439E+00
        -11   -1    0    0    0    0  0.00000000000E+00  0.00000000000E+00  0.45593999997E+02  0.45594000000E+02  0.51100000000E-03 0.  1.
         11   -1    0    0    0    0 -0.00000000000E+00 -0.00000000000E+00 -0.45593999997E+02  0.45594000000E+02  0.51100000000E-03 0. -1.
    9900012    2    1    2    0    0  0.19899670140E+01 -0.25478391747E+01  0.40530409798E+02  0.50528861155E+02  0.30000003967E+02 0.  0.
         12    1    1    2    0    0 -0.19899670140E+01  0.25478391747E+01 -0.40530409798E+02  0.40659138845E+02  0.00000000000E+00 0. -1.
         11    1    3    3    0    0 -0.19894019100E+01 -0.14739597734E+02  0.14738480444E+02  0.20938869773E+02  0.51100000000E-03 0. -1.
        -11    1    3    3    0    0  0.15156137535E+01  0.26055071898E+01  0.13377190143E+02  0.13712584335E+02  0.51100000000E-03 0.  1.
         12    1    3    3    0    0  0.24637551705E+01  0.95862513691E+01  0.12414739211E+02  0.15877407047E+02  0.00000000000E+00 0. -1.
</event>
<event>
 7    1  0.6073302E-013  0.5052886E+02  0.7816164E-02  0.1300439E+00
        -11   -1    0    0    0    0  0.00000000000E+00  0.00000000000E+00  0.45593999997E+02  0.45594000000E+02  0.51100000000E-03 0.  1.
         11   -1    0    0    0    0 -0.00000000000E+00 -0.00000000000E+00 -0.45593999997E+02  0.45594000000E+02  0.51100000000E-03 0. -1.
    9900012    2    1    2    0    0  0.30601295575E+02 -0.21398056840E+02  0.16088790104E+02  0.50528864564E+02  0.30000014327E+02 0.  0.
         12    1    1    2    0    0 -0.30601295575E+02  0.21398056840E+02 -0.16088790104E+02  0.40659135436E+02  0.00000000000E+00 0. -1.
         11    1    3    3    0    0  0.16577929754E+02  0.44208399589E+01  0.76355092693E+01  0.18779578881E+02  0.51100000000E-03 0. -1.
        -11    1    3    3    0    0  0.11493348772E+02 -0.15729937742E+02  0.87211856824E+01  0.21344486111E+02  0.51100000000E-03 0.  1.
         12    1    3    3    0    0  0.25300170492E+01 -0.10088959057E+02 -0.26790484799E+00  0.10404799572E+02  0.00000000000E+00 0. -1.
</event>
<event>
 7    1  0.6073302E-013  0.5052885E+02  0.7816164E-02  0.1300439E+00
        -11   -1    0    0    0    0  0.00000000000E+00  0.00000000000E+00  0.45593999997E+02  0.45594000000E+02  0.51100000000E-03 0.  1.
         11   -1    0    0    0    0 -0.00000000000E+00 -0.00000000000E+00 -0.45593999997E+02  0.45594000000E+02  0.51100000000E-03 0. -1.
    9900012    2    1    2    0    0  0.51514158328E+01 -0.32589925165E+02  0.23759754799E+02  0.50528852746E+02  0.29999978405E+02 0.  0.
         12    1    1    2    0    0 -0.51514158328E+01  0.32589925165E+02 -0.23759754799E+02  0.40659147254E+02  0.00000000000E+00 0. -1.
         11    1    3    3    0    0  0.27470166902E+01 -0.29647941524E+01 -0.65900721004E+01  0.77307926897E+01  0.51100000000E-03 0. -1.
        -11    1    3    3    0    0  0.19843677372E+01 -0.25895993179E+02  0.28675361924E+02  0.38688713597E+02  0.51100000000E-03 0.  1.
         12    1    3    3    0    0  0.42003140542E+00 -0.37291378343E+01  0.16744649748E+01  0.41093464591E+01  0.00000000000E+00 0. -1.
</event>
<event>
 7    1  0.6073302E-013  0.5052885E+02  0.7816164E-02  0.1300439E+00
        -11   -1    0    0    0    0  0.00000000000E+00  0.00000000000E+00  0.45593999997E+02  0.45594000000E+02  0.51100000000E-03 0.  1.
         11   -1    0    0    0    0 -0.00000000000E+00 -0.00000000000E+00 -0.45593999997E+02  0.45594000000E+02  0.51100000000E-03 0. -1.
    9900012    2    1    2    0    0 -0.30783851072E+02  0.18559614271E+02  0.19001615116E+02  0.50528854095E+02  0.29999982507E+02 0.  0.
         12    1    1    2    0    0  0.30783851072E+02 -0.18559614271E+02 -0.19001615116E+02  0.40659145905E+02  0.00000000000E+00 0. -1.
         11    1    3    3    0    0  0.18782695387E+01 -0.19766606072E+01 -0.25707531841E+01  0.37475132836E+01  0.51100000000E-03 0. -1.
        -11    1    3    3    0    0 -0.57209438551E+01  0.99051862396E+01  0.11223078185E+02  0.16024961692E+02  0.51100000000E-03 0.  1.
         12    1    3    3    0    0 -0.26941176756E+02  0.10631088639E+02  0.10349290115E+02  0.30756379119E+02  0.00000000000E+00 0. -1.
</event>
<event>
 7    1  0.6073302E-013  0.5052890E+02  0.7816164E-02  0.1300439E+00
        -11   -1    0    0    0    0  0.00000000000E+00  0.00000000000E+00  0.45593999997E+02  0.45594000000E+02  0.51100000000E-03 0.  1.
         11   -1    0    0    0    0 -0.00000000000E+00 -0.00000000000E+00 -0.45593999997E+02  0.45594000000E+02  0.51100000000E-03 0. -1.
    9900012    2    1    2    0    0 -0.13707260590E+02  0.37225565421E+02 -0.89180137084E+01  0.50528896686E+02  0.30000111967E+02 0.  0.
         12    1    1    2    0    0  0.13707260590E+02 -0.37225565421E+02  0.89180137084E+01  0.40659103314E+02  0.00000000000E+00 0. -1.
         11    1    3    3    0    0 -0.64594592851E+01  0.53074940326E+01  0.95175448469E+01  0.12667981976E+02  0.51100000000E-03 0. -1.
        -11    1    3    3    0    0 -0.13630471074E+01  0.14903965452E+02 -0.69083670220E+01  0.16483677344E+02  0.51100000000E-03 0.  1.
         12    1    3    3    0    0 -0.58847541979E+01  0.17014105936E+02 -0.11527191533E+02  0.21377237366E+02  0.00000000000E+00 0. -1.
</event>
<event>
 7    1  0.6073302E-013  0.5052888E+02  0.7816164E-02  0.1300439E+00
        -11   -1    0    0    0    0  0.00000000000E+00  0.00000000000E+00  0.45593999997E+02  0.45594000000E+02  0.51100000000E-03 0.  1.
         11   -1    0    0    0    0 -0.00000000000E+00 -0.00000000000E+00 -0.45593999997E+02  0.45594000000E+02  0.51100000000E-03 0. -1.
    9900012    2    1    2    0    0  0.31408349047E+02 -0.12202130943E+02  0.22754944622E+02  0.50528881783E+02  0.30000066668E+02 0.  0.
         12    1    1    2    0    0 -0.31408349047E+02  0.12202130943E+02 -0.22754944622E+02  0.40659118217E+02  0.00000000000E+00 0. -1.
         11    1    3    3    0    0  0.88977619532E+01 -0.55270045364E+01 -0.51341635359E+01  0.11665229633E+02  0.51100000000E-03 0. -1.
        -11    1    3    3    0    0  0.13587410436E+02  0.26160103681E+01  0.17530686775E+02  0.22333522151E+02  0.51100000000E-03 0.  1.
        -12    1    3    3    0    0  0.89231766581E+01 -0.92911367742E+01  0.10358421382E+02  0.16530129998E+02  0.00000000000E+00 0.  1.
</event>
<event>
 7    1  0.6073302E-013  0.5052885E+02  0.7816164E-02  0.1300439E+00
        -11   -1    0    0    0    0  0.00000000000E+00  0.00000000000E+00  0.45593999997E+02  0.45594000000E+02  0.51100000000E-03 0.  1.
         11   -1    0    0    0    0 -0.00000000000E+00 -0.00000000000E+00 -0.45593999997E+02  0.45594000000E+02  0.51100000000E-03 0. -1.
    9900012    2    1    2    0    0  0.58942903570E+01 -0.23946789567E+02  0.32326068572E+02  0.50528854673E+02  0.29999984265E+02 0.  0.
         12    1    1    2    0    0 -0.58942903570E+01  0.23946789567E+02 -0.32326068572E+02  0.40659145327E+02  0.00000000000E+00 0. -1.
         11    1    3    3    0    0  0.73466757958E+01 -0.23502652001E+02  0.84913328436E+01  0.26047092545E+02  0.51100000000E-03 0. -1.
        -11    1    3    3    0    0  0.10600868529E+01  0.18617242240E+01  0.10633283182E+02  0.10846958685E+02  0.51100000000E-03 0.  1.
         12    1    3    3    0    0 -0.25124722918E+01 -0.23058617898E+01  0.13201452546E+02  0.13634803444E+02  0.00000000000E+00 0. -1.
</event>
<event>
 7    1  0.6073302E-013  0.5052886E+02  0.7816164E-02  0.1300439E+00
        -11   -1    0    0    0    0  0.00000000000E+00  0.00000000000E+00  0.45593999997E+02  0.45594000000E+02  0.51100000000E-03 0.  1.
         11   -1    0    0    0    0 -0.00000000000E+00 -0.00000000000E+00 -0.45593999997E+02  0.45594000000E+02  0.51100000000E-03 0. -1.
    9900012    2    1    2    0    0 -0.28851633667E+02 -0.94389776371E+00  0.28633164072E+02  0.50528858432E+02  0.29999995690E+02 0.  0.
         12    1    1    2    0    0  0.28851633667E+02  0.94389776371E+00 -0.28633164072E+02  0.40659141568E+02  0.00000000000E+00 0. -1.
         11    1    3    3    0    0  0.12051532049E+01 -0.10749516723E+01 -0.41756723178E+01  0.44770699025E+01  0.51100000000E-03 0. -1.
        -11    1    3    3    0    0 -0.24110250671E+02  0.36718219008E+01  0.20195847403E+02  0.31664786690E+02  0.51100000000E-03 0.  1.
         12    1    3    3    0    0 -0.59465362006E+01 -0.35407679922E+01  0.12612988987E+02  0.14387001840E+02  0.00000000000E+00 0. -1.
</event>
<event>
 7    1  0.6073302E-013  0.5052886E+02  0.7816164E-02  0.1300439E+00
        -11   -1    0    0    0    0  0.00000000000E+00  0.00000000000E+00  0.45593999997E+02  0.45594000000E+02  0.51100000000E-03 0.  1.
         11   -1    0    0    0    0 -0.00000000000E+00 -0.00000000000E+00 -0.45593999997E+02  0.45594000000E+02  0.51100000000E-03 0. -1.
    9900012    2    1    2    0    0 -0.23380369650E+02 -0.15849642830E+02  0.29245737624E+02  0.50528855494E+02  0.29999986760E+02 0.  0.
         12    1    1    2    0    0  0.23380369650E+02  0.15849642830E+02 -0.29245737624E+02  0.40659144506E+02  0.00000000000E+00 0. -1.
         11    1    3    3    0    0 -0.29362923395E+01  0.14123899674E+01 -0.37745586728E+01  0.49863765962E+01  0.51100000000E-03 0. -1.
        -11    1    3    3    0    0 -0.22643256109E+02 -0.17241521681E+02  0.32648845776E+02  0.43312056610E+02  0.51100000000E-03 0.  1.
        -12    1    3    3    0    0  0.21991787981E+01 -0.20511116667E-01  0.37145052089E+00  0.22304222877E+01  0.00000000000E+00 0.  1.
</event>
<event>
 7    1  0.6073302E-013  0.5052886E+02  0.7816164E-02  0.1300439E+00
        -11   -1    0    0    0    0  0.00000000000E+00  0.00000000000E+00  0.45593999997E+02  0.45594000000E+02  0.51100000000E-03 0.  1.
         11   -1    0    0    0    0 -0.00000000000E+00 -0.00000000000E+00 -0.45593999997E+02  0.45594000000E+02  0.51100000000E-03 0. -1.
    9900012    2    1    2    0    0  0.35798025371E+02 -0.10606999529E+02  0.16098398610E+02  0.50528862070E+02  0.30000006746E+02 0.  0.
         12    1    1    2    0    0 -0.35798025371E+02  0.10606999529E+02 -0.16098398610E+02  0.40659137930E+02  0.00000000000E+00 0. -1.
         11    1    3    3    0    0  0.15830934200E+02 -0.77236612354E+01 -0.41511325931E+01  0.18097108128E+02  0.51100000000E-03 0. -1.
        -11    1    3    3    0    0  0.38882056943E+01  0.40441834727E+01  0.11640439598E+02  0.12921818671E+02  0.51100000000E-03 0.  1.
         12    1    3    3    0    0  0.16078885476E+02 -0.69275217664E+01  0.86090916054E+01  0.19509935270E+02  0.00000000000E+00 0. -1.
</event>
<event>
 7    1  0.6073302E-013  0.5052886E+02  0.7816164E-02  0.1300439E+00
        -11   -1    0    0    0    0  0.00000000000E+00  0.00000000000E+00  0.45593999997E+02  0.45594000000E+02  0.51100000000E-03 0. -1.
         11   -1    0    0    0    0 -0.00000000000E+00 -0.00000000000E+00 -0.45593999997E+02  0.45594000000E+02  0.51100000000E-03 0.  1.
    9900012    2    1    2    0    0  0.32428711529E+02  0.13522622327E+01 -0.24489097466E+02  0.50528857863E+02  0.29999993961E+02 0.  0.
         12    1    1    2    0    0 -0.32428711529E+02 -0.13522622327E+01  0.24489097466E+02  0.40659142137E+02  0.00000000000E+00 0. -1.
         11    1    3    3    0    0 -0.72424790852E+00 -0.56793164661E+01  0.16561256965E+00  0.57277044564E+01  0.51100000000E-03 0. -1.
        -11    1    3    3    0    0  0.29099897938E+02  0.40109578072E+01 -0.26358154785E+02  0.39467000981E+02  0.51100000000E-03 0.  1.
        -12    1    3    3    0    0  0.40530614997E+01  0.30206208915E+01  0.17034447486E+01  0.53341524259E+01  0.00000000000E+00 0.  1.
</event>
<event>
 7    1  0.6073302E-013  0.5052878E+02  0.7816164E-02  0.1300439E+00
        -11   -1    0    0    0    0  0.00000000000E+00  0.00000000000E+00  0.45593999997E+02  0.45594000000E+02  0.51100000000E-03 0. -1.
         11   -1    0    0    0    0 -0.00000000000E+00 -0.00000000000E+00 -0.45593999997E+02  0.45594000000E+02  0.51100000000E-03 0.  1.
    9900012    2    1    2    0    0 -0.10290615606E+02 -0.24611480520E+02 -0.30684688607E+02  0.50528783851E+02  0.29999768992E+02 0.  0.
         12    1    1    2    0    0  0.10290615606E+02  0.24611480520E+02  0.30684688607E+02  0.40659216149E+02  0.00000000000E+00 0. -1.
         11    1    3    3    0    0 -0.10881131408E+01  0.56989629014E+00  0.31901654629E+01  0.34184686529E+01  0.51100000000E-03 0. -1.
        -11    1    3    3    0    0 -0.14305538443E+02 -0.13771818461E+02 -0.24202406259E+02  0.31306035886E+02  0.51100000000E-03 0.  1.
         12    1    3    3    0    0  0.51030359783E+01 -0.11409558349E+02 -0.96724478107E+01  0.15804279312E+02  0.00000000000E+00 0. -1.
</event>
<event>
 7    1  0.6073302E-013  0.5052883E+02  0.7816164E-02  0.1300439E+00
        -11   -1    0    0    0    0  0.00000000000E+00  0.00000000000E+00  0.45593999997E+02  0.45594000000E+02  0.51100000000E-03 0. -1.
         11   -1    0    0    0    0 -0.00000000000E+00 -0.00000000000E+00 -0.45593999997E+02  0.45594000000E+02  0.51100000000E-03 0.  1.
    9900012    2    1    2    0    0 -0.73171241651E+00  0.77555048296E+01 -0.39905944960E+02  0.50528834964E+02  0.29999924358E+02 0.  0.
         12    1    1    2    0    0  0.73171241651E+00 -0.77555048296E+01  0.39905944960E+02  0.40659165036E+02  0.00000000000E+00 0. -1.
         11    1    3    3    0    0  0.27808343777E+01 -0.55721201524E+01 -0.18755879076E+01  0.65037983586E+01  0.51100000000E-03 0. -1.
        -11    1    3    3    0    0 -0.27152558975E+01  0.70529412012E+01 -0.36816866892E+02  0.37584548449E+02  0.51100000000E-03 0.  1.
        -12    1    3    3    0    0 -0.79729089670E+00  0.62746837808E+01 -0.12134901609E+01  0.64404881565E+01  0.00000000000E+00 0.  1.
</event>
<event>
 7    1  0.6073302E-013  0.5052885E+02  0.7816164E-02  0.1300439E+00
        -11   -1    0    0    0    0  0.00000000000E+00  0.00000000000E+00  0.45593999997E+02  0.45594000000E+02  0.51100000000E-03 0.  1.
         11   -1    0    0    0    0 -0.00000000000E+00 -0.00000000000E+00 -0.45593999997E+02  0.45594000000E+02  0.51100000000E-03 0. -1.
    9900012    2    1    2    0    0 -0.23236386894E+02 -0.23544923230E+02  0.23640508848E+02  0.50528846733E+02  0.29999960128E+02 0.  0.
         12    1    1    2    0    0  0.23236386894E+02  0.23544923230E+02 -0.23640508848E+02  0.40659153267E+02  0.00000000000E+00 0. -1.
         11    1    3    3    0    0 -0.87202968132E+01 -0.15733229632E+02  0.20729004440E+01  0.18107319174E+02  0.51100000000E-03 0.  1.
        -11    1    3    3    0    0 -0.84251802555E+00  0.52359318542E+01  0.44810007611E+01  0.69429235259E+01  0.51100000000E-03 0. -1.
        -12    1    3    3    0    0 -0.13673572055E+02 -0.13047625453E+02  0.17086607643E+02  0.25478604033E+02  0.00000000000E+00 0.  1.
</event>
<event>
 7    1  0.6073302E-013  0.5052886E+02  0.7816164E-02  0.1300439E+00
        -11   -1    0    0    0    0  0.00000000000E+00  0.00000000000E+00  0.45593999997E+02  0.45594000000E+02  0.51100000000E-03 0.  1.
         11   -1    0    0    0    0 -0.00000000000E+00 -0.00000000000E+00 -0.45593999997E+02  0.45594000000E+02  0.51100000000E-03 0. -1.
    9900012    2    1    2    0    0  0.15840916456E+01 -0.94419535627E+01  0.39515896412E+02  0.50528857084E+02  0.29999991593E+02 0.  0.
         12    1    1    2    0    0 -0.15840916456E+01  0.94419535627E+01 -0.39515896412E+02  0.40659142916E+02  0.00000000000E+00 0. -1.
         11    1    3    3    0    0 -0.34630457376E+01 -0.37936147039E+01  0.32592562493E+02  0.32994837905E+02  0.51100000000E-03 0.  1.
        -11    1    3    3    0    0  0.23835351913E+01  0.24571266225E+01 -0.29258781711E+01  0.45032737626E+01  0.51100000000E-03 0. -1.
         12    1    3    3    0    0  0.26636021918E+01 -0.81054654813E+01  0.98492120903E+01  0.13030745416E+02  0.00000000000E+00 0. -1.
</event>
<event>
 7    1  0.6073302E-013  0.5052885E+02  0.7816164E-02  0.1300439E+00
        -11   -1    0    0    0    0  0.00000000000E+00  0.00000000000E+00  0.45593999997E+02  0.45594000000E+02  0.51100000000E-03 0.  1.
         11   -1    0    0    0    0 -0.00000000000E+00 -0.00000000000E+00 -0.45593999997E+02  0.45594000000E+02  0.51100000000E-03 0. -1.
    9900012    2    1    2    0    0 -0.22636009529E+01  0.85498914313E+00  0.40587081771E+02  0.50528854628E+02  0.29999984127E+02 0.  0.
         12    1    1    2    0    0  0.22636009529E+01 -0.85498914313E+00 -0.40587081771E+02  0.40659145372E+02  0.00000000000E+00 0. -1.
         11    1    3    3    0    0  0.23527584392E+01  0.12074966852E+02  0.62092013896E+01  0.13780220568E+02  0.51100000000E-03 0. -1.
        -11    1    3    3    0    0 -0.46013550064E+01 -0.88701986951E+01  0.31421390736E+02  0.32972059214E+02  0.51100000000E-03 0.  1.
        -12    1    3    3    0    0 -0.15004385689E-01 -0.23497790133E+01  0.29564896453E+01  0.37765748458E+01  0.00000000000E+00 0.  1.
</event>
<event>
 7    1  0.6073302E-013  0.5052886E+02  0.7816164E-02  0.1300439E+00
        -11   -1    0    0    0    0  0.00000000000E+00  0.00000000000E+00  0.45593999997E+02  0.45594000000E+02  0.51100000000E-03 0. -1.
         11   -1    0    0    0    0 -0.00000000000E+00 -0.00000000000E+00 -0.45593999997E+02  0.45594000000E+02  0.51100000000E-03 0.  1.
    9900012    2    1    2    0    0  0.37732510293E+02  0.67462304705E+01 -0.13561408682E+02  0.50528858789E+02  0.29999996776E+02 0.  0.
         12    1    1    2    0    0 -0.37732510293E+02 -0.67462304705E+01  0.13561408682E+02  0.40659141211E+02  0.00000000000E+00 0. -1.
         11    1    3    3    0    0  0.63664343261E+01 -0.76048568473E+01  0.42396409743E+01  0.10786097049E+02  0.51100000000E-03 0. -1.
        -11    1    3    3    0    0  0.18389344933E+01 -0.11414308077E+01 -0.14467205184E+01  0.26033718288E+01  0.51100000000E-03 0.  1.
         12    1    3    3    0    0  0.29527141473E+02  0.15492518126E+02 -0.16354329138E+02  0.37139389912E+02  0.00000000000E+00 0. -1.
</event>
<event>
 7    1  0.6073302E-013  0.5052886E+02  0.7816164E-02  0.1300439E+00
        -11   -1    0    0    0    0  0.00000000000E+00  0.00000000000E+00  0.45593999997E+02  0.45594000000E+02  0.51100000000E-03 0. -1.
         11   -1    0    0    0    0 -0.00000000000E+00 -0.00000000000E+00 -0.45593999997E+02  0.45594000000E+02  0.51100000000E-03 0.  1.
    9900012    2    1    2    0    0  0.39487430900E+02 -0.14533204764E+01 -0.95810327363E+01  0.50528861694E+02  0.30000005606E+02 0.  0.
         12    1    1    2    0    0 -0.39487430900E+02  0.14533204764E+01  0.95810327363E+01  0.40659138306E+02  0.00000000000E+00 0. -1.
         11    1    3    3    0    0  0.17557027765E+02 -0.14226988648E+02 -0.86277799188E+01  0.24188737390E+02  0.51100000000E-03 0. -1.
        -11    1    3    3    0    0  0.97469986989E+01  0.58509041856E+01 -0.39041034184E+01  0.12019945390E+02  0.51100000000E-03 0.  1.
         12    1    3    3    0    0  0.12183404435E+02  0.69227639861E+01  0.29508506010E+01  0.14320178913E+02  0.00000000000E+00 0. -1.
</event>
<event>
 7    1  0.6073302E-013  0.5052886E+02  0.7816164E-02  0.1300439E+00
        -11   -1    0    0    0    0  0.00000000000E+00  0.00000000000E+00  0.45593999997E+02  0.45594000000E+02  0.51100000000E-03 0. -1.
         11   -1    0    0    0    0 -0.00000000000E+00 -0.00000000000E+00 -0.45593999997E+02  0.45594000000E+02  0.51100000000E-03 0.  1.
    9900012    2    1    2    0    0 -0.34020353925E+02 -0.18265581748E+02  0.12733802743E+02  0.50528859698E+02  0.29999999539E+02 0.  0.
         12    1    1    2    0    0  0.34020353925E+02  0.18265581748E+02 -0.12733802743E+02  0.40659140302E+02  0.00000000000E+00 0. -1.
         11    1    3    3    0    0 -0.45316883495E+01 -0.14706568070E+02 -0.38269939558E+01  0.15857655144E+02  0.51100000000E-03 0. -1.
        -11    1    3    3    0    0 -0.24941920190E+02 -0.43861303513E+00  0.13588673106E+02  0.28406756260E+02  0.51100000000E-03 0.  1.
        -12    1    3    3    0    0 -0.45467453855E+01 -0.31204006430E+01  0.29721235933E+01  0.62644482939E+01  0.00000000000E+00 0.  1.
</event>
<event>
 7    1  0.6073302E-013  0.5052885E+02  0.7816164E-02  0.1300439E+00
        -11   -1    0    0    0    0  0.00000000000E+00  0.00000000000E+00  0.45593999997E+02  0.45594000000E+02  0.51100000000E-03 0. -1.
         11   -1    0    0    0    0 -0.00000000000E+00 -0.00000000000E+00 -0.45593999997E+02  0.45594000000E+02  0.51100000000E-03 0.  1.
    9900012    2    1    2    0    0  0.38221039639E+02  0.25834526267E+01 -0.13625125965E+02  0.50528853967E+02  0.29999982118E+02 0.  0.
         12    1    1    2    0    0 -0.38221039639E+02 -0.25834526267E+01  0.13625125965E+02  0.40659146033E+02  0.00000000000E+00 0. -1.
         11    1    3    3    0    0 -0.20650602556E+00 -0.39986258585E+01 -0.28401061768E+01  0.49089567987E+01  0.51100000000E-03 0. -1.
        -11    1    3    3    0    0  0.31526713743E+02  0.11449849754E+02 -0.22558905637E+01  0.33617283967E+02  0.51100000000E-03 0.  1.
        -12    1    3    3    0    0  0.69008319217E+01 -0.48677712683E+01 -0.85291292249E+01  0.12002613202E+02  0.00000000000E+00 0.  1.
</event>
<event>
 7    1  0.6073302E-013  0.5052886E+02  0.7816164E-02  0.1300439E+00
        -11   -1    0    0    0    0  0.00000000000E+00  0.00000000000E+00  0.45593999997E+02  0.45594000000E+02  0.51100000000E-03 0.  1.
         11   -1    0    0    0    0 -0.00000000000E+00 -0.00000000000E+00 -0.45593999997E+02  0.45594000000E+02  0.51100000000E-03 0. -1.
    9900012    2    1    2    0    0  0.19023900770E+02  0.29721701116E+02  0.20195973977E+02  0.50528859790E+02  0.29999999818E+02 0.  0.
         12    1    1    2    0    0 -0.19023900770E+02 -0.29721701116E+02 -0.20195973977E+02  0.40659140210E+02  0.00000000000E+00 0. -1.
         11    1    3    3    0    0  0.13118056862E+02  0.88509490336E+01  0.20107141077E+02  0.25587493765E+02  0.51100000000E-03 0. -1.
        -11    1    3    3    0    0 -0.29911511395E+01  0.91331403122E+01  0.27015042330E+01  0.99829535952E+01  0.51100000000E-03 0.  1.
         12    1    3    3    0    0  0.88969950468E+01  0.11737611770E+02 -0.26126713327E+01  0.14958412430E+02  0.00000000000E+00 0. -1.
</event>
<event>
 7    1  0.6073302E-013  0.5052886E+02  0.7816164E-02  0.1300439E+00
        -11   -1    0    0    0    0  0.00000000000E+00  0.00000000000E+00  0.45593999997E+02  0.45594000000E+02  0.51100000000E-03 0.  1.
         11   -1    0    0    0    0 -0.00000000000E+00 -0.00000000000E+00 -0.45593999997E+02  0.45594000000E+02  0.51100000000E-03 0. -1.
    9900012    2    1    2    0    0  0.37899854764E+02  0.97522782839E+01 -0.11029951972E+02  0.50528858797E+02  0.29999996799E+02 0.  0.
         12    1    1    2    0    0 -0.37899854764E+02 -0.97522782839E+01  0.11029951972E+02  0.40659141203E+02  0.00000000000E+00 0. -1.
         11    1    3    3    0    0 -0.22216716030E+01  0.55921022039E+01 -0.27389067949E+01  0.66112814539E+01  0.51100000000E-03 0. -1.
        -11    1    3    3    0    0  0.27827056213E+02  0.97455088040E+01 -0.73182203957E+01  0.30378879988E+02  0.51100000000E-03 0.  1.
         12    1    3    3    0    0  0.12294470154E+02 -0.55853327241E+01 -0.97282478138E+00  0.13538697355E+02  0.00000000000E+00 0. -1.
</event>
<event>
 7    1  0.6073302E-013  0.5052886E+02  0.7816164E-02  0.1300439E+00
        -11   -1    0    0    0    0  0.00000000000E+00  0.00000000000E+00  0.45593999997E+02  0.45594000000E+02  0.51100000000E-03 0.  1.
         11   -1    0    0    0    0 -0.00000000000E+00 -0.00000000000E+00 -0.45593999997E+02  0.45594000000E+02  0.51100000000E-03 0. -1.
    9900012    2    1    2    0    0 -0.82023974447E+01 -0.24338421556E+01  0.39748743383E+02  0.50528861888E+02  0.30000006196E+02 0.  0.
         12    1    1    2    0    0  0.82023974447E+01  0.24338421556E+01 -0.39748743383E+02  0.40659138112E+02  0.00000000000E+00 0. -1.
         11    1    3    3    0    0  0.10700177844E+02 -0.28481745197E+01  0.21687370493E+02  0.24350522441E+02  0.51100000000E-03 0. -1.
        -11    1    3    3    0    0 -0.12001537131E+02  0.80800693198E+00  0.11851157842E+02  0.16886080397E+02  0.51100000000E-03 0.  1.
         12    1    3    3    0    0 -0.69010381577E+01 -0.39367456788E+00  0.62102150477E+01  0.92922590504E+01  0.00000000000E+00 0. -1.
</event>
<event>
 7    1  0.6073302E-013  0.5052886E+02  0.7816164E-02  0.1300439E+00
        -11   -1    0    0    0    0  0.00000000000E+00  0.00000000000E+00  0.45593999997E+02  0.45594000000E+02  0.51100000000E-03 0.  1.
         11   -1    0    0    0    0 -0.00000000000E+00 -0.00000000000E+00 -0.45593999997E+02  0.45594000000E+02  0.51100000000E-03 0. -1.
    9900012    2    1    2    0    0  0.17531846953E+02 -0.21144477721E+02  0.29978503664E+02  0.50528864771E+02  0.30000014957E+02 0.  0.
         12    1    1    2    0    0 -0.17531846953E+02  0.21144477721E+02 -0.29978503664E+02  0.40659135229E+02  0.00000000000E+00 0. -1.
         11    1    3    3    0    0  0.11879632426E+02 -0.24800389030E+02  0.19206788631E+02  0.33542297065E+02  0.51100000000E-03 0. -1.
        -11    1    3    3    0    0 -0.24611397734E+01  0.43406044198E+01  0.39340146321E+01  0.63540953014E+01  0.51100000000E-03 0.  1.
         12    1    3    3    0    0  0.81133543008E+01 -0.68469311094E+00  0.68377004000E+01  0.10632472404E+02  0.00000000000E+00 0. -1.
</event>
<event>
 7    1  0.6073302E-013  0.5052886E+02  0.7816164E-02  0.1300439E+00
        -11   -1    0    0    0    0  0.00000000000E+00  0.00000000000E+00  0.45593999997E+02  0.45594000000E+02  0.51100000000E-03 0.  1.
         11   -1    0    0    0    0 -0.00000000000E+00 -0.00000000000E+00 -0.45593999997E+02  0.45594000000E+02  0.51100000000E-03 0. -1.
    9900012    2    1    2    0    0 -0.34188176266E+02  0.21553504815E+02 -0.44475794868E+01  0.50528856754E+02  0.29999990590E+02 0.  0.
         12    1    1    2    0    0  0.34188176266E+02 -0.21553504815E+02  0.44475794868E+01  0.40659143246E+02  0.00000000000E+00 0. -1.
         11    1    3    3    0    0 -0.13799827951E+01 -0.39022168773E+01  0.44649062640E+01  0.60882704670E+01  0.51100000000E-03 0. -1.
        -11    1    3    3    0    0 -0.21648622083E+02  0.14626234798E+02 -0.11726950319E+02  0.28637579271E+02  0.51100000000E-03 0.  1.
        -12    1    3    3    0    0 -0.11159571387E+02  0.10829486895E+02  0.28144645682E+01  0.15803007016E+02  0.00000000000E+00 0.  1.
</event>
<event>
 7    1  0.6073302E-013  0.5052886E+02  0.7816164E-02  0.1300439E+00
        -11   -1    0    0    0    0  0.00000000000E+00  0.00000000000E+00  0.45593999997E+02  0.45594000000E+02  0.51100000000E-03 0.  1.
         11   -1    0    0    0    0 -0.00000000000E+00 -0.00000000000E+00 -0.45593999997E+02  0.45594000000E+02  0.51100000000E-03 0. -1.
    9900012    2    1    2    0    0 -0.25518947760E+02  0.15990123099E+02  0.27317846580E+02  0.50528862365E+02  0.30000007643E+02 0.  0.
         12    1    1    2    0    0  0.25518947760E+02 -0.15990123099E+02 -0.27317846580E+02  0.40659137635E+02  0.00000000000E+00 0. -1.
         11    1    3    3    0    0 -0.10676782207E+02 -0.59455388458E+01  0.69522854324E+01  0.14059778926E+02  0.51100000000E-03 0. -1.
        -11    1    3    3    0    0 -0.17178259507E+02  0.18658666777E+02  0.14087872593E+02  0.29012180202E+02  0.51100000000E-03 0.  1.
        -12    1    3    3    0    0  0.23360939543E+01  0.32769951673E+01  0.62776885546E+01  0.74569032364E+01  0.00000000000E+00 0.  1.
</event>
<event>
 7    1  0.6073302E-013  0.5052887E+02  0.7816164E-02  0.1300439E+00
        -11   -1    0    0    0    0  0.00000000000E+00  0.00000000000E+00  0.45593999997E+02  0.45594000000E+02  0.51100000000E-03 0. -1.
         11   -1    0    0    0    0 -0.00000000000E+00 -0.00000000000E+00 -0.45593999997E+02  0.45594000000E+02  0.51100000000E-03 0.  1.
    9900012    2    1    2    0    0 -0.13551404208E+02 -0.28345619823E+02 -0.25807941609E+02  0.50528873481E+02  0.30000041434E+02 0.  0.
         12    1    1    2    0    0  0.13551404208E+02  0.28345619823E+02  0.25807941609E+02  0.40659126519E+02  0.00000000000E+00 0. -1.
         11    1    3    3    0    0 -0.23964677066E+01 -0.28959250636E+02 -0.19239496795E+02  0.34850243788E+02  0.51100000000E-03 0.  1.
        -11    1    3    3    0    0 -0.52390781257E+01  0.42723595718E+01 -0.11409554055E+01  0.68558570154E+01  0.51100000000E-03 0. -1.
        -12    1    3    3    0    0 -0.59158583754E+01 -0.36587287582E+01 -0.54274894086E+01  0.88227726778E+01  0.00000000000E+00 0.  1.
</event>
<event>
 7    1  0.6073302E-013  0.5052886E+02  0.7816164E-02  0.1300439E+00
        -11   -1    0    0    0    0  0.00000000000E+00  0.00000000000E+00  0.45593999997E+02  0.45594000000E+02  0.51100000000E-03 0.  1.
         11   -1    0    0    0    0 -0.00000000000E+00 -0.00000000000E+00 -0.45593999997E+02  0.45594000000E+02  0.51100000000E-03 0. -1.
    9900012    2    1    2    0    0  0.10950661581E+02 -0.21506293330E+02  0.32721983674E+02  0.50528857641E+02  0.29999993285E+02 0.  0.
         12    1    1    2    0    0 -0.10950661581E+02  0.21506293330E+02 -0.32721983674E+02  0.40659142359E+02  0.00000000000E+00 0. -1.
         11    1    3    3    0    0  0.73336151699E+01  0.39228443027E+00 -0.64671857824E-01  0.73443843339E+01  0.51100000000E-03 0. -1.
        -11    1    3    3    0    0 -0.28474377923E+01 -0.75069770442E+01  0.23598992847E+02  0.24927395973E+02  0.51100000000E-03 0.  1.
        -12    1    3    3    0    0  0.64644842036E+01 -0.14391600716E+02  0.91876626844E+01  0.18257077334E+02  0.00000000000E+00 0.  1.
</event>
<event>
 7    1  0.6073302E-013  0.5052886E+02  0.7816164E-02  0.1300439E+00
        -11   -1    0    0    0    0  0.00000000000E+00  0.00000000000E+00  0.45593999997E+02  0.45594000000E+02  0.51100000000E-03 0.  1.
         11   -1    0    0    0    0 -0.00000000000E+00 -0.00000000000E+00 -0.45593999997E+02  0.45594000000E+02  0.51100000000E-03 0. -1.
    9900012    2    1    2    0    0 -0.14106326194E+02 -0.20811448715E+02  0.31954044801E+02  0.50528858156E+02  0.29999994852E+02 0.  0.
         12    1    1    2    0    0  0.14106326194E+02  0.20811448715E+02 -0.31954044801E+02  0.40659141844E+02  0.00000000000E+00 0. -1.
         11    1    3    3    0    0 -0.93207583401E+00  0.14850960046E+01 -0.10747371893E+01  0.20565348989E+01  0.51100000000E-03 0. -1.
        -11    1    3    3    0    0  0.97279934577E+00 -0.16213913248E+02  0.27822267894E+02  0.32216702382E+02  0.51100000000E-03 0.  1.
        -12    1    3    3    0    0 -0.14147049706E+02 -0.60826314715E+01  0.52065140968E+01  0.16255620875E+02  0.00000000000E+00 0.  1.
</event>
<event>
 7    1  0.6073302E-013  0.5052897E+02  0.7816164E-02  0.1300438E+00
        -11   -1    0    0    0    0  0.00000000000E+00  0.00000000000E+00  0.45593999997E+02  0.45594000000E+02  0.51100000000E-03 0.  1.
         11   -1    0    0    0    0 -0.00000000000E+00 -0.00000000000E+00 -0.45593999997E+02  0.45594000000E+02  0.51100000000E-03 0. -1.
    9900012    2    1    2    0    0 -0.15553020485E+02 -0.15205686801E+02  0.34351820569E+02  0.50528967379E+02  0.30000326844E+02 0.  0.
         12    1    1    2    0    0  0.15553020485E+02  0.15205686801E+02 -0.34351820569E+02  0.40659032621E+02  0.00000000000E+00 0. -1.
         11    1    3    3    0    0 -0.42164446724E+01 -0.11658782431E+02  0.37840457047E+01  0.12962430930E+02  0.51100000000E-03 0. -1.
        -11    1    3    3    0    0 -0.12243290202E+02 -0.80301595075E+01  0.29402457025E+02  0.32846401569E+02  0.51100000000E-03 0.  1.
        -12    1    3    3    0    0  0.90671438955E+00  0.44832551383E+01  0.11653178387E+01  0.47201348799E+01  0.00000000000E+00 0.  1.
</event>
<event>
 7    1  0.6073302E-013  0.5052884E+02  0.7816164E-02  0.1300439E+00
        -11   -1    0    0    0    0  0.00000000000E+00  0.00000000000E+00  0.45593999997E+02  0.45594000000E+02  0.51100000000E-03 0. -1.
         11   -1    0    0    0    0 -0.00000000000E+00 -0.00000000000E+00 -0.45593999997E+02  0.45594000000E+02  0.51100000000E-03 0.  1.
    9900012    2    1    2    0    0  0.39082489730E+02 -0.10505364307E+02 -0.39196025482E+01  0.50528843997E+02  0.29999951814E+02 0.  0.
         12    1    1    2    0    0 -0.39082489730E+02  0.10505364307E+02  0.39196025482E+01  0.40659156003E+02  0.00000000000E+00 0. -1.
         11    1    3    3    0    0  0.98608537426E+01  0.27156999291E+01  0.63591597386E+01  0.12043686125E+02  0.51100000000E-03 0. -1.
        -11    1    3    3    0    0  0.12037700789E+02 -0.13692482301E+02 -0.10976086445E+02  0.21280619957E+02  0.51100000000E-03 0.  1.
         12    1    3    3    0    0  0.17183935198E+02  0.47141806495E+00  0.69732415819E+00  0.17204537915E+02  0.00000000000E+00 0. -1.
</event>
<event>
 7    1  0.6073302E-013  0.5052886E+02  0.7816164E-02  0.1300439E+00
        -11   -1    0    0    0    0  0.00000000000E+00  0.00000000000E+00  0.45593999997E+02  0.45594000000E+02  0.51100000000E-03 0.  1.
         11   -1    0    0    0    0 -0.00000000000E+00 -0.00000000000E+00 -0.45593999997E+02  0.45594000000E+02  0.51100000000E-03 0. -1.
    9900012    2    1    2    0    0  0.39835385519E+02  0.57142797431E+00 -0.81228600442E+01  0.50528864191E+02  0.30000013196E+02 0.  0.
         12    1    1    2    0    0 -0.39835385519E+02 -0.57142797431E+00  0.81228600442E+01  0.40659135809E+02  0.00000000000E+00 0. -1.
         11    1    3    3    0    0  0.50714743856E+01  0.90826518802E+01 -0.25156214858E+01  0.10702465573E+02  0.51100000000E-03 0. -1.
        -11    1    3    3    0    0  0.16189218826E+02 -0.11905614759E+02 -0.58932391679E+01  0.20941937283E+02  0.51100000000E-03 0.  1.
        -12    1    3    3    0    0  0.18574692308E+02  0.33943908535E+01  0.28600060951E+00  0.18884461336E+02  0.00000000000E+00 0.  1.
</event>
<event>
 7    1  0.6073302E-013  0.5052887E+02  0.7816164E-02  0.1300439E+00
        -11   -1    0    0    0    0  0.00000000000E+00  0.00000000000E+00  0.45593999997E+02  0.45594000000E+02  0.51100000000E-03 0.  1.
         11   -1    0    0    0    0 -0.00000000000E+00 -0.00000000000E+00 -0.45593999997E+02  0.45594000000E+02  0.51100000000E-03 0. -1.
    9900012    2    1    2    0    0 -0.11427550014E+02  0.90553745872E+01  0.37954922918E+02  0.50528869636E+02  0.30000029746E+02 0.  0.
         12    1    1    2    0    0  0.11427550014E+02 -0.90553745872E+01 -0.37954922918E+02  0.40659130364E+02  0.00000000000E+00 0. -1.
         11    1    3    3    0    0  0.73697480308E+01  0.76326732379E+01  0.16415166236E+02  0.19545551146E+02  0.51100000000E-03 0. -1.
        -11    1    3    3    0    0 -0.19441207192E+01 -0.10620444205E+01 -0.12396430449E+01  0.25385544828E+01  0.51100000000E-03 0.  1.
         12    1    3    3    0    0 -0.16853177326E+02  0.24847457699E+01  0.22779399727E+02  0.28444764007E+02  0.00000000000E+00 0. -1.
</event>
<event>
 7    1  0.6073302E-013  0.5052886E+02  0.7816164E-02  0.1300439E+00
        -11   -1    0    0    0    0  0.00000000000E+00  0.00000000000E+00  0.45593999997E+02  0.45594000000E+02  0.51100000000E-03 0. -1.
         11   -1    0    0    0    0 -0.00000000000E+00 -0.00000000000E+00 -0.45593999997E+02  0.45594000000E+02  0.51100000000E-03 0.  1.
    9900012    2    1    2    0    0 -0.24518624414E+02 -0.26274370532E+02 -0.19017364475E+02  0.50528860295E+02  0.30000001353E+02 0.  0.
         12    1    1    2    0    0  0.24518624414E+02  0.26274370532E+02  0.19017364475E+02  0.40659139705E+02  0.00000000000E+00 0. -1.
         11    1    3    3    0    0 -0.62300538365E+01 -0.90042171658E+01  0.79406871873E+01  0.13525679681E+02  0.51100000000E-03 0. -1.
        -11    1    3    3    0    0 -0.10923402940E+02 -0.10609928036E+02 -0.18484165912E+02  0.23949022828E+02  0.51100000000E-03 0.  1.
         12    1    3    3    0    0 -0.73651676372E+01 -0.66602253302E+01 -0.84738857506E+01  0.13054157785E+02  0.00000000000E+00 0. -1.
</event>
<event>
 7    1  0.6073302E-013  0.5052886E+02  0.7816164E-02  0.1300439E+00
        -11   -1    0    0    0    0  0.00000000000E+00  0.00000000000E+00  0.45593999997E+02  0.45594000000E+02  0.51100000000E-03 0.  1.
         11   -1    0    0    0    0 -0.00000000000E+00 -0.00000000000E+00 -0.45593999997E+02  0.45594000000E+02  0.51100000000E-03 0. -1.
    9900012    2    1    2    0    0  0.52818472903E+00  0.18295582650E+02  0.36306451822E+02  0.50528858746E+02  0.29999996644E+02 0.  0.
         12    1    1    2    0    0 -0.52818472903E+00 -0.18295582650E+02 -0.36306451822E+02  0.40659141254E+02  0.00000000000E+00 0. -1.
         11    1    3    3    0    0  0.81795429208E+01  0.14693737835E+02  0.58597603715E+01  0.17808639640E+02  0.51100000000E-03 0. -1.
        -11    1    3    3    0    0 -0.23834766443E+01  0.49791392242E+01  0.21911299460E+02  0.22595969389E+02  0.51100000000E-03 0.  1.
         12    1    3    3    0    0 -0.52678815475E+01 -0.13772944097E+01  0.85353919907E+01  0.10124249717E+02  0.00000000000E+00 0. -1.
</event>
<event>
 7    1  0.6073302E-013  0.5052885E+02  0.7816164E-02  0.1300439E+00
        -11   -1    0    0    0    0  0.00000000000E+00  0.00000000000E+00  0.45593999997E+02  0.45594000000E+02  0.51100000000E-03 0.  1.
         11   -1    0    0    0    0 -0.00000000000E+00 -0.00000000000E+00 -0.45593999997E+02  0.45594000000E+02  0.51100000000E-03 0. -1.
    9900012    2    1    2    0    0  0.39742889459E+02 -0.71137519761E+01  0.48024457335E+01  0.50528853246E+02  0.29999979927E+02 0.  0.
         12    1    1    2    0    0 -0.39742889459E+02  0.71137519761E+01 -0.48024457335E+01  0.40659146754E+02  0.00000000000E+00 0. -1.
         11    1    3    3    0    0  0.11267784108E+02 -0.82885191215E+01 -0.20088230870E+01  0.14131449975E+02  0.51100000000E-03 0. -1.
        -11    1    3    3    0    0  0.92488459972E+01  0.66709744324E+00  0.13199631446E+02  0.16131225677E+02  0.51100000000E-03 0.  1.
        -12    1    3    3    0    0  0.19226259354E+02  0.50766970214E+00 -0.63883626252E+01  0.20266177595E+02  0.00000000000E+00 0.  1.
</event>
<event>
 7    1  0.6073302E-013  0.5052885E+02  0.7816164E-02  0.1300439E+00
        -11   -1    0    0    0    0  0.00000000000E+00  0.00000000000E+00  0.45593999997E+02  0.45594000000E+02  0.51100000000E-03 0.  1.
         11   -1    0    0    0    0 -0.00000000000E+00 -0.00000000000E+00 -0.45593999997E+02  0.45594000000E+02  0.51100000000E-03 0. -1.
    9900012    2    1    2    0    0 -0.30324537395E+02 -0.17254633698E+01 -0.27029833732E+02  0.50528847234E+02  0.29999961652E+02 0.  0.
         12    1    1    2    0    0  0.30324537395E+02  0.17254633698E+01  0.27029833732E+02  0.40659152766E+02  0.00000000000E+00 0. -1.
         11    1    3    3    0    0  0.33462698211E+01 -0.54661785557E+00 -0.75205260569E+01  0.82495227273E+01  0.51100000000E-03 0. -1.
        -11    1    3    3    0    0 -0.25735087849E+02  0.43310510200E+01 -0.19567624783E+02  0.32618165023E+02  0.51100000000E-03 0.  1.
        -12    1    3    3    0    0 -0.79357193669E+01 -0.55098965343E+01  0.58317107477E-01  0.96611594839E+01  0.00000000000E+00 0.  1.
</event>
<event>
 7    1  0.6073302E-013  0.5052886E+02  0.7816164E-02  0.1300439E+00
        -11   -1    0    0    0    0  0.00000000000E+00  0.00000000000E+00  0.45593999997E+02  0.45594000000E+02  0.51100000000E-03 0. -1.
         11   -1    0    0    0    0 -0.00000000000E+00 -0.00000000000E+00 -0.45593999997E+02  0.45594000000E+02  0.51100000000E-03 0.  1.
    9900012    2    1    2    0    0  0.39840756112E+02  0.58572405655E+01 -0.56189206149E+01  0.50528863468E+02  0.30000010998E+02 0.  0.
         12    1    1    2    0    0 -0.39840756112E+02 -0.58572405655E+01  0.56189206149E+01  0.40659136532E+02  0.00000000000E+00 0. -1.
         11    1    3    3    0    0  0.92007043036E+01 -0.71167342108E+00 -0.14741533017E+02  0.17391728916E+02  0.51100000000E-03 0. -1.
        -11    1    3    3    0    0  0.22279078523E+02  0.22285737404E+01  0.72284923175E+01  0.23528174221E+02  0.51100000000E-03 0.  1.
         12    1    3    3    0    0  0.83609732859E+01  0.43403402462E+01  0.18941200847E+01  0.96089603306E+01  0.00000000000E+00 0. -1.
</event>
<event>
 7    1  0.6073302E-013  0.5052886E+02  0.7816164E-02  0.1300439E+00
        -11   -1    0    0    0    0  0.00000000000E+00  0.00000000000E+00  0.45593999997E+02  0.45594000000E+02  0.51100000000E-03 0. -1.
         11   -1    0    0    0    0 -0.00000000000E+00 -0.00000000000E+00 -0.45593999997E+02  0.45594000000E+02  0.51100000000E-03 0.  1.
    9900012    2    1    2    0    0  0.27858774268E+01  0.40423671017E+02 -0.33662440753E+01  0.50528857231E+02  0.29999992038E+02 0.  0.
         12    1    1    2    0    0 -0.27858774268E+01 -0.40423671017E+02  0.33662440753E+01  0.40659142769E+02  0.00000000000E+00 0. -1.
         11    1    3    3    0    0 -0.66752569615E+01  0.23826320459E+02 -0.10230823947E+02  0.26775405898E+02  0.51100000000E-03 0. -1.
        -11    1    3    3    0    0  0.56189718529E+01  0.14278718504E+02 -0.24449270747E+00  0.15346479197E+02  0.51100000000E-03 0.  1.
         12    1    3    3    0    0  0.38421625354E+01  0.23186320540E+01  0.71090725788E+01  0.84069721351E+01  0.00000000000E+00 0. -1.
</event>
<event>
 7    1  0.6073302E-013  0.5052886E+02  0.7816164E-02  0.1300439E+00
        -11   -1    0    0    0    0  0.00000000000E+00  0.00000000000E+00  0.45593999997E+02  0.45594000000E+02  0.51100000000E-03 0.  1.
         11   -1    0    0    0    0 -0.00000000000E+00 -0.00000000000E+00 -0.45593999997E+02  0.45594000000E+02  0.51100000000E-03 0. -1.
    9900012    2    1    2    0    0  0.28509999206E+02  0.21327774376E+02  0.19633438964E+02  0.50528856624E+02  0.29999990194E+02 0.  0.
         12    1    1    2    0    0 -0.28509999206E+02 -0.21327774376E+02 -0.19633438964E+02  0.40659143376E+02  0.00000000000E+00 0. -1.
         11    1    3    3    0    0  0.15730005712E+02 -0.42591410242E+01  0.11574380371E+01  0.16337473031E+02  0.51100000000E-03 0. -1.
        -11    1    3    3    0    0  0.65754984949E+01  0.10109826873E+02  0.85910242210E+01  0.14807142779E+02  0.51100000000E-03 0.  1.
         12    1    3    3    0    0  0.62044949996E+01  0.15477088527E+02  0.98849767056E+01  0.19384240814E+02  0.00000000000E+00 0. -1.
</event>
<event>
 7    1  0.6073302E-013  0.5052886E+02  0.7816164E-02  0.1300439E+00
        -11   -1    0    0    0    0  0.00000000000E+00  0.00000000000E+00  0.45593999997E+02  0.45594000000E+02  0.51100000000E-03 0.  1.
         11   -1    0    0    0    0 -0.00000000000E+00 -0.00000000000E+00 -0.45593999997E+02  0.45594000000E+02  0.51100000000E-03 0. -1.
    9900012    2    1    2    0    0  0.19018827859E+02 -0.32944012447E+02  0.14357628472E+02  0.50528864931E+02  0.30000015443E+02 0.  0.
         12    1    1    2    0    0 -0.19018827859E+02  0.32944012447E+02 -0.14357628472E+02  0.40659135069E+02  0.00000000000E+00 0. -1.
         11    1    3    3    0    0 -0.20347472862E+01 -0.22916169426E+01  0.62030158228E+01  0.69187506307E+01  0.51100000000E-03 0. -1.
        -11    1    3    3    0    0  0.21343871974E+02 -0.33571222035E+02  0.67217774065E+01  0.40345633116E+02  0.51100000000E-03 0.  1.
        -12    1    3    3    0    0 -0.29029682874E+00  0.29188265307E+01  0.14328352426E+01  0.32644811835E+01  0.00000000000E+00 0.  1.
</event>
<event>
 7    1  0.6073302E-013  0.5052886E+02  0.7816164E-02  0.1300439E+00
        -11   -1    0    0    0    0  0.00000000000E+00  0.00000000000E+00  0.45593999997E+02  0.45594000000E+02  0.51100000000E-03 0.  1.
         11   -1    0    0    0    0 -0.00000000000E+00 -0.00000000000E+00 -0.45593999997E+02  0.45594000000E+02  0.51100000000E-03 0. -1.
    9900012    2    1    2    0    0 -0.21454325873E+01  0.54265797786E+01  0.40238224089E+02  0.50528864164E+02  0.30000013113E+02 0.  0.
         12    1    1    2    0    0  0.21454325873E+01 -0.54265797786E+01 -0.40238224089E+02  0.40659135836E+02  0.00000000000E+00 0. -1.
         11    1    3    3    0    0 -0.47325705865E+01 -0.11090014690E+02  0.13780779898E+02  0.18311077113E+02  0.51100000000E-03 0. -1.
        -11    1    3    3    0    0  0.24762195357E+00  0.14575709633E+02  0.24769135534E+02  0.28740610698E+02  0.51100000000E-03 0.  1.
         12    1    3    3    0    0  0.23395160456E+01  0.19408848354E+01  0.16883086574E+01  0.34771763537E+01  0.00000000000E+00 0. -1.
</event>
<event>
 7    1  0.9679720E-013  0.5052887E+02  0.7816164E-02  0.1300439E+00
        -11   -1    0    0    0    0  0.00000000000E+00  0.00000000000E+00  0.45593999997E+02  0.45594000000E+02  0.51100000000E-03 0.  1.
         11   -1    0    0    0    0 -0.00000000000E+00 -0.00000000000E+00 -0.45593999997E+02  0.45594000000E+02  0.51100000000E-03 0. -1.
    9900012    2    1    2    0    0  0.34256679140E+02 -0.72791274003E+01  0.20655737002E+02  0.50528865325E+02  0.30000016642E+02 0.  0.
         12    1    1    2    0    0 -0.34256679140E+02  0.72791274003E+01 -0.20655737002E+02  0.40659134675E+02  0.00000000000E+00 0. -1.
         11    1    3    3    0    0  0.10246930500E+01  0.15731685562E+01  0.10720908650E+02  0.10884058880E+02  0.51100000000E-03 0. -1.
        -11    1    3    3    0    0  0.26548121173E+02 -0.97947137452E+01  0.14199828111E+02  0.31660294910E+02  0.51100000000E-03 0.  1.
         12    1    3    3    0    0  0.66838649170E+01  0.94241778871E+00 -0.42649997585E+01  0.79845115353E+01  0.00000000000E+00 0. -1.
</event>
<event>
 7    1  0.6073302E-013  0.5052886E+02  0.7816164E-02  0.1300439E+00
        -11   -1    0    0    0    0  0.00000000000E+00  0.00000000000E+00  0.45593999997E+02  0.45594000000E+02  0.51100000000E-03 0. -1.
         11   -1    0    0    0    0 -0.00000000000E+00 -0.00000000000E+00 -0.45593999997E+02  0.45594000000E+02  0.51100000000E-03 0.  1.
    9900012    2    1    2    0    0 -0.36100055182E+01 -0.23184401371E+02 -0.33205677339E+02  0.50528860629E+02  0.30000002369E+02 0.  0.
         12    1    1    2    0    0  0.36100055182E+01  0.23184401371E+02  0.33205677339E+02  0.40659139371E+02  0.00000000000E+00 0. -1.
         11    1    3    3    0    0 -0.52779984179E+01 -0.20810895575E+02 -0.31266972035E+02  0.37928540473E+02  0.51100000000E-03 0.  1.
        -11    1    3    3    0    0 -0.13924451675E+01  0.19978601439E+01  0.39582554259E+01  0.46473793666E+01  0.51100000000E-03 0. -1.
         12    1    3    3    0    0  0.30604380672E+01 -0.43713659401E+01 -0.58969607303E+01  0.79529407894E+01  0.00000000000E+00 0. -1.
</event>
<event>
 7    1  0.6073302E-013  0.5052886E+02  0.7816164E-02  0.1300439E+00
        -11   -1    0    0    0    0  0.00000000000E+00  0.00000000000E+00  0.45593999997E+02  0.45594000000E+02  0.51100000000E-03 0. -1.
         11   -1    0    0    0    0 -0.00000000000E+00 -0.00000000000E+00 -0.45593999997E+02  0.45594000000E+02  0.51100000000E-03 0.  1.
    9900012    2    1    2    0    0  0.14074658481E+02 -0.14621613929E+02 -0.35231772200E+02  0.50528863541E+02  0.30000011220E+02 0.  0.
         12    1    1    2    0    0 -0.14074658481E+02  0.14621613929E+02  0.35231772200E+02  0.40659136459E+02  0.00000000000E+00 0. -1.
         11    1    3    3    0    0  0.53221449353E+01  0.59629068775E+01 -0.52252705185E+01  0.95490804476E+01  0.51100000000E-03 0. -1.
        -11    1    3    3    0    0  0.12894266631E+02 -0.10381814597E+02 -0.21089938023E+02  0.26810999093E+02  0.51100000000E-03 0.  1.
         12    1    3    3    0    0 -0.41417530847E+01 -0.10202706209E+02 -0.89165636583E+01  0.14168784001E+02  0.00000000000E+00 0. -1.
</event>
<event>
 7    1  0.6073302E-013  0.5052888E+02  0.7816164E-02  0.1300439E+00
        -11   -1    0    0    0    0  0.00000000000E+00  0.00000000000E+00  0.45593999997E+02  0.45594000000E+02  0.51100000000E-03 0.  1.
         11   -1    0    0    0    0 -0.00000000000E+00 -0.00000000000E+00 -0.45593999997E+02  0.45594000000E+02  0.51100000000E-03 0. -1.
    9900012    2    1    2    0    0  0.82323117515E+01  0.18578322930E+02  0.35217031274E+02  0.50528876406E+02  0.30000050324E+02 0.  0.
         12    1    1    2    0    0 -0.82323117515E+01 -0.18578322930E+02 -0.35217031274E+02  0.40659123594E+02  0.00000000000E+00 0. -1.
         11    1    3    3    0    0  0.90523240762E+01  0.12647735512E+01  0.59435222102E+01  0.10902737264E+02  0.51100000000E-03 0.  1.
        -11    1    3    3    0    0  0.27528767548E+00  0.17427255296E+02  0.95545940488E+01  0.19876500652E+02  0.51100000000E-03 0. -1.
        -12    1    3    3    0    0 -0.10953000003E+01 -0.11370591780E+00  0.19718915015E+02  0.19749638490E+02  0.00000000000E+00 0.  1.
</event>
<event>
 7    1  0.6073302E-013  0.5052880E+02  0.7816164E-02  0.1300439E+00
        -11   -1    0    0    0    0  0.00000000000E+00  0.00000000000E+00  0.45593999997E+02  0.45594000000E+02  0.51100000000E-03 0.  1.
         11   -1    0    0    0    0 -0.00000000000E+00 -0.00000000000E+00 -0.45593999997E+02  0.45594000000E+02  0.51100000000E-03 0. -1.
    9900012    2    1    2    0    0 -0.36681591162E+02  0.11893358008E+02  0.12891059921E+02  0.50528800293E+02  0.29999818971E+02 0.  0.
         12    1    1    2    0    0  0.36681591162E+02 -0.11893358008E+02 -0.12891059921E+02  0.40659199707E+02  0.00000000000E+00 0. -1.
         11    1    3    3    0    0 -0.50496833263E+01  0.87610208705E+01 -0.14274002632E-03  0.10112110990E+02  0.51100000000E-03 0. -1.
        -11    1    3    3    0    0 -0.33962844730E+02  0.29472800202E+01  0.80316273623E+01  0.35023825034E+02  0.51100000000E-03 0.  1.
        -12    1    3    3    0    0  0.23309368944E+01  0.18505711708E+00  0.48595752988E+01  0.53928642692E+01  0.00000000000E+00 0.  1.
</event>
<event>
 7    1  0.6073302E-013  0.5052884E+02  0.7816164E-02  0.1300439E+00
        -11   -1    0    0    0    0  0.00000000000E+00  0.00000000000E+00  0.45593999997E+02  0.45594000000E+02  0.51100000000E-03 0.  1.
         11   -1    0    0    0    0 -0.00000000000E+00 -0.00000000000E+00 -0.45593999997E+02  0.45594000000E+02  0.51100000000E-03 0. -1.
    9900012    2    1    2    0    0 -0.51211970284E+01  0.36685600270E+02  0.16766263994E+02  0.50528837017E+02  0.29999930597E+02 0.  0.
         12    1    1    2    0    0  0.51211970284E+01 -0.36685600270E+02 -0.16766263994E+02  0.40659162983E+02  0.00000000000E+00 0. -1.
         11    1    3    3    0    0 -0.73858711885E+01  0.56923830997E+01 -0.20196283479E+01  0.95411329249E+01  0.51100000000E-03 0. -1.
        -11    1    3    3    0    0  0.47554081215E+00  0.33314257930E+02  0.18314212494E+02  0.38019420038E+02  0.51100000000E-03 0.  1.
        -12    1    3    3    0    0  0.17891333480E+01 -0.23210407599E+01  0.47167984782E+00  0.29682840539E+01  0.00000000000E+00 0.  1.
</event>
<event>
 7    1  0.6073302E-013  0.5052892E+02  0.7816164E-02  0.1300439E+00
        -11   -1    0    0    0    0  0.00000000000E+00  0.00000000000E+00  0.45593999997E+02  0.45594000000E+02  0.51100000000E-03 0. -1.
         11   -1    0    0    0    0 -0.00000000000E+00 -0.00000000000E+00 -0.45593999997E+02  0.45594000000E+02  0.51100000000E-03 0.  1.
    9900012    2    1    2    0    0  0.36698105765E+02  0.16727979426E+02  0.51559865404E+01  0.50528924020E+02  0.30000195050E+02 0.  0.
         12    1    1    2    0    0 -0.36698105765E+02 -0.16727979426E+02 -0.51559865404E+01  0.40659075980E+02  0.00000000000E+00 0. -1.
         11    1    3    3    0    0  0.26357221817E+02  0.15635512608E+02  0.11165231242E+02  0.32616480273E+02  0.51100000000E-03 0. -1.
        -11    1    3    3    0    0  0.21774572799E+01 -0.39062836403E+01 -0.69813158933E+01  0.82909073054E+01  0.51100000000E-03 0.  1.
         12    1    3    3    0    0  0.81634266673E+01  0.49987504581E+01  0.97207119196E+00  0.96215364416E+01  0.00000000000E+00 0. -1.
</event>
<event>
 7    1  0.6073302E-013  0.5052886E+02  0.7816164E-02  0.1300439E+00
        -11   -1    0    0    0    0  0.00000000000E+00  0.00000000000E+00  0.45593999997E+02  0.45594000000E+02  0.51100000000E-03 0.  1.
         11   -1    0    0    0    0 -0.00000000000E+00 -0.00000000000E+00 -0.45593999997E+02  0.45594000000E+02  0.51100000000E-03 0. -1.
    9900012    2    1    2    0    0 -0.15613573408E+02  0.99557296134E+01  0.36197584445E+02  0.50528863925E+02  0.30000012387E+02 0.  0.
         12    1    1    2    0    0  0.15613573408E+02 -0.99557296134E+01 -0.36197584445E+02  0.40659136075E+02  0.00000000000E+00 0. -1.
         11    1    3    3    0    0 -0.10475882558E+02 -0.63899208197E+01  0.67412810052E+01  0.14000716885E+02  0.51100000000E-03 0. -1.
        -11    1    3    3    0    0  0.34560900720E+01  0.93387715044E+01  0.98670662998E+01  0.14018423928E+02  0.51100000000E-03 0.  1.
         12    1    3    3    0    0 -0.85937809224E+01  0.70068789287E+01  0.19589237140E+02  0.22509723112E+02  0.00000000000E+00 0. -1.
</event>
<event>
 7    1  0.6073302E-013  0.5052886E+02  0.7816164E-02  0.1300439E+00
        -11   -1    0    0    0    0  0.00000000000E+00  0.00000000000E+00  0.45593999997E+02  0.45594000000E+02  0.51100000000E-03 0.  1.
         11   -1    0    0    0    0 -0.00000000000E+00 -0.00000000000E+00 -0.45593999997E+02  0.45594000000E+02  0.51100000000E-03 0. -1.
    9900012    2    1    2    0    0  0.19092145253E+02 -0.14849878103E+02  0.32682360558E+02  0.50528861032E+02  0.30000003592E+02 0.  0.
         12    1    1    2    0    0 -0.19092145253E+02  0.14849878103E+02 -0.32682360558E+02  0.40659138968E+02  0.00000000000E+00 0. -1.
         11    1    3    3    0    0  0.91157006734E+01 -0.23070302772E+02  0.17444313754E+02  0.30325549482E+02  0.51100000000E-03 0. -1.
        -11    1    3    3    0    0  0.80857247696E+00  0.15490396025E+01  0.10397831953E+01  0.20333377720E+01  0.51100000000E-03 0.  1.
         12    1    3    3    0    0  0.91678721024E+01  0.66713850671E+01  0.14198263608E+02  0.18169973778E+02  0.00000000000E+00 0. -1.
</event>
<event>
 7    1  0.6073302E-013  0.5052886E+02  0.7816164E-02  0.1300439E+00
        -11   -1    0    0    0    0  0.00000000000E+00  0.00000000000E+00  0.45593999997E+02  0.45594000000E+02  0.51100000000E-03 0.  1.
         11   -1    0    0    0    0 -0.00000000000E+00 -0.00000000000E+00 -0.45593999997E+02  0.45594000000E+02  0.51100000000E-03 0. -1.
    9900012    2    1    2    0    0  0.40844395933E+01  0.39277143533E+02  0.96844854773E+01  0.50528856995E+02  0.29999991323E+02 0.  0.
         12    1    1    2    0    0 -0.40844395933E+01 -0.39277143533E+02 -0.96844854773E+01  0.40659143005E+02  0.00000000000E+00 0. -1.
         11    1    3    3    0    0 -0.31328622172E+01  0.91956545802E+01  0.10211728701E+02  0.14094477364E+02  0.51100000000E-03 0.  1.
        -11    1    3    3    0    0  0.49198422268E+01  0.31697599168E+02  0.26585252460E+01  0.32187115393E+02  0.51100000000E-03 0. -1.
        -12    1    3    3    0    0  0.22974595838E+01 -0.16161102154E+01 -0.31857684698E+01  0.42472642384E+01  0.00000000000E+00 0.  1.
</event>
<event>
 7    1  0.6073302E-013  0.5052886E+02  0.7816164E-02  0.1300439E+00
        -11   -1    0    0    0    0  0.00000000000E+00  0.00000000000E+00  0.45593999997E+02  0.45594000000E+02  0.51100000000E-03 0. -1.
         11   -1    0    0    0    0 -0.00000000000E+00 -0.00000000000E+00 -0.45593999997E+02  0.45594000000E+02  0.51100000000E-03 0.  1.
    9900012    2    1    2    0    0  0.10086686392E+01 -0.38114677262E+02  0.14121605263E+02  0.50528858711E+02  0.29999996538E+02 0.  0.
         12    1    1    2    0    0 -0.10086686392E+01  0.38114677262E+02 -0.14121605263E+02  0.40659141289E+02  0.00000000000E+00 0. -1.
         11    1    3    3    0    0  0.11071183527E+02 -0.13646474817E+02 -0.27242796615E+01  0.17782549860E+02  0.51100000000E-03 0. -1.
        -11    1    3    3    0    0 -0.24342383780E+01 -0.29856622568E+01 -0.77987725098E+00  0.39303822181E+01  0.51100000000E-03 0.  1.
         12    1    3    3    0    0 -0.76282765094E+01 -0.21482540188E+02  0.17625762175E+02  0.28815926633E+02  0.00000000000E+00 0. -1.
</event>
<event>
 7    1  0.6073302E-013  0.5052887E+02  0.7816164E-02  0.1300439E+00
        -11   -1    0    0    0    0  0.00000000000E+00  0.00000000000E+00  0.45593999997E+02  0.45594000000E+02  0.51100000000E-03 0.  1.
         11   -1    0    0    0    0 -0.00000000000E+00 -0.00000000000E+00 -0.45593999997E+02  0.45594000000E+02  0.51100000000E-03 0. -1.
    9900012    2    1    2    0    0 -0.27250572738E+02 -0.29985316707E+02  0.33841087482E+01  0.50528866652E+02  0.30000020675E+02 0.  0.
         12    1    1    2    0    0  0.27250572738E+02  0.29985316707E+02 -0.33841087482E+01  0.40659133348E+02  0.00000000000E+00 0. -1.
         11    1    3    3    0    0  0.41154285452E+01 -0.31473807246E+01 -0.41151322847E+01  0.66164243756E+01  0.51100000000E-03 0. -1.
        -11    1    3    3    0    0 -0.29028659908E+02 -0.26302112696E+02  0.36032408280E+01  0.39337610160E+02  0.51100000000E-03 0.  1.
         12    1    3    3    0    0 -0.23373413754E+01 -0.53582328642E+00  0.38960002049E+01  0.45748321167E+01  0.00000000000E+00 0. -1.
</event>
<event>
 7    1  0.6073302E-013  0.5052887E+02  0.7816164E-02  0.1300439E+00
        -11   -1    0    0    0    0  0.00000000000E+00  0.00000000000E+00  0.45593999997E+02  0.45594000000E+02  0.51100000000E-03 0.  1.
         11   -1    0    0    0    0 -0.00000000000E+00 -0.00000000000E+00 -0.45593999997E+02  0.45594000000E+02  0.51100000000E-03 0. -1.
    9900012    2    1    2    0    0  0.63396809013E+01 -0.21660252457E+02  0.33820217378E+02  0.50528865799E+02  0.30000018083E+02 0.  0.
         12    1    1    2    0    0 -0.63396809013E+01  0.21660252457E+02 -0.33820217378E+02  0.40659134201E+02  0.00000000000E+00 0. -1.
         11    1    3    3    0    0  0.13895075473E+01 -0.24175364383E+01 -0.44482771881E+01  0.52499889389E+01  0.51100000000E-03 0. -1.
        -11    1    3    3    0    0  0.63351366152E+01 -0.18620254642E+02  0.38934792390E+02  0.43620704918E+02  0.51100000000E-03 0.  1.
        -12    1    3    3    0    0 -0.13849632612E+01 -0.62246137669E+00 -0.66629782320E+00  0.16581719421E+01  0.00000000000E+00 0.  1.
</event>
<event>
 7    1  0.6073302E-013  0.5052881E+02  0.7816164E-02  0.1300439E+00
        -11   -1    0    0    0    0  0.00000000000E+00  0.00000000000E+00  0.45593999997E+02  0.45594000000E+02  0.51100000000E-03 0.  1.
         11   -1    0    0    0    0 -0.00000000000E+00 -0.00000000000E+00 -0.45593999997E+02  0.45594000000E+02  0.51100000000E-03 0. -1.
    9900012    2    1    2    0    0 -0.66529245420E+01  0.31594311183E+02  0.24712503541E+02  0.50528809952E+02  0.29999848330E+02 0.  0.
         12    1    1    2    0    0  0.66529245420E+01 -0.31594311183E+02 -0.24712503541E+02  0.40659190048E+02  0.00000000000E+00 0. -1.
         11    1    3    3    0    0 -0.84698768465E+01  0.10051108767E+02  0.20993564075E+02  0.24768797590E+02  0.51100000000E-03 0.  1.
        -11    1    3    3    0    0 -0.14628920624E+01  0.22103812008E+02  0.34822111671E+01  0.22424191253E+02  0.51100000000E-03 0. -1.
         12    1    3    3    0    0  0.32798443668E+01 -0.56060959169E+00  0.23672829882E+00  0.33358211092E+01  0.00000000000E+00 0. -1.
</event>
<event>
 7    1  0.6073302E-013  0.5052886E+02  0.7816164E-02  0.1300439E+00
        -11   -1    0    0    0    0  0.00000000000E+00  0.00000000000E+00  0.45593999997E+02  0.45594000000E+02  0.51100000000E-03 0.  1.
         11   -1    0    0    0    0 -0.00000000000E+00 -0.00000000000E+00 -0.45593999997E+02  0.45594000000E+02  0.51100000000E-03 0. -1.
    9900012    2    1    2    0    0  0.13494534089E+00 -0.46038210784E+01  0.40397430096E+02  0.50528859120E+02  0.29999997780E+02 0.  0.
         12    1    1    2    0    0 -0.13494534089E+00  0.46038210784E+01 -0.40397430096E+02  0.40659140880E+02  0.00000000000E+00 0. -1.
         11    1    3    3    0    0 -0.32058393877E+00  0.11400829875E+02  0.71154585881E+01  0.13442895784E+02  0.51100000000E-03 0. -1.
        -11    1    3    3    0    0  0.19110329275E+01 -0.83383421563E+01  0.17043552551E+02  0.19069941809E+02  0.51100000000E-03 0.  1.
         12    1    3    3    0    0 -0.14555036479E+01 -0.76663087967E+01  0.16238418956E+02  0.18016021526E+02  0.00000000000E+00 0. -1.
</event>
<event>
 7    1  0.6073302E-013  0.5052886E+02  0.7816164E-02  0.1300439E+00
        -11   -1    0    0    0    0  0.00000000000E+00  0.00000000000E+00  0.45593999997E+02  0.45594000000E+02  0.51100000000E-03 0.  1.
         11   -1    0    0    0    0 -0.00000000000E+00 -0.00000000000E+00 -0.45593999997E+02  0.45594000000E+02  0.51100000000E-03 0. -1.
    9900012    2    1    2    0    0  0.23037238902E+02 -0.43463926089E+01  0.33219876239E+02  0.50528859794E+02  0.29999999831E+02 0.  0.
         12    1    1    2    0    0 -0.23037238902E+02  0.43463926089E+01 -0.33219876239E+02  0.40659140206E+02  0.00000000000E+00 0. -1.
         11    1    3    3    0    0  0.32657602529E+01  0.50624390749E+01 -0.59753120565E-01  0.60247033215E+01  0.51100000000E-03 0.  1.
        -11    1    3    3    0    0  0.18771412964E+02 -0.86017269393E+01  0.13471428183E+02  0.24654310547E+02  0.51100000000E-03 0. -1.
         12    1    3    3    0    0  0.10000656859E+01 -0.80710474447E+00  0.19808201176E+02  0.19849845926E+02  0.00000000000E+00 0. -1.
</event>
<event>
 7    1  0.6073302E-013  0.5052886E+02  0.7816164E-02  0.1300439E+00
        -11   -1    0    0    0    0  0.00000000000E+00  0.00000000000E+00  0.45593999997E+02  0.45594000000E+02  0.51100000000E-03 0.  1.
         11   -1    0    0    0    0 -0.00000000000E+00 -0.00000000000E+00 -0.45593999997E+02  0.45594000000E+02  0.51100000000E-03 0. -1.
    9900012    2    1    2    0    0 -0.22472760960E+02 -0.33727149647E+02  0.32588798316E+01  0.50528857040E+02  0.29999991459E+02 0.  0.
         12    1    1    2    0    0  0.22472760960E+02  0.33727149647E+02 -0.32588798316E+01  0.40659142960E+02  0.00000000000E+00 0. -1.
         11    1    3    3    0    0 -0.56154495320E+01  0.87887083860E-01 -0.37919160292E+01  0.67764020704E+01  0.51100000000E-03 0. -1.
        -11    1    3    3    0    0 -0.19254842072E+02 -0.35295205178E+02  0.56336207131E+01  0.40598499164E+02  0.51100000000E-03 0.  1.
        -12    1    3    3    0    0  0.23975306441E+01  0.14801684473E+01  0.14171751477E+01  0.31539558052E+01  0.00000000000E+00 0.  1.
</event>
<event>
 7    1  0.6073302E-013  0.5052885E+02  0.7816164E-02  0.1300439E+00
        -11   -1    0    0    0    0  0.00000000000E+00  0.00000000000E+00  0.45593999997E+02  0.45594000000E+02  0.51100000000E-03 0. -1.
         11   -1    0    0    0    0 -0.00000000000E+00 -0.00000000000E+00 -0.45593999997E+02  0.45594000000E+02  0.51100000000E-03 0.  1.
    9900012    2    1    2    0    0 -0.19093916251E+02 -0.11006375056E+01 -0.35880042531E+02  0.50528849828E+02  0.29999969537E+02 0.  0.
         12    1    1    2    0    0  0.19093916251E+02  0.11006375056E+01  0.35880042531E+02  0.40659150172E+02  0.00000000000E+00 0. -1.
         11    1    3    3    0    0 -0.18751639812E+01 -0.14506157601E+01  0.20329927353E+01  0.31230731280E+01  0.51100000000E-03 0. -1.
        -11    1    3    3    0    0 -0.12663179586E+02 -0.91421284991E+01 -0.31278427189E+02  0.34961044584E+02  0.51100000000E-03 0.  1.
        -12    1    3    3    0    0 -0.45555726837E+01  0.94921067537E+01 -0.66346080772E+01  0.12444732116E+02  0.00000000000E+00 0.  1.
</event>
<event>
 7    1  0.6073302E-013  0.5052886E+02  0.7816164E-02  0.1300439E+00
        -11   -1    0    0    0    0  0.00000000000E+00  0.00000000000E+00  0.45593999997E+02  0.45594000000E+02  0.51100000000E-03 0.  1.
         11   -1    0    0    0    0 -0.00000000000E+00 -0.00000000000E+00 -0.45593999997E+02  0.45594000000E+02  0.51100000000E-03 0. -1.
    9900012    2    1    2    0    0 -0.10000678255E+02  0.13806496321E+02  0.36912503143E+02  0.50528858414E+02  0.29999995635E+02 0.  0.
         12    1    1    2    0    0  0.10000678255E+02 -0.13806496321E+02 -0.36912503143E+02  0.40659141586E+02  0.00000000000E+00 0. -1.
         11    1    3    3    0    0 -0.48576859792E+01 -0.82749945158E-02 -0.43430662451E+01  0.65160882605E+01  0.51100000000E-03 0. -1.
        -11    1    3    3    0    0 -0.27695712745E+01  0.98013870809E+01  0.22698581739E+02  0.24878973592E+02  0.51100000000E-03 0.  1.
         12    1    3    3    0    0 -0.23734210014E+01  0.40133842350E+01  0.18556987649E+02  0.19133796562E+02  0.00000000000E+00 0. -1.
</event>
<event>
 7    1  0.6073302E-013  0.5052887E+02  0.7816164E-02  0.1300439E+00
        -11   -1    0    0    0    0  0.00000000000E+00  0.00000000000E+00  0.45593999997E+02  0.45594000000E+02  0.51100000000E-03 0. -1.
         11   -1    0    0    0    0 -0.00000000000E+00 -0.00000000000E+00 -0.45593999997E+02  0.45594000000E+02  0.51100000000E-03 0.  1.
    9900012    2    1    2    0    0 -0.67643224943E+01 -0.35985014842E+02 -0.17677326497E+02  0.50528865428E+02  0.30000016956E+02 0.  0.
         12    1    1    2    0    0  0.67643224943E+01  0.35985014842E+02  0.17677326497E+02  0.40659134572E+02  0.00000000000E+00 0. -1.
         11    1    3    3    0    0  0.51837795535E+01  0.14447011422E+01  0.56127804039E+00  0.54105235559E+01  0.51100000000E-03 0. -1.
        -11    1    3    3    0    0 -0.99104987631E+01 -0.13342637538E+02 -0.10821085022E+02  0.19832797168E+02  0.51100000000E-03 0.  1.
         12    1    3    3    0    0 -0.20376032847E+01 -0.24087078446E+02 -0.74175195159E+01  0.25285544704E+02  0.00000000000E+00 0. -1.
</event>
<event>
 7    1  0.6073302E-013  0.5052886E+02  0.7816164E-02  0.1300439E+00
        -11   -1    0    0    0    0  0.00000000000E+00  0.00000000000E+00  0.45593999997E+02  0.45594000000E+02  0.51100000000E-03 0. -1.
         11   -1    0    0    0    0 -0.00000000000E+00 -0.00000000000E+00 -0.45593999997E+02  0.45594000000E+02  0.51100000000E-03 0.  1.
    9900012    2    1    2    0    0 -0.37152215444E+02 -0.70419181613E+01 -0.14942887453E+02  0.50528860693E+02  0.30000002562E+02 0.  0.
         12    1    1    2    0    0  0.37152215444E+02  0.70419181613E+01  0.14942887453E+02  0.40659139307E+02  0.00000000000E+00 0. -1.
         11    1    3    3    0    0 -0.11810859837E+02  0.49774711854E+01 -0.13241527089E+02  0.18428501551E+02  0.51100000000E-03 0. -1.
        -11    1    3    3    0    0 -0.58780372466E+01 -0.10563516678E+02 -0.32596335710E+01  0.12520559802E+02  0.51100000000E-03 0.  1.
         12    1    3    3    0    0 -0.19463318360E+02 -0.14558726689E+01  0.15582732069E+01  0.19579799340E+02  0.00000000000E+00 0. -1.
</event>
<event>
 7    1  0.6073302E-013  0.5052885E+02  0.7816164E-02  0.1300439E+00
        -11   -1    0    0    0    0  0.00000000000E+00  0.00000000000E+00  0.45593999997E+02  0.45594000000E+02  0.51100000000E-03 0.  1.
         11   -1    0    0    0    0 -0.00000000000E+00 -0.00000000000E+00 -0.45593999997E+02  0.45594000000E+02  0.51100000000E-03 0. -1.
    9900012    2    1    2    0    0 -0.19272061965E+02 -0.17237317298E+02  0.31378803499E+02  0.50528846184E+02  0.29999958460E+02 0.  0.
         12    1    1    2    0    0  0.19272061965E+02  0.17237317298E+02 -0.31378803499E+02  0.40659153816E+02  0.00000000000E+00 0. -1.
         11    1    3    3    0    0 -0.94377117772E+01  0.25803826659E+01  0.41935341119E+01  0.10644928694E+02  0.51100000000E-03 0. -1.
        -11    1    3    3    0    0 -0.69943799109E+01 -0.75767936259E+01  0.25113740903E+02  0.27148280505E+02  0.51100000000E-03 0.  1.
        -12    1    3    3    0    0 -0.28399702767E+01 -0.12240906338E+02  0.20715284849E+01  0.12735636985E+02  0.00000000000E+00 0.  1.
</event>
<event>
 7    1  0.6073302E-013  0.5052886E+02  0.7816164E-02  0.1300439E+00
        -11   -1    0    0    0    0  0.00000000000E+00  0.00000000000E+00  0.45593999997E+02  0.45594000000E+02  0.51100000000E-03 0.  1.
         11   -1    0    0    0    0 -0.00000000000E+00 -0.00000000000E+00 -0.45593999997E+02  0.45594000000E+02  0.51100000000E-03 0. -1.
    9900012    2    1    2    0    0 -0.64489812214E+01  0.20528609749E+02  0.34498584531E+02  0.50528861893E+02  0.30000006210E+02 0.  0.
         12    1    1    2    0    0  0.64489812214E+01 -0.20528609749E+02 -0.34498584531E+02  0.40659138107E+02  0.00000000000E+00 0. -1.
         11    1    3    3    0    0 -0.19024211819E+01  0.25914699178E+01  0.27120299119E+02  0.27310172963E+02  0.51100000000E-03 0. -1.
        -11    1    3    3    0    0 -0.55285993111E+01  0.54828114186E+01 -0.14513449330E+01  0.79204187875E+01  0.51100000000E-03 0.  1.
         12    1    3    3    0    0  0.98203927155E+00  0.12454328412E+02  0.88296303441E+01  0.15298270142E+02  0.00000000000E+00 0. -1.
</event>
<event>
 7    1  0.6073302E-013  0.5052888E+02  0.7816164E-02  0.1300439E+00
        -11   -1    0    0    0    0  0.00000000000E+00  0.00000000000E+00  0.45593999997E+02  0.45594000000E+02  0.51100000000E-03 0. -1.
         11   -1    0    0    0    0 -0.00000000000E+00 -0.00000000000E+00 -0.45593999997E+02  0.45594000000E+02  0.51100000000E-03 0.  1.
    9900012    2    1    2    0    0  0.30534626179E+02 -0.21120702240E+02 -0.16574582986E+02  0.50528877283E+02  0.30000052989E+02 0.  0.
         12    1    1    2    0    0 -0.30534626179E+02  0.21120702240E+02  0.16574582986E+02  0.40659122717E+02  0.00000000000E+00 0. -1.
         11    1    3    3    0    0  0.24098076978E+02 -0.18922113616E+02 -0.17810091039E+02  0.35439568858E+02  0.51100000000E-03 0.  1.
        -11    1    3    3    0    0 -0.38056125306E+01  0.15020288753E+01  0.92559759575E+00  0.41947000662E+01  0.51100000000E-03 0. -1.
         12    1    3    3    0    0  0.10242161731E+02 -0.37006174994E+01  0.30991045742E+00  0.10894608359E+02  0.00000000000E+00 0. -1.
</event>
<event>
 7    1  0.6073302E-013  0.5052886E+02  0.7816164E-02  0.1300439E+00
        -11   -1    0    0    0    0  0.00000000000E+00  0.00000000000E+00  0.45593999997E+02  0.45594000000E+02  0.51100000000E-03 0.  1.
         11   -1    0    0    0    0 -0.00000000000E+00 -0.00000000000E+00 -0.45593999997E+02  0.45594000000E+02  0.51100000000E-03 0. -1.
    9900012    2    1    2    0    0  0.45186967179E+01  0.32333434430E+01  0.40277693298E+02  0.50528859487E+02  0.29999998896E+02 0.  0.
         12    1    1    2    0    0 -0.45186967179E+01 -0.32333434430E+01 -0.40277693298E+02  0.40659140513E+02  0.00000000000E+00 0. -1.
         11    1    3    3    0    0  0.16328405053E+02  0.40911111040E+01  0.28579715774E+02  0.33168571806E+02  0.51100000000E-03 0. -1.
        -11    1    3    3    0    0 -0.26872519873E+01  0.65439325783E+00  0.57079839391E+01  0.63427623863E+01  0.51100000000E-03 0.  1.
         12    1    3    3    0    0 -0.91224563480E+01 -0.15121609188E+01  0.59899935847E+01  0.11017525294E+02  0.00000000000E+00 0. -1.
</event>
<event>
 7    1  0.6073302E-013  0.5052896E+02  0.7816164E-02  0.1300438E+00
        -11   -1    0    0    0    0  0.00000000000E+00  0.00000000000E+00  0.45593999997E+02  0.45594000000E+02  0.51100000000E-03 0.  1.
         11   -1    0    0    0    0 -0.00000000000E+00 -0.00000000000E+00 -0.45593999997E+02  0.45594000000E+02  0.51100000000E-03 0. -1.
    9900012    2    1    2    0    0 -0.17079631037E+02  0.89959619807E+01  0.35784299045E+02  0.50528964270E+02  0.30000317394E+02 0.  0.
         12    1    1    2    0    0  0.17079631037E+02 -0.89959619807E+01 -0.35784299045E+02  0.40659035730E+02  0.00000000000E+00 0. -1.
         11    1    3    3    0    0  0.56648200711E+01 -0.26493897372E+01  0.70031887913E+01  0.93890418002E+01  0.51100000000E-03 0. -1.
        -11    1    3    3    0    0 -0.53034141903E+01  0.62799507958E+01  0.18384416388E+02  0.20138290649E+02  0.51100000000E-03 0.  1.
         12    1    3    3    0    0 -0.17441036917E+02  0.53654009221E+01  0.10396693866E+02  0.21001631821E+02  0.00000000000E+00 0. -1.
</event>
<event>
 7    1  0.6073302E-013  0.5052886E+02  0.7816164E-02  0.1300439E+00
        -11   -1    0    0    0    0  0.00000000000E+00  0.00000000000E+00  0.45593999997E+02  0.45594000000E+02  0.51100000000E-03 0.  1.
         11   -1    0    0    0    0 -0.00000000000E+00 -0.00000000000E+00 -0.45593999997E+02  0.45594000000E+02  0.51100000000E-03 0. -1.
    9900012    2    1    2    0    0  0.18349045740E+02  0.15896732255E+02  0.32615524250E+02  0.50528855911E+02  0.29999988028E+02 0.  0.
         12    1    1    2    0    0 -0.18349045740E+02 -0.15896732255E+02 -0.32615524250E+02  0.40659144089E+02  0.00000000000E+00 0. -1.
         11    1    3    3    0    0  0.95585481206E+01  0.18049424766E+02  0.64818958459E+01  0.21428078555E+02  0.51100000000E-03 0. -1.
        -11    1    3    3    0    0  0.46496977981E+01 -0.48287305869E+01  0.86975693358E+01  0.10981076509E+02  0.51100000000E-03 0.  1.
        -12    1    3    3    0    0  0.41407998209E+01  0.26760380761E+01  0.17436059068E+02  0.18119700846E+02  0.00000000000E+00 0.  1.
</event>
<event>
 7    1  0.6073302E-013  0.5052886E+02  0.7816164E-02  0.1300439E+00
        -11   -1    0    0    0    0  0.00000000000E+00  0.00000000000E+00  0.45593999997E+02  0.45594000000E+02  0.51100000000E-03 0.  1.
         11   -1    0    0    0    0 -0.00000000000E+00 -0.00000000000E+00 -0.45593999997E+02  0.45594000000E+02  0.51100000000E-03 0. -1.
    9900012    2    1    2    0    0 -0.22508327944E+02  0.31615107066E+02  0.12125420052E+02  0.50528860399E+02  0.30000001670E+02 0.  0.
         12    1    1    2    0    0  0.22508327944E+02 -0.31615107066E+02 -0.12125420052E+02  0.40659139601E+02  0.00000000000E+00 0. -1.
         11    1    3    3    0    0  0.92268541083E+00  0.13742007685E+02  0.82572378748E+01  0.16058521139E+02  0.51100000000E-03 0. -1.
        -11    1    3    3    0    0 -0.10832635665E+02  0.68869147879E+00  0.70257071096E+01  0.12929843466E+02  0.51100000000E-03 0.  1.
        -12    1    3    3    0    0 -0.12598377690E+02  0.17184407902E+02 -0.31575249328E+01  0.21540495795E+02  0.00000000000E+00 0.  1.
</event>
<event>
 7    1  0.6073302E-013  0.5052886E+02  0.7816164E-02  0.1300439E+00
        -11   -1    0    0    0    0  0.00000000000E+00  0.00000000000E+00  0.45593999997E+02  0.45594000000E+02  0.51100000000E-03 0. -1.
         11   -1    0    0    0    0 -0.00000000000E+00 -0.00000000000E+00 -0.45593999997E+02  0.45594000000E+02  0.51100000000E-03 0.  1.
    9900012    2    1    2    0    0  0.11520083765E+02 -0.19598409617E+02 -0.33709873166E+02  0.50528861564E+02  0.30000005210E+02 0.  0.
         12    1    1    2    0    0 -0.11520083765E+02  0.19598409617E+02  0.33709873166E+02  0.40659138436E+02  0.00000000000E+00 0. -1.
         11    1    3    3    0    0  0.11872898042E+02 -0.74914442470E+01 -0.51914111163E+01  0.14967905480E+02  0.51100000000E-03 0. -1.
        -11    1    3    3    0    0  0.16337891022E+01 -0.98342412973E+01 -0.30407532280E+02  0.31999993568E+02  0.51100000000E-03 0.  1.
        -12    1    3    3    0    0 -0.19866033798E+01 -0.22727240731E+01  0.18890702306E+01  0.35609625155E+01  0.00000000000E+00 0.  1.
</event>
<event>
 7    1  0.6073302E-013  0.5052885E+02  0.7816164E-02  0.1300439E+00
        -11   -1    0    0    0    0  0.00000000000E+00  0.00000000000E+00  0.45593999997E+02  0.45594000000E+02  0.51100000000E-03 0. -1.
         11   -1    0    0    0    0 -0.00000000000E+00 -0.00000000000E+00 -0.45593999997E+02  0.45594000000E+02  0.51100000000E-03 0.  1.
    9900012    2    1    2    0    0 -0.82639206312E+01 -0.23976872421E+00 -0.39809756911E+02  0.50528848280E+02  0.29999964833E+02 0.  0.
         12    1    1    2    0    0  0.82639206312E+01  0.23976872421E+00  0.39809756911E+02  0.40659151720E+02  0.00000000000E+00 0. -1.
         11    1    3    3    0    0 -0.13847891194E+02  0.41011452801E+01 -0.73807997633E+01  0.16219114912E+02  0.51100000000E-03 0. -1.
        -11    1    3    3    0    0 -0.91555769783E+00 -0.40386527770E+01 -0.18177350798E+02  0.18643096428E+02  0.51100000000E-03 0.  1.
         12    1    3    3    0    0  0.64995282602E+01 -0.30226122727E+00 -0.14251606350E+02  0.15666636940E+02  0.00000000000E+00 0. -1.
</event>
<event>
 7    1  0.6073302E-013  0.5052887E+02  0.7816164E-02  0.1300439E+00
        -11   -1    0    0    0    0  0.00000000000E+00  0.00000000000E+00  0.45593999997E+02  0.45594000000E+02  0.51100000000E-03 0. -1.
         11   -1    0    0    0    0 -0.00000000000E+00 -0.00000000000E+00 -0.45593999997E+02  0.45594000000E+02  0.51100000000E-03 0.  1.
    9900012    2    1    2    0    0  0.25797360691E+02  0.96646720523E+01 -0.29904104717E+02  0.50528865928E+02  0.30000018476E+02 0.  0.
         12    1    1    2    0    0 -0.25797360691E+02 -0.96646720523E+01  0.29904104717E+02  0.40659134072E+02  0.00000000000E+00 0. -1.
         11    1    3    3    0    0  0.37547612688E+01  0.51426470070E+01  0.47692307948E+01  0.79555397717E+01  0.51100000000E-03 0. -1.
        -11    1    3    3    0    0  0.75905131653E+01  0.22200754732E+01 -0.21406198603E+02  0.22820384837E+02  0.51100000000E-03 0.  1.
        -12    1    3    3    0    0  0.14452086257E+02  0.23019495721E+01 -0.13267136909E+02  0.19752941319E+02  0.00000000000E+00 0.  1.
</event>
<event>
 7    1  0.6073302E-013  0.5052886E+02  0.7816164E-02  0.1300439E+00
        -11   -1    0    0    0    0  0.00000000000E+00  0.00000000000E+00  0.45593999997E+02  0.45594000000E+02  0.51100000000E-03 0.  1.
         11   -1    0    0    0    0 -0.00000000000E+00 -0.00000000000E+00 -0.45593999997E+02  0.45594000000E+02  0.51100000000E-03 0. -1.
    9900012    2    1    2    0    0 -0.34403080545E+02 -0.84398238195E+01  0.19959041688E+02  0.50528856844E+02  0.29999990862E+02 0.  0.
         12    1    1    2    0    0  0.34403080545E+02  0.84398238195E+01 -0.19959041688E+02  0.40659143156E+02  0.00000000000E+00 0. -1.
         11    1    3    3    0    0 -0.42290974843E+01 -0.11444176143E+02 -0.10692635170E+01  0.12247357178E+02  0.51100000000E-03 0. -1.
        -11    1    3    3    0    0 -0.26363954091E+02 -0.93987895599E+00  0.18631666112E+02  0.32296755722E+02  0.51100000000E-03 0.  1.
        -12    1    3    3    0    0 -0.38100289694E+01  0.39442312791E+01  0.23966390930E+01  0.59847439438E+01  0.00000000000E+00 0.  1.
</event>
<event>
 7    1  0.6073302E-013  0.5052886E+02  0.7816164E-02  0.1300439E+00
        -11   -1    0    0    0    0  0.00000000000E+00  0.00000000000E+00  0.45593999997E+02  0.45594000000E+02  0.51100000000E-03 0.  1.
         11   -1    0    0    0    0 -0.00000000000E+00 -0.00000000000E+00 -0.45593999997E+02  0.45594000000E+02  0.51100000000E-03 0. -1.
    9900012    2    1    2    0    0  0.64455617464E+01  0.32358972942E+02  0.23759579924E+02  0.50528855466E+02  0.29999986674E+02 0.  0.
         12    1    1    2    0    0 -0.64455617464E+01 -0.32358972942E+02 -0.23759579924E+02  0.40659144534E+02  0.00000000000E+00 0. -1.
         11    1    3    3    0    0 -0.74439759666E+01  0.13077879069E+02  0.88755613106E+00  0.15074198329E+02  0.51100000000E-03 0. -1.
        -11    1    3    3    0    0  0.14584431474E+02  0.20018074525E+02  0.18360389675E+02  0.30830712907E+02  0.51100000000E-03 0.  1.
        -12    1    3    3    0    0 -0.69489376057E+00 -0.73698065131E+00  0.45116341181E+01  0.46239442292E+01  0.00000000000E+00 0.  1.
</event>
<event>
 7    1  0.6073302E-013  0.5052886E+02  0.7816164E-02  0.1300439E+00
        -11   -1    0    0    0    0  0.00000000000E+00  0.00000000000E+00  0.45593999997E+02  0.45594000000E+02  0.51100000000E-03 0.  1.
         11   -1    0    0    0    0 -0.00000000000E+00 -0.00000000000E+00 -0.45593999997E+02  0.45594000000E+02  0.51100000000E-03 0. -1.
    9900012    2    1    2    0    0  0.39894530822E+02 -0.81153578606E-01  0.78476566316E+01  0.50528857239E+02  0.29999992064E+02 0.  0.
         12    1    1    2    0    0 -0.39894530822E+02  0.81153578606E-01 -0.78476566316E+01  0.40659142761E+02  0.00000000000E+00 0. -1.
         11    1    3    3    0    0  0.96228203095E+00  0.26742735946E+01  0.41255857794E+01  0.50098088038E+01  0.51100000000E-03 0. -1.
        -11    1    3    3    0    0  0.38462791563E+02 -0.37553905389E+01  0.93689413233E+01  0.39765139943E+02  0.51100000000E-03 0.  1.
        -12    1    3    3    0    0  0.46945722863E+00  0.99996336567E+00 -0.56468704711E+01  0.57539084925E+01  0.00000000000E+00 0.  1.
</event>
<event>
 7    1  0.6073302E-013  0.5052887E+02  0.7816164E-02  0.1300439E+00
        -11   -1    0    0    0    0  0.00000000000E+00  0.00000000000E+00  0.45593999997E+02  0.45594000000E+02  0.51100000000E-03 0. -1.
         11   -1    0    0    0    0 -0.00000000000E+00 -0.00000000000E+00 -0.45593999997E+02  0.45594000000E+02  0.51100000000E-03 0.  1.
    9900012    2    1    2    0    0 -0.33104557205E+02  0.19122401596E+02 -0.13841499242E+02  0.50528867547E+02  0.30000023396E+02 0.  0.
         12    1    1    2    0    0  0.33104557205E+02 -0.19122401596E+02  0.13841499242E+02  0.40659132453E+02  0.00000000000E+00 0. -1.
         11    1    3    3    0    0 -0.20102882866E+02  0.16440003240E+02  0.20092322923E+00  0.25969982219E+02  0.51100000000E-03 0. -1.
        -11    1    3    3    0    0 -0.65916122760E+01  0.45485825184E+01 -0.15748731094E+02  0.17668092332E+02  0.51100000000E-03 0.  1.
        -12    1    3    3    0    0 -0.64100620635E+01 -0.18661841630E+01  0.17063086228E+01  0.68907929954E+01  0.00000000000E+00 0.  1.
</event>
<event>
 7    1  0.6073302E-013  0.5052887E+02  0.7816164E-02  0.1300439E+00
        -11   -1    0    0    0    0  0.00000000000E+00  0.00000000000E+00  0.45593999997E+02  0.45594000000E+02  0.51100000000E-03 0.  1.
         11   -1    0    0    0    0 -0.00000000000E+00 -0.00000000000E+00 -0.45593999997E+02  0.45594000000E+02  0.51100000000E-03 0. -1.
    9900012    2    1    2    0    0  0.22426701202E+02 -0.30363847870E+02  0.15107777044E+02  0.50528866813E+02  0.30000021166E+02 0.  0.
         12    1    1    2    0    0 -0.22426701202E+02  0.30363847870E+02 -0.15107777044E+02  0.40659133187E+02  0.00000000000E+00 0. -1.
         11    1    3    3    0    0  0.38898097441E+01 -0.13335410242E+02  0.14576890503E+02  0.20135777192E+02  0.51100000000E-03 0. -1.
        -11    1    3    3    0    0  0.12877175177E+02 -0.10610095533E+02 -0.78284292792E+01  0.18430411633E+02  0.51100000000E-03 0.  1.
        -12    1    3    3    0    0  0.56597162817E+01 -0.64183420960E+01  0.83593158200E+01  0.11962677987E+02  0.00000000000E+00 0.  1.
</event>
<event>
 7    1  0.6073302E-013  0.5052886E+02  0.7816164E-02  0.1300439E+00
        -11   -1    0    0    0    0  0.00000000000E+00  0.00000000000E+00  0.45593999997E+02  0.45594000000E+02  0.51100000000E-03 0.  1.
         11   -1    0    0    0    0 -0.00000000000E+00 -0.00000000000E+00 -0.45593999997E+02  0.45594000000E+02  0.51100000000E-03 0. -1.
    9900012    2    1    2    0    0 -0.20684967662E+02  0.19420605284E+02  0.29122805438E+02  0.50528860887E+02  0.30000003153E+02 0.  0.
         12    1    1    2    0    0  0.20684967662E+02 -0.19420605284E+02 -0.29122805438E+02  0.40659139113E+02  0.00000000000E+00 0. -1.
         11    1    3    3    0    0 -0.50485104447E+01 -0.19977963393E+01  0.10817419596E+02  0.12103520765E+02  0.51100000000E-03 0. -1.
        -11    1    3    3    0    0 -0.92177131364E+01  0.24596333454E+02  0.11980420395E+02  0.28869990092E+02  0.51100000000E-03 0.  1.
         12    1    3    3    0    0 -0.64187440813E+01 -0.31779318302E+01  0.63249654467E+01  0.95553500303E+01  0.00000000000E+00 0. -1.
</event>
<event>
 7    1  0.6073302E-013  0.5052879E+02  0.7816164E-02  0.1300439E+00
        -11   -1    0    0    0    0  0.00000000000E+00  0.00000000000E+00  0.45593999997E+02  0.45594000000E+02  0.51100000000E-03 0.  1.
         11   -1    0    0    0    0 -0.00000000000E+00 -0.00000000000E+00 -0.45593999997E+02  0.45594000000E+02  0.51100000000E-03 0. -1.
    9900012    2    1    2    0    0  0.32391392863E+02  0.24005469775E+02  0.52636752440E+01  0.50528792091E+02  0.29999794038E+02 0.  0.
         12    1    1    2    0    0 -0.32391392863E+02 -0.24005469775E+02 -0.52636752440E+01  0.40659207909E+02  0.00000000000E+00 0. -1.
         11    1    3    3    0    0  0.13079292531E+02  0.24745349073E+02 -0.26646774737E+01  0.28115844290E+02  0.51100000000E-03 0. -1.
        -11    1    3    3    0    0  0.14869967368E+02 -0.31708595876E+01  0.33122359159E+01  0.15560886449E+02  0.51100000000E-03 0.  1.
         12    1    3    3    0    0  0.44421329640E+01  0.24309802892E+01  0.46161168018E+01  0.68520613514E+01  0.00000000000E+00 0. -1.
</event>
<event>
 7    1  0.6073302E-013  0.5052885E+02  0.7816164E-02  0.1300439E+00
        -11   -1    0    0    0    0  0.00000000000E+00  0.00000000000E+00  0.45593999997E+02  0.45594000000E+02  0.51100000000E-03 0. -1.
         11   -1    0    0    0    0 -0.00000000000E+00 -0.00000000000E+00 -0.45593999997E+02  0.45594000000E+02  0.51100000000E-03 0.  1.
    9900012    2    1    2    0    0  0.14346430075E+02  0.21959711465E+02 -0.31066338752E+02  0.50528851128E+02  0.29999973488E+02 0.  0.
         12    1    1    2    0    0 -0.14346430075E+02 -0.21959711465E+02  0.31066338752E+02  0.40659148872E+02  0.00000000000E+00 0. -1.
         11    1    3    3    0    0  0.11726284584E+02  0.17187421491E+02 -0.57513034969E+01  0.21586817732E+02  0.51100000000E-03 0. -1.
        -11    1    3    3    0    0  0.28833302523E+01  0.76029448130E+01 -0.24739457083E+02  0.26041488056E+02  0.51100000000E-03 0.  1.
        -12    1    3    3    0    0 -0.26318476123E+00 -0.28306548380E+01 -0.57557817273E+00  0.29005453390E+01  0.00000000000E+00 0.  1.
</event>
<event>
 7    1  0.6073302E-013  0.5052887E+02  0.7816164E-02  0.1300439E+00
        -11   -1    0    0    0    0  0.00000000000E+00  0.00000000000E+00  0.45593999997E+02  0.45594000000E+02  0.51100000000E-03 0. -1.
         11   -1    0    0    0    0 -0.00000000000E+00 -0.00000000000E+00 -0.45593999997E+02  0.45594000000E+02  0.51100000000E-03 0.  1.
    9900012    2    1    2    0    0  0.30659301430E+02  0.22981042659E+02 -0.13603080462E+02  0.50528869612E+02  0.30000029672E+02 0.  0.
         12    1    1    2    0    0 -0.30659301430E+02 -0.22981042659E+02  0.13603080462E+02  0.40659130388E+02  0.00000000000E+00 0. -1.
         11    1    3    3    0    0  0.18116530471E+02  0.12171820100E+02  0.37610595052E+01  0.22147402776E+02  0.51100000000E-03 0. -1.
        -11    1    3    3    0    0  0.15282429681E+02  0.86587475518E+01 -0.17632380225E+02  0.24888298431E+02  0.51100000000E-03 0.  1.
         12    1    3    3    0    0 -0.27396587222E+01  0.21504750069E+01  0.26824025755E+00  0.34931684049E+01  0.00000000000E+00 0. -1.
</event>
<event>
 7    1  0.6073302E-013  0.5052886E+02  0.7816164E-02  0.1300439E+00
        -11   -1    0    0    0    0  0.00000000000E+00  0.00000000000E+00  0.45593999997E+02  0.45594000000E+02  0.51100000000E-03 0.  1.
         11   -1    0    0    0    0 -0.00000000000E+00 -0.00000000000E+00 -0.45593999997E+02  0.45594000000E+02  0.51100000000E-03 0. -1.
    9900012    2    1    2    0    0  0.80265416982E+01  0.26811845559E+02  0.29493483186E+02  0.50528856079E+02  0.29999988538E+02 0.  0.
         12    1    1    2    0    0 -0.80265416982E+01 -0.26811845559E+02 -0.29493483186E+02  0.40659143921E+02  0.00000000000E+00 0. -1.
         11    1    3    3    0    0 -0.30168665876E+01 -0.65862687216E-01  0.28199668886E+00  0.30307332932E+01  0.51100000000E-03 0. -1.
        -11    1    3    3    0    0  0.13990305398E+02  0.26658727517E+02  0.31638691965E+02  0.43674056687E+02  0.51100000000E-03 0.  1.
        -12    1    3    3    0    0 -0.29468971124E+01  0.21898072953E+00 -0.24272054673E+01  0.38240660992E+01  0.00000000000E+00 0.  1.
</event>
<event>
 7    1  0.6073302E-013  0.5052886E+02  0.7816164E-02  0.1300439E+00
        -11   -1    0    0    0    0  0.00000000000E+00  0.00000000000E+00  0.45593999997E+02  0.45594000000E+02  0.51100000000E-03 0. -1.
         11   -1    0    0    0    0 -0.00000000000E+00 -0.00000000000E+00 -0.45593999997E+02  0.45594000000E+02  0.51100000000E-03 0.  1.
    9900012    2    1    2    0    0 -0.11937859975E+02 -0.21511568154E+02 -0.32371367948E+02  0.50528861691E+02  0.30000005594E+02 0.  0.
         12    1    1    2    0    0  0.11937859975E+02  0.21511568154E+02  0.32371367948E+02  0.40659138309E+02  0.00000000000E+00 0. -1.
         11    1    3    3    0    0 -0.11462124265E+02 -0.78801210820E+00  0.52486327537E+00  0.11501162439E+02  0.51100000000E-03 0. -1.
        -11    1    3    3    0    0  0.11855152876E+01 -0.10177580031E+02 -0.14437506131E+02  0.17703959030E+02  0.51100000000E-03 0.  1.
         12    1    3    3    0    0 -0.16612509985E+01 -0.10545976015E+02 -0.18458725093E+02  0.21323740221E+02  0.00000000000E+00 0. -1.
</event>
<event>
 7    1  0.6073302E-013  0.5052890E+02  0.7816164E-02  0.1300439E+00
        -11   -1    0    0    0    0  0.00000000000E+00  0.00000000000E+00  0.45593999997E+02  0.45594000000E+02  0.51100000000E-03 0.  1.
         11   -1    0    0    0    0 -0.00000000000E+00 -0.00000000000E+00 -0.45593999997E+02  0.45594000000E+02  0.51100000000E-03 0. -1.
    9900012    2    1    2    0    0  0.32050290148E+02 -0.51693093450E+01  0.24478969226E+02  0.50528895336E+02  0.30000107863E+02 0.  0.
         12    1    1    2    0    0 -0.32050290148E+02  0.51693093450E+01 -0.24478969226E+02  0.40659104664E+02  0.00000000000E+00 0. -1.
         11    1    3    3    0    0  0.20378101782E+01 -0.11540004264E+02  0.51437014529E+01  0.12797735488E+02  0.51100000000E-03 0.  1.
        -11    1    3    3    0    0  0.23216497595E+02  0.84825750305E+01  0.17775983438E+02  0.30445778479E+02  0.51100000000E-03 0. -1.
         12    1    3    3    0    0  0.67959823746E+01 -0.21118801116E+01  0.15592843351E+01  0.72853813682E+01  0.00000000000E+00 0. -1.
</event>
<event>
 7    1  0.6073302E-013  0.5052886E+02  0.7816164E-02  0.1300439E+00
        -11   -1    0    0    0    0  0.00000000000E+00  0.00000000000E+00  0.45593999997E+02  0.45594000000E+02  0.51100000000E-03 0.  1.
         11   -1    0    0    0    0 -0.00000000000E+00 -0.00000000000E+00 -0.45593999997E+02  0.45594000000E+02  0.51100000000E-03 0. -1.
    9900012    2    1    2    0    0  0.29030842443E+02 -0.19642934189E+02 -0.20604156917E+02  0.50528856394E+02  0.29999989496E+02 0.  0.
         12    1    1    2    0    0 -0.29030842443E+02  0.19642934189E+02  0.20604156917E+02  0.40659143606E+02  0.00000000000E+00 0. -1.
         11    1    3    3    0    0  0.13674012437E+01 -0.29968607431E+01 -0.23943396120E+01  0.40723240188E+01  0.51100000000E-03 0. -1.
        -11    1    3    3    0    0  0.28611368108E+02 -0.19587802489E+02 -0.77230022351E+01  0.35523754801E+02  0.51100000000E-03 0.  1.
        -12    1    3    3    0    0 -0.94792690908E+00  0.29417290432E+01 -0.10486815070E+02  0.10932777575E+02  0.00000000000E+00 0.  1.
</event>
<event>
 7    1  0.6073302E-013  0.5052886E+02  0.7816164E-02  0.1300439E+00
        -11   -1    0    0    0    0  0.00000000000E+00  0.00000000000E+00  0.45593999997E+02  0.45594000000E+02  0.51100000000E-03 0.  1.
         11   -1    0    0    0    0 -0.00000000000E+00 -0.00000000000E+00 -0.45593999997E+02  0.45594000000E+02  0.51100000000E-03 0. -1.
    9900012    2    1    2    0    0 -0.74262640726E+01 -0.12669004099E+02  0.37914540346E+02  0.50528862865E+02  0.30000009164E+02 0.  0.
         12    1    1    2    0    0  0.74262640726E+01  0.12669004099E+02 -0.37914540346E+02  0.40659137135E+02  0.00000000000E+00 0. -1.
         11    1    3    3    0    0  0.85232444848E+01 -0.42290623012E+01  0.71270023093E+01  0.11888011889E+02  0.51100000000E-03 0. -1.
        -11    1    3    3    0    0 -0.12516339072E+02 -0.12151607079E+02  0.27641475218E+02  0.32685951889E+02  0.51100000000E-03 0.  1.
        -12    1    3    3    0    0 -0.34331694855E+01  0.37116652820E+01  0.31460628187E+01  0.59548990874E+01  0.00000000000E+00 0.  1.
</event>
<event>
 7    1  0.6073302E-013  0.5052888E+02  0.7816164E-02  0.1300439E+00
        -11   -1    0    0    0    0  0.00000000000E+00  0.00000000000E+00  0.45593999997E+02  0.45594000000E+02  0.51100000000E-03 0.  1.
         11   -1    0    0    0    0 -0.00000000000E+00 -0.00000000000E+00 -0.45593999997E+02  0.45594000000E+02  0.51100000000E-03 0. -1.
    9900012    2    1    2    0    0 -0.28466615148E+02 -0.55516624546E+01  0.28495523763E+02  0.50528880377E+02  0.30000062394E+02 0.  0.
         12    1    1    2    0    0  0.28466615148E+02  0.55516624546E+01 -0.28495523763E+02  0.40659119623E+02  0.00000000000E+00 0. -1.
         11    1    3    3    0    0 -0.11056920646E+02 -0.15535830500E+02  0.10717836406E+02  0.21874403786E+02  0.51100000000E-03 0. -1.
        -11    1    3    3    0    0 -0.13876941132E+02  0.44210277486E+01  0.73368034306E+01  0.16307779320E+02  0.51100000000E-03 0.  1.
         12    1    3    3    0    0 -0.35327533700E+01  0.55631402968E+01  0.10440883926E+02  0.12346697271E+02  0.00000000000E+00 0. -1.
</event>
<event>
 7    1  0.6073302E-013  0.5052889E+02  0.7816164E-02  0.1300439E+00
        -11   -1    0    0    0    0  0.00000000000E+00  0.00000000000E+00  0.45593999997E+02  0.45594000000E+02  0.51100000000E-03 0.  1.
         11   -1    0    0    0    0 -0.00000000000E+00 -0.00000000000E+00 -0.45593999997E+02  0.45594000000E+02  0.51100000000E-03 0. -1.
    9900012    2    1    2    0    0  0.47514043939E+01 -0.20904487478E+02  0.34548362984E+02  0.50528894927E+02  0.30000106621E+02 0.  0.
         12    1    1    2    0    0 -0.47514043939E+01  0.20904487478E+02 -0.34548362984E+02  0.40659105073E+02  0.00000000000E+00 0. -1.
         11    1    3    3    0    0  0.29196650178E+01 -0.48930114439E+00 -0.30634273617E+01  0.42600993988E+01  0.51100000000E-03 0. -1.
        -11    1    3    3    0    0  0.28762028030E+01 -0.15369602187E+02  0.38010299656E+02  0.41100852718E+02  0.51100000000E-03 0.  1.
        -12    1    3    3    0    0 -0.10444634269E+01 -0.50455841459E+01 -0.39850930965E+00  0.51679428105E+01  0.00000000000E+00 0.  1.
</event>
<event>
 7    1  0.6073302E-013  0.5052888E+02  0.7816164E-02  0.1300439E+00
        -11   -1    0    0    0    0  0.00000000000E+00  0.00000000000E+00  0.45593999997E+02  0.45594000000E+02  0.51100000000E-03 0. -1.
         11   -1    0    0    0    0 -0.00000000000E+00 -0.00000000000E+00 -0.45593999997E+02  0.45594000000E+02  0.51100000000E-03 0.  1.
    9900012    2    1    2    0    0 -0.20692025968E+02  0.18364518942E+02 -0.29795115102E+02  0.50528875826E+02  0.30000048562E+02 0.  0.
         12    1    1    2    0    0  0.20692025968E+02 -0.18364518942E+02  0.29795115102E+02  0.40659124174E+02  0.00000000000E+00 0. -1.
         11    1    3    3    0    0 -0.21775769864E+01  0.10257706153E+01 -0.21543227450E+02  0.21677285257E+02  0.51100000000E-03 0.  1.
        -11    1    3    3    0    0 -0.93910468526E+01  0.15495290834E+02 -0.37103463487E+01  0.18494930908E+02  0.51100000000E-03 0. -1.
         12    1    3    3    0    0 -0.91234021289E+01  0.18434574931E+01 -0.45415413034E+01  0.10356659662E+02  0.00000000000E+00 0. -1.
</event>
<event>
 7    1  0.6073302E-013  0.5052885E+02  0.7816164E-02  0.1300439E+00
        -11   -1    0    0    0    0  0.00000000000E+00  0.00000000000E+00  0.45593999997E+02  0.45594000000E+02  0.51100000000E-03 0.  1.
         11   -1    0    0    0    0 -0.00000000000E+00 -0.00000000000E+00 -0.45593999997E+02  0.45594000000E+02  0.51100000000E-03 0. -1.
    9900012    2    1    2    0    0  0.30019107426E+02 -0.27082072886E+02 -0.43105816615E+01  0.50528848549E+02  0.29999965650E+02 0.  0.
         12    1    1    2    0    0 -0.30019107426E+02  0.27082072886E+02  0.43105816615E+01  0.40659151451E+02  0.00000000000E+00 0. -1.
         11    1    3    3    0    0  0.58863217369E+01  0.40746752819E+01  0.49115918057E+01  0.86819062751E+01  0.51100000000E-03 0. -1.
        -11    1    3    3    0    0  0.15688013389E+02 -0.24492499510E+02 -0.25714306133E+01  0.29199461502E+02  0.51100000000E-03 0.  1.
         12    1    3    3    0    0  0.84447723000E+01 -0.66642486586E+01 -0.66507428538E+01  0.12647480772E+02  0.00000000000E+00 0. -1.
</event>
<event>
 7    1  0.6073302E-013  0.5052886E+02  0.7816164E-02  0.1300439E+00
        -11   -1    0    0    0    0  0.00000000000E+00  0.00000000000E+00  0.45593999997E+02  0.45594000000E+02  0.51100000000E-03 0. -1.
         11   -1    0    0    0    0 -0.00000000000E+00 -0.00000000000E+00 -0.45593999997E+02  0.45594000000E+02  0.51100000000E-03 0.  1.
    9900012    2    1    2    0    0 -0.12824617781E+02  0.35654256518E+02 -0.14746813251E+02  0.50528864125E+02  0.30000012994E+02 0.  0.
         12    1    1    2    0    0  0.12824617781E+02 -0.35654256518E+02  0.14746813251E+02  0.40659135875E+02  0.00000000000E+00 0. -1.
         11    1    3    3    0    0 -0.84408148335E+01  0.16429870980E+02  0.80392759415E+01  0.20144924259E+02  0.51100000000E-03 0. -1.
        -11    1    3    3    0    0 -0.47997589214E+01  0.14449670889E+02 -0.16122947682E+02  0.22176115907E+02  0.51100000000E-03 0.  1.
         12    1    3    3    0    0  0.41595597430E+00  0.47747146494E+01 -0.66631415106E+01  0.82078239592E+01  0.00000000000E+00 0. -1.
</event>
<event>
 7    1  0.6073302E-013  0.5052887E+02  0.7816164E-02  0.1300439E+00
        -11   -1    0    0    0    0  0.00000000000E+00  0.00000000000E+00  0.45593999997E+02  0.45594000000E+02  0.51100000000E-03 0.  1.
         11   -1    0    0    0    0 -0.00000000000E+00 -0.00000000000E+00 -0.45593999997E+02  0.45594000000E+02  0.51100000000E-03 0. -1.
    9900012    2    1    2    0    0  0.28078301115E+02  0.15489111924E+02  0.24997221356E+02  0.50528872400E+02  0.30000038146E+02 0.  0.
         12    1    1    2    0    0 -0.28078301115E+02 -0.15489111924E+02 -0.24997221356E+02  0.40659127600E+02  0.00000000000E+00 0. -1.
         11    1    3    3    0    0  0.28642938195E+02  0.84740951830E+01  0.26225178110E+02  0.39749064955E+02  0.51100000000E-03 0.  1.
        -11    1    3    3    0    0  0.31389291190E+01  0.61453874358E+01 -0.94453044519E+00  0.69649695457E+01  0.51100000000E-03 0. -1.
         12    1    3    3    0    0 -0.37035661996E+01  0.86962930544E+00 -0.28342630808E+00  0.38148378990E+01  0.00000000000E+00 0. -1.
</event>
<event>
 7    1  0.6073302E-013  0.5052886E+02  0.7816164E-02  0.1300439E+00
        -11   -1    0    0    0    0  0.00000000000E+00  0.00000000000E+00  0.45593999997E+02  0.45594000000E+02  0.51100000000E-03 0. -1.
         11   -1    0    0    0    0 -0.00000000000E+00 -0.00000000000E+00 -0.45593999997E+02  0.45594000000E+02  0.51100000000E-03 0.  1.
    9900012    2    1    2    0    0  0.59425479664E+01 -0.40222508723E+02  0.41158333013E-01  0.50528858613E+02  0.29999996241E+02 0.  0.
         12    1    1    2    0    0 -0.59425479664E+01  0.40222508723E+02 -0.41158333013E-01  0.40659141387E+02  0.00000000000E+00 0. -1.
         11    1    3    3    0    0 -0.10273741514E+02 -0.71829021429E+01  0.21410197289E+01  0.12717225076E+02  0.51100000000E-03 0. -1.
        -11    1    3    3    0    0  0.86929580186E+01 -0.17707152385E+02 -0.53227861983E+01  0.20431417422E+02  0.51100000000E-03 0.  1.
        -12    1    3    3    0    0  0.75233314623E+01 -0.15332454195E+02  0.32229248024E+01  0.17380216115E+02  0.00000000000E+00 0.  1.
</event>
<event>
 7    1  0.6073302E-013  0.5052887E+02  0.7816164E-02  0.1300439E+00
        -11   -1    0    0    0    0  0.00000000000E+00  0.00000000000E+00  0.45593999997E+02  0.45594000000E+02  0.51100000000E-03 0. -1.
         11   -1    0    0    0    0 -0.00000000000E+00 -0.00000000000E+00 -0.45593999997E+02  0.45594000000E+02  0.51100000000E-03 0.  1.
    9900012    2    1    2    0    0  0.96476397087E+01  0.33825669312E+02 -0.20393911293E+02  0.50528874651E+02  0.30000044988E+02 0.  0.
         12    1    1    2    0    0 -0.96476397087E+01 -0.33825669312E+02  0.20393911293E+02  0.40659125349E+02  0.00000000000E+00 0. -1.
         11    1    3    3    0    0  0.46693231448E+01  0.20606796531E+02  0.22318748622E+01  0.21246738751E+02  0.51100000000E-03 0. -1.
        -11    1    3    3    0    0  0.11953911309E+01  0.12758538512E+02 -0.10484988748E+02  0.16557302142E+02  0.51100000000E-03 0.  1.
         12    1    3    3    0    0  0.37829254330E+01  0.46033426884E+00 -0.12140797407E+02  0.12724833757E+02  0.00000000000E+00 0. -1.
</event>
<event>
 7    1  0.6073302E-013  0.5052876E+02  0.7816164E-02  0.1300439E+00
        -11   -1    0    0    0    0  0.00000000000E+00  0.00000000000E+00  0.45593999997E+02  0.45594000000E+02  0.51100000000E-03 0. -1.
         11   -1    0    0    0    0 -0.00000000000E+00 -0.00000000000E+00 -0.45593999997E+02  0.45594000000E+02  0.51100000000E-03 0.  1.
    9900012    2    1    2    0    0 -0.22167101743E+02 -0.51534792076E+01 -0.33693243751E+02  0.50528764615E+02  0.29999710523E+02 0.  0.
         12    1    1    2    0    0  0.22167101743E+02  0.51534792076E+01  0.33693243751E+02  0.40659235385E+02  0.00000000000E+00 0. -1.
         11    1    3    3    0    0 -0.10262845792E+02 -0.14934013324E+01  0.29828178386E+01  0.10791360146E+02  0.51100000000E-03 0. -1.
        -11    1    3    3    0    0 -0.89343411216E+01  0.17466873611E+01 -0.22908040886E+02  0.24650592397E+02  0.51100000000E-03 0.  1.
         12    1    3    3    0    0 -0.29699148292E+01 -0.54067652363E+01 -0.13768020703E+02  0.15086812072E+02  0.00000000000E+00 0. -1.
</event>
<event>
 7    1  0.6073302E-013  0.5052887E+02  0.7816164E-02  0.1300439E+00
        -11   -1    0    0    0    0  0.00000000000E+00  0.00000000000E+00  0.45593999997E+02  0.45594000000E+02  0.51100000000E-03 0. -1.
         11   -1    0    0    0    0 -0.00000000000E+00 -0.00000000000E+00 -0.45593999997E+02  0.45594000000E+02  0.51100000000E-03 0.  1.
    9900012    2    1    2    0    0  0.15799925443E+02 -0.37182272172E+02 -0.45831988093E+01  0.50528871638E+02  0.30000035829E+02 0.  0.
         12    1    1    2    0    0 -0.15799925443E+02  0.37182272172E+02  0.45831988093E+01  0.40659128362E+02  0.00000000000E+00 0. -1.
         11    1    3    3    0    0  0.13936068119E+02 -0.21604846797E+02  0.40478005146E+01  0.26026296107E+02  0.51100000000E-03 0. -1.
        -11    1    3    3    0    0  0.15006105724E+01  0.52330780880E+00 -0.82411918538E+01  0.83930284513E+01  0.51100000000E-03 0.  1.
         12    1    3    3    0    0  0.36324675112E+00 -0.16100733183E+02 -0.38980747013E+00  0.16109547080E+02  0.00000000000E+00 0. -1.
</event>
<event>
 7    1  0.6073302E-013  0.5052881E+02  0.7816164E-02  0.1300439E+00
        -11   -1    0    0    0    0  0.00000000000E+00  0.00000000000E+00  0.45593999997E+02  0.45594000000E+02  0.51100000000E-03 0.  1.
         11   -1    0    0    0    0 -0.00000000000E+00 -0.00000000000E+00 -0.45593999997E+02  0.45594000000E+02  0.51100000000E-03 0. -1.
    9900012    2    1    2    0    0 -0.38118674814E+02  0.89794272518E+01  0.10931905037E+02  0.50528806315E+02  0.29999837276E+02 0.  0.
         12    1    1    2    0    0  0.38118674814E+02 -0.89794272518E+01 -0.10931905037E+02  0.40659193685E+02  0.00000000000E+00 0. -1.
         11    1    3    3    0    0 -0.14533388342E+01  0.95833768483E+01  0.88255651848E+01  0.13108924696E+02  0.51100000000E-03 0. -1.
        -11    1    3    3    0    0 -0.11190307934E+02  0.14282756036E+01  0.35407502837E+01  0.11823699747E+02  0.51100000000E-03 0.  1.
         12    1    3    3    0    0 -0.25475028046E+02 -0.20322252001E+01 -0.14344104318E+01  0.25596181873E+02  0.00000000000E+00 0. -1.
</event>
<event>
 7    1  0.6073302E-013  0.5052889E+02  0.7816164E-02  0.1300439E+00
        -11   -1    0    0    0    0  0.00000000000E+00  0.00000000000E+00  0.45593999997E+02  0.45594000000E+02  0.51100000000E-03 0.  1.
         11   -1    0    0    0    0 -0.00000000000E+00 -0.00000000000E+00 -0.45593999997E+02  0.45594000000E+02  0.51100000000E-03 0. -1.
    9900012    2    1    2    0    0  0.21261565306E+02  0.34655343314E+02 -0.34137599118E+00  0.50528886421E+02  0.30000080765E+02 0.  0.
         12    1    1    2    0    0 -0.21261565306E+02 -0.34655343314E+02  0.34137599118E+00  0.40659113579E+02  0.00000000000E+00 0. -1.
         11    1    3    3    0    0 -0.17932147721E+01  0.14462409178E+02 -0.91608148112E+01  0.17213292152E+02  0.51100000000E-03 0. -1.
        -11    1    3    3    0    0  0.18062444873E+02  0.10598181409E+02  0.81729178307E+01  0.22480434829E+02  0.51100000000E-03 0.  1.
         12    1    3    3    0    0  0.49923352048E+01  0.95947527270E+01  0.64652098925E+00  0.10835159440E+02  0.00000000000E+00 0. -1.
</event>
<event>
 7    1  0.6073302E-013  0.5052886E+02  0.7816164E-02  0.1300439E+00
        -11   -1    0    0    0    0  0.00000000000E+00  0.00000000000E+00  0.45593999997E+02  0.45594000000E+02  0.51100000000E-03 0.  1.
         11   -1    0    0    0    0 -0.00000000000E+00 -0.00000000000E+00 -0.45593999997E+02  0.45594000000E+02  0.51100000000E-03 0. -1.
    9900012    2    1    2    0    0 -0.28202464750E+02 -0.18271956369E+02  0.22889348512E+02  0.50528859787E+02  0.29999999810E+02 0.  0.
         12    1    1    2    0    0  0.28202464750E+02  0.18271956369E+02 -0.22889348512E+02  0.40659140213E+02  0.00000000000E+00 0. -1.
         11    1    3    3    0    0  0.29816481327E+01 -0.81798927814E+01  0.93846959405E+01  0.12801304217E+02  0.51100000000E-03 0. -1.
        -11    1    3    3    0    0 -0.11666639537E+02 -0.70154028340E+00 -0.88977406304E+00  0.11721532963E+02  0.51100000000E-03 0.  1.
         12    1    3    3    0    0 -0.19517473345E+02 -0.93905233045E+01  0.14394426635E+02  0.26006022607E+02  0.00000000000E+00 0. -1.
</event>
<event>
 7    1  0.6073302E-013  0.5052885E+02  0.7816164E-02  0.1300439E+00
        -11   -1    0    0    0    0  0.00000000000E+00  0.00000000000E+00  0.45593999997E+02  0.45594000000E+02  0.51100000000E-03 0. -1.
         11   -1    0    0    0    0 -0.00000000000E+00 -0.00000000000E+00 -0.45593999997E+02  0.45594000000E+02  0.51100000000E-03 0.  1.
    9900012    2    1    2    0    0  0.80119570218E+01 -0.17225450268E+02 -0.35948006972E+02  0.50528846079E+02  0.29999958143E+02 0.  0.
         12    1    1    2    0    0 -0.80119570218E+01  0.17225450268E+02  0.35948006972E+02  0.40659153921E+02  0.00000000000E+00 0. -1.
         11    1    3    3    0    0  0.28711804122E+01  0.48748816848E+01 -0.20684538610E+00  0.56613544029E+01  0.51100000000E-03 0. -1.
        -11    1    3    3    0    0  0.17237838714E+01 -0.17890189985E+02 -0.14941286307E+02  0.23372470244E+02  0.51100000000E-03 0.  1.
         12    1    3    3    0    0  0.34169927382E+01 -0.42101419686E+01 -0.20799875279E+02  0.21495021433E+02  0.00000000000E+00 0. -1.
</event>
<event>
 7    1  0.6073302E-013  0.5052885E+02  0.7816164E-02  0.1300439E+00
        -11   -1    0    0    0    0  0.00000000000E+00  0.00000000000E+00  0.45593999997E+02  0.45594000000E+02  0.51100000000E-03 0.  1.
         11   -1    0    0    0    0 -0.00000000000E+00 -0.00000000000E+00 -0.45593999997E+02  0.45594000000E+02  0.51100000000E-03 0. -1.
    9900012    2    1    2    0    0  0.33927774112E+02  0.15080376520E+02  0.16572705699E+02  0.50528853595E+02  0.29999980987E+02 0.  0.
         12    1    1    2    0    0 -0.33927774112E+02 -0.15080376520E+02 -0.16572705699E+02  0.40659146405E+02  0.00000000000E+00 0. -1.
         11    1    3    3    0    0  0.70789530678E+01  0.79349533328E+01  0.11216478962E+02  0.15455887600E+02  0.51100000000E-03 0. -1.
        -11    1    3    3    0    0  0.87447188574E+01 -0.38936374923E+01 -0.57189172085E+01  0.11150629360E+02  0.51100000000E-03 0.  1.
         12    1    3    3    0    0  0.18104102187E+02  0.11039060680E+02  0.11075143946E+02  0.23922336636E+02  0.00000000000E+00 0. -1.
</event>
<event>
 7    1  0.6073302E-013  0.5052886E+02  0.7816164E-02  0.1300439E+00
        -11   -1    0    0    0    0  0.00000000000E+00  0.00000000000E+00  0.45593999997E+02  0.45594000000E+02  0.51100000000E-03 0.  1.
         11   -1    0    0    0    0 -0.00000000000E+00 -0.00000000000E+00 -0.45593999997E+02  0.45594000000E+02  0.51100000000E-03 0. -1.
    9900012    2    1    2    0    0 -0.32046630639E+02  0.15911788432E+02  0.19313054555E+02  0.50528860528E+02  0.30000002060E+02 0.  0.
         12    1    1    2    0    0  0.32046630639E+02 -0.15911788432E+02 -0.19313054555E+02  0.40659139472E+02  0.00000000000E+00 0. -1.
         11    1    3    3    0    0 -0.51194962927E+01 -0.12735441240E+01  0.73609247169E+01  0.90561785470E+01  0.51100000000E-03 0. -1.
        -11    1    3    3    0    0  0.16055023736E+01  0.48129886203E+01 -0.40552787527E+01  0.64952123409E+01  0.51100000000E-03 0.  1.
        -12    1    3    3    0    0 -0.28532636719E+02  0.12372343935E+02  0.16007408591E+02  0.34977469640E+02  0.00000000000E+00 0.  1.
</event>
<event>
 7    1  0.6073302E-013  0.5052884E+02  0.7816164E-02  0.1300439E+00
        -11   -1    0    0    0    0  0.00000000000E+00  0.00000000000E+00  0.45593999997E+02  0.45594000000E+02  0.51100000000E-03 0. -1.
         11   -1    0    0    0    0 -0.00000000000E+00 -0.00000000000E+00 -0.45593999997E+02  0.45594000000E+02  0.51100000000E-03 0.  1.
    9900012    2    1    2    0    0 -0.44744467574E+01  0.28009915132E+02 -0.29130584379E+02  0.50528844011E+02  0.29999951855E+02 0.  0.
         12    1    1    2    0    0  0.44744467574E+01 -0.28009915132E+02  0.29130584379E+02  0.40659155989E+02  0.00000000000E+00 0. -1.
         11    1    3    3    0    0 -0.95053734803E+01  0.24214216843E+02 -0.11036586244E+02  0.28257506233E+02  0.51100000000E-03 0. -1.
        -11    1    3    3    0    0  0.43290327907E+00 -0.38549248181E+00 -0.15542216145E+02  0.15553021978E+02  0.51100000000E-03 0.  1.
         12    1    3    3    0    0  0.45980234438E+01  0.41811907709E+01 -0.25517819905E+01  0.67183157994E+01  0.00000000000E+00 0. -1.
</event>
<event>
 7    1  0.6073302E-013  0.5052886E+02  0.7816164E-02  0.1300439E+00
        -11   -1    0    0    0    0  0.00000000000E+00  0.00000000000E+00  0.45593999997E+02  0.45594000000E+02  0.51100000000E-03 0.  1.
         11   -1    0    0    0    0 -0.00000000000E+00 -0.00000000000E+00 -0.45593999997E+02  0.45594000000E+02  0.51100000000E-03 0. -1.
    9900012    2    1    2    0    0  0.56415192129E+01  0.27365731919E+02  0.29537354447E+02  0.50528864123E+02  0.30000012989E+02 0.  0.
         12    1    1    2    0    0 -0.56415192129E+01 -0.27365731919E+02 -0.29537354447E+02  0.40659135877E+02  0.00000000000E+00 0. -1.
         11    1    3    3    0    0  0.52959436942E+01  0.52492634106E+01 -0.27431529822E+01  0.79452296701E+01  0.51100000000E-03 0. -1.
        -11    1    3    3    0    0  0.76918610982E+00  0.40008014504E+01  0.20658196436E+02  0.21056095074E+02  0.51100000000E-03 0.  1.
         12    1    3    3    0    0 -0.42361059107E+00  0.18115667058E+02  0.11622310993E+02  0.21527539379E+02  0.00000000000E+00 0. -1.
</event>
<event>
 7    1  0.6073302E-013  0.5052886E+02  0.7816164E-02  0.1300439E+00
        -11   -1    0    0    0    0  0.00000000000E+00  0.00000000000E+00  0.45593999997E+02  0.45594000000E+02  0.51100000000E-03 0.  1.
         11   -1    0    0    0    0 -0.00000000000E+00 -0.00000000000E+00 -0.45593999997E+02  0.45594000000E+02  0.51100000000E-03 0. -1.
    9900012    2    1    2    0    0 -0.16014761646E+02 -0.74781187340E+01  0.36616539882E+02  0.50528857814E+02  0.29999993812E+02 0.  0.
         12    1    1    2    0    0  0.16014761646E+02  0.74781187340E+01 -0.36616539882E+02  0.40659142186E+02  0.00000000000E+00 0. -1.
         11    1    3    3    0    0 -0.91344902617E+01 -0.16144393693E+01  0.28257536625E+02  0.29741111331E+02  0.51100000000E-03 0.  1.
        -11    1    3    3    0    0  0.52729695962E+01 -0.13895139372E+01  0.15097991329E+00  0.54550666852E+01  0.51100000000E-03 0. -1.
        -12    1    3    3    0    0 -0.12153240980E+02 -0.44741654274E+01  0.82080233434E+01  0.15332679798E+02  0.00000000000E+00 0.  1.
</event>
<event>
 7    1  0.6073302E-013  0.5052885E+02  0.7816164E-02  0.1300439E+00
        -11   -1    0    0    0    0  0.00000000000E+00  0.00000000000E+00  0.45593999997E+02  0.45594000000E+02  0.51100000000E-03 0.  1.
         11   -1    0    0    0    0 -0.00000000000E+00 -0.00000000000E+00 -0.45593999997E+02  0.45594000000E+02  0.51100000000E-03 0. -1.
    9900012    2    1    2    0    0  0.11641176047E+02  0.25346509458E+02  0.29583847295E+02  0.50528849219E+02  0.29999967686E+02 0.  0.
         12    1    1    2    0    0 -0.11641176047E+02 -0.25346509458E+02 -0.29583847295E+02  0.40659150781E+02  0.00000000000E+00 0. -1.
         11    1    3    3    0    0 -0.22854683484E+01 -0.24055452659E+01 -0.77029717441E+00  0.34063722045E+01  0.51100000000E-03 0. -1.
        -11    1    3    3    0    0  0.66805392963E+01  0.27947383204E+02  0.23115427818E+02  0.36878297639E+02  0.51100000000E-03 0.  1.
        -12    1    3    3    0    0  0.72461050990E+01 -0.19532848042E+00  0.72387166515E+01  0.10244179376E+02  0.00000000000E+00 0.  1.
</event>
<event>
 7    1  0.6073302E-013  0.5052886E+02  0.7816164E-02  0.1300439E+00
        -11   -1    0    0    0    0  0.00000000000E+00  0.00000000000E+00  0.45593999997E+02  0.45594000000E+02  0.51100000000E-03 0.  1.
         11   -1    0    0    0    0 -0.00000000000E+00 -0.00000000000E+00 -0.45593999997E+02  0.45594000000E+02  0.51100000000E-03 0. -1.
    9900012    2    1    2    0    0  0.18159813817E+01  0.35592593761E+02  0.19571286088E+02  0.50528858861E+02  0.29999996993E+02 0.  0.
         12    1    1    2    0    0 -0.18159813817E+01 -0.35592593761E+02 -0.19571286088E+02  0.40659141139E+02  0.00000000000E+00 0. -1.
         11    1    3    3    0    0 -0.10164634329E+02  0.91995196969E+01  0.13745463656E+02  0.19413622152E+02  0.51100000000E-03 0. -1.
        -11    1    3    3    0    0  0.62515512951E+01  0.11346665509E+02 -0.21757550048E+01  0.13136309294E+02  0.51100000000E-03 0.  1.
         12    1    3    3    0    0  0.57290644155E+01  0.15046408556E+02  0.80015774377E+01  0.17978927415E+02  0.00000000000E+00 0. -1.
</event>
<event>
 7    1  0.6073302E-013  0.5052885E+02  0.7816164E-02  0.1300439E+00
        -11   -1    0    0    0    0  0.00000000000E+00  0.00000000000E+00  0.45593999997E+02  0.45594000000E+02  0.51100000000E-03 0.  1.
         11   -1    0    0    0    0 -0.00000000000E+00 -0.00000000000E+00 -0.45593999997E+02  0.45594000000E+02  0.51100000000E-03 0. -1.
    9900012    2    1    2    0    0 -0.27353636381E+02  0.19619334588E+02  0.22804092536E+02  0.50528851592E+02  0.29999974898E+02 0.  0.
         12    1    1    2    0    0  0.27353636381E+02 -0.19619334588E+02 -0.22804092536E+02  0.40659148408E+02  0.00000000000E+00 0. -1.
         11    1    3    3    0    0  0.31614378141E+01  0.43368191399E+01  0.11719750716E+00  0.53680932203E+01  0.51100000000E-03 0. -1.
        -11    1    3    3    0    0 -0.21635975012E+02  0.45755810311E+01  0.22061401802E+02  0.31237106240E+02  0.51100000000E-03 0.  1.
        -12    1    3    3    0    0 -0.88790991828E+01  0.10706934417E+02  0.62549322613E+00  0.13923652132E+02  0.00000000000E+00 0.  1.
</event>
<event>
 7    1  0.6073302E-013  0.5052886E+02  0.7816164E-02  0.1300439E+00
        -11   -1    0    0    0    0  0.00000000000E+00  0.00000000000E+00  0.45593999997E+02  0.45594000000E+02  0.51100000000E-03 0.  1.
         11   -1    0    0    0    0 -0.00000000000E+00 -0.00000000000E+00 -0.45593999997E+02  0.45594000000E+02  0.51100000000E-03 0. -1.
    9900012    2    1    2    0    0 -0.99439419666E+01  0.94759184272E+01  0.38268665576E+02  0.50528858632E+02  0.29999996297E+02 0.  0.
         12    1    1    2    0    0  0.99439419666E+01 -0.94759184272E+01 -0.38268665576E+02  0.40659141368E+02  0.00000000000E+00 0. -1.
         11    1    3    3    0    0  0.51047522681E+01  0.32919918851E+01  0.67641461589E+01  0.90911704312E+01  0.51100000000E-03 0. -1.
        -11    1    3    3    0    0 -0.14309976607E+02  0.13413462895E+02  0.22008512072E+02  0.29480010537E+02  0.51100000000E-03 0.  1.
        -12    1    3    3    0    0 -0.73871762725E+00 -0.72295363534E+01  0.94960073444E+01  0.11957677663E+02  0.00000000000E+00 0.  1.
</event>
<event>
 7    1  0.6073302E-013  0.5052888E+02  0.7816164E-02  0.1300439E+00
        -11   -1    0    0    0    0  0.00000000000E+00  0.00000000000E+00  0.45593999997E+02  0.45594000000E+02  0.51100000000E-03 0.  1.
         11   -1    0    0    0    0 -0.00000000000E+00 -0.00000000000E+00 -0.45593999997E+02  0.45594000000E+02  0.51100000000E-03 0. -1.
    9900012    2    1    2    0    0 -0.21294753677E+02  0.27451548565E+02  0.21121316197E+02  0.50528879858E+02  0.30000060817E+02 0.  0.
         12    1    1    2    0    0  0.21294753677E+02 -0.27451548565E+02 -0.21121316197E+02  0.40659120142E+02  0.00000000000E+00 0. -1.
         11    1    3    3    0    0 -0.95138684883E+01 -0.62511180616E+00 -0.31182709135E+01  0.10031354452E+02  0.51100000000E-03 0. -1.
        -11    1    3    3    0    0 -0.12370688146E+02  0.20035005581E+02  0.13750639170E+02  0.27267479745E+02  0.51100000000E-03 0.  1.
         12    1    3    3    0    0  0.58980295694E+00  0.80416547906E+01  0.10488947941E+02  0.13230045662E+02  0.00000000000E+00 0. -1.
</event>
<event>
 7    1  0.6073302E-013  0.5052886E+02  0.7816164E-02  0.1300439E+00
        -11   -1    0    0    0    0  0.00000000000E+00  0.00000000000E+00  0.45593999997E+02  0.45594000000E+02  0.51100000000E-03 0.  1.
         11   -1    0    0    0    0 -0.00000000000E+00 -0.00000000000E+00 -0.45593999997E+02  0.45594000000E+02  0.51100000000E-03 0. -1.
    9900012    2    1    2    0    0  0.10445623689E+02 -0.38940428244E+02 -0.52628519485E+01  0.50528860600E+02  0.30000002280E+02 0.  0.
         12    1    1    2    0    0 -0.10445623689E+02  0.38940428244E+02  0.52628519485E+01  0.40659139400E+02  0.00000000000E+00 0. -1.
         11    1    3    3    0    0  0.10238888602E+02 -0.37999163457E+02 -0.81157259285E+01  0.40182536889E+02  0.51100000000E-03 0. -1.
        -11    1    3    3    0    0 -0.37210493965E+01  0.20580906594E+01 -0.63225112366E+00  0.42990333236E+01  0.51100000000E-03 0.  1.
         12    1    3    3    0    0  0.39277844831E+01 -0.29993554468E+01  0.34851251037E+01  0.60472903875E+01  0.00000000000E+00 0. -1.
</event>
<event>
 7    1  0.6073302E-013  0.5052890E+02  0.7816164E-02  0.1300439E+00
        -11   -1    0    0    0    0  0.00000000000E+00  0.00000000000E+00  0.45593999997E+02  0.45594000000E+02  0.51100000000E-03 0.  1.
         11   -1    0    0    0    0 -0.00000000000E+00 -0.00000000000E+00 -0.45593999997E+02  0.45594000000E+02  0.51100000000E-03 0. -1.
    9900012    2    1    2    0    0  0.27264300287E+01 -0.16546439484E+02  0.37039764974E+02  0.50528901761E+02  0.30000127392E+02 0.  0.
         12    1    1    2    0    0 -0.27264300287E+01  0.16546439484E+02 -0.37039764974E+02  0.40659098239E+02  0.00000000000E+00 0. -1.
         11    1    3    3    0    0  0.42224435328E+00  0.36419703586E+01  0.80313625010E+01  0.88286478166E+01  0.51100000000E-03 0. -1.
        -11    1    3    3    0    0  0.10308664520E+02 -0.14772865383E+02  0.10579326568E+02  0.20890865628E+02  0.51100000000E-03 0.  1.
        -12    1    3    3    0    0 -0.80044788444E+01 -0.54155444591E+01  0.18429075905E+02  0.20809388316E+02  0.00000000000E+00 0.  1.
</event>
<event>
 7    1  0.6073302E-013  0.5052886E+02  0.7816164E-02  0.1300439E+00
        -11   -1    0    0    0    0  0.00000000000E+00  0.00000000000E+00  0.45593999997E+02  0.45594000000E+02  0.51100000000E-03 0. -1.
         11   -1    0    0    0    0 -0.00000000000E+00 -0.00000000000E+00 -0.45593999997E+02  0.45594000000E+02  0.51100000000E-03 0.  1.
    9900012    2    1    2    0    0  0.96888966481E-01  0.21014765381E+02 -0.34807127848E+02  0.50528857111E+02  0.29999991673E+02 0.  0.
         12    1    1    2    0    0 -0.96888966481E-01 -0.21014765381E+02  0.34807127848E+02  0.40659142889E+02  0.00000000000E+00 0. -1.
         11    1    3    3    0    0  0.18508068119E+01 -0.68426551516E+01 -0.32209851866E+01  0.77860234531E+01  0.51100000000E-03 0. -1.
        -11    1    3    3    0    0  0.40432476721E+00  0.12276701649E+02 -0.18872231742E+02  0.22517593412E+02  0.51100000000E-03 0.  1.
         12    1    3    3    0    0 -0.21582426127E+01  0.15580718884E+02 -0.12713910919E+02  0.20225240245E+02  0.00000000000E+00 0. -1.
</event>
<event>
 7    1  0.6073302E-013  0.5052886E+02  0.7816164E-02  0.1300439E+00
        -11   -1    0    0    0    0  0.00000000000E+00  0.00000000000E+00  0.45593999997E+02  0.45594000000E+02  0.51100000000E-03 0.  1.
         11   -1    0    0    0    0 -0.00000000000E+00 -0.00000000000E+00 -0.45593999997E+02  0.45594000000E+02  0.51100000000E-03 0. -1.
    9900012    2    1    2    0    0  0.56016724377E+01  0.28061410029E+02  0.28885014996E+02  0.50528861320E+02  0.30000004467E+02 0.  0.
         12    1    1    2    0    0 -0.56016724377E+01 -0.28061410029E+02 -0.28885014996E+02  0.40659138680E+02  0.00000000000E+00 0. -1.
         11    1    3    3    0    0  0.91800008389E+01  0.61184670641E+01  0.42043818167E+01  0.11806137444E+02  0.51100000000E-03 0. -1.
        -11    1    3    3    0    0 -0.58190081320E+01  0.94261533520E+01  0.23465722014E+02  0.25949052633E+02  0.51100000000E-03 0.  1.
        -12    1    3    3    0    0  0.22406797308E+01  0.12516789613E+02  0.12149111648E+01  0.12773671242E+02  0.00000000000E+00 0.  1.
</event>
<event>
 7    1  0.6073302E-013  0.5052885E+02  0.7816164E-02  0.1300439E+00
        -11   -1    0    0    0    0  0.00000000000E+00  0.00000000000E+00  0.45593999997E+02  0.45594000000E+02  0.51100000000E-03 0. -1.
         11   -1    0    0    0    0 -0.00000000000E+00 -0.00000000000E+00 -0.45593999997E+02  0.45594000000E+02  0.51100000000E-03 0.  1.
    9900012    2    1    2    0    0  0.39585749579E+02 -0.59148252896E+01  0.71518776626E+01  0.50528854878E+02  0.29999984887E+02 0.  0.
         12    1    1    2    0    0 -0.39585749579E+02  0.59148252896E+01 -0.71518776626E+01  0.40659145122E+02  0.00000000000E+00 0. -1.
         11    1    3    3    0    0  0.23061935242E+02  0.11029548311E+00  0.11280762470E+02  0.25673344627E+02  0.51100000000E-03 0.  1.
        -11    1    3    3    0    0  0.64907213857E+01 -0.45135663477E+01 -0.10296647657E+02  0.12981629271E+02  0.51100000000E-03 0. -1.
         12    1    3    3    0    0  0.10033092952E+02 -0.15115544250E+01  0.61677628500E+01  0.11873880980E+02  0.00000000000E+00 0. -1.
</event>
<event>
 7    1  0.6073302E-013  0.5052886E+02  0.7816164E-02  0.1300439E+00
        -11   -1    0    0    0    0  0.00000000000E+00  0.00000000000E+00  0.45593999997E+02  0.45594000000E+02  0.51100000000E-03 0. -1.
         11   -1    0    0    0    0 -0.00000000000E+00 -0.00000000000E+00 -0.45593999997E+02  0.45594000000E+02  0.51100000000E-03 0.  1.
    9900012    2    1    2    0    0  0.99949435706E+01  0.32889100850E+02 -0.21715749470E+02  0.50528860477E+02  0.30000001906E+02 0.  0.
         12    1    1    2    0    0 -0.99949435706E+01 -0.32889100850E+02  0.21715749470E+02  0.40659139523E+02  0.00000000000E+00 0. -1.
         11    1    3    3    0    0  0.39672916805E+01  0.88899181084E+01  0.56166123206E+01  0.11239056076E+02  0.51100000000E-03 0. -1.
        -11    1    3    3    0    0  0.81308499182E+01  0.21531719288E+02 -0.17432163690E+02  0.28872235574E+02  0.51100000000E-03 0.  1.
         12    1    3    3    0    0 -0.21031980281E+01  0.24674634540E+01 -0.99001981004E+01  0.10417568827E+02  0.00000000000E+00 0. -1.
</event>
<event>
 7    1  0.6073302E-013  0.5052883E+02  0.7816164E-02  0.1300439E+00
        -11   -1    0    0    0    0  0.00000000000E+00  0.00000000000E+00  0.45593999997E+02  0.45594000000E+02  0.51100000000E-03 0.  1.
         11   -1    0    0    0    0 -0.00000000000E+00 -0.00000000000E+00 -0.45593999997E+02  0.45594000000E+02  0.51100000000E-03 0. -1.
    9900012    2    1    2    0    0  0.94984004555E+01  0.31573085858E+02  0.23792612988E+02  0.50528833819E+02  0.29999920875E+02 0.  0.
         12    1    1    2    0    0 -0.94984004555E+01 -0.31573085858E+02 -0.23792612988E+02  0.40659166181E+02  0.00000000000E+00 0. -1.
         11    1    3    3    0    0  0.16222313637E+02  0.13208765059E+02  0.28345193370E+01  0.21110884260E+02  0.51100000000E-03 0. -1.
        -11    1    3    3    0    0 -0.79988917643E+00  0.67027293579E+01  0.35007252104E+01  0.76040437136E+01  0.51100000000E-03 0.  1.
         12    1    3    3    0    0 -0.59240240049E+01  0.11661591441E+02  0.17457368440E+02  0.21813905845E+02  0.00000000000E+00 0. -1.
</event>
<event>
 7    1  0.6073302E-013  0.5052886E+02  0.7816164E-02  0.1300439E+00
        -11   -1    0    0    0    0  0.00000000000E+00  0.00000000000E+00  0.45593999997E+02  0.45594000000E+02  0.51100000000E-03 0. -1.
         11   -1    0    0    0    0 -0.00000000000E+00 -0.00000000000E+00 -0.45593999997E+02  0.45594000000E+02  0.51100000000E-03 0.  1.
    9900012    2    1    2    0    0 -0.18305002820E+02  0.36210709931E+02 -0.26224245189E+01  0.50528858933E+02  0.29999997212E+02 0.  0.
         12    1    1    2    0    0  0.18305002820E+02 -0.36210709931E+02  0.26224245189E+01  0.40659141067E+02  0.00000000000E+00 0. -1.
         11    1    3    3    0    0  0.28578634636E+01 -0.12059316203E+01 -0.21032545639E+01  0.37477105906E+01  0.51100000000E-03 0. -1.
        -11    1    3    3    0    0 -0.21049482292E+02  0.20322176696E+02  0.27101953258E+01  0.29383953604E+02  0.51100000000E-03 0.  1.
        -12    1    3    3    0    0 -0.11338399120E+00  0.17094464856E+02 -0.32293652809E+01  0.17397194738E+02  0.00000000000E+00 0.  1.
</event>
<event>
 7    1  0.6073302E-013  0.5052887E+02  0.7816164E-02  0.1300439E+00
        -11   -1    0    0    0    0  0.00000000000E+00  0.00000000000E+00  0.45593999997E+02  0.45594000000E+02  0.51100000000E-03 0.  1.
         11   -1    0    0    0    0 -0.00000000000E+00 -0.00000000000E+00 -0.45593999997E+02  0.45594000000E+02  0.51100000000E-03 0. -1.
    9900012    2    1    2    0    0 -0.18446094453E+02  0.23511680139E+02  0.27570050259E+02  0.50528866035E+02  0.30000018800E+02 0.  0.
         12    1    1    2    0    0  0.18446094453E+02 -0.23511680139E+02 -0.27570050259E+02  0.40659133965E+02  0.00000000000E+00 0. -1.
         11    1    3    3    0    0 -0.71232181584E+01  0.32781337720E+01 -0.46933826806E+01  0.91386125428E+01  0.51100000000E-03 0. -1.
        -11    1    3    3    0    0 -0.59538062674E+01  0.19628344534E+02  0.24999852001E+02  0.32337475451E+02  0.51100000000E-03 0.  1.
         12    1    3    3    0    0 -0.53690700272E+01  0.60520183287E+00  0.72635809385E+01  0.90527780413E+01  0.00000000000E+00 0. -1.
</event>
<event>
 7    1  0.6073302E-013  0.5052886E+02  0.7816164E-02  0.1300439E+00
        -11   -1    0    0    0    0  0.00000000000E+00  0.00000000000E+00  0.45593999997E+02  0.45594000000E+02  0.51100000000E-03 0.  1.
         11   -1    0    0    0    0 -0.00000000000E+00 -0.00000000000E+00 -0.45593999997E+02  0.45594000000E+02  0.51100000000E-03 0. -1.
    9900012    2    1    2    0    0  0.16684888103E+02 -0.17161736148E+02  0.32867231889E+02  0.50528860675E+02  0.30000002506E+02 0.  0.
         12    1    1    2    0    0 -0.16684888103E+02  0.17161736148E+02 -0.32867231889E+02  0.40659139325E+02  0.00000000000E+00 0. -1.
         11    1    3    3    0    0 -0.22988359180E+01  0.62308563820E+01  0.23010739472E+01  0.70287381088E+01  0.51100000000E-03 0. -1.
        -11    1    3    3    0    0  0.30490577791E+01 -0.87046808753E+01  0.79451141333E+01  0.12173457247E+02  0.51100000000E-03 0.  1.
         12    1    3    3    0    0  0.15934666242E+02 -0.14687911654E+02  0.22621043809E+02  0.31326665319E+02  0.00000000000E+00 0. -1.
</event>
<event>
 7    1  0.6073302E-013  0.5052886E+02  0.7816164E-02  0.1300439E+00
        -11   -1    0    0    0    0  0.00000000000E+00  0.00000000000E+00  0.45593999997E+02  0.45594000000E+02  0.51100000000E-03 0.  1.
         11   -1    0    0    0    0 -0.00000000000E+00 -0.00000000000E+00 -0.45593999997E+02  0.45594000000E+02  0.51100000000E-03 0. -1.
    9900012    2    1    2    0    0  0.12491007000E+02 -0.65456309300E+01  0.38135218002E+02  0.50528863361E+02  0.30000010672E+02 0.  0.
         12    1    1    2    0    0 -0.12491007000E+02  0.65456309300E+01 -0.38135218002E+02  0.40659136639E+02  0.00000000000E+00 0. -1.
         11    1    3    3    0    0 -0.61284037605E+00  0.10352414633E+02  0.16499726935E+02  0.19488177217E+02  0.51100000000E-03 0. -1.
        -11    1    3    3    0    0  0.13776225110E+01 -0.51393321653E+01  0.31155934322E+01  0.61658334055E+01  0.51100000000E-03 0.  1.
         12    1    3    3    0    0  0.11726224865E+02 -0.11758713398E+02  0.18519897635E+02  0.24874852739E+02  0.00000000000E+00 0. -1.
</event>
<event>
 7    1  0.6073302E-013  0.5052887E+02  0.7816164E-02  0.1300439E+00
        -11   -1    0    0    0    0  0.00000000000E+00  0.00000000000E+00  0.45593999997E+02  0.45594000000E+02  0.51100000000E-03 0. -1.
         11   -1    0    0    0    0 -0.00000000000E+00 -0.00000000000E+00 -0.45593999997E+02  0.45594000000E+02  0.51100000000E-03 0.  1.
    9900012    2    1    2    0    0  0.38671253707E+02  0.72513487621E+01 -0.10252656838E+02  0.50528869483E+02  0.30000029281E+02 0.  0.
         12    1    1    2    0    0 -0.38671253707E+02 -0.72513487621E+01  0.10252656838E+02  0.40659130517E+02  0.00000000000E+00 0. -1.
         11    1    3    3    0    0  0.86166085256E+01 -0.65363326390E+01 -0.86160879577E+01  0.13827745977E+02  0.51100000000E-03 0. -1.
        -11    1    3    3    0    0  0.26138231808E+02  0.15802197108E+02 -0.52658221975E+01  0.30994281395E+02  0.51100000000E-03 0.  1.
         12    1    3    3    0    0  0.39164133734E+01 -0.20145157072E+01  0.36292533172E+01  0.57068421115E+01  0.00000000000E+00 0. -1.
</event>
<event>
 7    1  0.6073302E-013  0.5052887E+02  0.7816164E-02  0.1300439E+00
        -11   -1    0    0    0    0  0.00000000000E+00  0.00000000000E+00  0.45593999997E+02  0.45594000000E+02  0.51100000000E-03 0.  1.
         11   -1    0    0    0    0 -0.00000000000E+00 -0.00000000000E+00 -0.45593999997E+02  0.45594000000E+02  0.51100000000E-03 0. -1.
    9900012    2    1    2    0    0  0.23844223864E+02 -0.32504785041E+02  0.52968580246E+01  0.50528871048E+02  0.30000034038E+02 0.  0.
         12    1    1    2    0    0 -0.23844223864E+02  0.32504785041E+02 -0.52968580246E+01  0.40659128952E+02  0.00000000000E+00 0. -1.
         11    1    3    3    0    0  0.72336959510E+01 -0.30237909141E+00 -0.61105151387E+01  0.94739741264E+01  0.51100000000E-03 0. -1.
        -11    1    3    3    0    0  0.15402277544E+01 -0.18943818848E+02  0.27867264489E+01  0.19209539782E+02  0.51100000000E-03 0.  1.
         12    1    3    3    0    0  0.15070300158E+02 -0.13258587101E+02  0.86206467143E+01  0.21845357139E+02  0.00000000000E+00 0. -1.
</event>
<event>
 7    1  0.6073302E-013  0.5052886E+02  0.7816164E-02  0.1300439E+00
        -11   -1    0    0    0    0  0.00000000000E+00  0.00000000000E+00  0.45593999997E+02  0.45594000000E+02  0.51100000000E-03 0.  1.
         11   -1    0    0    0    0 -0.00000000000E+00 -0.00000000000E+00 -0.45593999997E+02  0.45594000000E+02  0.51100000000E-03 0. -1.
    9900012    2    1    2    0    0 -0.76527090114E+01  0.16966903951E+02  0.36148666125E+02  0.50528857762E+02  0.29999993655E+02 0.  0.
         12    1    1    2    0    0  0.76527090114E+01 -0.16966903951E+02 -0.36148666125E+02  0.40659142238E+02  0.00000000000E+00 0. -1.
         11    1    3    3    0    0 -0.31828669667E+01 -0.42672902206E+00 -0.13424600596E+01  0.34806521025E+01  0.51100000000E-03 0. -1.
        -11    1    3    3    0    0 -0.53262179813E+01  0.22497520452E+02  0.28783929493E+02  0.36919122711E+02  0.51100000000E-03 0.  1.
        -12    1    3    3    0    0  0.85637593659E+00 -0.51038874796E+01  0.87071966917E+01  0.10129082948E+02  0.00000000000E+00 0.  1.
</event>
<event>
 7    1  0.6073302E-013  0.5052887E+02  0.7816164E-02  0.1300439E+00
        -11   -1    0    0    0    0  0.00000000000E+00  0.00000000000E+00  0.45593999997E+02  0.45594000000E+02  0.51100000000E-03 0.  1.
         11   -1    0    0    0    0 -0.00000000000E+00 -0.00000000000E+00 -0.45593999997E+02  0.45594000000E+02  0.51100000000E-03 0. -1.
    9900012    2    1    2    0    0  0.68999456311E+01 -0.39543713329E+02  0.64691531282E+01  0.50528874877E+02  0.30000045677E+02 0.  0.
         12    1    1    2    0    0 -0.68999456311E+01  0.39543713329E+02 -0.64691531282E+01  0.40659125123E+02  0.00000000000E+00 0. -1.
         11    1    3    3    0    0  0.56801426678E+01 -0.13621974606E+02 -0.94807475657E+01  0.17541573121E+02  0.51100000000E-03 0. -1.
        -11    1    3    3    0    0  0.50678657639E+01 -0.35841956616E+01  0.35500906223E+01  0.71507248324E+01  0.51100000000E-03 0.  1.
         12    1    3    3    0    0 -0.38480628006E+01 -0.22337543061E+02  0.12399810072E+02  0.25836576924E+02  0.00000000000E+00 0. -1.
</event>
<event>
 7    1  0.6073302E-013  0.5052887E+02  0.7816164E-02  0.1300439E+00
        -11   -1    0    0    0    0  0.00000000000E+00  0.00000000000E+00  0.45593999997E+02  0.45594000000E+02  0.51100000000E-03 0.  1.
         11   -1    0    0    0    0 -0.00000000000E+00 -0.00000000000E+00 -0.45593999997E+02  0.45594000000E+02  0.51100000000E-03 0. -1.
    9900012    2    1    2    0    0 -0.19663262552E+02  0.94186194665E+01  0.34319239737E+02  0.50528874297E+02  0.30000043912E+02 0.  0.
         12    1    1    2    0    0  0.19663262552E+02 -0.94186194665E+01 -0.34319239737E+02  0.40659125703E+02  0.00000000000E+00 0. -1.
         11    1    3    3    0    0  0.36044334606E+01 -0.20083864533E+00  0.12842942679E+02  0.13340669160E+02  0.51100000000E-03 0. -1.
        -11    1    3    3    0    0 -0.22440056674E+02  0.35956345963E+01  0.21234674064E+02  0.31102992051E+02  0.51100000000E-03 0.  1.
        -12    1    3    3    0    0 -0.82763933766E+00  0.60238235155E+01  0.24162299493E+00  0.60852130851E+01  0.00000000000E+00 0.  1.
</event>
<event>
 7    1  0.6073302E-013  0.5052888E+02  0.7816164E-02  0.1300439E+00
        -11   -1    0    0    0    0  0.00000000000E+00  0.00000000000E+00  0.45593999997E+02  0.45594000000E+02  0.51100000000E-03 0.  1.
         11   -1    0    0    0    0 -0.00000000000E+00 -0.00000000000E+00 -0.45593999997E+02  0.45594000000E+02  0.51100000000E-03 0. -1.
    9900012    2    1    2    0    0  0.14801881251E+02  0.23391591064E+01  0.37796782625E+02  0.50528878875E+02  0.30000057827E+02 0.  0.
         12    1    1    2    0    0 -0.14801881251E+02 -0.23391591064E+01 -0.37796782625E+02  0.40659121125E+02  0.00000000000E+00 0. -1.
         11    1    3    3    0    0 -0.25849649256E+01  0.49018294015E+01  0.14440293650E+02  0.15467128244E+02  0.51100000000E-03 0. -1.
        -11    1    3    3    0    0  0.20037388685E+02  0.23182517562E+01  0.20708316045E+02  0.28908572953E+02  0.51100000000E-03 0.  1.
        -12    1    3    3    0    0 -0.26505425086E+01 -0.48809220513E+01  0.26481729300E+01  0.61531776772E+01  0.00000000000E+00 0.  1.
</event>
<event>
 7    1  0.6073302E-013  0.5052885E+02  0.7816164E-02  0.1300439E+00
        -11   -1    0    0    0    0  0.00000000000E+00  0.00000000000E+00  0.45593999997E+02  0.45594000000E+02  0.51100000000E-03 0.  1.
         11   -1    0    0    0    0 -0.00000000000E+00 -0.00000000000E+00 -0.45593999997E+02  0.45594000000E+02  0.51100000000E-03 0. -1.
    9900012    2    1    2    0    0  0.93402772362E+01 -0.18411554905E+02  0.35027705135E+02  0.50528852691E+02  0.29999978240E+02 0.  0.
         12    1    1    2    0    0 -0.93402772362E+01  0.18411554905E+02 -0.35027705135E+02  0.40659147309E+02  0.00000000000E+00 0. -1.
         11    1    3    3    0    0  0.11261822297E+02 -0.12865441034E+02  0.11940851310E+02  0.20855026846E+02  0.51100000000E-03 0. -1.
        -11    1    3    3    0    0  0.26261209123E+01 -0.73941379344E+01  0.23473067103E+02  0.24749841743E+02  0.51100000000E-03 0.  1.
         12    1    3    3    0    0 -0.45476659732E+01  0.18480240636E+01 -0.38621327829E+00  0.49239841023E+01  0.00000000000E+00 0. -1.
</event>
<event>
 7    1  0.6073302E-013  0.5052888E+02  0.7816164E-02  0.1300439E+00
        -11   -1    0    0    0    0  0.00000000000E+00  0.00000000000E+00  0.45593999997E+02  0.45594000000E+02  0.51100000000E-03 0.  1.
         11   -1    0    0    0    0 -0.00000000000E+00 -0.00000000000E+00 -0.45593999997E+02  0.45594000000E+02  0.51100000000E-03 0. -1.
    9900012    2    1    2    0    0  0.58838736016E+01  0.27511759801E+02  0.29353828458E+02  0.50528878747E+02  0.30000057440E+02 0.  0.
         12    1    1    2    0    0 -0.58838736016E+01 -0.27511759801E+02 -0.29353828458E+02  0.40659121253E+02  0.00000000000E+00 0. -1.
         11    1    3    3    0    0  0.61306588555E+01 -0.43425051276E+01  0.10502882096E+02  0.12913282362E+02  0.51100000000E-03 0. -1.
        -11    1    3    3    0    0  0.17592147208E+01  0.27430034986E+02  0.14413993789E+02  0.31036508711E+02  0.51100000000E-03 0.  1.
        -12    1    3    3    0    0 -0.20059999747E+01  0.44242299424E+01  0.44369525740E+01  0.65790876742E+01  0.00000000000E+00 0.  1.
</event>
<event>
 7    1  0.6073302E-013  0.5052885E+02  0.7816164E-02  0.1300439E+00
        -11   -1    0    0    0    0  0.00000000000E+00  0.00000000000E+00  0.45593999997E+02  0.45594000000E+02  0.51100000000E-03 0.  1.
         11   -1    0    0    0    0 -0.00000000000E+00 -0.00000000000E+00 -0.45593999997E+02  0.45594000000E+02  0.51100000000E-03 0. -1.
    9900012    2    1    2    0    0 -0.13350919160E+02 -0.32153520867E+02 -0.21001674413E+02  0.50528852509E+02  0.29999977687E+02 0.  0.
         12    1    1    2    0    0  0.13350919160E+02  0.32153520867E+02  0.21001674413E+02  0.40659147491E+02  0.00000000000E+00 0. -1.
         11    1    3    3    0    0 -0.55183982257E+01 -0.81357732900E+00 -0.91110461967E+01  0.10682967289E+02  0.51100000000E-03 0. -1.
        -11    1    3    3    0    0 -0.11342603794E+02 -0.23448318333E+02 -0.11631814675E+01  0.26073574455E+02  0.51100000000E-03 0.  1.
        -12    1    3    3    0    0  0.35100828595E+01 -0.78916252045E+01 -0.10727446749E+02  0.13772310765E+02  0.00000000000E+00 0.  1.
</event>
<event>
 7    1  0.6073302E-013  0.5052884E+02  0.7816164E-02  0.1300439E+00
        -11   -1    0    0    0    0  0.00000000000E+00  0.00000000000E+00  0.45593999997E+02  0.45594000000E+02  0.51100000000E-03 0.  1.
         11   -1    0    0    0    0 -0.00000000000E+00 -0.00000000000E+00 -0.45593999997E+02  0.45594000000E+02  0.51100000000E-03 0. -1.
    9900012    2    1    2    0    0 -0.17711548484E+02  0.30128555120E+02  0.20778314558E+02  0.50528841878E+02  0.29999945372E+02 0.  0.
         12    1    1    2    0    0  0.17711548484E+02 -0.30128555120E+02 -0.20778314558E+02  0.40659158122E+02  0.00000000000E+00 0. -1.
         11    1    3    3    0    0  0.17530698771E+01 -0.36892648732E+01  0.42281636759E+01  0.58788857473E+01  0.51100000000E-03 0. -1.
        -11    1    3    3    0    0 -0.11540728430E+02  0.22742627501E+02  0.17607629262E+02  0.30991033007E+02  0.51100000000E-03 0.  1.
         12    1    3    3    0    0 -0.79238899314E+01  0.11075192492E+02 -0.10574783798E+01  0.13658923124E+02  0.00000000000E+00 0. -1.
</event>
<event>
 7    1  0.6073302E-013  0.5052887E+02  0.7816164E-02  0.1300439E+00
        -11   -1    0    0    0    0  0.00000000000E+00  0.00000000000E+00  0.45593999997E+02  0.45594000000E+02  0.51100000000E-03 0.  1.
         11   -1    0    0    0    0 -0.00000000000E+00 -0.00000000000E+00 -0.45593999997E+02  0.45594000000E+02  0.51100000000E-03 0. -1.
    9900012    2    1    2    0    0 -0.20882789486E+02 -0.24132374769E+02  0.25193296895E+02  0.50528872893E+02  0.30000039645E+02 0.  0.
         12    1    1    2    0    0  0.20882789486E+02  0.24132374769E+02 -0.25193296895E+02  0.40659127107E+02  0.00000000000E+00 0. -1.
         11    1    3    3    0    0 -0.46764605829E+01 -0.39288542906E+00  0.81405438386E+01  0.93963874331E+01  0.51100000000E-03 0. -1.
        -11    1    3    3    0    0 -0.70562006501E+01 -0.23564652557E+02  0.19799983612E+02  0.31577241315E+02  0.51100000000E-03 0.  1.
        -12    1    3    3    0    0 -0.91501282527E+01 -0.17483678308E+00 -0.27472305559E+01  0.95552441450E+01  0.00000000000E+00 0.  1.
</event>
<event>
 7    1  0.6073302E-013  0.5052886E+02  0.7816164E-02  0.1300439E+00
        -11   -1    0    0    0    0  0.00000000000E+00  0.00000000000E+00  0.45593999997E+02  0.45594000000E+02  0.51100000000E-03 0.  1.
         11   -1    0    0    0    0 -0.00000000000E+00 -0.00000000000E+00 -0.45593999997E+02  0.45594000000E+02  0.51100000000E-03 0. -1.
    9900012    2    1    2    0    0  0.23424452428E+02 -0.14515892745E+02  0.29895637689E+02  0.50528864906E+02  0.30000015368E+02 0.  0.
         12    1    1    2    0    0 -0.23424452428E+02  0.14515892745E+02 -0.29895637689E+02  0.40659135094E+02  0.00000000000E+00 0. -1.
         11    1    3    3    0    0  0.18462711395E+02 -0.81839986347E+01  0.12720946160E+02  0.23867802940E+02  0.51100000000E-03 0. -1.
        -11    1    3    3    0    0 -0.42565699801E+01 -0.19810214257E+01 -0.18750109039E+01  0.50555415175E+01  0.51100000000E-03 0.  1.
        -12    1    3    3    0    0  0.92183110128E+01 -0.43508726848E+01  0.19049702433E+02  0.21605520448E+02  0.00000000000E+00 0.  1.
</event>
<event>
 7    1  0.6073302E-013  0.5052887E+02  0.7816164E-02  0.1300439E+00
        -11   -1    0    0    0    0  0.00000000000E+00  0.00000000000E+00  0.45593999997E+02  0.45594000000E+02  0.51100000000E-03 0. -1.
         11   -1    0    0    0    0 -0.00000000000E+00 -0.00000000000E+00 -0.45593999997E+02  0.45594000000E+02  0.51100000000E-03 0.  1.
    9900012    2    1    2    0    0  0.29587984601E+01  0.29063480874E+02 -0.28279402020E+02  0.50528868339E+02  0.30000025803E+02 0.  0.
         12    1    1    2    0    0 -0.29587984601E+01 -0.29063480874E+02  0.28279402020E+02  0.40659131661E+02  0.00000000000E+00 0. -1.
         11    1    3    3    0    0 -0.53720031498E+01  0.48137328213E+01  0.35345802358E+01  0.80326645156E+01  0.51100000000E-03 0. -1.
        -11    1    3    3    0    0  0.41914324303E+00  0.12130096173E+02 -0.21617393452E+02  0.24791664206E+02  0.51100000000E-03 0.  1.
         12    1    3    3    0    0  0.79116583668E+01  0.12119651880E+02 -0.10196588804E+02  0.17704539617E+02  0.00000000000E+00 0. -1.
</event>
<event>
 7    1  0.6073302E-013  0.5052884E+02  0.7816164E-02  0.1300439E+00
        -11   -1    0    0    0    0  0.00000000000E+00  0.00000000000E+00  0.45593999997E+02  0.45594000000E+02  0.51100000000E-03 0.  1.
         11   -1    0    0    0    0 -0.00000000000E+00 -0.00000000000E+00 -0.45593999997E+02  0.45594000000E+02  0.51100000000E-03 0. -1.
    9900012    2    1    2    0    0 -0.15891759845E+02  0.25864095475E+02  0.27049351575E+02  0.50528844988E+02  0.29999954825E+02 0.  0.
         12    1    1    2    0    0  0.15891759845E+02 -0.25864095475E+02 -0.27049351575E+02  0.40659155012E+02  0.00000000000E+00 0. -1.
         11    1    3    3    0    0 -0.13754885220E+00 -0.34822365577E+01 -0.83710255137E+00  0.35840803664E+01  0.51100000000E-03 0. -1.
        -11    1    3    3    0    0 -0.92433827681E+00  0.20137859784E+02  0.12858374750E+02  0.23910784165E+02  0.51100000000E-03 0.  1.
         12    1    3    3    0    0 -0.14829872716E+02  0.92084722487E+01  0.15028079377E+02  0.23033980457E+02  0.00000000000E+00 0. -1.
</event>
<event>
 7    1  0.6073302E-013  0.5052885E+02  0.7816164E-02  0.1300439E+00
        -11   -1    0    0    0    0  0.00000000000E+00  0.00000000000E+00  0.45593999997E+02  0.45594000000E+02  0.51100000000E-03 0.  1.
         11   -1    0    0    0    0 -0.00000000000E+00 -0.00000000000E+00 -0.45593999997E+02  0.45594000000E+02  0.51100000000E-03 0. -1.
    9900012    2    1    2    0    0 -0.25910618775E+02 -0.30267905453E+02  0.81030916688E+01  0.50528851455E+02  0.29999974482E+02 0.  0.
         12    1    1    2    0    0  0.25910618775E+02  0.30267905453E+02 -0.81030916688E+01  0.40659148545E+02  0.00000000000E+00 0. -1.
         11    1    3    3    0    0 -0.20932849908E+02 -0.84258536160E+01  0.68373573839E+01  0.23578139678E+02  0.51100000000E-03 0.  1.
        -11    1    3    3    0    0 -0.74065654534E+01 -0.20666827936E+02 -0.27365868297E+01  0.22123830964E+02  0.51100000000E-03 0. -1.
        -12    1    3    3    0    0  0.24287965865E+01 -0.11752239007E+01  0.40023211146E+01  0.48268808126E+01  0.00000000000E+00 0.  1.
</event>
<event>
 7    1  0.6073302E-013  0.5052886E+02  0.7816164E-02  0.1300439E+00
        -11   -1    0    0    0    0  0.00000000000E+00  0.00000000000E+00  0.45593999997E+02  0.45594000000E+02  0.51100000000E-03 0.  1.
         11   -1    0    0    0    0 -0.00000000000E+00 -0.00000000000E+00 -0.45593999997E+02  0.45594000000E+02  0.51100000000E-03 0. -1.
    9900012    2    1    2    0    0 -0.28696042579E+02 -0.28783381464E+02  0.11043957908E+01  0.50528860827E+02  0.30000002971E+02 0.  0.
         12    1    1    2    0    0  0.28696042579E+02  0.28783381464E+02 -0.11043957908E+01  0.40659139173E+02  0.00000000000E+00 0. -1.
         11    1    3    3    0    0 -0.14394922548E+02 -0.10086430574E+02  0.50240991648E+01  0.18280903959E+02  0.51100000000E-03 0.  1.
        -11    1    3    3    0    0 -0.10380334027E+02 -0.23545024686E+02 -0.38074998685E+01  0.26011854556E+02  0.51100000000E-03 0. -1.
        -12    1    3    3    0    0 -0.39207860039E+01  0.48480737955E+01 -0.11220350550E+00  0.62361023117E+01  0.00000000000E+00 0.  1.
</event>
<event>
 7    1  0.6073302E-013  0.5052886E+02  0.7816164E-02  0.1300439E+00
        -11   -1    0    0    0    0  0.00000000000E+00  0.00000000000E+00  0.45593999997E+02  0.45594000000E+02  0.51100000000E-03 0. -1.
         11   -1    0    0    0    0 -0.00000000000E+00 -0.00000000000E+00 -0.45593999997E+02  0.45594000000E+02  0.51100000000E-03 0.  1.
    9900012    2    1    2    0    0  0.15733904955E+02 -0.33105451165E+02 -0.17596560683E+02  0.50528860685E+02  0.30000002539E+02 0.  0.
         12    1    1    2    0    0 -0.15733904955E+02  0.33105451165E+02  0.17596560683E+02  0.40659139315E+02  0.00000000000E+00 0. -1.
         11    1    3    3    0    0  0.12974156539E+02 -0.27455312963E+01 -0.21142124500E+01  0.13428945400E+02  0.51100000000E-03 0. -1.
        -11    1    3    3    0    0  0.70887571207E+01 -0.24056958329E+02 -0.15443942493E+02  0.29453405262E+02  0.51100000000E-03 0.  1.
        -12    1    3    3    0    0 -0.43290087053E+01 -0.63029615391E+01 -0.38405740725E-01  0.76465100231E+01  0.00000000000E+00 0.  1.
</event>
<event>
 7    1  0.6073302E-013  0.5052882E+02  0.7816164E-02  0.1300439E+00
        -11   -1    0    0    0    0  0.00000000000E+00  0.00000000000E+00  0.45593999997E+02  0.45594000000E+02  0.51100000000E-03 0.  1.
         11   -1    0    0    0    0 -0.00000000000E+00 -0.00000000000E+00 -0.45593999997E+02  0.45594000000E+02  0.51100000000E-03 0. -1.
    9900012    2    1    2    0    0  0.52539826536E+01  0.13084139669E+02  0.38136198197E+02  0.50528823206E+02  0.29999888617E+02 0.  0.
         12    1    1    2    0    0 -0.52539826536E+01 -0.13084139669E+02 -0.38136198197E+02  0.40659176794E+02  0.00000000000E+00 0. -1.
         11    1    3    3    0    0  0.12472311240E+01  0.37360217811E+01 -0.37210601572E+01  0.54184622524E+01  0.51100000000E-03 0. -1.
        -11    1    3    3    0    0  0.50494057608E+01  0.41400879772E+01  0.37972764115E+02  0.38530087487E+02  0.51100000000E-03 0.  1.
        -12    1    3    3    0    0 -0.10426542312E+01  0.52080299106E+01  0.38844942399E+01  0.65802734666E+01  0.00000000000E+00 0.  1.
</event>
<event>
 7    1  0.6073302E-013  0.5052888E+02  0.7816164E-02  0.1300439E+00
        -11   -1    0    0    0    0  0.00000000000E+00  0.00000000000E+00  0.45593999997E+02  0.45594000000E+02  0.51100000000E-03 0.  1.
         11   -1    0    0    0    0 -0.00000000000E+00 -0.00000000000E+00 -0.45593999997E+02  0.45594000000E+02  0.51100000000E-03 0. -1.
    9900012    2    1    2    0    0  0.12153946928E+02  0.76806520934E+01  0.38032267837E+02  0.50528877539E+02  0.30000053767E+02 0.  0.
         12    1    1    2    0    0 -0.12153946928E+02 -0.76806520934E+01 -0.38032267837E+02  0.40659122461E+02  0.00000000000E+00 0. -1.
         11    1    3    3    0    0  0.47281615278E+01 -0.82157106108E+01  0.94273656021E+01  0.13368942917E+02  0.51100000000E-03 0. -1.
        -11    1    3    3    0    0  0.10270295296E+02  0.65133518965E+01  0.86424101967E+01  0.14919583529E+02  0.51100000000E-03 0.  1.
         12    1    3    3    0    0 -0.28445098963E+01  0.93830108076E+01  0.19962492038E+02  0.22240351093E+02  0.00000000000E+00 0. -1.
</event>
<event>
 7    1  0.6073302E-013  0.5052889E+02  0.7816164E-02  0.1300439E+00
        -11   -1    0    0    0    0  0.00000000000E+00  0.00000000000E+00  0.45593999997E+02  0.45594000000E+02  0.51100000000E-03 0.  1.
         11   -1    0    0    0    0 -0.00000000000E+00 -0.00000000000E+00 -0.45593999997E+02  0.45594000000E+02  0.51100000000E-03 0. -1.
    9900012    2    1    2    0    0  0.22235902310E+02  0.24989690308E+02  0.23113694121E+02  0.50528894880E+02  0.30000106478E+02 0.  0.
         12    1    1    2    0    0 -0.22235902310E+02 -0.24989690308E+02 -0.23113694121E+02  0.40659105120E+02  0.00000000000E+00 0. -1.
         11    1    3    3    0    0  0.13582399907E+02  0.15558722417E+01  0.11627320490E+02  0.17947058469E+02  0.51100000000E-03 0. -1.
        -11    1    3    3    0    0  0.63833045979E+01  0.24957440070E+02  0.13595937972E+02  0.29128507034E+02  0.51100000000E-03 0.  1.
         12    1    3    3    0    0  0.22701978050E+01 -0.15236220036E+01 -0.21095643404E+01  0.34533293776E+01  0.00000000000E+00 0. -1.
</event>
<event>
 7    1  0.6073302E-013  0.5052886E+02  0.7816164E-02  0.1300439E+00
        -11   -1    0    0    0    0  0.00000000000E+00  0.00000000000E+00  0.45593999997E+02  0.45594000000E+02  0.51100000000E-03 0.  1.
         11   -1    0    0    0    0 -0.00000000000E+00 -0.00000000000E+00 -0.45593999997E+02  0.45594000000E+02  0.51100000000E-03 0. -1.
    9900012    2    1    2    0    0 -0.10847368398E+02 -0.32766491223E+02  0.21490863138E+02  0.50528861462E+02  0.30000004901E+02 0.  0.
         12    1    1    2    0    0  0.10847368398E+02  0.32766491223E+02 -0.21490863138E+02  0.40659138538E+02  0.00000000000E+00 0. -1.
         11    1    3    3    0    0  0.73270848304E-01  0.20318099459E+01 -0.40244550914E+01  0.45088645264E+01  0.51100000000E-03 0. -1.
        -11    1    3    3    0    0 -0.64146371002E+01 -0.26581306189E+02  0.24278786229E+02  0.36567374377E+02  0.51100000000E-03 0.  1.
         12    1    3    3    0    0 -0.45060021461E+01 -0.82169949804E+01  0.12365319997E+01  0.94526225585E+01  0.00000000000E+00 0. -1.
</event>
<event>
 7    1  0.6073302E-013  0.5052885E+02  0.7816164E-02  0.1300439E+00
        -11   -1    0    0    0    0  0.00000000000E+00  0.00000000000E+00  0.45593999997E+02  0.45594000000E+02  0.51100000000E-03 0.  1.
         11   -1    0    0    0    0 -0.00000000000E+00 -0.00000000000E+00 -0.45593999997E+02  0.45594000000E+02  0.51100000000E-03 0. -1.
    9900012    2    1    2    0    0  0.40170532716E+02 -0.18335118021E+01 -0.60110836415E+01  0.50528848622E+02  0.29999965872E+02 0.  0.
         12    1    1    2    0    0 -0.40170532716E+02  0.18335118021E+01  0.60110836415E+01  0.40659151378E+02  0.00000000000E+00 0. -1.
         11    1    3    3    0    0  0.15087467567E+02  0.12028818754E+02 -0.39767521730E+01  0.19701236416E+02  0.51100000000E-03 0. -1.
        -11    1    3    3    0    0  0.13108034617E+02 -0.12727369299E+02 -0.38246937684E+01  0.18666407888E+02  0.51100000000E-03 0.  1.
        -12    1    3    3    0    0  0.11975030532E+02 -0.11349612571E+01  0.17903622999E+01  0.12161204318E+02  0.00000000000E+00 0.  1.
</event>
<event>
 7    1  0.6073302E-013  0.5052886E+02  0.7816164E-02  0.1300439E+00
        -11   -1    0    0    0    0  0.00000000000E+00  0.00000000000E+00  0.45593999997E+02  0.45594000000E+02  0.51100000000E-03 0. -1.
         11   -1    0    0    0    0 -0.00000000000E+00 -0.00000000000E+00 -0.45593999997E+02  0.45594000000E+02  0.51100000000E-03 0.  1.
    9900012    2    1    2    0    0  0.37511605229E+02  0.19440781015E+00 -0.15684617457E+02  0.50528861470E+02  0.30000004923E+02 0.  0.
         12    1    1    2    0    0 -0.37511605229E+02 -0.19440781015E+00  0.15684617457E+02  0.40659138530E+02  0.00000000000E+00 0. -1.
         11    1    3    3    0    0  0.11655528711E+02 -0.11066488684E+01  0.67371094238E+01  0.13507948212E+02  0.51100000000E-03 0. -1.
        -11    1    3    3    0    0  0.14169978060E+02 -0.26921966799E+01 -0.19630876061E+02  0.24359956822E+02  0.51100000000E-03 0.  1.
        -12    1    3    3    0    0  0.11686098458E+02  0.39932533585E+01 -0.27908508198E+01  0.12660956435E+02  0.00000000000E+00 0.  1.
</event>
<event>
 7    1  0.6073302E-013  0.5052890E+02  0.7816164E-02  0.1300439E+00
        -11   -1    0    0    0    0  0.00000000000E+00  0.00000000000E+00  0.45593999997E+02  0.45594000000E+02  0.51100000000E-03 0.  1.
         11   -1    0    0    0    0 -0.00000000000E+00 -0.00000000000E+00 -0.45593999997E+02  0.45594000000E+02  0.51100000000E-03 0. -1.
    9900012    2    1    2    0    0 -0.25537100754E+02 -0.58286829110E+01  0.31097359296E+02  0.50528895060E+02  0.30000107023E+02 0.  0.
         12    1    1    2    0    0  0.25537100754E+02  0.58286829110E+01 -0.31097359296E+02  0.40659104940E+02  0.00000000000E+00 0. -1.
         11    1    3    3    0    0 -0.97849199285E+01 -0.14681831979E+01  0.96986681536E+00  0.99418741598E+01  0.51100000000E-03 0. -1.
        -11    1    3    3    0    0 -0.10940951968E+02  0.61945891749E+01  0.24836222599E+02  0.27837300844E+02  0.51100000000E-03 0.  1.
         12    1    3    3    0    0 -0.48112288576E+01 -0.10555088888E+02  0.52912698808E+01  0.12749720056E+02  0.00000000000E+00 0. -1.
</event>
<event>
 7    1  0.6073302E-013  0.5052886E+02  0.7816164E-02  0.1300439E+00
        -11   -1    0    0    0    0  0.00000000000E+00  0.00000000000E+00  0.45593999997E+02  0.45594000000E+02  0.51100000000E-03 0. -1.
         11   -1    0    0    0    0 -0.00000000000E+00 -0.00000000000E+00 -0.45593999997E+02  0.45594000000E+02  0.51100000000E-03 0.  1.
    9900012    2    1    2    0    0  0.20788450368E+02  0.31966507241E+02 -0.14112006961E+02  0.50528855957E+02  0.29999988166E+02 0.  0.
         12    1    1    2    0    0 -0.20788450368E+02 -0.31966507241E+02  0.14112006961E+02  0.40659144043E+02  0.00000000000E+00 0. -1.
         11    1    3    3    0    0  0.11568328785E+01  0.13947597340E+02  0.17578974692E+01  0.14105457726E+02  0.51100000000E-03 0. -1.
        -11    1    3    3    0    0  0.15473953530E+02  0.19844888484E+02 -0.18447256910E+02  0.31201989112E+02  0.51100000000E-03 0.  1.
        -12    1    3    3    0    0  0.41576639589E+01 -0.18259785835E+01  0.25773524796E+01  0.52214091189E+01  0.00000000000E+00 0.  1.
</event>
<event>
 7    1  0.6073302E-013  0.5052886E+02  0.7816164E-02  0.1300439E+00
        -11   -1    0    0    0    0  0.00000000000E+00  0.00000000000E+00  0.45593999997E+02  0.45594000000E+02  0.51100000000E-03 0.  1.
         11   -1    0    0    0    0 -0.00000000000E+00 -0.00000000000E+00 -0.45593999997E+02  0.45594000000E+02  0.51100000000E-03 0. -1.
    9900012    2    1    2    0    0 -0.32044938353E+02 -0.33147796378E+01  0.24805242140E+02  0.50528857416E+02  0.29999992601E+02 0.  0.
         12    1    1    2    0    0  0.32044938353E+02  0.33147796378E+01 -0.24805242140E+02  0.40659142584E+02  0.00000000000E+00 0. -1.
         11    1    3    3    0    0 -0.54295887325E+01 -0.38361696662E+01 -0.20760869121E+00  0.66512955987E+01  0.51100000000E-03 0. -1.
        -11    1    3    3    0    0 -0.74034581050E+01 -0.50539759500E+01  0.21859418394E+02  0.23626003420E+02  0.51100000000E-03 0.  1.
        -12    1    3    3    0    0 -0.19211891515E+02  0.55753659784E+01  0.31534324376E+01  0.20251558397E+02  0.00000000000E+00 0.  1.
</event>
<event>
 7    1  0.6073302E-013  0.5052888E+02  0.7816164E-02  0.1300439E+00
        -11   -1    0    0    0    0  0.00000000000E+00  0.00000000000E+00  0.45593999997E+02  0.45594000000E+02  0.51100000000E-03 0.  1.
         11   -1    0    0    0    0 -0.00000000000E+00 -0.00000000000E+00 -0.45593999997E+02  0.45594000000E+02  0.51100000000E-03 0. -1.
    9900012    2    1    2    0    0 -0.36032088559E+02  0.16749816114E+02  0.86195325151E+01  0.50528879418E+02  0.30000059478E+02 0.  0.
         12    1    1    2    0    0  0.36032088559E+02 -0.16749816114E+02 -0.86195325151E+01  0.40659120582E+02  0.00000000000E+00 0. -1.
         11    1    3    3    0    0 -0.11015534421E+01 -0.91816903766E+00  0.80032181578E+01  0.81306798922E+01  0.51100000000E-03 0. -1.
        -11    1    3    3    0    0 -0.15598863482E+02  0.31957888332E+01 -0.65367553984E+01  0.17212401913E+02  0.51100000000E-03 0.  1.
        -12    1    3    3    0    0 -0.19331671634E+02  0.14472196319E+02  0.71530697557E+01  0.25185797613E+02  0.00000000000E+00 0.  1.
</event>
<event>
 7    1  0.6073302E-013  0.5052883E+02  0.7816164E-02  0.1300439E+00
        -11   -1    0    0    0    0  0.00000000000E+00  0.00000000000E+00  0.45593999997E+02  0.45594000000E+02  0.51100000000E-03 0. -1.
         11   -1    0    0    0    0 -0.00000000000E+00 -0.00000000000E+00 -0.45593999997E+02  0.45594000000E+02  0.51100000000E-03 0.  1.
    9900012    2    1    2    0    0  0.16316529500E+02 -0.16171989162E+02 -0.33547065934E+02  0.50528831278E+02  0.29999913154E+02 0.  0.
         12    1    1    2    0    0 -0.16316529500E+02  0.16171989162E+02  0.33547065934E+02  0.40659168722E+02  0.00000000000E+00 0. -1.
         11    1    3    3    0    0  0.71707057146E+01 -0.10315858618E+02 -0.25719425512E+02  0.28623850342E+02  0.51100000000E-03 0. -1.
        -11    1    3    3    0    0 -0.28852915321E+01 -0.15035403702E+01  0.35272557167E+01  0.47986533551E+01  0.51100000000E-03 0.  1.
        -12    1    3    3    0    0  0.12031115318E+02 -0.43525901738E+01 -0.11354896138E+02  0.17106327581E+02  0.00000000000E+00 0.  1.
</event>
<event>
 7    1  0.6073302E-013  0.5052886E+02  0.7816164E-02  0.1300439E+00
        -11   -1    0    0    0    0  0.00000000000E+00  0.00000000000E+00  0.45593999997E+02  0.45594000000E+02  0.51100000000E-03 0. -1.
         11   -1    0    0    0    0 -0.00000000000E+00 -0.00000000000E+00 -0.45593999997E+02  0.45594000000E+02  0.51100000000E-03 0.  1.
    9900012    2    1    2    0    0  0.30246495070E+02 -0.27143384045E+02  0.12457546669E+01  0.50528859993E+02  0.30000000435E+02 0.  0.
         12    1    1    2    0    0 -0.30246495070E+02  0.27143384045E+02 -0.12457546669E+01  0.40659140007E+02  0.00000000000E+00 0. -1.
         11    1    3    3    0    0  0.22476667545E+02 -0.14197043791E+02  0.87127359831E+01  0.27976211411E+02  0.51100000000E-03 0. -1.
        -11    1    3    3    0    0  0.66116686681E+01 -0.56929565919E+01 -0.11292887799E+02  0.14270712401E+02  0.51100000000E-03 0.  1.
        -12    1    3    3    0    0  0.11581588564E+01 -0.72533836621E+01  0.38259064832E+01  0.82819361809E+01  0.00000000000E+00 0.  1.
</event>
<event>
 7    1  0.6073302E-013  0.5052885E+02  0.7816164E-02  0.1300439E+00
        -11   -1    0    0    0    0  0.00000000000E+00  0.00000000000E+00  0.45593999997E+02  0.45594000000E+02  0.51100000000E-03 0.  1.
         11   -1    0    0    0    0 -0.00000000000E+00 -0.00000000000E+00 -0.45593999997E+02  0.45594000000E+02  0.51100000000E-03 0. -1.
    9900012    2    1    2    0    0  0.28035374127E+02  0.87136341332E+01  0.28129284796E+02  0.50528852378E+02  0.29999977287E+02 0.  0.
         12    1    1    2    0    0 -0.28035374127E+02 -0.87136341332E+01 -0.28129284796E+02  0.40659147622E+02  0.00000000000E+00 0. -1.
         11    1    3    3    0    0  0.18903701356E+01  0.69971747400E+01 -0.33102697282E+01  0.79681766752E+01  0.51100000000E-03 0. -1.
        -11    1    3    3    0    0  0.10158575480E+02  0.57760624518E+01  0.17061197395E+02  0.20679555364E+02  0.51100000000E-03 0.  1.
         12    1    3    3    0    0  0.15986428511E+02 -0.40596030586E+01  0.14378357129E+02  0.21881120339E+02  0.00000000000E+00 0. -1.
</event>
<event>
 7    1  0.6073302E-013  0.5052886E+02  0.7816164E-02  0.1300439E+00
        -11   -1    0    0    0    0  0.00000000000E+00  0.00000000000E+00  0.45593999997E+02  0.45594000000E+02  0.51100000000E-03 0. -1.
         11   -1    0    0    0    0 -0.00000000000E+00 -0.00000000000E+00 -0.45593999997E+02  0.45594000000E+02  0.51100000000E-03 0.  1.
    9900012    2    1    2    0    0  0.14857180253E+02  0.31197706629E+02 -0.21427391013E+02  0.50528858475E+02  0.29999995820E+02 0.  0.
         12    1    1    2    0    0 -0.14857180253E+02 -0.31197706629E+02  0.21427391013E+02  0.40659141525E+02  0.00000000000E+00 0. -1.
         11    1    3    3    0    0 -0.13950134998E+01  0.54697094193E+01  0.41766418765E+01  0.70219741827E+01  0.51100000000E-03 0. -1.
        -11    1    3    3    0    0  0.14046978288E+02  0.27993151810E+02 -0.20271623071E+02  0.37307812178E+02  0.51100000000E-03 0.  1.
        -12    1    3    3    0    0  0.22052154648E+01 -0.22651546006E+01 -0.53324098183E+01  0.61990721145E+01  0.00000000000E+00 0.  1.
</event>
<event>
 7    1  0.6073302E-013  0.5052886E+02  0.7816164E-02  0.1300439E+00
        -11   -1    0    0    0    0  0.00000000000E+00  0.00000000000E+00  0.45593999997E+02  0.45594000000E+02  0.51100000000E-03 0. -1.
         11   -1    0    0    0    0 -0.00000000000E+00 -0.00000000000E+00 -0.45593999997E+02  0.45594000000E+02  0.51100000000E-03 0.  1.
    9900012    2    1    2    0    0  0.23269032739E+02 -0.14744217556E+02 -0.29905286326E+02  0.50528856057E+02  0.29999988470E+02 0.  0.
         12    1    1    2    0    0 -0.23269032739E+02  0.14744217556E+02  0.29905286326E+02  0.40659143943E+02  0.00000000000E+00 0. -1.
         11    1    3    3    0    0  0.21424354795E+01  0.42167674076E+01  0.22998884432E+01  0.52593387670E+01  0.51100000000E-03 0. -1.
        -11    1    3    3    0    0  0.13528830554E+02 -0.19533762553E+02 -0.27371357658E+02  0.36246218505E+02  0.51100000000E-03 0.  1.
         12    1    3    3    0    0  0.75977667063E+01  0.57277758916E+00 -0.48338171111E+01  0.90232987844E+01  0.00000000000E+00 0. -1.
</event>
<event>
 7    1  0.6073302E-013  0.5052885E+02  0.7816164E-02  0.1300439E+00
        -11   -1    0    0    0    0  0.00000000000E+00  0.00000000000E+00  0.45593999997E+02  0.45594000000E+02  0.51100000000E-03 0.  1.
         11   -1    0    0    0    0 -0.00000000000E+00 -0.00000000000E+00 -0.45593999997E+02  0.45594000000E+02  0.51100000000E-03 0. -1.
    9900012    2    1    2    0    0 -0.10830785880E+02  0.21937007607E+02  0.32475034985E+02  0.50528854377E+02  0.29999983365E+02 0.  0.
         12    1    1    2    0    0  0.10830785880E+02 -0.21937007607E+02 -0.32475034985E+02  0.40659145623E+02  0.00000000000E+00 0. -1.
         11    1    3    3    0    0 -0.23325455403E+01  0.13418605754E+02 -0.14796946168E+01  0.13699972463E+02  0.51100000000E-03 0. -1.
        -11    1    3    3    0    0 -0.58634934563E+01  0.82138508571E+01  0.31944896518E+02  0.33501109164E+02  0.51100000000E-03 0.  1.
        -12    1    3    3    0    0 -0.26347468837E+01  0.30455099576E+00  0.20098330829E+01  0.33277727493E+01  0.00000000000E+00 0.  1.
</event>
<event>
 7    1  0.6073302E-013  0.5052885E+02  0.7816164E-02  0.1300439E+00
        -11   -1    0    0    0    0  0.00000000000E+00  0.00000000000E+00  0.45593999997E+02  0.45594000000E+02  0.51100000000E-03 0.  1.
         11   -1    0    0    0    0 -0.00000000000E+00 -0.00000000000E+00 -0.45593999997E+02  0.45594000000E+02  0.51100000000E-03 0. -1.
    9900012    2    1    2    0    0  0.27318997919E+02  0.22228599009E+02  0.20315705518E+02  0.50528854019E+02  0.29999982276E+02 0.  0.
         12    1    1    2    0    0 -0.27318997919E+02 -0.22228599009E+02 -0.20315705518E+02  0.40659145981E+02  0.00000000000E+00 0. -1.
         11    1    3    3    0    0  0.12968161789E+02  0.19106152901E+01 -0.49384667369E+01  0.14007573842E+02  0.51100000000E-03 0. -1.
        -11    1    3    3    0    0  0.55448743993E+01  0.17613626278E+01  0.49351176713E+01  0.76291164036E+01  0.51100000000E-03 0.  1.
         12    1    3    3    0    0  0.88059617312E+01  0.18556621092E+02  0.20319054583E+02  0.28892163773E+02  0.00000000000E+00 0. -1.
</event>
<event>
 7    1  0.6073302E-013  0.5052886E+02  0.7816164E-02  0.1300439E+00
        -11   -1    0    0    0    0  0.00000000000E+00  0.00000000000E+00  0.45593999997E+02  0.45594000000E+02  0.51100000000E-03 0.  1.
         11   -1    0    0    0    0 -0.00000000000E+00 -0.00000000000E+00 -0.45593999997E+02  0.45594000000E+02  0.51100000000E-03 0. -1.
    9900012    2    1    2    0    0  0.17746966619E+02  0.18341190457E+02  0.31651406861E+02  0.50528860218E+02  0.30000001118E+02 0.  0.
         12    1    1    2    0    0 -0.17746966619E+02 -0.18341190457E+02 -0.31651406861E+02  0.40659139782E+02  0.00000000000E+00 0. -1.
         11    1    3    3    0    0  0.27149991721E+01  0.20642678082E+00  0.24319659747E+02  0.24471609734E+02  0.51100000000E-03 0. -1.
        -11    1    3    3    0    0  0.11554887978E+02  0.17067478398E+02  0.37439738742E+01  0.20948307705E+02  0.51100000000E-03 0.  1.
         12    1    3    3    0    0  0.34770794682E+01  0.10672852778E+01  0.35877732405E+01  0.51089427789E+01  0.00000000000E+00 0. -1.
</event>
<event>
 7    1  0.6073302E-013  0.5052886E+02  0.7816164E-02  0.1300439E+00
        -11   -1    0    0    0    0  0.00000000000E+00  0.00000000000E+00  0.45593999997E+02  0.45594000000E+02  0.51100000000E-03 0.  1.
         11   -1    0    0    0    0 -0.00000000000E+00 -0.00000000000E+00 -0.45593999997E+02  0.45594000000E+02  0.51100000000E-03 0. -1.
    9900012    2    1    2    0    0  0.30018208450E+02 -0.24055322330E+02 -0.13168684872E+02  0.50528860410E+02  0.30000001702E+02 0.  0.
         12    1    1    2    0    0 -0.30018208450E+02  0.24055322330E+02  0.13168684872E+02  0.40659139590E+02  0.00000000000E+00 0. -1.
         11    1    3    3    0    0  0.13911346102E+02 -0.84047866626E+01  0.24603299968E+01  0.16438345816E+02  0.51100000000E-03 0.  1.
        -11    1    3    3    0    0  0.10575844191E+02 -0.19020612392E+02 -0.16819645143E+02  0.27505138413E+02  0.51100000000E-03 0. -1.
        -12    1    3    3    0    0  0.55310181577E+01  0.33700767252E+01  0.11906302746E+01  0.65853761810E+01  0.00000000000E+00 0.  1.
</event>
<event>
 7    1  0.6073302E-013  0.5052891E+02  0.7816164E-02  0.1300439E+00
        -11   -1    0    0    0    0  0.00000000000E+00  0.00000000000E+00  0.45593999997E+02  0.45594000000E+02  0.51100000000E-03 0.  1.
         11   -1    0    0    0    0 -0.00000000000E+00 -0.00000000000E+00 -0.45593999997E+02  0.45594000000E+02  0.51100000000E-03 0. -1.
    9900012    2    1    2    0    0 -0.53552693849E+01 -0.10059727293E+02  0.39029275465E+02  0.50528912865E+02  0.30000161143E+02 0.  0.
         12    1    1    2    0    0  0.53552693849E+01  0.10059727293E+02 -0.39029275465E+02  0.40659087135E+02  0.00000000000E+00 0. -1.
         11    1    3    3    0    0  0.60246407708E+01 -0.71283886857E+01  0.50489125239E+01  0.10611396685E+02  0.51100000000E-03 0. -1.
        -11    1    3    3    0    0 -0.66529092967E+01  0.65939048694E+01  0.21927194737E+02  0.23844132462E+02  0.51100000000E-03 0.  1.
        -12    1    3    3    0    0 -0.47270008590E+01 -0.95252434765E+01  0.12053168203E+02  0.16073383718E+02  0.00000000000E+00 0.  1.
</event>
<event>
 7    1  0.6073302E-013  0.5052889E+02  0.7816164E-02  0.1300439E+00
        -11   -1    0    0    0    0  0.00000000000E+00  0.00000000000E+00  0.45593999997E+02  0.45594000000E+02  0.51100000000E-03 0. -1.
         11   -1    0    0    0    0 -0.00000000000E+00 -0.00000000000E+00 -0.45593999997E+02  0.45594000000E+02  0.51100000000E-03 0.  1.
    9900012    2    1    2    0    0 -0.28039410106E+02  0.11926135646E+02 -0.26920660738E+02  0.50528890257E+02  0.30000092424E+02 0.  0.
         12    1    1    2    0    0  0.28039410106E+02 -0.11926135646E+02  0.26920660738E+02  0.40659109743E+02  0.00000000000E+00 0. -1.
         11    1    3    3    0    0 -0.16621734162E+01 -0.33378619746E+01  0.32983796621E+00  0.37433856830E+01  0.51100000000E-03 0. -1.
        -11    1    3    3    0    0 -0.57902214724E+01  0.65502884106E+01 -0.22210530138E+02  0.23869239457E+02  0.51100000000E-03 0.  1.
        -12    1    3    3    0    0 -0.20587015218E+02  0.87137092102E+01 -0.50399685656E+01  0.22916265117E+02  0.00000000000E+00 0.  1.
</event>
<event>
 7    1  0.6073302E-013  0.5052885E+02  0.7816164E-02  0.1300439E+00
        -11   -1    0    0    0    0  0.00000000000E+00  0.00000000000E+00  0.45593999997E+02  0.45594000000E+02  0.51100000000E-03 0. -1.
         11   -1    0    0    0    0 -0.00000000000E+00 -0.00000000000E+00 -0.45593999997E+02  0.45594000000E+02  0.51100000000E-03 0.  1.
    9900012    2    1    2    0    0  0.37026993475E+02 -0.16690160388E+02 -0.18991411730E+01  0.50528850516E+02  0.29999971629E+02 0.  0.
         12    1    1    2    0    0 -0.37026993475E+02  0.16690160388E+02  0.18991411730E+01  0.40659149484E+02  0.00000000000E+00 0. -1.
         11    1    3    3    0    0 -0.19363266091E+01  0.37705810283E+01 -0.29408938664E+00  0.42488976049E+01  0.51100000000E-03 0. -1.
        -11    1    3    3    0    0  0.10062458662E+02 -0.12118396480E+02  0.24015817573E+01  0.15933493113E+02  0.51100000000E-03 0.  1.
         12    1    3    3    0    0  0.28900861422E+02 -0.83423449359E+01 -0.40066335437E+01  0.30346459799E+02  0.00000000000E+00 0. -1.
</event>
<event>
 7    1  0.6073302E-013  0.5052885E+02  0.7816164E-02  0.1300439E+00
        -11   -1    0    0    0    0  0.00000000000E+00  0.00000000000E+00  0.45593999997E+02  0.45594000000E+02  0.51100000000E-03 0. -1.
         11   -1    0    0    0    0 -0.00000000000E+00 -0.00000000000E+00 -0.45593999997E+02  0.45594000000E+02  0.51100000000E-03 0.  1.
    9900012    2    1    2    0    0 -0.32025162745E+02 -0.16519391869E+02 -0.18832560385E+02  0.50528847436E+02  0.29999962267E+02 0.  0.
         12    1    1    2    0    0  0.32025162745E+02  0.16519391869E+02  0.18832560385E+02  0.40659152564E+02  0.00000000000E+00 0. -1.
         11    1    3    3    0    0 -0.22171868686E+01 -0.10190155442E+02 -0.33235830477E+01  0.10945382135E+02  0.51100000000E-03 0. -1.
        -11    1    3    3    0    0 -0.22882589888E+02  0.47290329051E+01 -0.10256776685E+02  0.25518192343E+02  0.51100000000E-03 0.  1.
        -12    1    3    3    0    0 -0.69253859879E+01 -0.11058269333E+02 -0.52522006524E+01  0.14065272959E+02  0.00000000000E+00 0.  1.
</event>
<event>
 7    1  0.6073302E-013  0.5052884E+02  0.7816164E-02  0.1300439E+00
        -11   -1    0    0    0    0  0.00000000000E+00  0.00000000000E+00  0.45593999997E+02  0.45594000000E+02  0.51100000000E-03 0.  1.
         11   -1    0    0    0    0 -0.00000000000E+00 -0.00000000000E+00 -0.45593999997E+02  0.45594000000E+02  0.51100000000E-03 0. -1.
    9900012    2    1    2    0    0  0.18619221826E+02  0.17607482527E+02  0.31566893948E+02  0.50528835525E+02  0.29999926061E+02 0.  0.
         12    1    1    2    0    0 -0.18619221826E+02 -0.17607482527E+02 -0.31566893948E+02  0.40659164475E+02  0.00000000000E+00 0. -1.
         11    1    3    3    0    0  0.55823822406E+01  0.51493680791E+01  0.10505916987E-01  0.75946753538E+01  0.51100000000E-03 0. -1.
        -11    1    3    3    0    0  0.99738745067E+01 -0.40455680579E+01  0.19480597222E+02  0.22256200529E+02  0.51100000000E-03 0.  1.
        -12    1    3    3    0    0  0.30629650783E+01  0.16503682506E+02  0.12075790809E+02  0.20677959642E+02  0.00000000000E+00 0.  1.
</event>
<event>
 7    1  0.6073302E-013  0.5052886E+02  0.7816164E-02  0.1300439E+00
        -11   -1    0    0    0    0  0.00000000000E+00  0.00000000000E+00  0.45593999997E+02  0.45594000000E+02  0.51100000000E-03 0.  1.
         11   -1    0    0    0    0 -0.00000000000E+00 -0.00000000000E+00 -0.45593999997E+02  0.45594000000E+02  0.51100000000E-03 0. -1.
    9900012    2    1    2    0    0  0.10734982557E+02  0.36791332359E+02  0.13576582831E+02  0.50528860946E+02  0.30000003330E+02 0.  0.
         12    1    1    2    0    0 -0.10734982557E+02 -0.36791332359E+02 -0.13576582831E+02  0.40659139054E+02  0.00000000000E+00 0. -1.
         11    1    3    3    0    0  0.33075444218E+00  0.70957967589E+01  0.16840440019E+02  0.18277312452E+02  0.51100000000E-03 0. -1.
        -11    1    3    3    0    0  0.53665576148E+01  0.23031172515E+02 -0.13846629943E+01  0.23688650023E+02  0.51100000000E-03 0.  1.
         12    1    3    3    0    0  0.50376705004E+01  0.66643630857E+01 -0.18791941938E+01  0.85628984711E+01  0.00000000000E+00 0. -1.
</event>
<event>
 7    1  0.6073302E-013  0.5052886E+02  0.7816164E-02  0.1300439E+00
        -11   -1    0    0    0    0  0.00000000000E+00  0.00000000000E+00  0.45593999997E+02  0.45594000000E+02  0.51100000000E-03 0.  1.
         11   -1    0    0    0    0 -0.00000000000E+00 -0.00000000000E+00 -0.45593999997E+02  0.45594000000E+02  0.51100000000E-03 0. -1.
    9900012    2    1    2    0    0 -0.59957134395E+01 -0.64207503162E+01  0.39698752024E+02  0.50528861710E+02  0.30000005652E+02 0.  0.
         12    1    1    2    0    0  0.59957134395E+01  0.64207503162E+01 -0.39698752024E+02  0.40659138290E+02  0.00000000000E+00 0. -1.
         11    1    3    3    0    0 -0.11182056410E+02 -0.50266260544E+01  0.13945209374E+02  0.18568096827E+02  0.51100000000E-03 0. -1.
        -11    1    3    3    0    0  0.46833262760E+00  0.39175704317E+01  0.24414430418E+02  0.24731176811E+02  0.51100000000E-03 0.  1.
        -12    1    3    3    0    0  0.47180103428E+01 -0.53116946935E+01  0.13391122316E+01  0.72295880713E+01  0.00000000000E+00 0.  1.
</event>
<event>
 7    1  0.6073302E-013  0.5052886E+02  0.7816164E-02  0.1300439E+00
        -11   -1    0    0    0    0  0.00000000000E+00  0.00000000000E+00  0.45593999997E+02  0.45594000000E+02  0.51100000000E-03 0.  1.
         11   -1    0    0    0    0 -0.00000000000E+00 -0.00000000000E+00 -0.45593999997E+02  0.45594000000E+02  0.51100000000E-03 0. -1.
    9900012    2    1    2    0    0  0.31208106859E+02 -0.35978585904E+01 -0.25812299275E+02  0.50528864323E+02  0.30000013595E+02 0.  0.
         12    1    1    2    0    0 -0.31208106859E+02  0.35978585904E+01  0.25812299275E+02  0.40659135677E+02  0.00000000000E+00 0. -1.
         11    1    3    3    0    0  0.75743527802E+01 -0.70289778651E+01 -0.11263694861E+02  0.15285554359E+02  0.51100000000E-03 0. -1.
        -11    1    3    3    0    0  0.13257239529E+02  0.12483257437E+02 -0.67640545003E+01  0.19425203981E+02  0.51100000000E-03 0.  1.
        -12    1    3    3    0    0  0.10376514550E+02 -0.90521381627E+01 -0.77845499136E+01  0.15818105983E+02  0.00000000000E+00 0.  1.
</event>
<event>
 7    1  0.6073302E-013  0.5052896E+02  0.7816164E-02  0.1300438E+00
        -11   -1    0    0    0    0  0.00000000000E+00  0.00000000000E+00  0.45593999997E+02  0.45594000000E+02  0.51100000000E-03 0. -1.
         11   -1    0    0    0    0 -0.00000000000E+00 -0.00000000000E+00 -0.45593999997E+02  0.45594000000E+02  0.51100000000E-03 0.  1.
    9900012    2    1    2    0    0  0.11796409614E+02  0.31712042450E+02 -0.22546582148E+02  0.50528963087E+02  0.30000313796E+02 0.  0.
         12    1    1    2    0    0 -0.11796409614E+02 -0.31712042450E+02  0.22546582148E+02  0.40659036913E+02  0.00000000000E+00 0. -1.
         11    1    3    3    0    0  0.62076528717E+01  0.25350746211E+01  0.50593980373E+01  0.83999444207E+01  0.51100000000E-03 0.  1.
        -11    1    3    3    0    0 -0.17240139645E+01  0.68030548434E+01 -0.11952720953E+02  0.13860783448E+02  0.51100000000E-03 0. -1.
        -12    1    3    3    0    0  0.73127707068E+01  0.22373912986E+02 -0.15653259232E+02  0.28268235217E+02  0.00000000000E+00 0.  1.
</event>
<event>
 7    1  0.6073302E-013  0.5052889E+02  0.7816164E-02  0.1300439E+00
        -11   -1    0    0    0    0  0.00000000000E+00  0.00000000000E+00  0.45593999997E+02  0.45594000000E+02  0.51100000000E-03 0. -1.
         11   -1    0    0    0    0 -0.00000000000E+00 -0.00000000000E+00 -0.45593999997E+02  0.45594000000E+02  0.51100000000E-03 0.  1.
    9900012    2    1    2    0    0  0.23968634527E+02  0.31136862259E+02  0.10448154150E+02  0.50528885923E+02  0.30000079251E+02 0.  0.
         12    1    1    2    0    0 -0.23968634527E+02 -0.31136862259E+02 -0.10448154150E+02  0.40659114077E+02  0.00000000000E+00 0. -1.
         11    1    3    3    0    0 -0.42736933809E+01  0.50512305108E+01  0.85917524255E+01  0.10844242472E+02  0.51100000000E-03 0. -1.
        -11    1    3    3    0    0  0.65978541698E+01  0.53291687437E+01  0.44614869638E+01  0.95831406821E+01  0.51100000000E-03 0.  1.
         12    1    3    3    0    0  0.21644473738E+02  0.20756463004E+02 -0.26050852390E+01  0.30101502769E+02  0.00000000000E+00 0. -1.
</event>
<event>
 7    1  0.6073302E-013  0.5052885E+02  0.7816164E-02  0.1300439E+00
        -11   -1    0    0    0    0  0.00000000000E+00  0.00000000000E+00  0.45593999997E+02  0.45594000000E+02  0.51100000000E-03 0.  1.
         11   -1    0    0    0    0 -0.00000000000E+00 -0.00000000000E+00 -0.45593999997E+02  0.45594000000E+02  0.51100000000E-03 0. -1.
    9900012    2    1    2    0    0  0.37657691635E+02  0.14172122771E+02 -0.58494312936E+01  0.50528847899E+02  0.29999963673E+02 0.  0.
         12    1    1    2    0    0 -0.37657691635E+02 -0.14172122771E+02  0.58494312936E+01  0.40659152101E+02  0.00000000000E+00 0. -1.
         11    1    3    3    0    0  0.10531186389E+02  0.95441371143E+01 -0.66738292080E+01  0.15701478802E+02  0.51100000000E-03 0. -1.
        -11    1    3    3    0    0  0.27604267992E+02 -0.21785883412E+01  0.24957018771E+01  0.27802344985E+02  0.51100000000E-03 0.  1.
        -12    1    3    3    0    0 -0.47776274592E+00  0.68065739977E+01 -0.16713039627E+01  0.70250241112E+01  0.00000000000E+00 0.  1.
</event>
<event>
 7    1  0.6073302E-013  0.5052884E+02  0.7816164E-02  0.1300439E+00
        -11   -1    0    0    0    0  0.00000000000E+00  0.00000000000E+00  0.45593999997E+02  0.45594000000E+02  0.51100000000E-03 0.  1.
         11   -1    0    0    0    0 -0.00000000000E+00 -0.00000000000E+00 -0.45593999997E+02  0.45594000000E+02  0.51100000000E-03 0. -1.
    9900012    2    1    2    0    0  0.14625163943E+02 -0.37378023760E+02 -0.64926794420E+01  0.50528843996E+02  0.29999951811E+02 0.  0.
         12    1    1    2    0    0 -0.14625163943E+02  0.37378023760E+02  0.64926794420E+01  0.40659156004E+02  0.00000000000E+00 0. -1.
         11    1    3    3    0    0  0.72606920622E+01  0.14121629011E+01 -0.73108362079E+01  0.10400008635E+02  0.51100000000E-03 0. -1.
        -11    1    3    3    0    0  0.87539422274E+01 -0.33142407924E+02  0.19705523545E+00  0.34279579031E+02  0.51100000000E-03 0.  1.
         12    1    3    3    0    0 -0.13894703463E+01 -0.56477787377E+01  0.62110153046E+00  0.58492563309E+01  0.00000000000E+00 0. -1.
</event>
<event>
 7    1  0.6073302E-013  0.5052886E+02  0.7816164E-02  0.1300439E+00
        -11   -1    0    0    0    0  0.00000000000E+00  0.00000000000E+00  0.45593999997E+02  0.45594000000E+02  0.51100000000E-03 0.  1.
         11   -1    0    0    0    0 -0.00000000000E+00 -0.00000000000E+00 -0.45593999997E+02  0.45594000000E+02  0.51100000000E-03 0. -1.
    9900012    2    1    2    0    0  0.86813053736E+01 -0.11256138116E+02  0.38093308562E+02  0.50528857542E+02  0.29999992984E+02 0.  0.
         12    1    1    2    0    0 -0.86813053736E+01  0.11256138116E+02 -0.38093308562E+02  0.40659142458E+02  0.00000000000E+00 0. -1.
         11    1    3    3    0    0  0.13040904460E+02 -0.36972265219E+00  0.65247018574E+01  0.14586761757E+02  0.51100000000E-03 0. -1.
        -11    1    3    3    0    0 -0.64768411042E+01 -0.32566107478E+01  0.68035112264E+01  0.99419690967E+01  0.51100000000E-03 0.  1.
        -12    1    3    3    0    0  0.21172420183E+01 -0.76298047162E+01  0.24765095478E+02  0.26000126688E+02  0.00000000000E+00 0.  1.
</event>
<event>
 7    1  0.6073302E-013  0.5052885E+02  0.7816164E-02  0.1300439E+00
        -11   -1    0    0    0    0  0.00000000000E+00  0.00000000000E+00  0.45593999997E+02  0.45594000000E+02  0.51100000000E-03 0. -1.
         11   -1    0    0    0    0 -0.00000000000E+00 -0.00000000000E+00 -0.45593999997E+02  0.45594000000E+02  0.51100000000E-03 0.  1.
    9900012    2    1    2    0    0 -0.16538608649E+02 -0.32072923996E+02 -0.18734158639E+02  0.50528846915E+02  0.29999960683E+02 0.  0.
         12    1    1    2    0    0  0.16538608649E+02  0.32072923996E+02  0.18734158639E+02  0.40659153085E+02  0.00000000000E+00 0. -1.
         11    1    3    3    0    0  0.81944378004E+01 -0.87975072071E+01 -0.31820931325E+01  0.12436665988E+02  0.51100000000E-03 0. -1.
        -11    1    3    3    0    0  0.29076998208E-01 -0.21465217357E+01 -0.15968412553E+01  0.26755005680E+01  0.51100000000E-03 0.  1.
         12    1    3    3    0    0 -0.24762123447E+02 -0.21128895053E+02 -0.13955224251E+02  0.35416680359E+02  0.00000000000E+00 0. -1.
</event>
<event>
 7    1  0.6073302E-013  0.5052888E+02  0.7816164E-02  0.1300439E+00
        -11   -1    0    0    0    0  0.00000000000E+00  0.00000000000E+00  0.45593999997E+02  0.45594000000E+02  0.51100000000E-03 0. -1.
         11   -1    0    0    0    0 -0.00000000000E+00 -0.00000000000E+00 -0.45593999997E+02  0.45594000000E+02  0.51100000000E-03 0.  1.
    9900012    2    1    2    0    0 -0.36468400127E+02  0.17438634275E+02 -0.43719379726E+01  0.50528880299E+02  0.30000062158E+02 0.  0.
         12    1    1    2    0    0  0.36468400127E+02 -0.17438634275E+02  0.43719379726E+01  0.40659119701E+02  0.00000000000E+00 0. -1.
         11    1    3    3    0    0 -0.13198970168E+02 -0.22587340658E+01 -0.76180808332E+01  0.15406162693E+02  0.51100000000E-03 0. -1.
        -11    1    3    3    0    0 -0.21635149820E+02  0.83032365546E+01  0.42798191176E+01  0.23565659273E+02  0.51100000000E-03 0.  1.
         12    1    3    3    0    0 -0.16342801387E+01  0.11394131786E+02 -0.10336762570E+01  0.11557058334E+02  0.00000000000E+00 0. -1.
</event>
<event>
 7    1  0.6073302E-013  0.5052885E+02  0.7816164E-02  0.1300439E+00
        -11   -1    0    0    0    0  0.00000000000E+00  0.00000000000E+00  0.45593999997E+02  0.45594000000E+02  0.51100000000E-03 0.  1.
         11   -1    0    0    0    0 -0.00000000000E+00 -0.00000000000E+00 -0.45593999997E+02  0.45594000000E+02  0.51100000000E-03 0. -1.
    9900012    2    1    2    0    0  0.34860989131E+02 -0.23536404290E+01  0.20792748532E+02  0.50528848779E+02  0.29999966349E+02 0.  0.
         12    1    1    2    0    0 -0.34860989131E+02  0.23536404290E+01 -0.20792748532E+02  0.40659151221E+02  0.00000000000E+00 0. -1.
         11    1    3    3    0    0  0.55925773984E+01 -0.25747750516E+01 -0.74779161526E+01  0.96863625149E+01  0.51100000000E-03 0. -1.
        -11    1    3    3    0    0  0.22652628675E+02  0.12456053457E+01  0.23157490483E+02  0.32418551545E+02  0.51100000000E-03 0.  1.
         12    1    3    3    0    0  0.66157830579E+01 -0.10244707231E+01  0.51131742017E+01  0.84239347189E+01  0.00000000000E+00 0. -1.
</event>
<event>
 7    1  0.6073302E-013  0.5052887E+02  0.7816164E-02  0.1300439E+00
        -11   -1    0    0    0    0  0.00000000000E+00  0.00000000000E+00  0.45593999997E+02  0.45594000000E+02  0.51100000000E-03 0. -1.
         11   -1    0    0    0    0 -0.00000000000E+00 -0.00000000000E+00 -0.45593999997E+02  0.45594000000E+02  0.51100000000E-03 0.  1.
    9900012    2    1    2    0    0 -0.34819887484E+02  0.20940559335E+02 -0.14944210212E+01  0.50528869612E+02  0.30000029674E+02 0.  0.
         12    1    1    2    0    0  0.34819887484E+02 -0.20940559335E+02  0.14944210212E+01  0.40659130388E+02  0.00000000000E+00 0. -1.
         11    1    3    3    0    0 -0.12395914498E+02  0.89520843565E+01  0.13242952347E+02  0.20228057190E+02  0.51100000000E-03 0. -1.
        -11    1    3    3    0    0 -0.15070952575E+02  0.11390103358E+02 -0.88447632543E+01  0.20859000535E+02  0.51100000000E-03 0.  1.
         12    1    3    3    0    0 -0.73530204118E+01  0.59837162083E+00 -0.58926101138E+01  0.94418118879E+01  0.00000000000E+00 0. -1.
</event>
<event>
 7    1  0.6073302E-013  0.5052886E+02  0.7816164E-02  0.1300439E+00
        -11   -1    0    0    0    0  0.00000000000E+00  0.00000000000E+00  0.45593999997E+02  0.45594000000E+02  0.51100000000E-03 0.  1.
         11   -1    0    0    0    0 -0.00000000000E+00 -0.00000000000E+00 -0.45593999997E+02  0.45594000000E+02  0.51100000000E-03 0. -1.
    9900012    2    1    2    0    0  0.33817359780E+02 -0.17809077338E+02  0.13870425162E+02  0.50528858933E+02  0.29999997213E+02 0.  0.
         12    1    1    2    0    0 -0.33817359780E+02  0.17809077338E+02 -0.13870425162E+02  0.40659141067E+02  0.00000000000E+00 0. -1.
         11    1    3    3    0    0  0.13386969497E+02  0.38407859202E+01 -0.46537787127E+01  0.14684013258E+02  0.51100000000E-03 0. -1.
        -11    1    3    3    0    0  0.10531510856E+02 -0.85798176798E+01  0.12243726286E+02  0.18287559322E+02  0.51100000000E-03 0.  1.
         12    1    3    3    0    0  0.98988794272E+01 -0.13070045578E+02  0.62804775883E+01  0.17557286353E+02  0.00000000000E+00 0. -1.
</event>
<event>
 7    1  0.6073302E-013  0.5052886E+02  0.7816164E-02  0.1300439E+00
        -11   -1    0    0    0    0  0.00000000000E+00  0.00000000000E+00  0.45593999997E+02  0.45594000000E+02  0.51100000000E-03 0.  1.
         11   -1    0    0    0    0 -0.00000000000E+00 -0.00000000000E+00 -0.45593999997E+02  0.45594000000E+02  0.51100000000E-03 0. -1.
    9900012    2    1    2    0    0  0.10338453298E+02  0.22686390201E+02  0.32118676672E+02  0.50528864395E+02  0.30000013816E+02 0.  0.
         12    1    1    2    0    0 -0.10338453298E+02 -0.22686390201E+02 -0.32118676672E+02  0.40659135605E+02  0.00000000000E+00 0. -1.
         11    1    3    3    0    0  0.12714167791E+02  0.12874503176E+02  0.10522860611E+02  0.20931638501E+02  0.51100000000E-03 0. -1.
        -11    1    3    3    0    0 -0.62703997958E+01 -0.22538853275E+01  0.35707030100E+01  0.75596185694E+01  0.51100000000E-03 0.  1.
         12    1    3    3    0    0  0.38946853024E+01  0.12065772353E+02  0.18025113051E+02  0.22037607325E+02  0.00000000000E+00 0. -1.
</event>
<event>
 7    1  0.6073302E-013  0.5052886E+02  0.7816164E-02  0.1300439E+00
        -11   -1    0    0    0    0  0.00000000000E+00  0.00000000000E+00  0.45593999997E+02  0.45594000000E+02  0.51100000000E-03 0.  1.
         11   -1    0    0    0    0 -0.00000000000E+00 -0.00000000000E+00 -0.45593999997E+02  0.45594000000E+02  0.51100000000E-03 0. -1.
    9900012    2    1    2    0    0 -0.22597935595E+02  0.32064962575E+02 -0.10692846028E+02  0.50528862352E+02  0.30000007606E+02 0.  0.
         12    1    1    2    0    0  0.22597935595E+02 -0.32064962575E+02  0.10692846028E+02  0.40659137648E+02  0.00000000000E+00 0. -1.
         11    1    3    3    0    0 -0.10646026279E+01 -0.12434174463E+01  0.41224409886E+01  0.44355366831E+01  0.51100000000E-03 0. -1.
        -11    1    3    3    0    0 -0.11848596978E+02  0.28330066870E+02 -0.43939691999E+01  0.31020781821E+02  0.51100000000E-03 0.  1.
        -12    1    3    3    0    0 -0.96847359889E+01  0.49783131511E+01 -0.10421317817E+02  0.15072543848E+02  0.00000000000E+00 0.  1.
</event>
<event>
 7    1  0.6073302E-013  0.5052886E+02  0.7816164E-02  0.1300439E+00
        -11   -1    0    0    0    0  0.00000000000E+00  0.00000000000E+00  0.45593999997E+02  0.45594000000E+02  0.51100000000E-03 0.  1.
         11   -1    0    0    0    0 -0.00000000000E+00 -0.00000000000E+00 -0.45593999997E+02  0.45594000000E+02  0.51100000000E-03 0. -1.
    9900012    2    1    2    0    0  0.11759105466E+01 -0.10564586834E+02  0.39245026155E+02  0.50528864022E+02  0.30000012682E+02 0.  0.
         12    1    1    2    0    0 -0.11759105466E+01  0.10564586834E+02 -0.39245026155E+02  0.40659135978E+02  0.00000000000E+00 0. -1.
         11    1    3    3    0    0 -0.39050425774E+00  0.59710719060E+01  0.33455171673E+01  0.68555582311E+01  0.51100000000E-03 0. -1.
        -11    1    3    3    0    0 -0.48358254116E+01 -0.61732543634E+01  0.28184132878E+02  0.29254736765E+02  0.51100000000E-03 0.  1.
        -12    1    3    3    0    0  0.64022402160E+01 -0.10362404377E+02  0.77153761097E+01  0.14418569026E+02  0.00000000000E+00 0.  1.
</event>
<event>
 7    1  0.6073302E-013  0.5052886E+02  0.7816164E-02  0.1300439E+00
        -11   -1    0    0    0    0  0.00000000000E+00  0.00000000000E+00  0.45593999997E+02  0.45594000000E+02  0.51100000000E-03 0.  1.
         11   -1    0    0    0    0 -0.00000000000E+00 -0.00000000000E+00 -0.45593999997E+02  0.45594000000E+02  0.51100000000E-03 0. -1.
    9900012    2    1    2    0    0  0.18084664973E+02 -0.68985710318E-01  0.36415740242E+02  0.50528855843E+02  0.29999987820E+02 0.  0.
         12    1    1    2    0    0 -0.18084664973E+02  0.68985710318E-01 -0.36415740242E+02  0.40659144157E+02  0.00000000000E+00 0. -1.
         11    1    3    3    0    0  0.64047041385E+01 -0.86966514266E+01  0.16995097036E+02  0.20136665679E+02  0.51100000000E-03 0. -1.
        -11    1    3    3    0    0  0.10464522782E+02  0.32050385319E+01  0.81531753172E+00  0.10974664094E+02  0.51100000000E-03 0.  1.
        -12    1    3    3    0    0  0.12154380530E+01  0.54226271843E+01  0.18605325674E+02  0.19417526070E+02  0.00000000000E+00 0.  1.
</event>
<event>
 7    1  0.6073302E-013  0.5052886E+02  0.7816164E-02  0.1300439E+00
        -11   -1    0    0    0    0  0.00000000000E+00  0.00000000000E+00  0.45593999997E+02  0.45594000000E+02  0.51100000000E-03 0. -1.
         11   -1    0    0    0    0 -0.00000000000E+00 -0.00000000000E+00 -0.45593999997E+02  0.45594000000E+02  0.51100000000E-03 0.  1.
    9900012    2    1    2    0    0 -0.26014660210E+01 -0.75715137880E+00 -0.40568769598E+02  0.50528856251E+02  0.29999989062E+02 0.  0.
         12    1    1    2    0    0  0.26014660210E+01  0.75715137880E+00  0.40568769598E+02  0.40659143749E+02  0.00000000000E+00 0. -1.
         11    1    3    3    0    0 -0.33986274054E+01 -0.50308246344E+01 -0.27716207604E+01  0.66739603418E+01  0.51100000000E-03 0. -1.
        -11    1    3    3    0    0  0.56570754802E+00  0.93236415058E+01 -0.48551055804E+01  0.10527220261E+02  0.51100000000E-03 0.  1.
        -12    1    3    3    0    0  0.23145383638E+00 -0.50499682502E+01 -0.32942043257E+02  0.33327675649E+02  0.00000000000E+00 0.  1.
</event>
<event>
 7    1  0.6073302E-013  0.5052886E+02  0.7816164E-02  0.1300439E+00
        -11   -1    0    0    0    0  0.00000000000E+00  0.00000000000E+00  0.45593999997E+02  0.45594000000E+02  0.51100000000E-03 0. -1.
         11   -1    0    0    0    0 -0.00000000000E+00 -0.00000000000E+00 -0.45593999997E+02  0.45594000000E+02  0.51100000000E-03 0.  1.
    9900012    2    1    2    0    0  0.10475380551E+02  0.39262853664E+02 -0.13640155733E+01  0.50528858174E+02  0.29999994906E+02 0.  0.
         12    1    1    2    0    0 -0.10475380551E+02 -0.39262853664E+02  0.13640155733E+01  0.40659141826E+02  0.00000000000E+00 0. -1.
         11    1    3    3    0    0  0.59941553905E+01  0.41313136477E+01  0.91878987078E+01  0.11722420152E+02  0.51100000000E-03 0. -1.
        -11    1    3    3    0    0 -0.13633432720E+01  0.21355998735E+02 -0.18098210817E+01  0.21475866442E+02  0.51100000000E-03 0.  1.
         12    1    3    3    0    0  0.58445684320E+01  0.13775541282E+02 -0.87420931994E+01  0.17330571579E+02  0.00000000000E+00 0. -1.
</event>
<event>
 7    1  0.6073302E-013  0.5052886E+02  0.7816164E-02  0.1300439E+00
        -11   -1    0    0    0    0  0.00000000000E+00  0.00000000000E+00  0.45593999997E+02  0.45594000000E+02  0.51100000000E-03 0.  1.
         11   -1    0    0    0    0 -0.00000000000E+00 -0.00000000000E+00 -0.45593999997E+02  0.45594000000E+02  0.51100000000E-03 0. -1.
    9900012    2    1    2    0    0 -0.22945412427E+02 -0.50915827886E+01  0.33177540417E+02  0.50528863821E+02  0.30000012069E+02 0.  0.
         12    1    1    2    0    0  0.22945412427E+02  0.50915827886E+01 -0.33177540417E+02  0.40659136179E+02  0.00000000000E+00 0. -1.
         11    1    3    3    0    0 -0.16701362828E+02  0.88108059827E+01  0.12164263097E+02  0.22461859214E+02  0.51100000000E-03 0. -1.
        -11    1    3    3    0    0 -0.66541992044E+00 -0.72315344423E+01  0.17006763558E+02  0.18492373591E+02  0.51100000000E-03 0.  1.
         12    1    3    3    0    0 -0.55786296783E+01 -0.66708543290E+01  0.40065137625E+01  0.95746310162E+01  0.00000000000E+00 0. -1.
</event>
<event>
 7    1  0.6073302E-013  0.5052886E+02  0.7816164E-02  0.1300439E+00
        -11   -1    0    0    0    0  0.00000000000E+00  0.00000000000E+00  0.45593999997E+02  0.45594000000E+02  0.51100000000E-03 0.  1.
         11   -1    0    0    0    0 -0.00000000000E+00 -0.00000000000E+00 -0.45593999997E+02  0.45594000000E+02  0.51100000000E-03 0. -1.
    9900012    2    1    2    0    0 -0.35948658489E+01  0.36644044995E+02  0.17246940855E+02  0.50528855113E+02  0.29999985601E+02 0.  0.
         12    1    1    2    0    0  0.35948658489E+01 -0.36644044995E+02 -0.17246940855E+02  0.40659144887E+02  0.00000000000E+00 0. -1.
         11    1    3    3    0    0 -0.66488471447E+01  0.96025763148E+01  0.17831667236E+02  0.21316308239E+02  0.51100000000E-03 0. -1.
        -11    1    3    3    0    0  0.14136782358E+01  0.22001375485E+02  0.37525408659E+01  0.22363822853E+02  0.51100000000E-03 0.  1.
         12    1    3    3    0    0  0.16403030600E+01  0.50400931956E+01 -0.43372672472E+01  0.68487240214E+01  0.00000000000E+00 0. -1.
</event>
<event>
 7    1  0.6073302E-013  0.5052891E+02  0.7816164E-02  0.1300439E+00
        -11   -1    0    0    0    0  0.00000000000E+00  0.00000000000E+00  0.45593999997E+02  0.45594000000E+02  0.51100000000E-03 0. -1.
         11   -1    0    0    0    0 -0.00000000000E+00 -0.00000000000E+00 -0.45593999997E+02  0.45594000000E+02  0.51100000000E-03 0.  1.
    9900012    2    1    2    0    0 -0.35841040605E+02  0.15506812779E+02 -0.11319029064E+02  0.50528906882E+02  0.30000142959E+02 0.  0.
         12    1    1    2    0    0  0.35841040605E+02 -0.15506812779E+02  0.11319029064E+02  0.40659093118E+02  0.00000000000E+00 0. -1.
         11    1    3    3    0    0 -0.22444888760E+02 -0.41934719687E+01 -0.21298390810E+01  0.22932388741E+02  0.51100000000E-03 0. -1.
        -11    1    3    3    0    0 -0.40286599157E+01  0.12752195155E+02 -0.11324369053E+01  0.13421288895E+02  0.51100000000E-03 0.  1.
         12    1    3    3    0    0 -0.93674919294E+01  0.69480895919E+01 -0.80567530780E+01  0.14175229246E+02  0.00000000000E+00 0. -1.
</event>
<event>
 7    1  0.6073302E-013  0.5052886E+02  0.7816164E-02  0.1300439E+00
        -11   -1    0    0    0    0  0.00000000000E+00  0.00000000000E+00  0.45593999997E+02  0.45594000000E+02  0.51100000000E-03 0.  1.
         11   -1    0    0    0    0 -0.00000000000E+00 -0.00000000000E+00 -0.45593999997E+02  0.45594000000E+02  0.51100000000E-03 0. -1.
    9900012    2    1    2    0    0 -0.22612977176E+02 -0.27346247455E+02  0.19849484042E+02  0.50528855846E+02  0.29999987828E+02 0.  0.
         12    1    1    2    0    0  0.22612977176E+02  0.27346247455E+02 -0.19849484042E+02  0.40659144154E+02  0.00000000000E+00 0. -1.
         11    1    3    3    0    0 -0.59278981767E+01 -0.24499894364E+02  0.56616192342E+01  0.25834835654E+02  0.51100000000E-03 0. -1.
        -11    1    3    3    0    0 -0.79042122246E+01  0.40760233357E+01  0.48718403795E+01  0.10140284319E+02  0.51100000000E-03 0.  1.
        -12    1    3    3    0    0 -0.87808667742E+01 -0.69223764268E+01  0.93160244288E+01  0.14553735873E+02  0.00000000000E+00 0.  1.
</event>
<event>
 7    1  0.6073302E-013  0.5052893E+02  0.7816164E-02  0.1300439E+00
        -11   -1    0    0    0    0  0.00000000000E+00  0.00000000000E+00  0.45593999997E+02  0.45594000000E+02  0.51100000000E-03 0.  1.
         11   -1    0    0    0    0 -0.00000000000E+00 -0.00000000000E+00 -0.45593999997E+02  0.45594000000E+02  0.51100000000E-03 0. -1.
    9900012    2    1    2    0    0  0.28399560352E+02 -0.48062223231E+01  0.28697124404E+02  0.50528932742E+02  0.30000221562E+02 0.  0.
         12    1    1    2    0    0 -0.28399560352E+02  0.48062223231E+01 -0.28697124404E+02  0.40659067258E+02  0.00000000000E+00 0. -1.
         11    1    3    3    0    0  0.22138736015E+02 -0.13984404241E+02  0.22335550311E+02  0.34417495584E+02  0.51100000000E-03 0. -1.
        -11    1    3    3    0    0  0.11986841962E+01  0.71568010711E+01  0.76145681752E+01  0.10518473945E+02  0.51100000000E-03 0.  1.
         12    1    3    3    0    0  0.50621401407E+01  0.20213808464E+01 -0.12529940826E+01  0.55929632129E+01  0.00000000000E+00 0. -1.
</event>
<event>
 7    1  0.6073302E-013  0.5052883E+02  0.7816164E-02  0.1300439E+00
        -11   -1    0    0    0    0  0.00000000000E+00  0.00000000000E+00  0.45593999997E+02  0.45594000000E+02  0.51100000000E-03 0.  1.
         11   -1    0    0    0    0 -0.00000000000E+00 -0.00000000000E+00 -0.45593999997E+02  0.45594000000E+02  0.51100000000E-03 0. -1.
    9900012    2    1    2    0    0  0.31186025866E+02 -0.26045789044E+02 -0.14888175249E+01  0.50528832352E+02  0.29999916416E+02 0.  0.
         12    1    1    2    0    0 -0.31186025866E+02  0.26045789044E+02  0.14888175249E+01  0.40659167648E+02  0.00000000000E+00 0. -1.
         11    1    3    3    0    0  0.14743879259E+02 -0.22527352445E+02 -0.10161262418E+02  0.28776984519E+02  0.51100000000E-03 0. -1.
        -11    1    3    3    0    0  0.23524533425E+01 -0.36520015511E+01  0.60045186493E+01  0.74111670153E+01  0.51100000000E-03 0.  1.
         12    1    3    3    0    0  0.14089693264E+02  0.13356495257E+00  0.26679262439E+01  0.14340680818E+02  0.00000000000E+00 0. -1.
</event>
<event>
 7    1  0.6073302E-013  0.5052886E+02  0.7816164E-02  0.1300439E+00
        -11   -1    0    0    0    0  0.00000000000E+00  0.00000000000E+00  0.45593999997E+02  0.45594000000E+02  0.51100000000E-03 0.  1.
         11   -1    0    0    0    0 -0.00000000000E+00 -0.00000000000E+00 -0.45593999997E+02  0.45594000000E+02  0.51100000000E-03 0. -1.
    9900012    2    1    2    0    0 -0.16851982585E+02  0.36992257398E+02  0.86558447383E+00  0.50528860056E+02  0.30000000627E+02 0.  0.
         12    1    1    2    0    0  0.16851982585E+02 -0.36992257398E+02 -0.86558447383E+00  0.40659139944E+02  0.00000000000E+00 0. -1.
         11    1    3    3    0    0  0.34013157684E+01  0.11121836271E+02 -0.55162084953E+01  0.12872169491E+02  0.51100000000E-03 0. -1.
        -11    1    3    3    0    0 -0.15615993639E+02  0.26860866246E+02  0.88564215219E+01  0.32307918461E+02  0.51100000000E-03 0.  1.
         12    1    3    3    0    0 -0.46373047146E+01 -0.99044511871E+00 -0.24746285528E+01  0.53487721043E+01  0.00000000000E+00 0. -1.
</event>
<event>
 7    1  0.6073302E-013  0.5052888E+02  0.7816164E-02  0.1300439E+00
        -11   -1    0    0    0    0  0.00000000000E+00  0.00000000000E+00  0.45593999997E+02  0.45594000000E+02  0.51100000000E-03 0.  1.
         11   -1    0    0    0    0 -0.00000000000E+00 -0.00000000000E+00 -0.45593999997E+02  0.45594000000E+02  0.51100000000E-03 0. -1.
    9900012    2    1    2    0    0  0.20321464794E+02  0.34684689570E+02  0.60970599675E+01  0.50528883406E+02  0.30000071602E+02 0.  0.
         12    1    1    2    0    0 -0.20321464794E+02 -0.34684689570E+02 -0.60970599675E+01  0.40659116594E+02  0.00000000000E+00 0. -1.
         11    1    3    3    0    0 -0.93634715949E-01 -0.17680057700E+00 -0.30243714993E+00  0.36262155871E+00  0.51100000000E-03 0. -1.
        -11    1    3    3    0    0  0.28293412671E+01  0.10854720140E+01 -0.86918450135E+01  0.92049764529E+01  0.51100000000E-03 0.  1.
        -12    1    3    3    0    0  0.17585758243E+02  0.33776018133E+02  0.15091342131E+02  0.40961285395E+02  0.00000000000E+00 0.  1.
</event>
<event>
 7    1  0.6073302E-013  0.5052885E+02  0.7816164E-02  0.1300439E+00
        -11   -1    0    0    0    0  0.00000000000E+00  0.00000000000E+00  0.45593999997E+02  0.45594000000E+02  0.51100000000E-03 0. -1.
         11   -1    0    0    0    0 -0.00000000000E+00 -0.00000000000E+00 -0.45593999997E+02  0.45594000000E+02  0.51100000000E-03 0.  1.
    9900012    2    1    2    0    0  0.37587719505E+02  0.13626397458E+02 -0.73926172885E+01  0.50528853973E+02  0.29999982137E+02 0.  0.
         12    1    1    2    0    0 -0.37587719505E+02 -0.13626397458E+02  0.73926172885E+01  0.40659146027E+02  0.00000000000E+00 0. -1.
         11    1    3    3    0    0 -0.72238672716E+00  0.89864317960E+01  0.16726250712E+01  0.91692679041E+01  0.51100000000E-03 0. -1.
        -11    1    3    3    0    0  0.27768774519E+02  0.78687069254E+01 -0.93270652337E+01  0.30331757831E+02  0.51100000000E-03 0.  1.
         12    1    3    3    0    0  0.10541331713E+02 -0.32287412637E+01  0.26182287398E+00  0.11027828238E+02  0.00000000000E+00 0. -1.
</event>
<event>
 7    1  0.6073302E-013  0.5052886E+02  0.7816164E-02  0.1300439E+00
        -11   -1    0    0    0    0  0.00000000000E+00  0.00000000000E+00  0.45593999997E+02  0.45594000000E+02  0.51100000000E-03 0.  1.
         11   -1    0    0    0    0 -0.00000000000E+00 -0.00000000000E+00 -0.45593999997E+02  0.45594000000E+02  0.51100000000E-03 0. -1.
    9900012    2    1    2    0    0  0.34126212425E+02 -0.16625076273E+02  0.14566186681E+02  0.50528864127E+02  0.30000013000E+02 0.  0.
         12    1    1    2    0    0 -0.34126212425E+02  0.16625076273E+02 -0.14566186681E+02  0.40659135873E+02  0.00000000000E+00 0. -1.
         11    1    3    3    0    0  0.29636218472E+02 -0.10374840436E+02  0.17208615224E+02  0.35806133519E+02  0.51100000000E-03 0.  1.
        -11    1    3    3    0    0 -0.20211879048E+01 -0.50185980946E+01 -0.53086742097E+01  0.75798119705E+01  0.51100000000E-03 0. -1.
         12    1    3    3    0    0  0.65111818578E+01 -0.12316377425E+01  0.26662456666E+01  0.71429186379E+01  0.00000000000E+00 0. -1.
</event>
<event>
 7    1  0.6073302E-013  0.5052886E+02  0.7816164E-02  0.1300439E+00
        -11   -1    0    0    0    0  0.00000000000E+00  0.00000000000E+00  0.45593999997E+02  0.45594000000E+02  0.51100000000E-03 0.  1.
         11   -1    0    0    0    0 -0.00000000000E+00 -0.00000000000E+00 -0.45593999997E+02  0.45594000000E+02  0.51100000000E-03 0. -1.
    9900012    2    1    2    0    0  0.16930030629E+02  0.12266095844E+02  0.34872378984E+02  0.50528857604E+02  0.29999993173E+02 0.  0.
         12    1    1    2    0    0 -0.16930030629E+02 -0.12266095844E+02 -0.34872378984E+02  0.40659142396E+02  0.00000000000E+00 0. -1.
         11    1    3    3    0    0  0.36430316548E+01  0.23523027195E+01 -0.39337111981E+01  0.58548349057E+01  0.51100000000E-03 0. -1.
        -11    1    3    3    0    0  0.11234280711E+02  0.13678180751E+02  0.33112840881E+02  0.37546796444E+02  0.51100000000E-03 0.  1.
         12    1    3    3    0    0  0.20527182634E+01 -0.37643876264E+01  0.56932493018E+01  0.71272262545E+01  0.00000000000E+00 0. -1.
</event>
<event>
 7    1  0.6073302E-013  0.5052886E+02  0.7816164E-02  0.1300439E+00
        -11   -1    0    0    0    0  0.00000000000E+00  0.00000000000E+00  0.45593999997E+02  0.45594000000E+02  0.51100000000E-03 0.  1.
         11   -1    0    0    0    0 -0.00000000000E+00 -0.00000000000E+00 -0.45593999997E+02  0.45594000000E+02  0.51100000000E-03 0. -1.
    9900012    2    1    2    0    0  0.35002013078E+02 -0.93477337028E+01  0.18456567881E+02  0.50528856590E+02  0.29999990091E+02 0.  0.
         12    1    1    2    0    0 -0.35002013078E+02  0.93477337028E+01 -0.18456567881E+02  0.40659143410E+02  0.00000000000E+00 0. -1.
         11    1    3    3    0    0  0.11938521780E+02  0.38894814140E+01  0.13483432561E+02  0.18424421886E+02  0.51100000000E-03 0. -1.
        -11    1    3    3    0    0  0.17726734727E+02 -0.56515874897E+00  0.87747660496E+00  0.17757434892E+02  0.51100000000E-03 0.  1.
         12    1    3    3    0    0  0.53367565711E+01 -0.12672056368E+02  0.40956587153E+01  0.14346999812E+02  0.00000000000E+00 0. -1.
</event>
<event>
 7    1  0.6073302E-013  0.5052886E+02  0.7816164E-02  0.1300439E+00
        -11   -1    0    0    0    0  0.00000000000E+00  0.00000000000E+00  0.45593999997E+02  0.45594000000E+02  0.51100000000E-03 0. -1.
         11   -1    0    0    0    0 -0.00000000000E+00 -0.00000000000E+00 -0.45593999997E+02  0.45594000000E+02  0.51100000000E-03 0.  1.
    9900012    2    1    2    0    0  0.20496108634E+02 -0.30893518634E+02 -0.16693274735E+02  0.50528863461E+02  0.30000010976E+02 0.  0.
         12    1    1    2    0    0 -0.20496108634E+02  0.30893518634E+02  0.16693274735E+02  0.40659136539E+02  0.00000000000E+00 0. -1.
         11    1    3    3    0    0  0.64249484653E+01 -0.69544282327E+01  0.21584080540E+01  0.97109608389E+01  0.51100000000E-03 0. -1.
        -11    1    3    3    0    0 -0.48858396947E+01 -0.35071361567E+01 -0.98273402007E+01  0.11521633965E+02  0.51100000000E-03 0.  1.
        -12    1    3    3    0    0  0.18956999863E+02 -0.20431954245E+02 -0.90243425884E+01  0.29296268657E+02  0.00000000000E+00 0.  1.
</event>
<event>
 7    1  0.6073302E-013  0.5052886E+02  0.7816164E-02  0.1300439E+00
        -11   -1    0    0    0    0  0.00000000000E+00  0.00000000000E+00  0.45593999997E+02  0.45594000000E+02  0.51100000000E-03 0. -1.
         11   -1    0    0    0    0 -0.00000000000E+00 -0.00000000000E+00 -0.45593999997E+02  0.45594000000E+02  0.51100000000E-03 0.  1.
    9900012    2    1    2    0    0  0.27385149136E+02  0.29174725996E+02  0.72149060393E+01  0.50528857126E+02  0.29999991720E+02 0.  0.
         12    1    1    2    0    0 -0.27385149136E+02 -0.29174725996E+02 -0.72149060393E+01  0.40659142874E+02  0.00000000000E+00 0. -1.
         11    1    3    3    0    0  0.31543435212E+01  0.17014846259E+02  0.13046034098E+02  0.21671499307E+02  0.51100000000E-03 0. -1.
        -11    1    3    3    0    0  0.21060286243E+02  0.13125352565E+02 -0.42183118768E+01  0.25171505555E+02  0.51100000000E-03 0.  1.
         12    1    3    3    0    0  0.31705193718E+01 -0.96547282850E+00 -0.16128161817E+01  0.36858522631E+01  0.00000000000E+00 0. -1.
</event>
<event>
 7    1  0.6073302E-013  0.5052890E+02  0.7816164E-02  0.1300439E+00
        -11   -1    0    0    0    0  0.00000000000E+00  0.00000000000E+00  0.45593999997E+02  0.45594000000E+02  0.51100000000E-03 0. -1.
         11   -1    0    0    0    0 -0.00000000000E+00 -0.00000000000E+00 -0.45593999997E+02  0.45594000000E+02  0.51100000000E-03 0.  1.
    9900012    2    1    2    0    0 -0.17300144047E+01  0.61941212459E+01 -0.40147262088E+02  0.50528895964E+02  0.30000109771E+02 0.  0.
         12    1    1    2    0    0  0.17300144047E+01 -0.61941212459E+01  0.40147262088E+02  0.40659104036E+02  0.00000000000E+00 0. -1.
         11    1    3    3    0    0  0.11327284867E+02  0.11215929328E+02 -0.20645509033E+02  0.26083356698E+02  0.51100000000E-03 0.  1.
        -11    1    3    3    0    0 -0.44141770037E+01 -0.26764595740E+01 -0.39522972390E+01  0.65014650808E+01  0.51100000000E-03 0. -1.
         12    1    3    3    0    0 -0.86431222679E+01 -0.23453485077E+01 -0.15549455817E+02  0.17944074185E+02  0.00000000000E+00 0. -1.
</event>
<event>
 7    1  0.6073302E-013  0.5052886E+02  0.7816164E-02  0.1300439E+00
        -11   -1    0    0    0    0  0.00000000000E+00  0.00000000000E+00  0.45593999997E+02  0.45594000000E+02  0.51100000000E-03 0.  1.
         11   -1    0    0    0    0 -0.00000000000E+00 -0.00000000000E+00 -0.45593999997E+02  0.45594000000E+02  0.51100000000E-03 0. -1.
    9900012    2    1    2    0    0 -0.29545096596E+02  0.20382262069E+02  0.19100159537E+02  0.50528862844E+02  0.30000009101E+02 0.  0.
         12    1    1    2    0    0  0.29545096596E+02 -0.20382262069E+02 -0.19100159537E+02  0.40659137156E+02  0.00000000000E+00 0. -1.
         11    1    3    3    0    0 -0.78479572757E+01  0.12978146084E+02 -0.59829973206E+01  0.16303955544E+02  0.51100000000E-03 0. -1.
        -11    1    3    3    0    0 -0.69968743261E+01  0.26283848435E+01  0.55153729344E+01  0.92889179180E+01  0.51100000000E-03 0.  1.
         12    1    3    3    0    0 -0.14700264994E+02  0.47757311423E+01  0.19567783923E+02  0.24935989383E+02  0.00000000000E+00 0. -1.
</event>
<event>
 7    1  0.6073302E-013  0.5052885E+02  0.7816164E-02  0.1300439E+00
        -11   -1    0    0    0    0  0.00000000000E+00  0.00000000000E+00  0.45593999997E+02  0.45594000000E+02  0.51100000000E-03 0.  1.
         11   -1    0    0    0    0 -0.00000000000E+00 -0.00000000000E+00 -0.45593999997E+02  0.45594000000E+02  0.51100000000E-03 0. -1.
    9900012    2    1    2    0    0  0.22053621147E+02 -0.14985231816E+02  0.30696047477E+02  0.50528847168E+02  0.29999961452E+02 0.  0.
         12    1    1    2    0    0 -0.22053621147E+02  0.14985231816E+02 -0.30696047477E+02  0.40659152832E+02  0.00000000000E+00 0. -1.
         11    1    3    3    0    0  0.84639440904E+01  0.58068810815E+01  0.64584678523E+01  0.12127243080E+02  0.51100000000E-03 0.  1.
        -11    1    3    3    0    0  0.16707306056E+02 -0.19816048811E+02  0.23639578257E+02  0.35080472155E+02  0.51100000000E-03 0. -1.
        -12    1    3    3    0    0 -0.31176290001E+01 -0.97606408652E+00  0.59800136794E+00  0.33211319334E+01  0.00000000000E+00 0.  1.
</event>
<event>
 7    1  0.6073302E-013  0.5052886E+02  0.7816164E-02  0.1300439E+00
        -11   -1    0    0    0    0  0.00000000000E+00  0.00000000000E+00  0.45593999997E+02  0.45594000000E+02  0.51100000000E-03 0.  1.
         11   -1    0    0    0    0 -0.00000000000E+00 -0.00000000000E+00 -0.45593999997E+02  0.45594000000E+02  0.51100000000E-03 0. -1.
    9900012    2    1    2    0    0 -0.32901931621E+02  0.96388322964E+01  0.21856844510E+02  0.50528857801E+02  0.29999993772E+02 0.  0.
         12    1    1    2    0    0  0.32901931621E+02 -0.96388322964E+01 -0.21856844510E+02  0.40659142199E+02  0.00000000000E+00 0. -1.
         11    1    3    3    0    0 -0.55573696712E+01 -0.33208531667E+01  0.18764786334E+01  0.67404447732E+01  0.51100000000E-03 0. -1.
        -11    1    3    3    0    0 -0.19037053225E+02  0.13218262440E+02  0.24990925085E+02  0.34083400568E+02  0.51100000000E-03 0.  1.
        -12    1    3    3    0    0 -0.83075087249E+01 -0.25857697731E+00 -0.50105592079E+01  0.97050124597E+01  0.00000000000E+00 0.  1.
</event>
<event>
 7    1  0.6073302E-013  0.5052885E+02  0.7816164E-02  0.1300439E+00
        -11   -1    0    0    0    0  0.00000000000E+00  0.00000000000E+00  0.45593999997E+02  0.45594000000E+02  0.51100000000E-03 0. -1.
         11   -1    0    0    0    0 -0.00000000000E+00 -0.00000000000E+00 -0.45593999997E+02  0.45594000000E+02  0.51100000000E-03 0.  1.
    9900012    2    1    2    0    0 -0.28860119436E+02  0.85049979911E+01 -0.27348215911E+02  0.50528850990E+02  0.29999973071E+02 0.  0.
         12    1    1    2    0    0  0.28860119436E+02 -0.85049979911E+01  0.27348215911E+02  0.40659149010E+02  0.00000000000E+00 0. -1.
         11    1    3    3    0    0 -0.13751692917E+01  0.38749765377E+01 -0.86550475200E-01  0.41126664093E+01  0.51100000000E-03 0. -1.
        -11    1    3    3    0    0 -0.84721913421E+01 -0.88655617085E+01 -0.16953375444E+02  0.20923507109E+02  0.51100000000E-03 0.  1.
        -12    1    3    3    0    0 -0.19012758802E+02  0.13495583162E+02 -0.10308289992E+02  0.25492677472E+02  0.00000000000E+00 0.  1.
</event>
<event>
 7    1  0.6073302E-013  0.5052886E+02  0.7816164E-02  0.1300439E+00
        -11   -1    0    0    0    0  0.00000000000E+00  0.00000000000E+00  0.45593999997E+02  0.45594000000E+02  0.51100000000E-03 0. -1.
         11   -1    0    0    0    0 -0.00000000000E+00 -0.00000000000E+00 -0.45593999997E+02  0.45594000000E+02  0.51100000000E-03 0.  1.
    9900012    2    1    2    0    0 -0.32342427535E+02  0.21551410483E+02 -0.11944442855E+02  0.50528860464E+02  0.30000001867E+02 0.  0.
         12    1    1    2    0    0  0.32342427535E+02 -0.21551410483E+02  0.11944442855E+02  0.40659139536E+02  0.00000000000E+00 0. -1.
         11    1    3    3    0    0 -0.18722904011E+02  0.77285808624E+01  0.65895986632E+01  0.21300256044E+02  0.51100000000E-03 0. -1.
        -11    1    3    3    0    0 -0.14764261843E+02  0.83081301701E+01 -0.14520373061E+02  0.22312545547E+02  0.51100000000E-03 0.  1.
        -12    1    3    3    0    0  0.11447383191E+01  0.55146994504E+01 -0.40136684566E+01  0.69160588724E+01  0.00000000000E+00 0.  1.
</event>
<event>
 7    1  0.6073302E-013  0.5052887E+02  0.7816164E-02  0.1300439E+00
        -11   -1    0    0    0    0  0.00000000000E+00  0.00000000000E+00  0.45593999997E+02  0.45594000000E+02  0.51100000000E-03 0.  1.
         11   -1    0    0    0    0 -0.00000000000E+00 -0.00000000000E+00 -0.45593999997E+02  0.45594000000E+02  0.51100000000E-03 0. -1.
    9900012    2    1    2    0    0 -0.20707516065E+01 -0.38519976576E+02  0.12848675809E+02  0.50528867229E+02  0.30000022430E+02 0.  0.
         12    1    1    2    0    0  0.20707516065E+01  0.38519976576E+02 -0.12848675809E+02  0.40659132771E+02  0.00000000000E+00 0. -1.
         11    1    3    3    0    0 -0.31831254904E+01  0.40013149485E+01 -0.14017004794E+01  0.53016576370E+01  0.51100000000E-03 0. -1.
        -11    1    3    3    0    0  0.62659830022E+00 -0.25303373478E+02  0.11433227826E+02  0.27773585177E+02  0.51100000000E-03 0.  1.
         12    1    3    3    0    0  0.48577558371E+00 -0.17217918047E+02  0.28171484624E+01  0.17453624416E+02  0.00000000000E+00 0. -1.
</event>
<event>
 7    1  0.6073302E-013  0.5052884E+02  0.7816164E-02  0.1300439E+00
        -11   -1    0    0    0    0  0.00000000000E+00  0.00000000000E+00  0.45593999997E+02  0.45594000000E+02  0.51100000000E-03 0.  1.
         11   -1    0    0    0    0 -0.00000000000E+00 -0.00000000000E+00 -0.45593999997E+02  0.45594000000E+02  0.51100000000E-03 0. -1.
    9900012    2    1    2    0    0  0.27347338470E+02  0.45430318210E+01  0.29743084610E+02  0.50528841848E+02  0.29999945282E+02 0.  0.
         12    1    1    2    0    0 -0.27347338470E+02 -0.45430318210E+01 -0.29743084610E+02  0.40659158152E+02  0.00000000000E+00 0. -1.
         11    1    3    3    0    0  0.70024680395E+01 -0.11968269815E+02  0.11037451882E+02  0.17722849243E+02  0.51100000000E-03 0. -1.
        -11    1    3    3    0    0  0.42460202954E+01  0.45178020355E+01  0.77864752800E+01  0.99533120683E+01  0.51100000000E-03 0.  1.
         12    1    3    3    0    0  0.16098850135E+02  0.11993499600E+02  0.10919157448E+02  0.22852680537E+02  0.00000000000E+00 0. -1.
</event>
<event>
 7    1  0.6073302E-013  0.5052886E+02  0.7816164E-02  0.1300439E+00
        -11   -1    0    0    0    0  0.00000000000E+00  0.00000000000E+00  0.45593999997E+02  0.45594000000E+02  0.51100000000E-03 0.  1.
         11   -1    0    0    0    0 -0.00000000000E+00 -0.00000000000E+00 -0.45593999997E+02  0.45594000000E+02  0.51100000000E-03 0. -1.
    9900012    2    1    2    0    0 -0.20839781476E+02 -0.32752563698E+01  0.34758332596E+02  0.50528862268E+02  0.30000007350E+02 0.  0.
         12    1    1    2    0    0  0.20839781476E+02  0.32752563698E+01 -0.34758332596E+02  0.40659137732E+02  0.00000000000E+00 0. -1.
         11    1    3    3    0    0  0.18878864713E+01 -0.74390336876E+01  0.16989572106E+02  0.18642663386E+02  0.51100000000E-03 0. -1.
        -11    1    3    3    0    0 -0.13078968098E+02 -0.28662584085E+01  0.13988854524E+02  0.19363958659E+02  0.51100000000E-03 0.  1.
         12    1    3    3    0    0 -0.96486998489E+01  0.70300357263E+01  0.37799059662E+01  0.12522240223E+02  0.00000000000E+00 0. -1.
</event>
<event>
 7    1  0.6073302E-013  0.5052887E+02  0.7816164E-02  0.1300439E+00
        -11   -1    0    0    0    0  0.00000000000E+00  0.00000000000E+00  0.45593999997E+02  0.45594000000E+02  0.51100000000E-03 0.  1.
         11   -1    0    0    0    0 -0.00000000000E+00 -0.00000000000E+00 -0.45593999997E+02  0.45594000000E+02  0.51100000000E-03 0. -1.
    9900012    2    1    2    0    0  0.12200171921E+02 -0.21862170812E+02  0.32036950876E+02  0.50528869059E+02  0.30000027991E+02 0.  0.
         12    1    1    2    0    0 -0.12200171921E+02  0.21862170812E+02 -0.32036950876E+02  0.40659130941E+02  0.00000000000E+00 0. -1.
         11    1    3    3    0    0  0.76802130582E+01 -0.14609627762E+02  0.64925546311E+01  0.17736407806E+02  0.51100000000E-03 0. -1.
        -11    1    3    3    0    0 -0.45476929283E+01 -0.54530215404E+01  0.21608103034E+02  0.22744825167E+02  0.51100000000E-03 0.  1.
        -12    1    3    3    0    0  0.90676517911E+01 -0.17995215096E+01  0.39362932100E+01  0.10047636085E+02  0.00000000000E+00 0.  1.
</event>
<event>
 7    1  0.6073302E-013  0.5052885E+02  0.7816164E-02  0.1300439E+00
        -11   -1    0    0    0    0  0.00000000000E+00  0.00000000000E+00  0.45593999997E+02  0.45594000000E+02  0.51100000000E-03 0. -1.
         11   -1    0    0    0    0 -0.00000000000E+00 -0.00000000000E+00 -0.45593999997E+02  0.45594000000E+02  0.51100000000E-03 0.  1.
    9900012    2    1    2    0    0  0.40458988828E+02 -0.31799820689E+01 -0.24746986186E+01  0.50528853475E+02  0.29999980622E+02 0.  0.
         12    1    1    2    0    0 -0.40458988828E+02  0.31799820689E+01  0.24746986186E+01  0.40659146525E+02  0.00000000000E+00 0. -1.
         11    1    3    3    0    0  0.80078118654E+01  0.80161333691E+01 -0.57936804844E+01  0.12725964752E+02  0.51100000000E-03 0. -1.
        -11    1    3    3    0    0  0.73312621687E+01 -0.78087696926E+01  0.60623753391E+01  0.12307586445E+02  0.51100000000E-03 0.  1.
        -12    1    3    3    0    0  0.25119914794E+02 -0.33873457454E+01 -0.27433934733E+01  0.25495302277E+02  0.00000000000E+00 0.  1.
</event>
<event>
 7    1  0.6073302E-013  0.5052887E+02  0.7816164E-02  0.1300439E+00
        -11   -1    0    0    0    0  0.00000000000E+00  0.00000000000E+00  0.45593999997E+02  0.45594000000E+02  0.51100000000E-03 0.  1.
         11   -1    0    0    0    0 -0.00000000000E+00 -0.00000000000E+00 -0.45593999997E+02  0.45594000000E+02  0.51100000000E-03 0. -1.
    9900012    2    1    2    0    0 -0.64136486458E+01 -0.14263580776E+02  0.37531054930E+02  0.50528871755E+02  0.30000036186E+02 0.  0.
         12    1    1    2    0    0  0.64136486458E+01  0.14263580776E+02 -0.37531054930E+02  0.40659128245E+02  0.00000000000E+00 0. -1.
         11    1    3    3    0    0  0.66556118163E-01 -0.90185281816E+01  0.10529190459E+01  0.90800285824E+01  0.51100000000E-03 0. -1.
        -11    1    3    3    0    0 -0.99649726412E+01 -0.50853174191E+01  0.36267767680E+02  0.37954078908E+02  0.51100000000E-03 0.  1.
        -12    1    3    3    0    0  0.34847678773E+01 -0.15973517541E+00  0.21036820412E+00  0.34947642648E+01  0.00000000000E+00 0.  1.
</event>
<event>
 7    1  0.6073302E-013  0.5052886E+02  0.7816164E-02  0.1300439E+00
        -11   -1    0    0    0    0  0.00000000000E+00  0.00000000000E+00  0.45593999997E+02  0.45594000000E+02  0.51100000000E-03 0. -1.
         11   -1    0    0    0    0 -0.00000000000E+00 -0.00000000000E+00 -0.45593999997E+02  0.45594000000E+02  0.51100000000E-03 0.  1.
    9900012    2    1    2    0    0 -0.69968479451E+01  0.24918915897E+02 -0.31356929547E+02  0.50528864726E+02  0.30000014821E+02 0.  0.
         12    1    1    2    0    0  0.69968479451E+01 -0.24918915897E+02  0.31356929547E+02  0.40659135274E+02  0.00000000000E+00 0. -1.
         11    1    3    3    0    0 -0.31082720358E+01 -0.36547242122E+01 -0.98205793113E+00  0.48972239236E+01  0.51100000000E-03 0. -1.
        -11    1    3    3    0    0  0.37517243424E+01  0.20486905034E+02 -0.26809639409E+02  0.33949160209E+02  0.51100000000E-03 0.  1.
         12    1    3    3    0    0 -0.76403002516E+01  0.80867350757E+01 -0.35652322060E+01  0.11682480593E+02  0.00000000000E+00 0. -1.
</event>
<event>
 7    1  0.6073302E-013  0.5052886E+02  0.7816164E-02  0.1300439E+00
        -11   -1    0    0    0    0  0.00000000000E+00  0.00000000000E+00  0.45593999997E+02  0.45594000000E+02  0.51100000000E-03 0.  1.
         11   -1    0    0    0    0 -0.00000000000E+00 -0.00000000000E+00 -0.45593999997E+02  0.45594000000E+02  0.51100000000E-03 0. -1.
    9900012    2    1    2    0    0  0.20633884524E+01  0.40603181572E+02 -0.53796857454E+00  0.50528864054E+02  0.30000012778E+02 0.  0.
         12    1    1    2    0    0 -0.20633884524E+01 -0.40603181572E+02  0.53796857454E+00  0.40659135946E+02  0.00000000000E+00 0. -1.
         11    1    3    3    0    0 -0.76594430612E+01  0.64582111220E+00  0.28594065774E+01  0.82012413178E+01  0.51100000000E-03 0. -1.
        -11    1    3    3    0    0  0.85557331046E+01  0.25308345384E+02  0.17096878522E+01  0.26770056926E+02  0.51100000000E-03 0.  1.
        -12    1    3    3    0    0  0.11670984090E+01  0.14649015076E+02 -0.51070630041E+01  0.15557565810E+02  0.00000000000E+00 0.  1.
</event>
<event>
 7    1  0.6073302E-013  0.5052886E+02  0.7816164E-02  0.1300439E+00
        -11   -1    0    0    0    0  0.00000000000E+00  0.00000000000E+00  0.45593999997E+02  0.45594000000E+02  0.51100000000E-03 0.  1.
         11   -1    0    0    0    0 -0.00000000000E+00 -0.00000000000E+00 -0.45593999997E+02  0.45594000000E+02  0.51100000000E-03 0. -1.
    9900012    2    1    2    0    0  0.20121486908E+02 -0.31565384226E+02  0.15871910642E+02  0.50528864936E+02  0.30000015460E+02 0.  0.
         12    1    1    2    0    0 -0.20121486908E+02  0.31565384226E+02 -0.15871910642E+02  0.40659135064E+02  0.00000000000E+00 0. -1.
         11    1    3    3    0    0  0.68796642310E+01 -0.23049211725E+01  0.12598029012E+02  0.14537977053E+02  0.51100000000E-03 0. -1.
        -11    1    3    3    0    0  0.10510034082E+02 -0.24982904985E+02  0.87916271758E+01  0.28493842608E+02  0.51100000000E-03 0.  1.
         12    1    3    3    0    0  0.27317885946E+01 -0.42775580683E+01 -0.55177455457E+01  0.74970452753E+01  0.00000000000E+00 0. -1.
</event>
<event>
 7    1  0.6073302E-013  0.5052886E+02  0.7816164E-02  0.1300439E+00
        -11   -1    0    0    0    0  0.00000000000E+00  0.00000000000E+00  0.45593999997E+02  0.45594000000E+02  0.51100000000E-03 0. -1.
         11   -1    0    0    0    0 -0.00000000000E+00 -0.00000000000E+00 -0.45593999997E+02  0.45594000000E+02  0.51100000000E-03 0.  1.
    9900012    2    1    2    0    0 -0.86267976702E+01 -0.39623938132E+02  0.29475038808E+01  0.50528857236E+02  0.29999992055E+02 0.  0.
         12    1    1    2    0    0  0.86267976702E+01  0.39623938132E+02 -0.29475038808E+01  0.40659142764E+02  0.00000000000E+00 0. -1.
         11    1    3    3    0    0 -0.48795741430E+01 -0.16564014744E+02  0.58802948548E+01  0.18241565067E+02  0.51100000000E-03 0. -1.
        -11    1    3    3    0    0  0.36681628367E+01  0.20979751141E+01  0.32612133577E+01  0.53378301773E+01  0.51100000000E-03 0.  1.
        -12    1    3    3    0    0 -0.74153863639E+01 -0.25157898503E+02 -0.61940043317E+01  0.26949461992E+02  0.00000000000E+00 0.  1.
</event>
<event>
 7    1  0.6073302E-013  0.5052886E+02  0.7816164E-02  0.1300439E+00
        -11   -1    0    0    0    0  0.00000000000E+00  0.00000000000E+00  0.45593999997E+02  0.45594000000E+02  0.51100000000E-03 0. -1.
         11   -1    0    0    0    0 -0.00000000000E+00 -0.00000000000E+00 -0.45593999997E+02  0.45594000000E+02  0.51100000000E-03 0.  1.
    9900012    2    1    2    0    0 -0.18020198135E+02  0.13080341713E+02 -0.34019735509E+02  0.50528864689E+02  0.30000014709E+02 0.  0.
         12    1    1    2    0    0  0.18020198135E+02 -0.13080341713E+02  0.34019735509E+02  0.40659135311E+02  0.00000000000E+00 0. -1.
         11    1    3    3    0    0  0.30830054099E+01  0.12305916374E+02 -0.12270344373E+02  0.17649415045E+02  0.51100000000E-03 0. -1.
        -11    1    3    3    0    0 -0.17401250350E+02  0.19498712452E+01 -0.92761547102E+01  0.19815462601E+02  0.51100000000E-03 0.  1.
         12    1    3    3    0    0 -0.37019531950E+01 -0.11754459057E+01 -0.12473236426E+02  0.13063987043E+02  0.00000000000E+00 0. -1.
</event>
<event>
 7    1  0.6073302E-013  0.5052886E+02  0.7816164E-02  0.1300439E+00
        -11   -1    0    0    0    0  0.00000000000E+00  0.00000000000E+00  0.45593999997E+02  0.45594000000E+02  0.51100000000E-03 0. -1.
         11   -1    0    0    0    0 -0.00000000000E+00 -0.00000000000E+00 -0.45593999997E+02  0.45594000000E+02  0.51100000000E-03 0.  1.
    9900012    2    1    2    0    0  0.27179714601E+02 -0.94921838920E+00 -0.30224626971E+02  0.50528856172E+02  0.29999988820E+02 0.  0.
         12    1    1    2    0    0 -0.27179714601E+02  0.94921838920E+00  0.30224626971E+02  0.40659143828E+02  0.00000000000E+00 0. -1.
         11    1    3    3    0    0  0.19564545883E+01 -0.93945195754E+01 -0.15708748776E+01  0.97238038211E+01  0.51100000000E-03 0. -1.
        -11    1    3    3    0    0  0.24922849846E+02  0.72968603320E+01 -0.21967288924E+02  0.34014032370E+02  0.51100000000E-03 0.  1.
         12    1    3    3    0    0  0.30041016645E+00  0.11484408542E+01 -0.66864631695E+01  0.67910199809E+01  0.00000000000E+00 0. -1.
</event>
<event>
 7    1  0.6073302E-013  0.5052886E+02  0.7816164E-02  0.1300439E+00
        -11   -1    0    0    0    0  0.00000000000E+00  0.00000000000E+00  0.45593999997E+02  0.45594000000E+02  0.51100000000E-03 0.  1.
         11   -1    0    0    0    0 -0.00000000000E+00 -0.00000000000E+00 -0.45593999997E+02  0.45594000000E+02  0.51100000000E-03 0. -1.
    9900012    2    1    2    0    0 -0.28070828935E+02  0.27524716275E+02  0.10372298074E+02  0.50528855758E+02  0.29999987563E+02 0.  0.
         12    1    1    2    0    0  0.28070828935E+02 -0.27524716275E+02 -0.10372298074E+02  0.40659144242E+02  0.00000000000E+00 0. -1.
         11    1    3    3    0    0 -0.56245326597E+00  0.15423270256E+02 -0.51977617832E+01  0.16285280068E+02  0.51100000000E-03 0. -1.
        -11    1    3    3    0    0 -0.32245546818E+01  0.30737785659E+00  0.31818044813E+01  0.45404971160E+01  0.51100000000E-03 0.  1.
         12    1    3    3    0    0 -0.24283820987E+02  0.11794068163E+02  0.12388255376E+02  0.29703078575E+02  0.00000000000E+00 0. -1.
</event>
<event>
 7    1  0.6073302E-013  0.5052886E+02  0.7816164E-02  0.1300439E+00
        -11   -1    0    0    0    0  0.00000000000E+00  0.00000000000E+00  0.45593999997E+02  0.45594000000E+02  0.51100000000E-03 0.  1.
         11   -1    0    0    0    0 -0.00000000000E+00 -0.00000000000E+00 -0.45593999997E+02  0.45594000000E+02  0.51100000000E-03 0. -1.
    9900012    2    1    2    0    0 -0.51087981041E+00 -0.14324264329E+01  0.40630683778E+02  0.50528864398E+02  0.30000013823E+02 0.  0.
         12    1    1    2    0    0  0.51087981041E+00  0.14324264329E+01 -0.40630683778E+02  0.40659135602E+02  0.00000000000E+00 0. -1.
         11    1    3    3    0    0 -0.79494796268E+00 -0.27012467249E+01 -0.12632868683E+01  0.30861902250E+01  0.51100000000E-03 0. -1.
        -11    1    3    3    0    0 -0.12135644610E+01  0.69494674738E+01  0.40876102569E+02  0.41480400171E+02  0.51100000000E-03 0.  1.
        -12    1    3    3    0    0  0.14976326132E+01 -0.56806471817E+01  0.10178680773E+01  0.59622740016E+01  0.00000000000E+00 0.  1.
</event>
<event>
 7    1  0.6073302E-013  0.5052888E+02  0.7816164E-02  0.1300439E+00
        -11   -1    0    0    0    0  0.00000000000E+00  0.00000000000E+00  0.45593999997E+02  0.45594000000E+02  0.51100000000E-03 0.  1.
         11   -1    0    0    0    0 -0.00000000000E+00 -0.00000000000E+00 -0.45593999997E+02  0.45594000000E+02  0.51100000000E-03 0. -1.
    9900012    2    1    2    0    0  0.92880731813E+01  0.38696093221E+02  0.83371608471E+01  0.50528878207E+02  0.30000055797E+02 0.  0.
         12    1    1    2    0    0 -0.92880731813E+01 -0.38696093221E+02 -0.83371608471E+01  0.40659121793E+02  0.00000000000E+00 0. -1.
         11    1    3    3    0    0  0.13644058602E+02  0.93501358950E+01  0.93287963781E+01  0.18989781950E+02  0.51100000000E-03 0. -1.
        -11    1    3    3    0    0  0.17632400086E+01  0.51757524462E+01  0.30805947073E+01  0.62759455642E+01  0.51100000000E-03 0.  1.
         12    1    3    3    0    0 -0.61192254295E+01  0.24170204880E+02 -0.40722302383E+01  0.25263150692E+02  0.00000000000E+00 0. -1.
</event>
<event>
 7    1  0.6073302E-013  0.5052886E+02  0.7816164E-02  0.1300439E+00
        -11   -1    0    0    0    0  0.00000000000E+00  0.00000000000E+00  0.45593999997E+02  0.45594000000E+02  0.51100000000E-03 0.  1.
         11   -1    0    0    0    0 -0.00000000000E+00 -0.00000000000E+00 -0.45593999997E+02  0.45594000000E+02  0.51100000000E-03 0. -1.
    9900012    2    1    2    0    0 -0.37496347809E+02 -0.16012467983E+01  0.15640499135E+02  0.50528864452E+02  0.30000013990E+02 0.  0.
         12    1    1    2    0    0  0.37496347809E+02  0.16012467983E+01 -0.15640499135E+02  0.40659135548E+02  0.00000000000E+00 0. -1.
         11    1    3    3    0    0 -0.24461157865E+02  0.56785112225E+01  0.21347908661E+02  0.32959474181E+02  0.51100000000E-03 0. -1.
        -11    1    3    3    0    0  0.10964044990E+00 -0.22005818720E+01  0.34948761858E+00  0.22308571134E+01  0.51100000000E-03 0.  1.
         12    1    3    3    0    0 -0.13144830394E+02 -0.50791761488E+01 -0.60568971450E+01  0.15338533158E+02  0.00000000000E+00 0. -1.
</event>
<event>
 7    1  0.6073302E-013  0.5052885E+02  0.7816164E-02  0.1300439E+00
        -11   -1    0    0    0    0  0.00000000000E+00  0.00000000000E+00  0.45593999997E+02  0.45594000000E+02  0.51100000000E-03 0.  1.
         11   -1    0    0    0    0 -0.00000000000E+00 -0.00000000000E+00 -0.45593999997E+02  0.45594000000E+02  0.51100000000E-03 0. -1.
    9900012    2    1    2    0    0 -0.54398508765E+01 -0.86088726269E+01  0.39363200429E+02  0.50528853262E+02  0.29999979976E+02 0.  0.
         12    1    1    2    0    0  0.54398508765E+01  0.86088726269E+01 -0.39363200429E+02  0.40659146738E+02  0.00000000000E+00 0. -1.
         11    1    3    3    0    0  0.17121288053E+01 -0.16734569142E+01 -0.45895827164E+01  0.51764961954E+01  0.51100000000E-03 0. -1.
        -11    1    3    3    0    0 -0.31638653649E+01 -0.64102600659E+01  0.27253548783E+02  0.28175475146E+02  0.51100000000E-03 0.  1.
         12    1    3    3    0    0 -0.39881143169E+01 -0.52515564685E+00  0.16699234362E+02  0.17176881921E+02  0.00000000000E+00 0. -1.
</event>
<event>
 7    1  0.6073302E-013  0.5052885E+02  0.7816164E-02  0.1300439E+00
        -11   -1    0    0    0    0  0.00000000000E+00  0.00000000000E+00  0.45593999997E+02  0.45594000000E+02  0.51100000000E-03 0.  1.
         11   -1    0    0    0    0 -0.00000000000E+00 -0.00000000000E+00 -0.45593999997E+02  0.45594000000E+02  0.51100000000E-03 0. -1.
    9900012    2    1    2    0    0  0.18018196372E+02 -0.22651106964E+02  0.28555876217E+02  0.50528854488E+02  0.29999983702E+02 0.  0.
         12    1    1    2    0    0 -0.18018196372E+02  0.22651106964E+02 -0.28555876217E+02  0.40659145512E+02  0.00000000000E+00 0. -1.
         11    1    3    3    0    0  0.58495099220E+01 -0.18297974281E+02  0.30606231456E+01  0.19452507381E+02  0.51100000000E-03 0. -1.
        -11    1    3    3    0    0 -0.47398625612E+00 -0.13763421326E+01  0.12906610870E+02  0.12988440439E+02  0.51100000000E-03 0.  1.
         12    1    3    3    0    0  0.12642672706E+02 -0.29767905507E+01  0.12588642202E+02  0.18087906668E+02  0.00000000000E+00 0. -1.
</event>
<event>
 7    1  0.6073302E-013  0.5052886E+02  0.7816164E-02  0.1300439E+00
        -11   -1    0    0    0    0  0.00000000000E+00  0.00000000000E+00  0.45593999997E+02  0.45594000000E+02  0.51100000000E-03 0.  1.
         11   -1    0    0    0    0 -0.00000000000E+00 -0.00000000000E+00 -0.45593999997E+02  0.45594000000E+02  0.51100000000E-03 0. -1.
    9900012    2    1    2    0    0  0.21963265200E+02 -0.11217244316E+02  0.32325745102E+02  0.50528863454E+02  0.30000010954E+02 0.  0.
         12    1    1    2    0    0 -0.21963265200E+02  0.11217244316E+02 -0.32325745102E+02  0.40659136546E+02  0.00000000000E+00 0. -1.
         11    1    3    3    0    0  0.41410605478E+01 -0.33693911678E+01 -0.96116564084E+00  0.54244832890E+01  0.51100000000E-03 0. -1.
        -11    1    3    3    0    0 -0.29726967279E+01 -0.32648930225E+01  0.18892555182E+02  0.19401677604E+02  0.51100000000E-03 0.  1.
        -12    1    3    3    0    0  0.20794901380E+02 -0.45829601258E+01  0.14394355561E+02  0.25702702561E+02  0.00000000000E+00 0.  1.
</event>
<event>
 7    1  0.6073302E-013  0.5052886E+02  0.7816164E-02  0.1300439E+00
        -11   -1    0    0    0    0  0.00000000000E+00  0.00000000000E+00  0.45593999997E+02  0.45594000000E+02  0.51100000000E-03 0.  1.
         11   -1    0    0    0    0 -0.00000000000E+00 -0.00000000000E+00 -0.45593999997E+02  0.45594000000E+02  0.51100000000E-03 0. -1.
    9900012    2    1    2    0    0  0.95907563820E+01  0.26521922726E+02  0.29287722448E+02  0.50528859831E+02  0.29999999944E+02 0.  0.
         12    1    1    2    0    0 -0.95907563820E+01 -0.26521922726E+02 -0.29287722448E+02  0.40659140169E+02  0.00000000000E+00 0. -1.
         11    1    3    3    0    0  0.10348480658E+02  0.93323857310E+00  0.12031897756E+02  0.15897438474E+02  0.51100000000E-03 0. -1.
        -11    1    3    3    0    0  0.29310216409E+01  0.14192980818E+01  0.77371907446E+01  0.83946063507E+01  0.51100000000E-03 0.  1.
         12    1    3    3    0    0 -0.36887459165E+01  0.24169386071E+02  0.95186339473E+01  0.26236815007E+02  0.00000000000E+00 0. -1.
</event>
<event>
 7    1  0.6073302E-013  0.5052886E+02  0.7816164E-02  0.1300439E+00
        -11   -1    0    0    0    0  0.00000000000E+00  0.00000000000E+00  0.45593999997E+02  0.45594000000E+02  0.51100000000E-03 0. -1.
         11   -1    0    0    0    0 -0.00000000000E+00 -0.00000000000E+00 -0.45593999997E+02  0.45594000000E+02  0.51100000000E-03 0.  1.
    9900012    2    1    2    0    0  0.20249412177E+02 -0.19622928414E+02 -0.29292794256E+02  0.50528858244E+02  0.29999995117E+02 0.  0.
         12    1    1    2    0    0 -0.20249412177E+02  0.19622928414E+02  0.29292794256E+02  0.40659141756E+02  0.00000000000E+00 0. -1.
         11    1    3    3    0    0  0.21662161116E+01 -0.38521357159E+01  0.46512344024E+01  0.64160286426E+01  0.51100000000E-03 0. -1.
        -11    1    3    3    0    0  0.12845098431E+02 -0.24406178413E+01 -0.21377728360E+02  0.25059138837E+02  0.51100000000E-03 0.  1.
         12    1    3    3    0    0  0.52380976342E+01 -0.13330174857E+02 -0.12566300298E+02  0.19053690764E+02  0.00000000000E+00 0. -1.
</event>
<event>
 7    1  0.6073302E-013  0.5052886E+02  0.7816164E-02  0.1300439E+00
        -11   -1    0    0    0    0  0.00000000000E+00  0.00000000000E+00  0.45593999997E+02  0.45594000000E+02  0.51100000000E-03 0. -1.
         11   -1    0    0    0    0 -0.00000000000E+00 -0.00000000000E+00 -0.45593999997E+02  0.45594000000E+02  0.51100000000E-03 0.  1.
    9900012    2    1    2    0    0  0.32237020015E+02 -0.13892232738E+02 -0.20516962843E+02  0.50528863828E+02  0.30000012093E+02 0.  0.
         12    1    1    2    0    0 -0.32237020015E+02  0.13892232738E+02  0.20516962843E+02  0.40659136172E+02  0.00000000000E+00 0. -1.
         11    1    3    3    0    0  0.26795572290E+02  0.47073174768E+00 -0.79471216415E+01  0.27953193474E+02  0.51100000000E-03 0. -1.
        -11    1    3    3    0    0 -0.84311818933E+00 -0.36845108891E+01  0.12815566178E+01  0.39910971422E+01  0.51100000000E-03 0.  1.
        -12    1    3    3    0    0  0.62845659147E+01 -0.10678453597E+02 -0.13851397819E+02  0.18584573213E+02  0.00000000000E+00 0.  1.
</event>
<event>
 7    1  0.6073302E-013  0.5052885E+02  0.7816164E-02  0.1300439E+00
        -11   -1    0    0    0    0  0.00000000000E+00  0.00000000000E+00  0.45593999997E+02  0.45594000000E+02  0.51100000000E-03 0. -1.
         11   -1    0    0    0    0 -0.00000000000E+00 -0.00000000000E+00 -0.45593999997E+02  0.45594000000E+02  0.51100000000E-03 0.  1.
    9900012    2    1    2    0    0  0.39670155381E+02  0.84133121782E+01  0.29430523860E+01  0.50528848421E+02  0.29999965260E+02 0.  0.
         12    1    1    2    0    0 -0.39670155381E+02 -0.84133121782E+01 -0.29430523860E+01  0.40659151579E+02  0.00000000000E+00 0. -1.
         11    1    3    3    0    0  0.16949690589E+01  0.31965489695E+01 -0.80043156158E+01  0.87840716165E+01  0.51100000000E-03 0. -1.
        -11    1    3    3    0    0  0.31294817268E+02  0.49380675417E+01  0.37211173939E+01  0.31899793319E+02  0.51100000000E-03 0.  1.
        -12    1    3    3    0    0  0.66803690546E+01  0.27869566693E+00  0.72262506079E+01  0.98449834854E+01  0.00000000000E+00 0.  1.
</event>
<event>
 7    1  0.6073302E-013  0.5052886E+02  0.7816164E-02  0.1300439E+00
        -11   -1    0    0    0    0  0.00000000000E+00  0.00000000000E+00  0.45593999997E+02  0.45594000000E+02  0.51100000000E-03 0.  1.
         11   -1    0    0    0    0 -0.00000000000E+00 -0.00000000000E+00 -0.45593999997E+02  0.45594000000E+02  0.51100000000E-03 0. -1.
    9900012    2    1    2    0    0  0.23573414632E+02  0.46707853203E+01  0.32797010046E+02  0.50528856122E+02  0.29999988670E+02 0.  0.
         12    1    1    2    0    0 -0.23573414632E+02 -0.46707853203E+01 -0.32797010046E+02  0.40659143878E+02  0.00000000000E+00 0. -1.
         11    1    3    3    0    0 -0.16597844809E-01  0.52720344391E+01  0.24386008029E+02  0.24949388980E+02  0.51100000000E-03 0. -1.
        -11    1    3    3    0    0  0.17333472314E+02 -0.22510882069E+01  0.75949146984E+01  0.19057790798E+02  0.51100000000E-03 0.  1.
         12    1    3    3    0    0  0.62565401628E+01  0.16498390881E+01  0.81608731812E+00  0.65216763440E+01  0.00000000000E+00 0. -1.
</event>
<event>
 7    1  0.6073302E-013  0.5052885E+02  0.7816164E-02  0.1300439E+00
        -11   -1    0    0    0    0  0.00000000000E+00  0.00000000000E+00  0.45593999997E+02  0.45594000000E+02  0.51100000000E-03 0. -1.
         11   -1    0    0    0    0 -0.00000000000E+00 -0.00000000000E+00 -0.45593999997E+02  0.45594000000E+02  0.51100000000E-03 0.  1.
    9900012    2    1    2    0    0  0.39725129085E+02  0.42521368784E+01 -0.75498229317E+01  0.50528851274E+02  0.29999973932E+02 0.  0.
         12    1    1    2    0    0 -0.39725129085E+02 -0.42521368784E+01  0.75498229317E+01  0.40659148726E+02  0.00000000000E+00 0. -1.
         11    1    3    3    0    0  0.12032764027E+02  0.76777884801E+01 -0.12086290311E+02  0.18703322159E+02  0.51100000000E-03 0. -1.
        -11    1    3    3    0    0  0.26479330686E+02 -0.36928389294E+01  0.81938072362E+01  0.27963020048E+02  0.51100000000E-03 0.  1.
        -12    1    3    3    0    0  0.12130343727E+01  0.26718732775E+00 -0.36573398574E+01  0.38625090666E+01  0.00000000000E+00 0.  1.
</event>
<event>
 7    1  0.6073302E-013  0.5052887E+02  0.7816164E-02  0.1300439E+00
        -11   -1    0    0    0    0  0.00000000000E+00  0.00000000000E+00  0.45593999997E+02  0.45594000000E+02  0.51100000000E-03 0. -1.
         11   -1    0    0    0    0 -0.00000000000E+00 -0.00000000000E+00 -0.45593999997E+02  0.45594000000E+02  0.51100000000E-03 0.  1.
    9900012    2    1    2    0    0  0.38550251402E+02 -0.11888008755E+02  0.50713364355E+01  0.50528867096E+02  0.30000022025E+02 0.  0.
         12    1    1    2    0    0 -0.38550251402E+02  0.11888008755E+02 -0.50713364355E+01  0.40659132904E+02  0.00000000000E+00 0. -1.
         11    1    3    3    0    0 -0.87244642217E+00  0.35297423858E+01 -0.56938534072E+00  0.36802777065E+01  0.51100000000E-03 0. -1.
        -11    1    3    3    0    0  0.29669745217E+02 -0.48145334963E+01 -0.27387333834E+01  0.30182348730E+02  0.51100000000E-03 0.  1.
        -12    1    3    3    0    0  0.97529526063E+01 -0.10603217644E+02  0.83794551596E+01  0.16666240660E+02  0.00000000000E+00 0.  1.
</event>
<event>
 7    1  0.6073302E-013  0.5052888E+02  0.7816164E-02  0.1300439E+00
        -11   -1    0    0    0    0  0.00000000000E+00  0.00000000000E+00  0.45593999997E+02  0.45594000000E+02  0.51100000000E-03 0. -1.
         11   -1    0    0    0    0 -0.00000000000E+00 -0.00000000000E+00 -0.45593999997E+02  0.45594000000E+02  0.51100000000E-03 0.  1.
    9900012    2    1    2    0    0 -0.27711184162E+02 -0.92869495074E+00 -0.29738729151E+02  0.50528877857E+02  0.30000054734E+02 0.  0.
         12    1    1    2    0    0  0.27711184162E+02  0.92869495074E+00  0.29738729151E+02  0.40659122143E+02  0.00000000000E+00 0. -1.
         11    1    3    3    0    0 -0.49258670948E+01  0.59229320547E+01 -0.59036650607E+00  0.77261778152E+01  0.51100000000E-03 0. -1.
        -11    1    3    3    0    0 -0.31942004237E+01 -0.97573584891E+01 -0.16066827679E+02  0.19067037341E+02  0.51100000000E-03 0.  1.
        -12    1    3    3    0    0 -0.19591116643E+02  0.29057314837E+01 -0.13081534965E+02  0.23735662700E+02  0.00000000000E+00 0.  1.
</event>
<event>
 7    1  0.6073302E-013  0.5052886E+02  0.7816164E-02  0.1300439E+00
        -11   -1    0    0    0    0  0.00000000000E+00  0.00000000000E+00  0.45593999997E+02  0.45594000000E+02  0.51100000000E-03 0.  1.
         11   -1    0    0    0    0 -0.00000000000E+00 -0.00000000000E+00 -0.45593999997E+02  0.45594000000E+02  0.51100000000E-03 0. -1.
    9900012    2    1    2    0    0 -0.21902825208E+02  0.33191521418E+02  0.84708034373E+01  0.50528863794E+02  0.30000011988E+02 0.  0.
         12    1    1    2    0    0  0.21902825208E+02 -0.33191521418E+02 -0.84708034373E+01  0.40659136206E+02  0.00000000000E+00 0. -1.
         11    1    3    3    0    0  0.28111184715E+01  0.31966352797E+01 -0.39078777218E+00  0.42747607554E+01  0.51100000000E-03 0. -1.
        -11    1    3    3    0    0 -0.22340878227E+02  0.31072016535E+02  0.13394749939E+01  0.38293331600E+02  0.51100000000E-03 0.  1.
        -12    1    3    3    0    0 -0.23730654522E+01 -0.10771303967E+01  0.75221162156E+01  0.79607714383E+01  0.00000000000E+00 0.  1.
</event>
<event>
 7    1  0.6073302E-013  0.5052886E+02  0.7816164E-02  0.1300439E+00
        -11   -1    0    0    0    0  0.00000000000E+00  0.00000000000E+00  0.45593999997E+02  0.45594000000E+02  0.51100000000E-03 0. -1.
         11   -1    0    0    0    0 -0.00000000000E+00 -0.00000000000E+00 -0.45593999997E+02  0.45594000000E+02  0.51100000000E-03 0.  1.
    9900012    2    1    2    0    0 -0.96548620619E+00 -0.36841282121E+02 -0.17174208361E+02  0.50528860009E+02  0.30000000485E+02 0.  0.
         12    1    1    2    0    0  0.96548620619E+00  0.36841282121E+02  0.17174208361E+02  0.40659139991E+02  0.00000000000E+00 0. -1.
         11    1    3    3    0    0 -0.18431341655E+00 -0.80341351280E+01 -0.13221391773E+02  0.15472120067E+02  0.51100000000E-03 0. -1.
        -11    1    3    3    0    0 -0.87438909658E+01 -0.13452785448E+02  0.31636647239E+01  0.16353649142E+02  0.51100000000E-03 0.  1.
         12    1    3    3    0    0  0.79627181762E+01 -0.15354361546E+02 -0.71164813126E+01  0.18703090801E+02  0.00000000000E+00 0. -1.
</event>
<event>
 7    1  0.6073302E-013  0.5052888E+02  0.7816164E-02  0.1300439E+00
        -11   -1    0    0    0    0  0.00000000000E+00  0.00000000000E+00  0.45593999997E+02  0.45594000000E+02  0.51100000000E-03 0.  1.
         11   -1    0    0    0    0 -0.00000000000E+00 -0.00000000000E+00 -0.45593999997E+02  0.45594000000E+02  0.51100000000E-03 0. -1.
    9900012    2    1    2    0    0  0.24498273336E+02 -0.30312492941E+02  0.11582385722E+02  0.50528876992E+02  0.30000052106E+02 0.  0.
         12    1    1    2    0    0 -0.24498273336E+02  0.30312492941E+02 -0.11582385722E+02  0.40659123008E+02  0.00000000000E+00 0. -1.
         11    1    3    3    0    0  0.27501686699E+02 -0.23280694218E+02  0.62805436193E+01  0.36575657519E+02  0.51100000000E-03 0. -1.
        -11    1    3    3    0    0 -0.37417343840E+00 -0.36979735852E+01  0.80699149585E+01  0.88847364675E+01  0.51100000000E-03 0.  1.
         12    1    3    3    0    0 -0.26292399255E+01 -0.33338251386E+01 -0.27680728561E+01  0.50684830055E+01  0.00000000000E+00 0. -1.
</event>
<event>
 7    1  0.6073302E-013  0.5052886E+02  0.7816164E-02  0.1300439E+00
        -11   -1    0    0    0    0  0.00000000000E+00  0.00000000000E+00  0.45593999997E+02  0.45594000000E+02  0.51100000000E-03 0.  1.
         11   -1    0    0    0    0 -0.00000000000E+00 -0.00000000000E+00 -0.45593999997E+02  0.45594000000E+02  0.51100000000E-03 0. -1.
    9900012    2    1    2    0    0 -0.50264230872E+01  0.28526219162E+02  0.28533413829E+02  0.50528858181E+02  0.29999994928E+02 0.  0.
         12    1    1    2    0    0  0.50264230872E+01 -0.28526219162E+02 -0.28533413829E+02  0.40659141819E+02  0.00000000000E+00 0. -1.
         11    1    3    3    0    0 -0.10384137227E+02 -0.71455553415E+00  0.35485609880E+01  0.10996962349E+02  0.51100000000E-03 0. -1.
        -11    1    3    3    0    0  0.25200575373E+01  0.24295864596E+02  0.22838338353E+02  0.33439937581E+02  0.51100000000E-03 0.  1.
        -12    1    3    3    0    0  0.28376566020E+01  0.49449101001E+01  0.21465144879E+01  0.60919582513E+01  0.00000000000E+00 0.  1.
</event>
<event>
 7    1  0.6073302E-013  0.5052886E+02  0.7816164E-02  0.1300439E+00
        -11   -1    0    0    0    0  0.00000000000E+00  0.00000000000E+00  0.45593999997E+02  0.45594000000E+02  0.51100000000E-03 0. -1.
         11   -1    0    0    0    0 -0.00000000000E+00 -0.00000000000E+00 -0.45593999997E+02  0.45594000000E+02  0.51100000000E-03 0.  1.
    9900012    2    1    2    0    0  0.32229768729E+02 -0.77375145934E+01 -0.23548638873E+02  0.50528861824E+02  0.30000006001E+02 0.  0.
         12    1    1    2    0    0 -0.32229768729E+02  0.77375145934E+01  0.23548638873E+02  0.40659138176E+02  0.00000000000E+00 0. -1.
         11    1    3    3    0    0  0.50466980905E+01 -0.21483094005E+01  0.36206437603E+01  0.65721728825E+01  0.51100000000E-03 0. -1.
        -11    1    3    3    0    0  0.70683948647E+01  0.11759563008E+01 -0.20492692620E+02  0.21709342005E+02  0.51100000000E-03 0.  1.
        -12    1    3    3    0    0  0.20114675774E+02 -0.67651614937E+01 -0.66765900135E+01  0.22247346937E+02  0.00000000000E+00 0.  1.
</event>
<event>
 7    1  0.6073302E-013  0.5052886E+02  0.7816164E-02  0.1300439E+00
        -11   -1    0    0    0    0  0.00000000000E+00  0.00000000000E+00  0.45593999997E+02  0.45594000000E+02  0.51100000000E-03 0.  1.
         11   -1    0    0    0    0 -0.00000000000E+00 -0.00000000000E+00 -0.45593999997E+02  0.45594000000E+02  0.51100000000E-03 0. -1.
    9900012    2    1    2    0    0  0.35145952913E+02  0.19896410075E+02  0.46968956697E+01  0.50528856269E+02  0.29999989114E+02 0.  0.
         12    1    1    2    0    0 -0.35145952913E+02 -0.19896410075E+02 -0.46968956697E+01  0.40659143731E+02  0.00000000000E+00 0. -1.
         11    1    3    3    0    0 -0.39848646117E+01  0.79296691453E-03 -0.34412579157E+01  0.52651118607E+01  0.51100000000E-03 0. -1.
        -11    1    3    3    0    0  0.25314554928E+02  0.12057771115E+02  0.87328690849E+01  0.29368001944E+02  0.51100000000E-03 0.  1.
         12    1    3    3    0    0  0.13816262597E+02  0.78378459928E+01 -0.59471549949E+00  0.15895742464E+02  0.00000000000E+00 0. -1.
</event>
<event>
 7    1  0.6073302E-013  0.5052889E+02  0.7816164E-02  0.1300439E+00
        -11   -1    0    0    0    0  0.00000000000E+00  0.00000000000E+00  0.45593999997E+02  0.45594000000E+02  0.51100000000E-03 0.  1.
         11   -1    0    0    0    0 -0.00000000000E+00 -0.00000000000E+00 -0.45593999997E+02  0.45594000000E+02  0.51100000000E-03 0. -1.
    9900012    2    1    2    0    0  0.11929255380E+02  0.30227426837E+02  0.24436835002E+02  0.50528888205E+02  0.30000086187E+02 0.  0.
         12    1    1    2    0    0 -0.11929255380E+02 -0.30227426837E+02 -0.24436835002E+02  0.40659111795E+02  0.00000000000E+00 0. -1.
         11    1    3    3    0    0  0.30983632501E+01  0.17715115136E+02 -0.20269980345E+01  0.18097897127E+02  0.51100000000E-03 0. -1.
        -11    1    3    3    0    0  0.67652832707E+01  0.61020493290E+01  0.60540330778E+01  0.10938710185E+02  0.51100000000E-03 0.  1.
         12    1    3    3    0    0  0.20656088589E+01  0.64102623717E+01  0.20409799958E+02  0.21492280893E+02  0.00000000000E+00 0. -1.
</event>
<event>
 7    1  0.6073302E-013  0.5052886E+02  0.7816164E-02  0.1300439E+00
        -11   -1    0    0    0    0  0.00000000000E+00  0.00000000000E+00  0.45593999997E+02  0.45594000000E+02  0.51100000000E-03 0.  1.
         11   -1    0    0    0    0 -0.00000000000E+00 -0.00000000000E+00 -0.45593999997E+02  0.45594000000E+02  0.51100000000E-03 0. -1.
    9900012    2    1    2    0    0  0.46999739996E+01  0.13977773418E+02  0.37890602745E+02  0.50528859801E+02  0.29999999852E+02 0.  0.
         12    1    1    2    0    0 -0.46999739996E+01 -0.13977773418E+02 -0.37890602745E+02  0.40659140199E+02  0.00000000000E+00 0. -1.
         11    1    3    3    0    0 -0.11100106119E+02  0.82728786620E+01  0.22425395299E+02  0.26354339904E+02  0.51100000000E-03 0. -1.
        -11    1    3    3    0    0  0.60775149384E+00  0.30778562217E+01  0.31031747953E+01  0.44127377977E+01  0.51100000000E-03 0.  1.
         12    1    3    3    0    0  0.15192328624E+02  0.26270385341E+01  0.12362032651E+02  0.19761782099E+02  0.00000000000E+00 0. -1.
</event>
<event>
 7    1  0.6073302E-013  0.5052886E+02  0.7816164E-02  0.1300439E+00
        -11   -1    0    0    0    0  0.00000000000E+00  0.00000000000E+00  0.45593999997E+02  0.45594000000E+02  0.51100000000E-03 0. -1.
         11   -1    0    0    0    0 -0.00000000000E+00 -0.00000000000E+00 -0.45593999997E+02  0.45594000000E+02  0.51100000000E-03 0.  1.
    9900012    2    1    2    0    0  0.27862869693E+02  0.26224470320E+02 -0.13751480775E+02  0.50528861119E+02  0.30000003856E+02 0.  0.
         12    1    1    2    0    0 -0.27862869693E+02 -0.26224470320E+02  0.13751480775E+02  0.40659138881E+02  0.00000000000E+00 0. -1.
         11    1    3    3    0    0 -0.54428322075E+01  0.57942804898E+01 -0.78200935133E+00  0.79880941231E+01  0.51100000000E-03 0. -1.
        -11    1    3    3    0    0  0.21495181656E+02  0.72042861125E+01 -0.88521975793E+01  0.24337337058E+02  0.51100000000E-03 0.  1.
         12    1    3    3    0    0  0.11810520244E+02  0.13225903718E+02 -0.41172738447E+01  0.18203429938E+02  0.00000000000E+00 0. -1.
</event>
<event>
 7    1  0.6073302E-013  0.5052883E+02  0.7816164E-02  0.1300439E+00
        -11   -1    0    0    0    0  0.00000000000E+00  0.00000000000E+00  0.45593999997E+02  0.45594000000E+02  0.51100000000E-03 0. -1.
         11   -1    0    0    0    0 -0.00000000000E+00 -0.00000000000E+00 -0.45593999997E+02  0.45594000000E+02  0.51100000000E-03 0.  1.
    9900012    2    1    2    0    0 -0.28269035643E+02  0.15657520159E+01 -0.29181806867E+02  0.50528833659E+02  0.29999920389E+02 0.  0.
         12    1    1    2    0    0  0.28269035643E+02 -0.15657520159E+01  0.29181806867E+02  0.40659166341E+02  0.00000000000E+00 0. -1.
         11    1    3    3    0    0  0.35396070238E+00 -0.26210659593E+01  0.46670498815E+01  0.53643853142E+01  0.51100000000E-03 0. -1.
        -11    1    3    3    0    0 -0.13816536218E+02  0.36878693040E+01 -0.21784060300E+02  0.26058440792E+02  0.51100000000E-03 0.  1.
         12    1    3    3    0    0 -0.14806460127E+02  0.49894867121E+00 -0.12064796448E+02  0.19106007553E+02  0.00000000000E+00 0. -1.
</event>
<event>
 7    1  0.6073302E-013  0.5052886E+02  0.7816164E-02  0.1300439E+00
        -11   -1    0    0    0    0  0.00000000000E+00  0.00000000000E+00  0.45593999997E+02  0.45594000000E+02  0.51100000000E-03 0. -1.
         11   -1    0    0    0    0 -0.00000000000E+00 -0.00000000000E+00 -0.45593999997E+02  0.45594000000E+02  0.51100000000E-03 0.  1.
    9900012    2    1    2    0    0  0.18377263075E+02  0.14054649622E+02 -0.33435145585E+02  0.50528856693E+02  0.29999990404E+02 0.  0.
         12    1    1    2    0    0 -0.18377263075E+02 -0.14054649622E+02  0.33435145585E+02  0.40659143307E+02  0.00000000000E+00 0. -1.
         11    1    3    3    0    0  0.10858005672E+00  0.97624488468E+01 -0.22518583410E+01  0.10019384381E+02  0.51100000000E-03 0. -1.
        -11    1    3    3    0    0  0.21737920953E+02  0.43692113708E+01 -0.28574782079E+02  0.36168292556E+02  0.51100000000E-03 0.  1.
        -12    1    3    3    0    0 -0.34692379342E+01 -0.77010595650E-01 -0.26085051658E+01  0.43411797562E+01  0.00000000000E+00 0.  1.
</event>
<event>
 7    1  0.6073302E-013  0.5052886E+02  0.7816164E-02  0.1300439E+00
        -11   -1    0    0    0    0  0.00000000000E+00  0.00000000000E+00  0.45593999997E+02  0.45594000000E+02  0.51100000000E-03 0.  1.
         11   -1    0    0    0    0 -0.00000000000E+00 -0.00000000000E+00 -0.45593999997E+02  0.45594000000E+02  0.51100000000E-03 0. -1.
    9900012    2    1    2    0    0 -0.98494899568E+01  0.62349922861E+01  0.38952258955E+02  0.50528855162E+02  0.29999985751E+02 0.  0.
         12    1    1    2    0    0  0.98494899568E+01 -0.62349922861E+01 -0.38952258955E+02  0.40659144838E+02  0.00000000000E+00 0. -1.
         11    1    3    3    0    0  0.13482334314E+01 -0.25620906318E+01 -0.77351380100E+00  0.29967258220E+01  0.51100000000E-03 0. -1.
        -11    1    3    3    0    0 -0.12502695105E+01  0.88780703914E+01  0.35686567691E+02  0.36795576114E+02  0.51100000000E-03 0.  1.
        -12    1    3    3    0    0 -0.99474538777E+01 -0.80987473526E-01  0.40392050655E+01  0.10736553226E+02  0.00000000000E+00 0.  1.
</event>
<event>
 7    1  0.6073302E-013  0.5052886E+02  0.7816164E-02  0.1300439E+00
        -11   -1    0    0    0    0  0.00000000000E+00  0.00000000000E+00  0.45593999997E+02  0.45594000000E+02  0.51100000000E-03 0.  1.
         11   -1    0    0    0    0 -0.00000000000E+00 -0.00000000000E+00 -0.45593999997E+02  0.45594000000E+02  0.51100000000E-03 0. -1.
    9900012    2    1    2    0    0  0.10487275851E+01  0.39050331287E+02 -0.11275516630E+02  0.50528862301E+02  0.30000007450E+02 0.  0.
         12    1    1    2    0    0 -0.10487275851E+01 -0.39050331287E+02  0.11275516630E+02  0.40659137699E+02  0.00000000000E+00 0. -1.
         11    1    3    3    0    0  0.86009441947E+00  0.27204322662E+02  0.39161695186E+00  0.27220732870E+02  0.51100000000E-03 0.  1.
        -11    1    3    3    0    0 -0.77663816024E+01  0.41637239989E+01 -0.72059804940E+01  0.11383296354E+02  0.51100000000E-03 0. -1.
         12    1    3    3    0    0  0.79550147681E+01  0.76822846264E+01 -0.44611530882E+01  0.11924833077E+02  0.00000000000E+00 0. -1.
</event>
<event>
 7    1  0.6073302E-013  0.5052887E+02  0.7816164E-02  0.1300439E+00
        -11   -1    0    0    0    0  0.00000000000E+00  0.00000000000E+00  0.45593999997E+02  0.45594000000E+02  0.51100000000E-03 0. -1.
         11   -1    0    0    0    0 -0.00000000000E+00 -0.00000000000E+00 -0.45593999997E+02  0.45594000000E+02  0.51100000000E-03 0.  1.
    9900012    2    1    2    0    0  0.11916894305E+01  0.34826573228E+01 -0.40492174309E+02  0.50528865651E+02  0.30000017633E+02 0.  0.
         12    1    1    2    0    0 -0.11916894305E+01 -0.34826573228E+01  0.40492174309E+02  0.40659134349E+02  0.00000000000E+00 0. -1.
         11    1    3    3    0    0  0.54293124421E+01 -0.28871075246E+01  0.88724689328E+00  0.62128923026E+01  0.51100000000E-03 0. -1.
        -11    1    3    3    0    0 -0.48369100274E+01  0.10346924544E+02 -0.25606493962E+02  0.28038314490E+02  0.51100000000E-03 0.  1.
         12    1    3    3    0    0  0.59928701570E+00 -0.39771596971E+01 -0.15772927240E+02  0.16277658858E+02  0.00000000000E+00 0. -1.
</event>
<event>
 7    1  0.6073302E-013  0.5052886E+02  0.7816164E-02  0.1300439E+00
        -11   -1    0    0    0    0  0.00000000000E+00  0.00000000000E+00  0.45593999997E+02  0.45594000000E+02  0.51100000000E-03 0.  1.
         11   -1    0    0    0    0 -0.00000000000E+00 -0.00000000000E+00 -0.45593999997E+02  0.45594000000E+02  0.51100000000E-03 0. -1.
    9900012    2    1    2    0    0 -0.58429378371E+01  0.11715995568E+02  0.38493650438E+02  0.50528860821E+02  0.30000002952E+02 0.  0.
         12    1    1    2    0    0  0.58429378371E+01 -0.11715995568E+02 -0.38493650438E+02  0.40659139179E+02  0.00000000000E+00 0. -1.
         11    1    3    3    0    0 -0.12834555859E+02 -0.16752522742E+01  0.18767077580E+02  0.22797708117E+02  0.51100000000E-03 0. -1.
        -11    1    3    3    0    0  0.38349545861E+01  0.38693696013E+01  0.16210298814E+02  0.17101248074E+02  0.51100000000E-03 0.  1.
         12    1    3    3    0    0  0.31566634354E+01  0.95218782406E+01  0.35162740442E+01  0.10629904629E+02  0.00000000000E+00 0. -1.
</event>
<event>
 7    1  0.6073302E-013  0.5052886E+02  0.7816164E-02  0.1300439E+00
        -11   -1    0    0    0    0  0.00000000000E+00  0.00000000000E+00  0.45593999997E+02  0.45594000000E+02  0.51100000000E-03 0. -1.
         11   -1    0    0    0    0 -0.00000000000E+00 -0.00000000000E+00 -0.45593999997E+02  0.45594000000E+02  0.51100000000E-03 0.  1.
    9900012    2    1    2    0    0  0.15120954781E+02 -0.48838215308E+00 -0.37739680860E+02  0.50528864470E+02  0.30000014044E+02 0.  0.
         12    1    1    2    0    0 -0.15120954781E+02  0.48838215308E+00  0.37739680860E+02  0.40659135530E+02  0.00000000000E+00 0. -1.
         11    1    3    3    0    0 -0.42780877885E+01  0.13853647350E+01  0.96447308428E+00  0.45990737292E+01  0.51100000000E-03 0. -1.
        -11    1    3    3    0    0  0.10782546456E+02  0.65191683732E+01 -0.17728853500E+02  0.21750289907E+02  0.51100000000E-03 0.  1.
         12    1    3    3    0    0  0.86164961140E+01 -0.83929152612E+01 -0.20975300444E+02  0.24179500834E+02  0.00000000000E+00 0. -1.
</event>
<event>
 7    1  0.6073302E-013  0.5052879E+02  0.7816164E-02  0.1300439E+00
        -11   -1    0    0    0    0  0.00000000000E+00  0.00000000000E+00  0.45593999997E+02  0.45594000000E+02  0.51100000000E-03 0.  1.
         11   -1    0    0    0    0 -0.00000000000E+00 -0.00000000000E+00 -0.45593999997E+02  0.45594000000E+02  0.51100000000E-03 0. -1.
    9900012    2    1    2    0    0 -0.14160586867E+01 -0.16953264707E+02  0.36929022479E+02  0.50528793076E+02  0.29999797033E+02 0.  0.
         12    1    1    2    0    0  0.14160586867E+01  0.16953264707E+02 -0.36929022479E+02  0.40659206924E+02  0.00000000000E+00 0. -1.
         11    1    3    3    0    0  0.17344847479E+01 -0.15823148823E+02  0.30884197403E+01  0.16214771438E+02  0.51100000000E-03 0. -1.
        -11    1    3    3    0    0 -0.33341513783E+01  0.87341305374E+00  0.16434487533E+02  0.16792015856E+02  0.51100000000E-03 0.  1.
         12    1    3    3    0    0  0.18360794365E+00 -0.20035289380E+01  0.17406115206E+02  0.17522005783E+02  0.00000000000E+00 0. -1.
</event>
<event>
 7    1  0.6073302E-013  0.5052887E+02  0.7816164E-02  0.1300439E+00
        -11   -1    0    0    0    0  0.00000000000E+00  0.00000000000E+00  0.45593999997E+02  0.45594000000E+02  0.51100000000E-03 0.  1.
         11   -1    0    0    0    0 -0.00000000000E+00 -0.00000000000E+00 -0.45593999997E+02  0.45594000000E+02  0.51100000000E-03 0. -1.
    9900012    2    1    2    0    0 -0.22623825506E+01  0.43563677791E+01  0.40361721853E+02  0.50528869340E+02  0.30000028847E+02 0.  0.
         12    1    1    2    0    0  0.22623825506E+01 -0.43563677791E+01 -0.40361721853E+02  0.40659130660E+02  0.00000000000E+00 0. -1.
         11    1    3    3    0    0  0.28215345659E+00 -0.10484052061E+02  0.23403779014E+02  0.25646282978E+02  0.51100000000E-03 0. -1.
        -11    1    3    3    0    0 -0.24087621382E+01  0.11375501819E+02  0.54089042271E+01  0.12824212330E+02  0.51100000000E-03 0.  1.
        -12    1    3    3    0    0 -0.13577386897E+00  0.34649180211E+01  0.11549038612E+02  0.12058374032E+02  0.00000000000E+00 0.  1.
</event>
<event>
 7    1  0.6073302E-013  0.5052886E+02  0.7816164E-02  0.1300439E+00
        -11   -1    0    0    0    0  0.00000000000E+00  0.00000000000E+00  0.45593999997E+02  0.45594000000E+02  0.51100000000E-03 0. -1.
         11   -1    0    0    0    0 -0.00000000000E+00 -0.00000000000E+00 -0.45593999997E+02  0.45594000000E+02  0.51100000000E-03 0.  1.
    9900012    2    1    2    0    0 -0.24524019002E+02 -0.34426414049E+01 -0.32247266801E+02  0.50528861987E+02  0.30000006496E+02 0.  0.
         12    1    1    2    0    0  0.24524019002E+02  0.34426414049E+01  0.32247266801E+02  0.40659138013E+02  0.00000000000E+00 0. -1.
         11    1    3    3    0    0 -0.10682479248E+02 -0.10111696104E+01 -0.50697172242E+00  0.10742199377E+02  0.51100000000E-03 0. -1.
        -11    1    3    3    0    0 -0.20618154273E+01  0.29964783998E+01 -0.24821366266E+02  0.25086454297E+02  0.51100000000E-03 0.  1.
        -12    1    3    3    0    0 -0.11779724326E+02 -0.54279501943E+01 -0.69189288128E+01  0.14700208312E+02  0.00000000000E+00 0.  1.
</event>
<event>
 7    1  0.6073302E-013  0.5052887E+02  0.7816164E-02  0.1300439E+00
        -11   -1    0    0    0    0  0.00000000000E+00  0.00000000000E+00  0.45593999997E+02  0.45594000000E+02  0.51100000000E-03 0. -1.
         11   -1    0    0    0    0 -0.00000000000E+00 -0.00000000000E+00 -0.45593999997E+02  0.45594000000E+02  0.51100000000E-03 0.  1.
    9900012    2    1    2    0    0 -0.57705844087E+01 -0.65347329974E+01 -0.39713504107E+02  0.50528870789E+02  0.30000033250E+02 0.  0.
         12    1    1    2    0    0  0.57705844087E+01  0.65347329974E+01  0.39713504107E+02  0.40659129211E+02  0.00000000000E+00 0. -1.
         11    1    3    3    0    0  0.24862910152E+01 -0.73204469178E+01 -0.89368254438E+01  0.11816828482E+02  0.51100000000E-03 0. -1.
        -11    1    3    3    0    0 -0.62981148138E+00  0.81075005988E+01 -0.24753044601E+01  0.85003153408E+01  0.51100000000E-03 0.  1.
        -12    1    3    3    0    0 -0.76270639426E+01 -0.73217866785E+01 -0.28301374203E+02  0.30211726967E+02  0.00000000000E+00 0.  1.
</event>
<event>
 7    1  0.6073302E-013  0.5052888E+02  0.7816164E-02  0.1300439E+00
        -11   -1    0    0    0    0  0.00000000000E+00  0.00000000000E+00  0.45593999997E+02  0.45594000000E+02  0.51100000000E-03 0.  1.
         11   -1    0    0    0    0 -0.00000000000E+00 -0.00000000000E+00 -0.45593999997E+02  0.45594000000E+02  0.51100000000E-03 0. -1.
    9900012    2    1    2    0    0 -0.14837454386E+02  0.57552677229E+00  0.37850800110E+02  0.50528876145E+02  0.30000049531E+02 0.  0.
         12    1    1    2    0    0  0.14837454386E+02 -0.57552677229E+00 -0.37850800110E+02  0.40659123855E+02  0.00000000000E+00 0. -1.
         11    1    3    3    0    0  0.21567803894E+01 -0.40990544273E+01 -0.39327632484E+00  0.46485067899E+01  0.51100000000E-03 0. -1.
        -11    1    3    3    0    0 -0.61257510577E+01  0.94792238365E+01  0.28007766582E+02  0.30196282880E+02  0.51100000000E-03 0.  1.
        -12    1    3    3    0    0 -0.10868483717E+02 -0.48046426369E+01  0.10236309852E+02  0.15684086476E+02  0.00000000000E+00 0.  1.
</event>
<event>
 7    1  0.6073302E-013  0.5052886E+02  0.7816164E-02  0.1300439E+00
        -11   -1    0    0    0    0  0.00000000000E+00  0.00000000000E+00  0.45593999997E+02  0.45594000000E+02  0.51100000000E-03 0.  1.
         11   -1    0    0    0    0 -0.00000000000E+00 -0.00000000000E+00 -0.45593999997E+02  0.45594000000E+02  0.51100000000E-03 0. -1.
    9900012    2    1    2    0    0  0.26774079488E+02  0.88949857324E+01  0.29277873870E+02  0.50528855863E+02  0.29999987882E+02 0.  0.
         12    1    1    2    0    0 -0.26774079488E+02 -0.88949857324E+01 -0.29277873870E+02  0.40659144137E+02  0.00000000000E+00 0. -1.
         11    1    3    3    0    0 -0.21069297738E+01 -0.90691289845E+00 -0.40634631209E+01  0.46661951173E+01  0.51100000000E-03 0. -1.
        -11    1    3    3    0    0  0.26168285751E+01  0.32371190279E+01  0.26355500286E+01  0.49267489896E+01  0.51100000000E-03 0.  1.
         12    1    3    3    0    0  0.26264180687E+02  0.65647796029E+01  0.30705786962E+02  0.40935911756E+02  0.00000000000E+00 0. -1.
</event>
<event>
 7    1  0.6073302E-013  0.5052886E+02  0.7816164E-02  0.1300439E+00
        -11   -1    0    0    0    0  0.00000000000E+00  0.00000000000E+00  0.45593999997E+02  0.45594000000E+02  0.51100000000E-03 0. -1.
         11   -1    0    0    0    0 -0.00000000000E+00 -0.00000000000E+00 -0.45593999997E+02  0.45594000000E+02  0.51100000000E-03 0.  1.
    9900012    2    1    2    0    0 -0.29796608317E+02  0.15297176323E+02  0.23050476214E+02  0.50528856817E+02  0.29999990782E+02 0.  0.
         12    1    1    2    0    0  0.29796608317E+02 -0.15297176323E+02 -0.23050476214E+02  0.40659143183E+02  0.00000000000E+00 0. -1.
         11    1    3    3    0    0  0.16487760894E+01  0.52301770995E+01  0.10853735879E+02  0.12160460430E+02  0.51100000000E-03 0. -1.
        -11    1    3    3    0    0 -0.14370160732E+02  0.60932552298E+01 -0.20963750251E+01  0.15748779865E+02  0.51100000000E-03 0.  1.
         12    1    3    3    0    0 -0.17075223675E+02  0.39737439939E+01  0.14293115360E+02  0.22619616522E+02  0.00000000000E+00 0. -1.
</event>
<event>
 7    1  0.6073302E-013  0.5052886E+02  0.7816164E-02  0.1300439E+00
        -11   -1    0    0    0    0  0.00000000000E+00  0.00000000000E+00  0.45593999997E+02  0.45594000000E+02  0.51100000000E-03 0.  1.
         11   -1    0    0    0    0 -0.00000000000E+00 -0.00000000000E+00 -0.45593999997E+02  0.45594000000E+02  0.51100000000E-03 0. -1.
    9900012    2    1    2    0    0  0.22201595290E+02 -0.28854554368E+02  0.18101641211E+02  0.50528861351E+02  0.30000004562E+02 0.  0.
         12    1    1    2    0    0 -0.22201595290E+02  0.28854554368E+02 -0.18101641211E+02  0.40659138649E+02  0.00000000000E+00 0. -1.
         11    1    3    3    0    0  0.19302871832E+02 -0.70253874133E+01  0.39091317273E+00  0.20545309504E+02  0.51100000000E-03 0. -1.
        -11    1    3    3    0    0  0.11207606780E+01 -0.21360983981E+02  0.18195162063E+02  0.28082230393E+02  0.51100000000E-03 0.  1.
        -12    1    3    3    0    0  0.17779627800E+01 -0.46818297389E+00 -0.48443402426E+00  0.19013214531E+01  0.00000000000E+00 0.  1.
</event>
<event>
 7    1  0.6073302E-013  0.5052887E+02  0.7816164E-02  0.1300439E+00
        -11   -1    0    0    0    0  0.00000000000E+00  0.00000000000E+00  0.45593999997E+02  0.45594000000E+02  0.51100000000E-03 0. -1.
         11   -1    0    0    0    0 -0.00000000000E+00 -0.00000000000E+00 -0.45593999997E+02  0.45594000000E+02  0.51100000000E-03 0.  1.
    9900012    2    1    2    0    0 -0.29607111203E+01  0.34039715576E+02 -0.22038532032E+02  0.50528868910E+02  0.30000027539E+02 0.  0.
         12    1    1    2    0    0  0.29607111203E+01 -0.34039715576E+02  0.22038532032E+02  0.40659131090E+02  0.00000000000E+00 0. -1.
         11    1    3    3    0    0 -0.19208405490E+01  0.78937160166E+01  0.93145668130E+00  0.81772851715E+01  0.51100000000E-03 0. -1.
        -11    1    3    3    0    0  0.20537584614E+01  0.24427551643E+02 -0.27345134172E+02  0.36724372918E+02  0.51100000000E-03 0.  1.
        -12    1    3    3    0    0 -0.30936290327E+01  0.17184479167E+01  0.43751454587E+01  0.56272108206E+01  0.00000000000E+00 0.  1.
</event>
<event>
 7    1  0.6073302E-013  0.5052885E+02  0.7816164E-02  0.1300439E+00
        -11   -1    0    0    0    0  0.00000000000E+00  0.00000000000E+00  0.45593999997E+02  0.45594000000E+02  0.51100000000E-03 0.  1.
         11   -1    0    0    0    0 -0.00000000000E+00 -0.00000000000E+00 -0.45593999997E+02  0.45594000000E+02  0.51100000000E-03 0. -1.
    9900012    2    1    2    0    0 -0.80649485217E+01  0.60291425186E+01  0.39392541796E+02  0.50528852157E+02  0.29999976617E+02 0.  0.
         12    1    1    2    0    0  0.80649485217E+01 -0.60291425186E+01 -0.39392541796E+02  0.40659147843E+02  0.00000000000E+00 0. -1.
         11    1    3    3    0    0  0.53177218556E+01 -0.25570293188E+00  0.23428843792E+01  0.58165846678E+01  0.51100000000E-03 0. -1.
        -11    1    3    3    0    0 -0.38480284716E+01 -0.64453479531E+01  0.20161509086E+02  0.21513630151E+02  0.51100000000E-03 0.  1.
        -12    1    3    3    0    0 -0.95346419057E+01  0.12730193404E+02  0.16888148330E+02  0.23198637339E+02  0.00000000000E+00 0.  1.
</event>
<event>
 7    1  0.6073302E-013  0.5052887E+02  0.7816164E-02  0.1300439E+00
        -11   -1    0    0    0    0  0.00000000000E+00  0.00000000000E+00  0.45593999997E+02  0.45594000000E+02  0.51100000000E-03 0.  1.
         11   -1    0    0    0    0 -0.00000000000E+00 -0.00000000000E+00 -0.45593999997E+02  0.45594000000E+02  0.51100000000E-03 0. -1.
    9900012    2    1    2    0    0  0.29952475185E+02  0.21091193838E+02  0.17640177585E+02  0.50528867047E+02  0.30000021876E+02 0.  0.
         12    1    1    2    0    0 -0.29952475185E+02 -0.21091193838E+02 -0.17640177585E+02  0.40659132953E+02  0.00000000000E+00 0. -1.
         11    1    3    3    0    0  0.36687954768E+00 -0.17643396073E+01 -0.52324342767E+01  0.55340639293E+01  0.51100000000E-03 0. -1.
        -11    1    3    3    0    0  0.18902436658E+02  0.94595544813E+01  0.91063595562E+01  0.23015452792E+02  0.51100000000E-03 0.  1.
         12    1    3    3    0    0  0.10683158980E+02  0.13395978964E+02  0.13766252306E+02  0.21979350326E+02  0.00000000000E+00 0. -1.
</event>
<event>
 7    1  0.6073302E-013  0.5052889E+02  0.7816164E-02  0.1300439E+00
        -11   -1    0    0    0    0  0.00000000000E+00  0.00000000000E+00  0.45593999997E+02  0.45594000000E+02  0.51100000000E-03 0. -1.
         11   -1    0    0    0    0 -0.00000000000E+00 -0.00000000000E+00 -0.45593999997E+02  0.45594000000E+02  0.51100000000E-03 0.  1.
    9900012    2    1    2    0    0 -0.25405777633E+02 -0.70530963489E+01 -0.30950989842E+02  0.50528886908E+02  0.30000082245E+02 0.  0.
         12    1    1    2    0    0  0.25405777633E+02  0.70530963489E+01  0.30950989842E+02  0.40659113092E+02  0.00000000000E+00 0. -1.
         11    1    3    3    0    0 -0.99798262042E+01 -0.70265094273E+01 -0.23713589568E+01  0.12433507524E+02  0.51100000000E-03 0. -1.
        -11    1    3    3    0    0 -0.61176627790E+01 -0.25081713773E+01 -0.27635926472E+02  0.28415860954E+02  0.51100000000E-03 0.  1.
        -12    1    3    3    0    0 -0.93082886501E+01  0.24815844558E+01 -0.94370441306E+00  0.96795184294E+01  0.00000000000E+00 0.  1.
</event>
<event>
 7    1  0.6073302E-013  0.5052887E+02  0.7816164E-02  0.1300439E+00
        -11   -1    0    0    0    0  0.00000000000E+00  0.00000000000E+00  0.45593999997E+02  0.45594000000E+02  0.51100000000E-03 0.  1.
         11   -1    0    0    0    0 -0.00000000000E+00 -0.00000000000E+00 -0.45593999997E+02  0.45594000000E+02  0.51100000000E-03 0. -1.
    9900012    2    1    2    0    0 -0.24603719989E+02  0.19215858870E+02 -0.26049420127E+02  0.50528873615E+02  0.30000041840E+02 0.  0.
         12    1    1    2    0    0  0.24603719989E+02 -0.19215858870E+02  0.26049420127E+02  0.40659126385E+02  0.00000000000E+00 0. -1.
         11    1    3    3    0    0 -0.76273228232E+01  0.50927568746E+01 -0.19017172911E+02  0.21113149737E+02  0.51100000000E-03 0. -1.
        -11    1    3    3    0    0 -0.17297135352E+02  0.16875050453E+02 -0.27580443058E+01  0.24322109855E+02  0.51100000000E-03 0.  1.
        -12    1    3    3    0    0  0.32073818655E+00 -0.27519484566E+01 -0.42742029108E+01  0.50936140230E+01  0.00000000000E+00 0.  1.
</event>
<event>
 7    1  0.6073302E-013  0.5052885E+02  0.7816164E-02  0.1300439E+00
        -11   -1    0    0    0    0  0.00000000000E+00  0.00000000000E+00  0.45593999997E+02  0.45594000000E+02  0.51100000000E-03 0.  1.
         11   -1    0    0    0    0 -0.00000000000E+00 -0.00000000000E+00 -0.45593999997E+02  0.45594000000E+02  0.51100000000E-03 0. -1.
    9900012    2    1    2    0    0 -0.19157401777E+02  0.28552868979E+02  0.21700097575E+02  0.50528848452E+02  0.29999965356E+02 0.  0.
         12    1    1    2    0    0  0.19157401777E+02 -0.28552868979E+02 -0.21700097575E+02  0.40659151548E+02  0.00000000000E+00 0. -1.
         11    1    3    3    0    0  0.18735419035E+01  0.74718027341E+01  0.59129829449E+01  0.97108888846E+01  0.51100000000E-03 0. -1.
        -11    1    3    3    0    0 -0.32535536183E+01 -0.38518654015E+01 -0.19780049507E+01  0.54161778095E+01  0.51100000000E-03 0.  1.
        -12    1    3    3    0    0 -0.17777390063E+02  0.24932931646E+02  0.17765119581E+02  0.35401781758E+02  0.00000000000E+00 0.  1.
</event>
<event>
 7    1  0.6073302E-013  0.5052885E+02  0.7816164E-02  0.1300439E+00
        -11   -1    0    0    0    0  0.00000000000E+00  0.00000000000E+00  0.45593999997E+02  0.45594000000E+02  0.51100000000E-03 0.  1.
         11   -1    0    0    0    0 -0.00000000000E+00 -0.00000000000E+00 -0.45593999997E+02  0.45594000000E+02  0.51100000000E-03 0. -1.
    9900012    2    1    2    0    0  0.32876624544E+02  0.13221108251E+02  0.19937310242E+02  0.50528849929E+02  0.29999969845E+02 0.  0.
         12    1    1    2    0    0 -0.32876624544E+02 -0.13221108251E+02 -0.19937310242E+02  0.40659150071E+02  0.00000000000E+00 0. -1.
         11    1    3    3    0    0  0.30129110054E+02  0.38021488467E+01  0.37830986175E+01  0.30602801243E+02  0.51100000000E-03 0. -1.
        -11    1    3    3    0    0  0.47107783307E+01  0.58056346968E+01  0.92963531407E+01  0.11929753086E+02  0.51100000000E-03 0.  1.
         12    1    3    3    0    0 -0.19632638405E+01  0.36133247076E+01  0.68578584833E+01  0.79962956003E+01  0.00000000000E+00 0. -1.
</event>
<event>
 7    1  0.6073302E-013  0.5052885E+02  0.7816164E-02  0.1300439E+00
        -11   -1    0    0    0    0  0.00000000000E+00  0.00000000000E+00  0.45593999997E+02  0.45594000000E+02  0.51100000000E-03 0.  1.
         11   -1    0    0    0    0 -0.00000000000E+00 -0.00000000000E+00 -0.45593999997E+02  0.45594000000E+02  0.51100000000E-03 0. -1.
    9900012    2    1    2    0    0  0.31760616963E+02  0.21543165181E+02  0.13428406627E+02  0.50528845306E+02  0.29999955792E+02 0.  0.
         12    1    1    2    0    0 -0.31760616963E+02 -0.21543165181E+02 -0.13428406627E+02  0.40659154694E+02  0.00000000000E+00 0. -1.
         11    1    3    3    0    0  0.11800886220E+02  0.72210688638E+01 -0.67193444633E+01  0.15380323189E+02  0.51100000000E-03 0. -1.
        -11    1    3    3    0    0  0.13852161062E+02  0.18498155806E+01  0.14552798655E+02  0.20176425172E+02  0.51100000000E-03 0.  1.
        -12    1    3    3    0    0  0.61075696814E+01  0.12472280736E+02  0.55949524351E+01  0.14972096945E+02  0.00000000000E+00 0.  1.
</event>
<event>
 7    1  0.6073302E-013  0.5052886E+02  0.7816164E-02  0.1300439E+00
        -11   -1    0    0    0    0  0.00000000000E+00  0.00000000000E+00  0.45593999997E+02  0.45594000000E+02  0.51100000000E-03 0.  1.
         11   -1    0    0    0    0 -0.00000000000E+00 -0.00000000000E+00 -0.45593999997E+02  0.45594000000E+02  0.51100000000E-03 0. -1.
    9900012    2    1    2    0    0 -0.25612286354E+02  0.31416477865E+02  0.31908806165E+01  0.50528855729E+02  0.29999987475E+02 0.  0.
         12    1    1    2    0    0  0.25612286354E+02 -0.31416477865E+02 -0.31908806165E+01  0.40659144271E+02  0.00000000000E+00 0. -1.
         11    1    3    3    0    0  0.66642451069E+00  0.12963534797E+02 -0.29151827175E+01  0.13303971084E+02  0.51100000000E-03 0. -1.
        -11    1    3    3    0    0 -0.96883294050E+01  0.10113739275E+01  0.86393851658E+01  0.13020198930E+02  0.51100000000E-03 0.  1.
        -12    1    3    3    0    0 -0.16590381459E+02  0.17441569140E+02 -0.25333218317E+01  0.24204685715E+02  0.00000000000E+00 0.  1.
</event>
<event>
 7    1  0.6073302E-013  0.5052886E+02  0.7816164E-02  0.1300439E+00
        -11   -1    0    0    0    0  0.00000000000E+00  0.00000000000E+00  0.45593999997E+02  0.45594000000E+02  0.51100000000E-03 0.  1.
         11   -1    0    0    0    0 -0.00000000000E+00 -0.00000000000E+00 -0.45593999997E+02  0.45594000000E+02  0.51100000000E-03 0. -1.
    9900012    2    1    2    0    0 -0.24306734466E+02 -0.84054712309E+01  0.31491213557E+02  0.50528858122E+02  0.29999994747E+02 0.  0.
         12    1    1    2    0    0  0.24306734466E+02  0.84054712309E+01 -0.31491213557E+02  0.40659141878E+02  0.00000000000E+00 0. -1.
         11    1    3    3    0    0  0.39755877249E+01 -0.66477787368E+01  0.48022070994E+00  0.77607262600E+01  0.51100000000E-03 0. -1.
        -11    1    3    3    0    0 -0.64196134524E+01 -0.32281082397E+01  0.10710631443E+02  0.12897664357E+02  0.51100000000E-03 0.  1.
         12    1    3    3    0    0 -0.21862708738E+02  0.14704157456E+01  0.20300361403E+02  0.29870467505E+02  0.00000000000E+00 0. -1.
</event>
<event>
 7    1  0.6073302E-013  0.5052886E+02  0.7816164E-02  0.1300439E+00
        -11   -1    0    0    0    0  0.00000000000E+00  0.00000000000E+00  0.45593999997E+02  0.45594000000E+02  0.51100000000E-03 0.  1.
         11   -1    0    0    0    0 -0.00000000000E+00 -0.00000000000E+00 -0.45593999997E+02  0.45594000000E+02  0.51100000000E-03 0. -1.
    9900012    2    1    2    0    0  0.31681431891E+02  0.24152070667E+01  0.25369653808E+02  0.50528859746E+02  0.29999999684E+02 0.  0.
         12    1    1    2    0    0 -0.31681431891E+02 -0.24152070667E+01 -0.25369653808E+02  0.40659140254E+02  0.00000000000E+00 0. -1.
         11    1    3    3    0    0 -0.26956035182E+01 -0.43711389132E+00  0.15143319506E+01  0.31225868121E+01  0.51100000000E-03 0. -1.
        -11    1    3    3    0    0  0.32229184902E+02  0.31078591058E+01  0.27951166926E+02  0.42774371771E+02  0.51100000000E-03 0.  1.
        -12    1    3    3    0    0  0.21478505080E+01 -0.25553814780E+00 -0.40958450689E+01  0.46319011624E+01  0.00000000000E+00 0.  1.
</event>
<event>
 7    1  0.6073302E-013  0.5052886E+02  0.7816164E-02  0.1300439E+00
        -11   -1    0    0    0    0  0.00000000000E+00  0.00000000000E+00  0.45593999997E+02  0.45594000000E+02  0.51100000000E-03 0.  1.
         11   -1    0    0    0    0 -0.00000000000E+00 -0.00000000000E+00 -0.45593999997E+02  0.45594000000E+02  0.51100000000E-03 0. -1.
    9900012    2    1    2    0    0  0.36610209116E+02 -0.16426863287E+02  0.65586699959E+01  0.50528863252E+02  0.30000010341E+02 0.  0.
         12    1    1    2    0    0 -0.36610209116E+02  0.16426863287E+02 -0.65586699959E+01  0.40659136748E+02  0.00000000000E+00 0. -1.
         11    1    3    3    0    0  0.12039114945E+02 -0.26065419615E+01 -0.87247806837E+01  0.15094904700E+02  0.51100000000E-03 0. -1.
        -11    1    3    3    0    0  0.19701068198E+02 -0.16891075745E+02  0.14178927077E+02  0.29571650297E+02  0.51100000000E-03 0.  1.
         12    1    3    3    0    0  0.48700259739E+01  0.30707544202E+01  0.11045236024E+01  0.58623082556E+01  0.00000000000E+00 0. -1.
</event>
<event>
 7    1  0.6073302E-013  0.5052872E+02  0.7816164E-02  0.1300439E+00
        -11   -1    0    0    0    0  0.00000000000E+00  0.00000000000E+00  0.45593999997E+02  0.45594000000E+02  0.51100000000E-03 0.  1.
         11   -1    0    0    0    0 -0.00000000000E+00 -0.00000000000E+00 -0.45593999997E+02  0.45594000000E+02  0.51100000000E-03 0. -1.
    9900012    2    1    2    0    0  0.15160324519E+02 -0.17621667839E+02  0.33358934134E+02  0.50528719343E+02  0.29999572913E+02 0.  0.
         12    1    1    2    0    0 -0.15160324519E+02  0.17621667839E+02 -0.33358934134E+02  0.40659280657E+02  0.00000000000E+00 0. -1.
         11    1    3    3    0    0 -0.53001679913E+01 -0.28830284291E+01 -0.13837325937E+01  0.61901817268E+01  0.51100000000E-03 0. -1.
        -11    1    3    3    0    0  0.82952305591E+01 -0.12283288697E+02  0.22203528057E+02  0.26696192419E+02  0.51100000000E-03 0.  1.
        -12    1    3    3    0    0  0.12165261951E+02 -0.24553507125E+01  0.12539138671E+02  0.17642345197E+02  0.00000000000E+00 0.  1.
</event>
<event>
 7    1  0.6073302E-013  0.5052886E+02  0.7816164E-02  0.1300439E+00
        -11   -1    0    0    0    0  0.00000000000E+00  0.00000000000E+00  0.45593999997E+02  0.45594000000E+02  0.51100000000E-03 0. -1.
         11   -1    0    0    0    0 -0.00000000000E+00 -0.00000000000E+00 -0.45593999997E+02  0.45594000000E+02  0.51100000000E-03 0.  1.
    9900012    2    1    2    0    0 -0.15779848870E+02  0.32810115232E+02 -0.18101344889E+02  0.50528856149E+02  0.29999988750E+02 0.  0.
         12    1    1    2    0    0  0.15779848870E+02 -0.32810115232E+02  0.18101344889E+02  0.40659143851E+02  0.00000000000E+00 0. -1.
         11    1    3    3    0    0 -0.45261290808E+01  0.59000128902E+01  0.10716882735E+01  0.75129563141E+01  0.51100000000E-03 0. -1.
        -11    1    3    3    0    0  0.65514699893E+01  0.14415791549E+02 -0.12767452558E+02  0.20340714100E+02  0.51100000000E-03 0.  1.
        -12    1    3    3    0    0 -0.17805189779E+02  0.12494310793E+02 -0.64055806047E+01  0.22675185735E+02  0.00000000000E+00 0.  1.
</event>
<event>
 7    1  0.6073302E-013  0.5052887E+02  0.7816164E-02  0.1300439E+00
        -11   -1    0    0    0    0  0.00000000000E+00  0.00000000000E+00  0.45593999997E+02  0.45594000000E+02  0.51100000000E-03 0.  1.
         11   -1    0    0    0    0 -0.00000000000E+00 -0.00000000000E+00 -0.45593999997E+02  0.45594000000E+02  0.51100000000E-03 0. -1.
    9900012    2    1    2    0    0 -0.15348438980E+01  0.37388791560E+02  0.15902431960E+02  0.50528870369E+02  0.30000031975E+02 0.  0.
         12    1    1    2    0    0  0.15348438980E+01 -0.37388791560E+02 -0.15902431960E+02  0.40659129631E+02  0.00000000000E+00 0. -1.
         11    1    3    3    0    0 -0.98650769449E+01  0.10388653123E+02  0.13075353941E+01  0.14385878698E+02  0.51100000000E-03 0. -1.
        -11    1    3    3    0    0  0.76364534111E+01  0.27363595776E+02  0.17343609978E+02  0.33284870464E+02  0.51100000000E-03 0.  1.
         12    1    3    3    0    0  0.69377963578E+00 -0.36345733891E+00 -0.27487134118E+01  0.28581212081E+01  0.00000000000E+00 0. -1.
</event>
<event>
 7    1  0.6073302E-013  0.5052881E+02  0.7816164E-02  0.1300439E+00
        -11   -1    0    0    0    0  0.00000000000E+00  0.00000000000E+00  0.45593999997E+02  0.45594000000E+02  0.51100000000E-03 0. -1.
         11   -1    0    0    0    0 -0.00000000000E+00 -0.00000000000E+00 -0.45593999997E+02  0.45594000000E+02  0.51100000000E-03 0.  1.
    9900012    2    1    2    0    0  0.19249039649E+02  0.39472027545E+01 -0.35595839891E+02  0.50528809716E+02  0.29999847612E+02 0.  0.
         12    1    1    2    0    0 -0.19249039649E+02 -0.39472027545E+01  0.35595839891E+02  0.40659190284E+02  0.00000000000E+00 0. -1.
         11    1    3    3    0    0 -0.24909721414E+01 -0.43099643719E+01 -0.13174649766E+02  0.14083754180E+02  0.51100000000E-03 0. -1.
        -11    1    3    3    0    0  0.19686281193E+02  0.11594473502E+02 -0.23075216552E+02  0.32472251265E+02  0.51100000000E-03 0.  1.
        -12    1    3    3    0    0  0.20537305972E+01 -0.33373063758E+01  0.65402642645E+00  0.39728042713E+01  0.00000000000E+00 0.  1.
</event>
<event>
 7    1  0.6073302E-013  0.5052886E+02  0.7816164E-02  0.1300439E+00
        -11   -1    0    0    0    0  0.00000000000E+00  0.00000000000E+00  0.45593999997E+02  0.45594000000E+02  0.51100000000E-03 0.  1.
         11   -1    0    0    0    0 -0.00000000000E+00 -0.00000000000E+00 -0.45593999997E+02  0.45594000000E+02  0.51100000000E-03 0. -1.
    9900012    2    1    2    0    0 -0.56912872225E+01  0.30119979953E+02  0.26712583653E+02  0.50528855050E+02  0.29999985410E+02 0.  0.
         12    1    1    2    0    0  0.56912872225E+01 -0.30119979953E+02 -0.26712583653E+02  0.40659144950E+02  0.00000000000E+00 0. -1.
         11    1    3    3    0    0 -0.11331391423E+02  0.19880344390E+00  0.87256994644E+01  0.14303069104E+02  0.51100000000E-03 0. -1.
        -11    1    3    3    0    0  0.89612323016E-01  0.98877687780E+01  0.96855995904E+01  0.13841489857E+02  0.51100000000E-03 0.  1.
         12    1    3    3    0    0  0.55504918775E+01  0.20033407731E+02  0.83012845985E+01  0.22384296089E+02  0.00000000000E+00 0. -1.
</event>
<event>
 7    1  0.6073302E-013  0.5052887E+02  0.7816164E-02  0.1300439E+00
        -11   -1    0    0    0    0  0.00000000000E+00  0.00000000000E+00  0.45593999997E+02  0.45594000000E+02  0.51100000000E-03 0.  1.
         11   -1    0    0    0    0 -0.00000000000E+00 -0.00000000000E+00 -0.45593999997E+02  0.45594000000E+02  0.51100000000E-03 0. -1.
    9900012    2    1    2    0    0 -0.93601868787E+01  0.39329188424E+02 -0.43320614682E+01  0.50528869205E+02  0.30000028434E+02 0.  0.
         12    1    1    2    0    0  0.93601868787E+01 -0.39329188424E+02  0.43320614682E+01  0.40659130795E+02  0.00000000000E+00 0. -1.
         11    1    3    3    0    0  0.55137914873E+01  0.13093890584E+02  0.23709754498E+01  0.14403936686E+02  0.51100000000E-03 0. -1.
        -11    1    3    3    0    0 -0.17990674855E+02  0.24445981527E+02 -0.92378877118E+01  0.31727101415E+02  0.51100000000E-03 0.  1.
        -12    1    3    3    0    0  0.31166964893E+01  0.17893163126E+01  0.25348507938E+01  0.43978311041E+01  0.00000000000E+00 0.  1.
</event>
<event>
 7    1  0.6073302E-013  0.5052886E+02  0.7816164E-02  0.1300439E+00
        -11   -1    0    0    0    0  0.00000000000E+00  0.00000000000E+00  0.45593999997E+02  0.45594000000E+02  0.51100000000E-03 0. -1.
         11   -1    0    0    0    0 -0.00000000000E+00 -0.00000000000E+00 -0.45593999997E+02  0.45594000000E+02  0.51100000000E-03 0.  1.
    9900012    2    1    2    0    0 -0.31715631859E+02 -0.10987343277E+02  0.22946950947E+02  0.50528861122E+02  0.30000003867E+02 0.  0.
         12    1    1    2    0    0  0.31715631859E+02  0.10987343277E+02 -0.22946950947E+02  0.40659138878E+02  0.00000000000E+00 0. -1.
         11    1    3    3    0    0 -0.14852110636E+02 -0.17473005577E+02  0.18131861407E+02  0.29234491830E+02  0.51100000000E-03 0. -1.
        -11    1    3    3    0    0 -0.13297890943E+02  0.77020927651E+01  0.70570861745E+01  0.16910310524E+02  0.51100000000E-03 0.  1.
         12    1    3    3    0    0 -0.35656302808E+01 -0.12164304653E+01 -0.22419966338E+01  0.43840587681E+01  0.00000000000E+00 0. -1.
</event>
<event>
 7    1  0.6073302E-013  0.5052884E+02  0.7816164E-02  0.1300439E+00
        -11   -1    0    0    0    0  0.00000000000E+00  0.00000000000E+00  0.45593999997E+02  0.45594000000E+02  0.51100000000E-03 0. -1.
         11   -1    0    0    0    0 -0.00000000000E+00 -0.00000000000E+00 -0.45593999997E+02  0.45594000000E+02  0.51100000000E-03 0.  1.
    9900012    2    1    2    0    0 -0.17478530239E+02 -0.95755554782E+01 -0.35439767305E+02  0.50528838810E+02  0.29999936048E+02 0.  0.
         12    1    1    2    0    0  0.17478530239E+02  0.95755554782E+01  0.35439767305E+02  0.40659161190E+02  0.00000000000E+00 0. -1.
         11    1    3    3    0    0 -0.17807998013E+01 -0.10460081979E+01  0.21079447550E+01  0.29510697100E+01  0.51100000000E-03 0. -1.
        -11    1    3    3    0    0 -0.11869357470E+02 -0.16504864713E+02 -0.24941821195E+02  0.32177424551E+02  0.51100000000E-03 0.  1.
        -12    1    3    3    0    0 -0.38283729680E+01  0.79753174332E+01 -0.12605890864E+02  0.15400344549E+02  0.00000000000E+00 0.  1.
</event>
<event>
 7    1  0.6073302E-013  0.5052882E+02  0.7816164E-02  0.1300439E+00
        -11   -1    0    0    0    0  0.00000000000E+00  0.00000000000E+00  0.45593999997E+02  0.45594000000E+02  0.51100000000E-03 0.  1.
         11   -1    0    0    0    0 -0.00000000000E+00 -0.00000000000E+00 -0.45593999997E+02  0.45594000000E+02  0.51100000000E-03 0. -1.
    9900012    2    1    2    0    0  0.25732488727E+02  0.52689344543E-01  0.31480230676E+02  0.50528822984E+02  0.29999887942E+02 0.  0.
         12    1    1    2    0    0 -0.25732488727E+02 -0.52689344543E-01 -0.31480230676E+02  0.40659177016E+02  0.00000000000E+00 0. -1.
         11    1    3    3    0    0 -0.14186437918E+01 -0.28064463877E+01  0.81848625548E+01  0.87681621129E+01  0.51100000000E-03 0. -1.
        -11    1    3    3    0    0  0.20061778014E+02  0.44941601419E+01  0.37408777272E+01  0.20896568591E+02  0.51100000000E-03 0.  1.
        -12    1    3    3    0    0  0.70893545046E+01 -0.16350244096E+01  0.19554490394E+02  0.20864092280E+02  0.00000000000E+00 0.  1.
</event>
<event>
 7    1  0.6073302E-013  0.5052886E+02  0.7816164E-02  0.1300439E+00
        -11   -1    0    0    0    0  0.00000000000E+00  0.00000000000E+00  0.45593999997E+02  0.45594000000E+02  0.51100000000E-03 0.  1.
         11   -1    0    0    0    0 -0.00000000000E+00 -0.00000000000E+00 -0.45593999997E+02  0.45594000000E+02  0.51100000000E-03 0. -1.
    9900012    2    1    2    0    0 -0.16482201066E+02  0.23145727299E+02  0.29082262138E+02  0.50528860619E+02  0.30000002336E+02 0.  0.
         12    1    1    2    0    0  0.16482201066E+02 -0.23145727299E+02 -0.29082262138E+02  0.40659139381E+02  0.00000000000E+00 0. -1.
         11    1    3    3    0    0  0.60058017579E+01 -0.25571408944E+01  0.25265282500E+01  0.69994263742E+01  0.51100000000E-03 0. -1.
        -11    1    3    3    0    0 -0.19072432615E+02  0.21548428711E+02  0.24423757613E+02  0.37744037966E+02  0.51100000000E-03 0.  1.
         12    1    3    3    0    0 -0.34155702085E+01  0.41544394823E+01  0.21319762755E+01  0.57853962786E+01  0.00000000000E+00 0. -1.
</event>
<event>
 7    1  0.6073302E-013  0.5052885E+02  0.7816164E-02  0.1300439E+00
        -11   -1    0    0    0    0  0.00000000000E+00  0.00000000000E+00  0.45593999997E+02  0.45594000000E+02  0.51100000000E-03 0.  1.
         11   -1    0    0    0    0 -0.00000000000E+00 -0.00000000000E+00 -0.45593999997E+02  0.45594000000E+02  0.51100000000E-03 0. -1.
    9900012    2    1    2    0    0 -0.36995074938E+01  0.20893652199E+02  0.34683359238E+02  0.50528850157E+02  0.29999970538E+02 0.  0.
         12    1    1    2    0    0  0.36995074938E+01 -0.20893652199E+02 -0.34683359238E+02  0.40659149843E+02  0.00000000000E+00 0. -1.
         11    1    3    3    0    0  0.34947029160E+01 -0.20750751834E+01  0.64869141607E+01  0.76549945184E+01  0.51100000000E-03 0. -1.
        -11    1    3    3    0    0 -0.88756061256E+01  0.21548303145E+02  0.31328414622E+02  0.39045810473E+02  0.51100000000E-03 0.  1.
        -12    1    3    3    0    0  0.16813957158E+01  0.14204242372E+01 -0.31319695441E+01  0.38280451658E+01  0.00000000000E+00 0.  1.
</event>
<event>
 7    1  0.6073302E-013  0.5052886E+02  0.7816164E-02  0.1300439E+00
        -11   -1    0    0    0    0  0.00000000000E+00  0.00000000000E+00  0.45593999997E+02  0.45594000000E+02  0.51100000000E-03 0.  1.
         11   -1    0    0    0    0 -0.00000000000E+00 -0.00000000000E+00 -0.45593999997E+02  0.45594000000E+02  0.51100000000E-03 0. -1.
    9900012    2    1    2    0    0  0.50543222231E+01  0.40214786472E+02  0.32233960351E+01  0.50528861960E+02  0.30000006414E+02 0.  0.
         12    1    1    2    0    0 -0.50543222231E+01 -0.40214786472E+02 -0.32233960351E+01  0.40659138040E+02  0.00000000000E+00 0. -1.
         11    1    3    3    0    0 -0.66021376800E+01  0.87268360590E+00  0.81827990659E+00  0.67096483431E+01  0.51100000000E-03 0. -1.
        -11    1    3    3    0    0  0.62569576199E+01  0.26976234742E+02  0.85645921323E+01  0.28986531323E+02  0.51100000000E-03 0.  1.
         12    1    3    3    0    0  0.53995022832E+01  0.12365868125E+02 -0.61594760037E+01  0.14832682294E+02  0.00000000000E+00 0. -1.
</event>
<event>
 7    1  0.6073302E-013  0.5052886E+02  0.7816164E-02  0.1300439E+00
        -11   -1    0    0    0    0  0.00000000000E+00  0.00000000000E+00  0.45593999997E+02  0.45594000000E+02  0.51100000000E-03 0. -1.
         11   -1    0    0    0    0 -0.00000000000E+00 -0.00000000000E+00 -0.45593999997E+02  0.45594000000E+02  0.51100000000E-03 0.  1.
    9900012    2    1    2    0    0  0.17611582129E+02  0.35905677735E+02 -0.73335152916E+01  0.50528856315E+02  0.29999989255E+02 0.  0.
         12    1    1    2    0    0 -0.17611582129E+02 -0.35905677735E+02  0.73335152916E+01  0.40659143685E+02  0.00000000000E+00 0. -1.
         11    1    3    3    0    0  0.99340256487E+01  0.22875206387E+01  0.26170499090E-01  0.10194032638E+02  0.51100000000E-03 0. -1.
        -11    1    3    3    0    0  0.71565169519E+01  0.27257058386E+02 -0.13703434137E+02  0.31336034754E+02  0.51100000000E-03 0.  1.
        -12    1    3    3    0    0  0.52103952824E+00  0.63610987105E+01  0.63437483463E+01  0.89987889228E+01  0.00000000000E+00 0.  1.
</event>
<event>
 7    1  0.6073302E-013  0.5052886E+02  0.7816164E-02  0.1300439E+00
        -11   -1    0    0    0    0  0.00000000000E+00  0.00000000000E+00  0.45593999997E+02  0.45594000000E+02  0.51100000000E-03 0.  1.
         11   -1    0    0    0    0 -0.00000000000E+00 -0.00000000000E+00 -0.45593999997E+02  0.45594000000E+02  0.51100000000E-03 0. -1.
    9900012    2    1    2    0    0 -0.14147337246E+02 -0.30572312885E+02  0.22767348095E+02  0.50528860737E+02  0.30000002697E+02 0.  0.
         12    1    1    2    0    0  0.14147337246E+02  0.30572312885E+02 -0.22767348095E+02  0.40659139263E+02  0.00000000000E+00 0. -1.
         11    1    3    3    0    0  0.37531778029E+01  0.35726969601E+01  0.13440685426E+01  0.53532259151E+01  0.51100000000E-03 0. -1.
        -11    1    3    3    0    0 -0.11374792119E+02 -0.29794724000E+02  0.17967138877E+02  0.36605048199E+02  0.51100000000E-03 0.  1.
        -12    1    3    3    0    0 -0.65257229295E+01 -0.43502858451E+01  0.34561406758E+01  0.85705866227E+01  0.00000000000E+00 0.  1.
</event>
<event>
 7    1  0.6073302E-013  0.5052885E+02  0.7816164E-02  0.1300439E+00
        -11   -1    0    0    0    0  0.00000000000E+00  0.00000000000E+00  0.45593999997E+02  0.45594000000E+02  0.51100000000E-03 0.  1.
         11   -1    0    0    0    0 -0.00000000000E+00 -0.00000000000E+00 -0.45593999997E+02  0.45594000000E+02  0.51100000000E-03 0. -1.
    9900012    2    1    2    0    0  0.12303958620E+02  0.33101529914E+02  0.20151117276E+02  0.50528853331E+02  0.29999980184E+02 0.  0.
         12    1    1    2    0    0 -0.12303958620E+02 -0.33101529914E+02 -0.20151117276E+02  0.40659146669E+02  0.00000000000E+00 0. -1.
         11    1    3    3    0    0  0.16773856615E+02  0.19025972258E+02  0.70500123760E+01  0.26325891455E+02  0.51100000000E-03 0. -1.
        -11    1    3    3    0    0 -0.68479132774E+00  0.92208761959E+01  0.15121182255E+02  0.17724098003E+02  0.51100000000E-03 0.  1.
         12    1    3    3    0    0 -0.37851066674E+01  0.48546814603E+01 -0.20200773548E+01  0.64788638729E+01  0.00000000000E+00 0. -1.
</event>
<event>
 7    1  0.6073302E-013  0.5052886E+02  0.7816164E-02  0.1300439E+00
        -11   -1    0    0    0    0  0.00000000000E+00  0.00000000000E+00  0.45593999997E+02  0.45594000000E+02  0.51100000000E-03 0. -1.
         11   -1    0    0    0    0 -0.00000000000E+00 -0.00000000000E+00 -0.45593999997E+02  0.45594000000E+02  0.51100000000E-03 0.  1.
    9900012    2    1    2    0    0 -0.29738062805E+02  0.26520998429E+02 -0.80901327980E+01  0.50528856062E+02  0.29999988487E+02 0.  0.
         12    1    1    2    0    0  0.29738062805E+02 -0.26520998429E+02  0.80901327980E+01  0.40659143938E+02  0.00000000000E+00 0. -1.
         11    1    3    3    0    0 -0.71607880911E+01  0.20938506840E+02  0.13175705705E+01  0.22168309526E+02  0.51100000000E-03 0. -1.
        -11    1    3    3    0    0 -0.81153189280E+01 -0.40903528333E+01 -0.51612190087E+01  0.10451199430E+02  0.51100000000E-03 0.  1.
        -12    1    3    3    0    0 -0.14461955785E+02  0.96728444221E+01 -0.42464843598E+01  0.17909347106E+02  0.00000000000E+00 0.  1.
</event>
<event>
 7    1  0.6073302E-013  0.5052886E+02  0.7816164E-02  0.1300439E+00
        -11   -1    0    0    0    0  0.00000000000E+00  0.00000000000E+00  0.45593999997E+02  0.45594000000E+02  0.51100000000E-03 0.  1.
         11   -1    0    0    0    0 -0.00000000000E+00 -0.00000000000E+00 -0.45593999997E+02  0.45594000000E+02  0.51100000000E-03 0. -1.
    9900012    2    1    2    0    0 -0.33449930009E+02  0.85038023671E+01 -0.21493089993E+02  0.50528863392E+02  0.30000010765E+02 0.  0.
         12    1    1    2    0    0  0.33449930009E+02 -0.85038023671E+01  0.21493089993E+02  0.40659136608E+02  0.00000000000E+00 0. -1.
         11    1    3    3    0    0 -0.49429661769E+01  0.24896053655E+01 -0.17843402467E+02  0.18682025088E+02  0.51100000000E-03 0. -1.
        -11    1    3    3    0    0 -0.23806602559E+02  0.90376165127E+01 -0.53193045728E+01  0.26013993139E+02  0.51100000000E-03 0.  1.
         12    1    3    3    0    0 -0.47003612725E+01 -0.30234195111E+01  0.16696170471E+01  0.58328451647E+01  0.00000000000E+00 0. -1.
</event>
<event>
 7    1  0.6073302E-013  0.5052884E+02  0.7816164E-02  0.1300439E+00
        -11   -1    0    0    0    0  0.00000000000E+00  0.00000000000E+00  0.45593999997E+02  0.45594000000E+02  0.51100000000E-03 0. -1.
         11   -1    0    0    0    0 -0.00000000000E+00 -0.00000000000E+00 -0.45593999997E+02  0.45594000000E+02  0.51100000000E-03 0.  1.
    9900012    2    1    2    0    0  0.29100546559E+02 -0.26147577078E+02 -0.11073835496E+02  0.50528838306E+02  0.29999934514E+02 0.  0.
         12    1    1    2    0    0 -0.29100546559E+02  0.26147577078E+02  0.11073835496E+02  0.40659161694E+02  0.00000000000E+00 0. -1.
         11    1    3    3    0    0  0.24752066944E+02 -0.13414894665E+02 -0.78345701655E+01  0.29223358924E+02  0.51100000000E-03 0.  1.
        -11    1    3    3    0    0 -0.44587425942E+01 -0.69223123824E+01  0.33239019091E+01  0.88795899907E+01  0.51100000000E-03 0. -1.
        -12    1    3    3    0    0  0.88072222091E+01 -0.58103700306E+01 -0.65631672394E+01  0.12425889391E+02  0.00000000000E+00 0.  1.
</event>
<event>
 7    1  0.6073302E-013  0.5052884E+02  0.7816164E-02  0.1300439E+00
        -11   -1    0    0    0    0  0.00000000000E+00  0.00000000000E+00  0.45593999997E+02  0.45594000000E+02  0.51100000000E-03 0.  1.
         11   -1    0    0    0    0 -0.00000000000E+00 -0.00000000000E+00 -0.45593999997E+02  0.45594000000E+02  0.51100000000E-03 0. -1.
    9900012    2    1    2    0    0 -0.64800301915E+01 -0.39972551189E+02  0.36566745990E+01  0.50528844709E+02  0.29999953978E+02 0.  0.
         12    1    1    2    0    0  0.64800301915E+01  0.39972551189E+02 -0.36566745990E+01  0.40659155291E+02  0.00000000000E+00 0. -1.
         11    1    3    3    0    0 -0.80666030103E+01 -0.27354932875E+02  0.90645044324E+01  0.29925368462E+02  0.51100000000E-03 0. -1.
        -11    1    3    3    0    0  0.31485780877E+01 -0.15906112931E+02 -0.40058041511E+01  0.16702228585E+02  0.51100000000E-03 0.  1.
         12    1    3    3    0    0 -0.15620052689E+01  0.32884946171E+01 -0.14020256823E+01  0.39012476620E+01  0.00000000000E+00 0. -1.
</event>
<event>
 7    1  0.6073302E-013  0.5052886E+02  0.7816164E-02  0.1300439E+00
        -11   -1    0    0    0    0  0.00000000000E+00  0.00000000000E+00  0.45593999997E+02  0.45594000000E+02  0.51100000000E-03 0.  1.
         11   -1    0    0    0    0 -0.00000000000E+00 -0.00000000000E+00 -0.45593999997E+02  0.45594000000E+02  0.51100000000E-03 0. -1.
    9900012    2    1    2    0    0  0.22237011580E+02 -0.17875188159E+02  0.28968236812E+02  0.50528858595E+02  0.29999996186E+02 0.  0.
         12    1    1    2    0    0 -0.22237011580E+02  0.17875188159E+02 -0.28968236812E+02  0.40659141405E+02  0.00000000000E+00 0. -1.
         11    1    3    3    0    0 -0.63023221876E+00  0.15973629981E+01 -0.14629256852E+01  0.22558619238E+01  0.51100000000E-03 0. -1.
        -11    1    3    3    0    0  0.13301906130E+02 -0.21687434277E+02  0.28611960664E+02  0.38287462772E+02  0.51100000000E-03 0.  1.
        -12    1    3    3    0    0  0.95653376691E+01  0.22148831193E+01  0.18192018337E+01  0.99855339000E+01  0.00000000000E+00 0.  1.
</event>
<event>
 7    1  0.6073302E-013  0.5052886E+02  0.7816164E-02  0.1300439E+00
        -11   -1    0    0    0    0  0.00000000000E+00  0.00000000000E+00  0.45593999997E+02  0.45594000000E+02  0.51100000000E-03 0.  1.
         11   -1    0    0    0    0 -0.00000000000E+00 -0.00000000000E+00 -0.45593999997E+02  0.45594000000E+02  0.51100000000E-03 0. -1.
    9900012    2    1    2    0    0 -0.23168387675E+00 -0.40194951899E+02  0.61219004976E+01  0.50528862020E+02  0.30000006596E+02 0.  0.
         12    1    1    2    0    0  0.23168387675E+00  0.40194951899E+02 -0.61219004976E+01  0.40659137980E+02  0.00000000000E+00 0. -1.
         11    1    3    3    0    0  0.10403871774E+01 -0.13785117855E+02 -0.30133401697E+00  0.13827605801E+02  0.51100000000E-03 0. -1.
        -11    1    3    3    0    0 -0.12808890014E+02 -0.14437248969E+02  0.54085521862E+01  0.20043808475E+02  0.51100000000E-03 0.  1.
        -12    1    3    3    0    0  0.11536818960E+02 -0.11972585076E+02  0.10146823284E+01  0.16657447744E+02  0.00000000000E+00 0.  1.
</event>
<event>
 7    1  0.6073302E-013  0.5052885E+02  0.7816164E-02  0.1300439E+00
        -11   -1    0    0    0    0  0.00000000000E+00  0.00000000000E+00  0.45593999997E+02  0.45594000000E+02  0.51100000000E-03 0.  1.
         11   -1    0    0    0    0 -0.00000000000E+00 -0.00000000000E+00 -0.45593999997E+02  0.45594000000E+02  0.51100000000E-03 0. -1.
    9900012    2    1    2    0    0 -0.72720698006E+01  0.34089553367E+01  0.39858027578E+02  0.50528851730E+02  0.29999975318E+02 0.  0.
         12    1    1    2    0    0  0.72720698006E+01 -0.34089553367E+01 -0.39858027578E+02  0.40659148270E+02  0.00000000000E+00 0. -1.
         11    1    3    3    0    0 -0.10781540828E+01  0.15389341044E+02  0.23221973197E+02  0.27879280360E+02  0.51100000000E-03 0.  1.
        -11    1    3    3    0    0 -0.63623439148E+01 -0.11532866266E+02  0.17354340348E+02  0.21786682941E+02  0.51100000000E-03 0. -1.
        -12    1    3    3    0    0  0.16842819706E+00 -0.44751944123E+00 -0.71828596757E+00  0.86288842793E+00  0.00000000000E+00 0.  1.
</event>
<event>
 7    1  0.6073302E-013  0.5052886E+02  0.7816164E-02  0.1300439E+00
        -11   -1    0    0    0    0  0.00000000000E+00  0.00000000000E+00  0.45593999997E+02  0.45594000000E+02  0.51100000000E-03 0.  1.
         11   -1    0    0    0    0 -0.00000000000E+00 -0.00000000000E+00 -0.45593999997E+02  0.45594000000E+02  0.51100000000E-03 0. -1.
    9900012    2    1    2    0    0  0.83720824810E+01  0.16716845274E+02  0.36105693082E+02  0.50528858913E+02  0.29999997153E+02 0.  0.
         12    1    1    2    0    0 -0.83720824810E+01 -0.16716845274E+02 -0.36105693082E+02  0.40659141087E+02  0.00000000000E+00 0. -1.
         11    1    3    3    0    0  0.51817324298E+01 -0.46535030966E+01  0.20440031517E+01  0.72583325350E+01  0.51100000000E-03 0. -1.
        -11    1    3    3    0    0  0.23434619741E+01  0.19608947171E+02  0.16884403929E+02  0.25982411734E+02  0.51100000000E-03 0.  1.
        -12    1    3    3    0    0  0.84688807717E+00  0.17614011988E+01  0.17177286001E+02  0.17288114645E+02  0.00000000000E+00 0.  1.
</event>
<event>
 7    1  0.6073302E-013  0.5052886E+02  0.7816164E-02  0.1300439E+00
        -11   -1    0    0    0    0  0.00000000000E+00  0.00000000000E+00  0.45593999997E+02  0.45594000000E+02  0.51100000000E-03 0.  1.
         11   -1    0    0    0    0 -0.00000000000E+00 -0.00000000000E+00 -0.45593999997E+02  0.45594000000E+02  0.51100000000E-03 0. -1.
    9900012    2    1    2    0    0  0.15517147462E+02  0.30293406049E+01  0.37459401025E+02  0.50528862098E+02  0.30000006832E+02 0.  0.
         12    1    1    2    0    0 -0.15517147462E+02 -0.30293406049E+01 -0.37459401025E+02  0.40659137902E+02  0.00000000000E+00 0. -1.
         11    1    3    3    0    0  0.55506037861E+01  0.76724751445E+01  0.99156779903E+01  0.13711190594E+02  0.51100000000E-03 0. -1.
        -11    1    3    3    0    0  0.54346824098E+01 -0.60845742359E+01 -0.68889739305E+00  0.81873314582E+01  0.51100000000E-03 0.  1.
        -12    1    3    3    0    0  0.45318612659E+01  0.14414396962E+01  0.28232620427E+02  0.28630340046E+02  0.00000000000E+00 0.  1.
</event>
<event>
 7    1  0.6073302E-013  0.5052886E+02  0.7816164E-02  0.1300439E+00
        -11   -1    0    0    0    0  0.00000000000E+00  0.00000000000E+00  0.45593999997E+02  0.45594000000E+02  0.51100000000E-03 0.  1.
         11   -1    0    0    0    0 -0.00000000000E+00 -0.00000000000E+00 -0.45593999997E+02  0.45594000000E+02  0.51100000000E-03 0. -1.
    9900012    2    1    2    0    0 -0.23458992564E+02 -0.11606423731E+02  0.31114826944E+02  0.50528857612E+02  0.29999993197E+02 0.  0.
         12    1    1    2    0    0  0.23458992564E+02  0.11606423731E+02 -0.31114826944E+02  0.40659142388E+02  0.00000000000E+00 0. -1.
         11    1    3    3    0    0 -0.84107305449E+01 -0.58627876490E+01  0.50676887827E+01  0.11436526447E+02  0.51100000000E-03 0.  1.
        -11    1    3    3    0    0 -0.15552738460E+02  0.15428321936E+01  0.27513475976E+02  0.31642682650E+02  0.51100000000E-03 0. -1.
        -12    1    3    3    0    0  0.50447644045E+00 -0.72864682756E+01 -0.14663378138E+01  0.74496485148E+01  0.00000000000E+00 0.  1.
</event>
<event>
 7    1  0.6073302E-013  0.5052887E+02  0.7816164E-02  0.1300439E+00
        -11   -1    0    0    0    0  0.00000000000E+00  0.00000000000E+00  0.45593999997E+02  0.45594000000E+02  0.51100000000E-03 0.  1.
         11   -1    0    0    0    0 -0.00000000000E+00 -0.00000000000E+00 -0.45593999997E+02  0.45594000000E+02  0.51100000000E-03 0. -1.
    9900012    2    1    2    0    0  0.50846094237E+01 -0.32960067125E+02  0.23258244862E+02  0.50528865332E+02  0.30000016664E+02 0.  0.
         12    1    1    2    0    0 -0.50846094237E+01  0.32960067125E+02 -0.23258244862E+02  0.40659134668E+02  0.00000000000E+00 0. -1.
         11    1    3    3    0    0 -0.50790832277E+00 -0.80250630466E+00 -0.31408671770E+00  0.10003189295E+01  0.51100000000E-03 0. -1.
        -11    1    3    3    0    0  0.97272124201E+01 -0.38477252309E+01 -0.25718738056E+01  0.10772102211E+02  0.51100000000E-03 0.  1.
        -12    1    3    3    0    0 -0.41346946736E+01 -0.28309835590E+02  0.26144205385E+02  0.38756444191E+02  0.00000000000E+00 0.  1.
</event>
<event>
 7    1  0.6073302E-013  0.5052886E+02  0.7816164E-02  0.1300439E+00
        -11   -1    0    0    0    0  0.00000000000E+00  0.00000000000E+00  0.45593999997E+02  0.45594000000E+02  0.51100000000E-03 0.  1.
         11   -1    0    0    0    0 -0.00000000000E+00 -0.00000000000E+00 -0.45593999997E+02  0.45594000000E+02  0.51100000000E-03 0. -1.
    9900012    2    1    2    0    0 -0.20014349355E+02 -0.22708693608E+02  0.27146021665E+02  0.50528862802E+02  0.30000008971E+02 0.  0.
         12    1    1    2    0    0  0.20014349355E+02  0.22708693608E+02 -0.27146021665E+02  0.40659137198E+02  0.00000000000E+00 0. -1.
         11    1    3    3    0    0  0.39865024084E+01 -0.54977686887E+01  0.41483779140E+01  0.79578075866E+01  0.51100000000E-03 0. -1.
        -11    1    3    3    0    0 -0.14973157587E+02 -0.11914508253E+02  0.21653456588E+01  0.19257198059E+02  0.51100000000E-03 0.  1.
        -12    1    3    3    0    0 -0.90276941769E+01 -0.52964166664E+01  0.20832298093E+02  0.23313857156E+02  0.00000000000E+00 0.  1.
</event>
<event>
 7    1  0.6073302E-013  0.5052886E+02  0.7816164E-02  0.1300439E+00
        -11   -1    0    0    0    0  0.00000000000E+00  0.00000000000E+00  0.45593999997E+02  0.45594000000E+02  0.51100000000E-03 0. -1.
         11   -1    0    0    0    0 -0.00000000000E+00 -0.00000000000E+00 -0.45593999997E+02  0.45594000000E+02  0.51100000000E-03 0.  1.
    9900012    2    1    2    0    0  0.82502895694E+01 -0.34688210059E+02  0.19540380936E+02  0.50528859795E+02  0.29999999834E+02 0.  0.
         12    1    1    2    0    0 -0.82502895694E+01  0.34688210059E+02 -0.19540380936E+02  0.40659140205E+02  0.00000000000E+00 0. -1.
         11    1    3    3    0    0  0.70450657288E+01 -0.10537891140E+02  0.17241409890E+02  0.21399680279E+02  0.51100000000E-03 0. -1.
        -11    1    3    3    0    0 -0.66513328542E+01 -0.50356379325E+01  0.68156573921E-01  0.83428126974E+01  0.51100000000E-03 0.  1.
        -12    1    3    3    0    0  0.78565566948E+01 -0.19114680987E+02  0.22308144719E+01  0.20786366819E+02  0.00000000000E+00 0.  1.
</event>
<event>
 7    1  0.6073302E-013  0.5052886E+02  0.7816164E-02  0.1300439E+00
        -11   -1    0    0    0    0  0.00000000000E+00  0.00000000000E+00  0.45593999997E+02  0.45594000000E+02  0.51100000000E-03 0. -1.
         11   -1    0    0    0    0 -0.00000000000E+00 -0.00000000000E+00 -0.45593999997E+02  0.45594000000E+02  0.51100000000E-03 0.  1.
    9900012    2    1    2    0    0  0.24880918103E+02  0.28176437603E+02 -0.15498190791E+02  0.50528860321E+02  0.30000001431E+02 0.  0.
         12    1    1    2    0    0 -0.24880918103E+02 -0.28176437603E+02  0.15498190791E+02  0.40659139679E+02  0.00000000000E+00 0. -1.
         11    1    3    3    0    0  0.73042863095E+01  0.12557607388E+01 -0.15823873073E+02  0.17473536929E+02  0.51100000000E-03 0. -1.
        -11    1    3    3    0    0  0.15151963690E+02  0.18823409906E+02 -0.21178458743E+01  0.24256711145E+02  0.51100000000E-03 0.  1.
         12    1    3    3    0    0  0.24246681030E+01  0.80972669586E+01  0.24435281570E+01  0.87986122465E+01  0.00000000000E+00 0. -1.
</event>
<event>
 7    1  0.6073302E-013  0.5052888E+02  0.7816164E-02  0.1300439E+00
        -11   -1    0    0    0    0  0.00000000000E+00  0.00000000000E+00  0.45593999997E+02  0.45594000000E+02  0.51100000000E-03 0. -1.
         11   -1    0    0    0    0 -0.00000000000E+00 -0.00000000000E+00 -0.45593999997E+02  0.45594000000E+02  0.51100000000E-03 0.  1.
    9900012    2    1    2    0    0  0.55674939251E+01  0.17573773325E+02 -0.36239886551E+02  0.50528882022E+02  0.30000067394E+02 0.  0.
         12    1    1    2    0    0 -0.55674939251E+01 -0.17573773325E+02  0.36239886551E+02  0.40659117978E+02  0.00000000000E+00 0. -1.
         11    1    3    3    0    0 -0.92448309648E+01  0.99536665707E+01 -0.14092566652E+02  0.19574034149E+02  0.51100000000E-03 0. -1.
        -11    1    3    3    0    0  0.10970834403E+02  0.11238581476E+02 -0.19537365503E+02  0.25067380640E+02  0.51100000000E-03 0.  1.
         12    1    3    3    0    0  0.38414904866E+01 -0.36184747212E+01 -0.26099543960E+01  0.58874672327E+01  0.00000000000E+00 0. -1.
</event>
<event>
 7    1  0.6073302E-013  0.5052886E+02  0.7816164E-02  0.1300439E+00
        -11   -1    0    0    0    0  0.00000000000E+00  0.00000000000E+00  0.45593999997E+02  0.45594000000E+02  0.51100000000E-03 0.  1.
         11   -1    0    0    0    0 -0.00000000000E+00 -0.00000000000E+00 -0.45593999997E+02  0.45594000000E+02  0.51100000000E-03 0. -1.
    9900012    2    1    2    0    0 -0.16433437954E+02 -0.35090865699E+02  0.12318242402E+02  0.50528857924E+02  0.29999994145E+02 0.  0.
         12    1    1    2    0    0  0.16433437954E+02  0.35090865699E+02 -0.12318242402E+02  0.40659142076E+02  0.00000000000E+00 0. -1.
         11    1    3    3    0    0 -0.22952934347E+01 -0.22010057178E+02 -0.21827547617E+01  0.22236802997E+02  0.51100000000E-03 0. -1.
        -11    1    3    3    0    0 -0.12063910563E+02 -0.13979612326E+02  0.16874470547E+02  0.25014301017E+02  0.51100000000E-03 0.  1.
        -12    1    3    3    0    0 -0.20742339562E+01  0.89880380521E+00 -0.23734733838E+01  0.32777539091E+01  0.00000000000E+00 0.  1.
</event>
<event>
 7    1  0.6073302E-013  0.5052886E+02  0.7816164E-02  0.1300439E+00
        -11   -1    0    0    0    0  0.00000000000E+00  0.00000000000E+00  0.45593999997E+02  0.45594000000E+02  0.51100000000E-03 0. -1.
         11   -1    0    0    0    0 -0.00000000000E+00 -0.00000000000E+00 -0.45593999997E+02  0.45594000000E+02  0.51100000000E-03 0.  1.
    9900012    2    1    2    0    0  0.19684422145E+02 -0.15050200798E+02 -0.32236324425E+02  0.50528860416E+02  0.30000001721E+02 0.  0.
         12    1    1    2    0    0 -0.19684422145E+02  0.15050200798E+02  0.32236324425E+02  0.40659139584E+02  0.00000000000E+00 0. -1.
         11    1    3    3    0    0  0.19905014986E+00  0.67717049233E+01 -0.35237864630E+01  0.76362739493E+01  0.51100000000E-03 0. -1.
        -11    1    3    3    0    0  0.14028160450E+02 -0.10387579382E+02 -0.94848547351E+01  0.19865889375E+02  0.51100000000E-03 0.  1.
         12    1    3    3    0    0  0.54572115448E+01 -0.11434326339E+02 -0.19227683227E+02  0.23026697092E+02  0.00000000000E+00 0. -1.
</event>
<event>
 7    1  0.6073302E-013  0.5052887E+02  0.7816164E-02  0.1300439E+00
        -11   -1    0    0    0    0  0.00000000000E+00  0.00000000000E+00  0.45593999997E+02  0.45594000000E+02  0.51100000000E-03 0.  1.
         11   -1    0    0    0    0 -0.00000000000E+00 -0.00000000000E+00 -0.45593999997E+02  0.45594000000E+02  0.51100000000E-03 0. -1.
    9900012    2    1    2    0    0 -0.25030652683E+01  0.38888299190E+02 -0.11601704807E+02  0.50528871824E+02  0.30000036395E+02 0.  0.
         12    1    1    2    0    0  0.25030652683E+01 -0.38888299190E+02  0.11601704807E+02  0.40659128176E+02  0.00000000000E+00 0. -1.
         11    1    3    3    0    0  0.24160164923E+00  0.23454245336E+02  0.17275030491E+01  0.23519019169E+02  0.51100000000E-03 0. -1.
        -11    1    3    3    0    0 -0.50695997236E+01  0.18622471894E+02 -0.12449004097E+02  0.22966823987E+02  0.51100000000E-03 0.  1.
         12    1    3    3    0    0  0.23249328061E+01 -0.31884180396E+01 -0.88020375974E+00  0.40430286676E+01  0.00000000000E+00 0. -1.
</event>
<event>
 7    1  0.6073302E-013  0.5052887E+02  0.7816164E-02  0.1300439E+00
        -11   -1    0    0    0    0  0.00000000000E+00  0.00000000000E+00  0.45593999997E+02  0.45594000000E+02  0.51100000000E-03 0.  1.
         11   -1    0    0    0    0 -0.00000000000E+00 -0.00000000000E+00 -0.45593999997E+02  0.45594000000E+02  0.51100000000E-03 0. -1.
    9900012    2    1    2    0    0 -0.16563320136E+02  0.34555951439E+02  0.13590709120E+02  0.50528871527E+02  0.30000035493E+02 0.  0.
         12    1    1    2    0    0  0.16563320136E+02 -0.34555951439E+02 -0.13590709120E+02  0.40659128473E+02  0.00000000000E+00 0. -1.
         11    1    3    3    0    0 -0.15012701392E+02  0.28033867666E+01 -0.10244899986E+01  0.15306526728E+02  0.51100000000E-03 0. -1.
        -11    1    3    3    0    0  0.12652804600E+01  0.11961972091E+02  0.47762179567E+01  0.12942255181E+02  0.51100000000E-03 0.  1.
         12    1    3    3    0    0 -0.28158992045E+01  0.19790592582E+02  0.98389811618E+01  0.22280089618E+02  0.00000000000E+00 0. -1.
</event>
<event>
 7    1  0.6073302E-013  0.5052885E+02  0.7816164E-02  0.1300439E+00
        -11   -1    0    0    0    0  0.00000000000E+00  0.00000000000E+00  0.45593999997E+02  0.45594000000E+02  0.51100000000E-03 0.  1.
         11   -1    0    0    0    0 -0.00000000000E+00 -0.00000000000E+00 -0.45593999997E+02  0.45594000000E+02  0.51100000000E-03 0. -1.
    9900012    2    1    2    0    0 -0.35113438487E+02 -0.84213656663E+01  0.18689386324E+02  0.50528854372E+02  0.29999983348E+02 0.  0.
         12    1    1    2    0    0  0.35113438487E+02  0.84213656663E+01 -0.18689386324E+02  0.40659145628E+02  0.00000000000E+00 0. -1.
         11    1    3    3    0    0 -0.27041255879E+02  0.51646834046E+01  0.30741309907E+01  0.27701150803E+02  0.51100000000E-03 0. -1.
        -11    1    3    3    0    0 -0.61970480767E+01 -0.82079414580E+01  0.12956129178E+02  0.16541916195E+02  0.51100000000E-03 0.  1.
         12    1    3    3    0    0 -0.18751345311E+01 -0.53781076129E+01  0.26591261548E+01  0.62857873741E+01  0.00000000000E+00 0. -1.
</event>
<event>
 7    1  0.6073302E-013  0.5052886E+02  0.7816164E-02  0.1300439E+00
        -11   -1    0    0    0    0  0.00000000000E+00  0.00000000000E+00  0.45593999997E+02  0.45594000000E+02  0.51100000000E-03 0. -1.
         11   -1    0    0    0    0 -0.00000000000E+00 -0.00000000000E+00 -0.45593999997E+02  0.45594000000E+02  0.51100000000E-03 0.  1.
    9900012    2    1    2    0    0 -0.34577336395E+02  0.17694863130E+02 -0.12019371347E+02  0.50528860057E+02  0.30000000629E+02 0.  0.
         12    1    1    2    0    0  0.34577336395E+02 -0.17694863130E+02  0.12019371347E+02  0.40659139943E+02  0.00000000000E+00 0. -1.
         11    1    3    3    0    0 -0.29549680991E+02  0.13809803865E+02 -0.16414529261E+02  0.36514806593E+02  0.51100000000E-03 0.  1.
        -11    1    3    3    0    0  0.12243916291E+00  0.64132067400E+01 -0.55253142789E+00  0.64381288648E+01  0.51100000000E-03 0. -1.
         12    1    3    3    0    0 -0.51500945670E+01 -0.25281474757E+01  0.49476893411E+01  0.75759245986E+01  0.00000000000E+00 0. -1.
</event>
<event>
 7    1  0.6073302E-013  0.5052887E+02  0.7816164E-02  0.1300439E+00
        -11   -1    0    0    0    0  0.00000000000E+00  0.00000000000E+00  0.45593999997E+02  0.45594000000E+02  0.51100000000E-03 0.  1.
         11   -1    0    0    0    0 -0.00000000000E+00 -0.00000000000E+00 -0.45593999997E+02  0.45594000000E+02  0.51100000000E-03 0. -1.
    9900012    2    1    2    0    0 -0.11647703793E+02 -0.18782156419E+02  0.34128089254E+02  0.50528869666E+02  0.30000029837E+02 0.  0.
         12    1    1    2    0    0  0.11647703793E+02  0.18782156419E+02 -0.34128089254E+02  0.40659130334E+02  0.00000000000E+00 0. -1.
         11    1    3    3    0    0 -0.29520350909E+01  0.41094850448E+01  0.23431756936E+01  0.55760964038E+01  0.51100000000E-03 0. -1.
        -11    1    3    3    0    0 -0.12901269184E+02 -0.23563527168E+02  0.30172603697E+02  0.40398868465E+02  0.51100000000E-03 0.  1.
        -12    1    3    3    0    0  0.42056004815E+01  0.67188570354E+00  0.16123098630E+01  0.45539047973E+01  0.00000000000E+00 0.  1.
</event>
<event>
 7    1  0.6073302E-013  0.5052886E+02  0.7816164E-02  0.1300439E+00
        -11   -1    0    0    0    0  0.00000000000E+00  0.00000000000E+00  0.45593999997E+02  0.45594000000E+02  0.51100000000E-03 0. -1.
         11   -1    0    0    0    0 -0.00000000000E+00 -0.00000000000E+00 -0.45593999997E+02  0.45594000000E+02  0.51100000000E-03 0.  1.
    9900012    2    1    2    0    0  0.27105641768E+02  0.29614996391E+02 -0.64344223578E+01  0.50528860585E+02  0.30000002235E+02 0.  0.
         12    1    1    2    0    0 -0.27105641768E+02 -0.29614996391E+02  0.64344223578E+01  0.40659139415E+02  0.00000000000E+00 0. -1.
         11    1    3    3    0    0  0.30710737428E+01  0.45596803944E+01  0.62957533870E+01  0.83581511235E+01  0.51100000000E-03 0. -1.
        -11    1    3    3    0    0  0.26095577793E+02  0.26736337441E+02 -0.12849293960E+02  0.39508420313E+02  0.51100000000E-03 0.  1.
        -12    1    3    3    0    0 -0.20610097684E+01 -0.16810214444E+01  0.11911821472E+00  0.26622891486E+01  0.00000000000E+00 0.  1.
</event>
<event>
 7    1  0.6073302E-013  0.5052886E+02  0.7816164E-02  0.1300439E+00
        -11   -1    0    0    0    0  0.00000000000E+00  0.00000000000E+00  0.45593999997E+02  0.45594000000E+02  0.51100000000E-03 0.  1.
         11   -1    0    0    0    0 -0.00000000000E+00 -0.00000000000E+00 -0.45593999997E+02  0.45594000000E+02  0.51100000000E-03 0. -1.
    9900012    2    1    2    0    0  0.32271062410E+02  0.71283772260E+01  0.23683964547E+02  0.50528863171E+02  0.30000010096E+02 0.  0.
         12    1    1    2    0    0 -0.32271062410E+02 -0.71283772260E+01 -0.23683964547E+02  0.40659136829E+02  0.00000000000E+00 0. -1.
         11    1    3    3    0    0  0.29018907058E+02  0.13482191969E+02  0.20563634298E+02  0.38035897819E+02  0.51100000000E-03 0. -1.
        -11    1    3    3    0    0  0.58971319803E+01 -0.47740734028E+01  0.48057351520E+01  0.89812601043E+01  0.51100000000E-03 0.  1.
         12    1    3    3    0    0 -0.26449766276E+01 -0.15797413398E+01 -0.16854049030E+01  0.35117052479E+01  0.00000000000E+00 0. -1.
</event>
<event>
 7    1  0.6073302E-013  0.5052885E+02  0.7816164E-02  0.1300439E+00
        -11   -1    0    0    0    0  0.00000000000E+00  0.00000000000E+00  0.45593999997E+02  0.45594000000E+02  0.51100000000E-03 0.  1.
         11   -1    0    0    0    0 -0.00000000000E+00 -0.00000000000E+00 -0.45593999997E+02  0.45594000000E+02  0.51100000000E-03 0. -1.
    9900012    2    1    2    0    0 -0.11187716090E+02 -0.26226788012E+02  0.28985456718E+02  0.50528854634E+02  0.29999984146E+02 0.  0.
         12    1    1    2    0    0  0.11187716090E+02  0.26226788012E+02 -0.28985456718E+02  0.40659145366E+02  0.00000000000E+00 0. -1.
         11    1    3    3    0    0 -0.98937788273E+00 -0.61682858333E+01 -0.53000804170E+01  0.81925253374E+01  0.51100000000E-03 0. -1.
        -11    1    3    3    0    0 -0.32394090017E+01 -0.68731217753E+01  0.21123948806E+02  0.22448937326E+02  0.51100000000E-03 0.  1.
         12    1    3    3    0    0 -0.69589292058E+01 -0.13185380403E+02  0.13161588329E+02  0.19887391971E+02  0.00000000000E+00 0. -1.
</event>
<event>
 7    1  0.6073302E-013  0.5052886E+02  0.7816164E-02  0.1300439E+00
        -11   -1    0    0    0    0  0.00000000000E+00  0.00000000000E+00  0.45593999997E+02  0.45594000000E+02  0.51100000000E-03 0. -1.
         11   -1    0    0    0    0 -0.00000000000E+00 -0.00000000000E+00 -0.45593999997E+02  0.45594000000E+02  0.51100000000E-03 0.  1.
    9900012    2    1    2    0    0 -0.14258201304E+02  0.17526014896E+02 -0.33803970141E+02  0.50528857118E+02  0.29999991697E+02 0.  0.
         12    1    1    2    0    0  0.14258201304E+02 -0.17526014896E+02  0.33803970141E+02  0.40659142882E+02  0.00000000000E+00 0. -1.
         11    1    3    3    0    0 -0.50264204782E+01  0.98593437690E+01 -0.34797683354E+02  0.36515069895E+02  0.51100000000E-03 0. -1.
        -11    1    3    3    0    0 -0.25555656581E+01  0.11955720515E+01 -0.27971837356E+01  0.39729769034E+01  0.51100000000E-03 0.  1.
         12    1    3    3    0    0 -0.66762151674E+01  0.64710990755E+01  0.37908969484E+01  0.10040810320E+02  0.00000000000E+00 0. -1.
</event>
<event>
 7    1  0.6073302E-013  0.5052887E+02  0.7816164E-02  0.1300439E+00
        -11   -1    0    0    0    0  0.00000000000E+00  0.00000000000E+00  0.45593999997E+02  0.45594000000E+02  0.51100000000E-03 0.  1.
         11   -1    0    0    0    0 -0.00000000000E+00 -0.00000000000E+00 -0.45593999997E+02  0.45594000000E+02  0.51100000000E-03 0. -1.
    9900012    2    1    2    0    0 -0.34574339054E+02  0.20852691475E+02  0.47901094280E+01  0.50528870507E+02  0.30000032393E+02 0.  0.
         12    1    1    2    0    0  0.34574339054E+02 -0.20852691475E+02 -0.47901094280E+01  0.40659129493E+02  0.00000000000E+00 0. -1.
         11    1    3    3    0    0 -0.42794329830E+01 -0.33938331084E+01 -0.79736397468E+00  0.55197318225E+01  0.51100000000E-03 0. -1.
        -11    1    3    3    0    0 -0.22401485743E+02  0.21302567064E+02  0.13238711015E+02  0.33628699002E+02  0.51100000000E-03 0.  1.
        -12    1    3    3    0    0 -0.78934203287E+01  0.29439575193E+01 -0.76512376119E+01  0.11380439682E+02  0.00000000000E+00 0.  1.
</event>
<event>
 7    1  0.6073302E-013  0.5052898E+02  0.7816164E-02  0.1300438E+00
        -11   -1    0    0    0    0  0.00000000000E+00  0.00000000000E+00  0.45593999997E+02  0.45594000000E+02  0.51100000000E-03 0. -1.
         11   -1    0    0    0    0 -0.00000000000E+00 -0.00000000000E+00 -0.45593999997E+02  0.45594000000E+02  0.51100000000E-03 0.  1.
    9900012    2    1    2    0    0 -0.38165866547E+02 -0.13817413338E+02 -0.23667380055E+01  0.50528982188E+02  0.30000371857E+02 0.  0.
         12    1    1    2    0    0  0.38165866547E+02  0.13817413338E+02  0.23667380055E+01  0.40659017812E+02  0.00000000000E+00 0. -1.
         11    1    3    3    0    0 -0.33675668762E+02 -0.98622338498E+00 -0.51839726974E+01  0.34086608461E+02  0.51100000000E-03 0.  1.
        -11    1    3    3    0    0  0.19435077587E+01 -0.17191562721E+01  0.24927210808E+01  0.35981077449E+01  0.51100000000E-03 0. -1.
         12    1    3    3    0    0 -0.64337055431E+01 -0.11112033681E+02  0.32451361108E+00  0.12844265983E+02  0.00000000000E+00 0. -1.
</event>
<event>
 7    1  0.6073302E-013  0.5052886E+02  0.7816164E-02  0.1300439E+00
        -11   -1    0    0    0    0  0.00000000000E+00  0.00000000000E+00  0.45593999997E+02  0.45594000000E+02  0.51100000000E-03 0.  1.
         11   -1    0    0    0    0 -0.00000000000E+00 -0.00000000000E+00 -0.45593999997E+02  0.45594000000E+02  0.51100000000E-03 0. -1.
    9900012    2    1    2    0    0 -0.23499443186E+02 -0.17977158586E+02  0.27888412907E+02  0.50528860371E+02  0.30000001584E+02 0.  0.
         12    1    1    2    0    0  0.23499443186E+02  0.17977158586E+02 -0.27888412907E+02  0.40659139629E+02  0.00000000000E+00 0. -1.
         11    1    3    3    0    0 -0.15601596308E+01  0.40092157085E+01 -0.30655098399E+01  0.52825429019E+01  0.51100000000E-03 0. -1.
        -11    1    3    3    0    0  0.10884919630E-01 -0.55875670535E+01  0.47535583841E+01  0.73360303728E+01  0.51100000000E-03 0.  1.
         12    1    3    3    0    0 -0.21950168475E+02 -0.16398807241E+02  0.26200364363E+02  0.37910287097E+02  0.00000000000E+00 0. -1.
</event>
<event>
 7    1  0.6073302E-013  0.5052887E+02  0.7816164E-02  0.1300439E+00
        -11   -1    0    0    0    0  0.00000000000E+00  0.00000000000E+00  0.45593999997E+02  0.45594000000E+02  0.51100000000E-03 0. -1.
         11   -1    0    0    0    0 -0.00000000000E+00 -0.00000000000E+00 -0.45593999997E+02  0.45594000000E+02  0.51100000000E-03 0.  1.
    9900012    2    1    2    0    0 -0.32331211120E+02  0.15441973554E+02  0.19219861829E+02  0.50528870048E+02  0.30000030998E+02 0.  0.
         12    1    1    2    0    0  0.32331211120E+02 -0.15441973554E+02 -0.19219861829E+02  0.40659129952E+02  0.00000000000E+00 0. -1.
         11    1    3    3    0    0 -0.17569836871E+02 -0.32963488655E+01  0.84022513613E+01  0.19752541906E+02  0.51100000000E-03 0. -1.
        -11    1    3    3    0    0 -0.82528456248E+01  0.72973096621E+01  0.13416163721E+02  0.17359540272E+02  0.51100000000E-03 0.  1.
         12    1    3    3    0    0 -0.65085286239E+01  0.11441012757E+02 -0.25985532526E+01  0.13416787870E+02  0.00000000000E+00 0. -1.
</event>
<event>
 7    1  0.6073302E-013  0.5052887E+02  0.7816164E-02  0.1300439E+00
        -11   -1    0    0    0    0  0.00000000000E+00  0.00000000000E+00  0.45593999997E+02  0.45594000000E+02  0.51100000000E-03 0.  1.
         11   -1    0    0    0    0 -0.00000000000E+00 -0.00000000000E+00 -0.45593999997E+02  0.45594000000E+02  0.51100000000E-03 0. -1.
    9900012    2    1    2    0    0  0.15510895228E+02 -0.22382306050E+02  0.30192871598E+02  0.50528868305E+02  0.30000025698E+02 0.  0.
         12    1    1    2    0    0 -0.15510895228E+02  0.22382306050E+02 -0.30192871598E+02  0.40659131695E+02  0.00000000000E+00 0. -1.
         11    1    3    3    0    0 -0.46553980986E+01 -0.63193708901E+00 -0.11898469378E+01  0.48464225917E+01  0.51100000000E-03 0. -1.
        -11    1    3    3    0    0  0.68914922785E+01 -0.17931850477E+02  0.15931824749E+02  0.24957302888E+02  0.51100000000E-03 0.  1.
         12    1    3    3    0    0  0.13274801048E+02 -0.38185184834E+01  0.15450893788E+02  0.20725142825E+02  0.00000000000E+00 0. -1.
</event>
<event>
 7    1  0.6073302E-013  0.5052886E+02  0.7816164E-02  0.1300439E+00
        -11   -1    0    0    0    0  0.00000000000E+00  0.00000000000E+00  0.45593999997E+02  0.45594000000E+02  0.51100000000E-03 0. -1.
         11   -1    0    0    0    0 -0.00000000000E+00 -0.00000000000E+00 -0.45593999997E+02  0.45594000000E+02  0.51100000000E-03 0.  1.
    9900012    2    1    2    0    0  0.76373098434E+01  0.39099372451E+02  0.81287492942E+01  0.50528855975E+02  0.29999988223E+02 0.  0.
         12    1    1    2    0    0 -0.76373098434E+01 -0.39099372451E+02 -0.81287492942E+01  0.40659144025E+02  0.00000000000E+00 0. -1.
         11    1    3    3    0    0  0.13711027297E+01 -0.41936102624E+01  0.21378194214E+01  0.49027096455E+01  0.51100000000E-03 0. -1.
        -11    1    3    3    0    0  0.84311104644E+01  0.21053710545E+02  0.52007005201E+01  0.23267781105E+02  0.51100000000E-03 0.  1.
         12    1    3    3    0    0 -0.21649033507E+01  0.22239272169E+02  0.79022935263E+00  0.22358365225E+02  0.00000000000E+00 0. -1.
</event>
<event>
 7    1  0.6073302E-013  0.5052886E+02  0.7816164E-02  0.1300439E+00
        -11   -1    0    0    0    0  0.00000000000E+00  0.00000000000E+00  0.45593999997E+02  0.45594000000E+02  0.51100000000E-03 0. -1.
         11   -1    0    0    0    0 -0.00000000000E+00 -0.00000000000E+00 -0.45593999997E+02  0.45594000000E+02  0.51100000000E-03 0.  1.
    9900012    2    1    2    0    0  0.18993047739E+02 -0.33621594662E+02 -0.12728640108E+02  0.50528858727E+02  0.29999996587E+02 0.  0.
         12    1    1    2    0    0 -0.18993047739E+02  0.33621594662E+02  0.12728640108E+02  0.40659141273E+02  0.00000000000E+00 0. -1.
         11    1    3    3    0    0  0.10419160870E+02 -0.94211164710E+01  0.30849772225E+01  0.14381704819E+02  0.51100000000E-03 0. -1.
        -11    1    3    3    0    0 -0.46004246495E+01 -0.14796625598E+02 -0.37025834845E+01  0.15931514704E+02  0.51100000000E-03 0.  1.
        -12    1    3    3    0    0  0.13174311519E+02 -0.94038525928E+01 -0.12111033846E+02  0.20215639203E+02  0.00000000000E+00 0.  1.
</event>
<event>
 7    1  0.6073302E-013  0.5052885E+02  0.7816164E-02  0.1300439E+00
        -11   -1    0    0    0    0  0.00000000000E+00  0.00000000000E+00  0.45593999997E+02  0.45594000000E+02  0.51100000000E-03 0. -1.
         11   -1    0    0    0    0 -0.00000000000E+00 -0.00000000000E+00 -0.45593999997E+02  0.45594000000E+02  0.51100000000E-03 0.  1.
    9900012    2    1    2    0    0 -0.29528019908E+02 -0.45590944487E+01 -0.27576745181E+02  0.50528853715E+02  0.29999981351E+02 0.  0.
         12    1    1    2    0    0  0.29528019908E+02  0.45590944487E+01  0.27576745181E+02  0.40659146285E+02  0.00000000000E+00 0. -1.
         11    1    3    3    0    0 -0.14901127982E+02  0.65570851569E+01 -0.33261764448E+01  0.16616330247E+02  0.51100000000E-03 0. -1.
        -11    1    3    3    0    0 -0.65454265131E+01 -0.40281146279E+01 -0.21477401821E+02  0.22811118012E+02  0.51100000000E-03 0.  1.
        -12    1    3    3    0    0 -0.80814654134E+01 -0.70880649776E+01 -0.27731669146E+01  0.11101405456E+02  0.00000000000E+00 0.  1.
</event>
<event>
 7    1  0.6073302E-013  0.5052885E+02  0.7816164E-02  0.1300439E+00
        -11   -1    0    0    0    0  0.00000000000E+00  0.00000000000E+00  0.45593999997E+02  0.45594000000E+02  0.51100000000E-03 0.  1.
         11   -1    0    0    0    0 -0.00000000000E+00 -0.00000000000E+00 -0.45593999997E+02  0.45594000000E+02  0.51100000000E-03 0. -1.
    9900012    2    1    2    0    0 -0.30732363322E+02 -0.24513274386E+02 -0.10382067076E+02  0.50528854740E+02  0.29999984468E+02 0.  0.
         12    1    1    2    0    0  0.30732363322E+02  0.24513274386E+02  0.10382067076E+02  0.40659145260E+02  0.00000000000E+00 0. -1.
         11    1    3    3    0    0 -0.64255328858E+01  0.49884493346E+01 -0.65374156052E+01  0.10435990738E+02  0.51100000000E-03 0. -1.
        -11    1    3    3    0    0 -0.23861195918E+02 -0.23316722426E+02 -0.51464406706E+01  0.33756659597E+02  0.51100000000E-03 0.  1.
         12    1    3    3    0    0 -0.44563451827E+00 -0.61850012945E+01  0.13017891994E+01  0.63362044046E+01  0.00000000000E+00 0. -1.
</event>
<event>
 7    1  0.6073302E-013  0.5052885E+02  0.7816164E-02  0.1300439E+00
        -11   -1    0    0    0    0  0.00000000000E+00  0.00000000000E+00  0.45593999997E+02  0.45594000000E+02  0.51100000000E-03 0.  1.
         11   -1    0    0    0    0 -0.00000000000E+00 -0.00000000000E+00 -0.45593999997E+02  0.45594000000E+02  0.51100000000E-03 0. -1.
    9900012    2    1    2    0    0  0.27234887390E+02  0.25500425568E+02  0.16160311429E+02  0.50528850220E+02  0.29999970730E+02 0.  0.
         12    1    1    2    0    0 -0.27234887390E+02 -0.25500425568E+02 -0.16160311429E+02  0.40659149780E+02  0.00000000000E+00 0. -1.
         11    1    3    3    0    0  0.57976831575E+01  0.11027303983E+01 -0.56646530426E+01  0.81803079820E+01  0.51100000000E-03 0. -1.
        -11    1    3    3    0    0  0.19960405755E+02  0.11002390184E+02  0.12981702729E+02  0.26229658664E+02  0.51100000000E-03 0.  1.
         12    1    3    3    0    0  0.14767984780E+01  0.13395304986E+02  0.88432617432E+01  0.16118883574E+02  0.00000000000E+00 0. -1.
</event>
<event>
 7    1  0.6073302E-013  0.5052887E+02  0.7816164E-02  0.1300439E+00
        -11   -1    0    0    0    0  0.00000000000E+00  0.00000000000E+00  0.45593999997E+02  0.45594000000E+02  0.51100000000E-03 0.  1.
         11   -1    0    0    0    0 -0.00000000000E+00 -0.00000000000E+00 -0.45593999997E+02  0.45594000000E+02  0.51100000000E-03 0. -1.
    9900012    2    1    2    0    0  0.13193900282E+01 -0.29233093937E+02  0.28228537575E+02  0.50528869355E+02  0.30000028891E+02 0.  0.
         12    1    1    2    0    0 -0.13193900282E+01  0.29233093937E+02 -0.28228537575E+02  0.40659130645E+02  0.00000000000E+00 0. -1.
         11    1    3    3    0    0 -0.12436318023E+02 -0.69497363750E+01  0.11886055456E+02  0.18553683090E+02  0.51100000000E-03 0. -1.
        -11    1    3    3    0    0  0.12517577818E+02 -0.14407057408E+02  0.13985447294E+02  0.23661060709E+02  0.51100000000E-03 0.  1.
         12    1    3    3    0    0  0.12381302328E+01 -0.78763001540E+01  0.23570348248E+01  0.83141255556E+01  0.00000000000E+00 0. -1.
</event>
<event>
 7    1  0.6073302E-013  0.5052886E+02  0.7816164E-02  0.1300439E+00
        -11   -1    0    0    0    0  0.00000000000E+00  0.00000000000E+00  0.45593999997E+02  0.45594000000E+02  0.51100000000E-03 0. -1.
         11   -1    0    0    0    0 -0.00000000000E+00 -0.00000000000E+00 -0.45593999997E+02  0.45594000000E+02  0.51100000000E-03 0.  1.
    9900012    2    1    2    0    0 -0.27467683804E+02 -0.29881674318E+02  0.24037128614E+01  0.50528856513E+02  0.29999989856E+02 0.  0.
         12    1    1    2    0    0  0.27467683804E+02  0.29881674318E+02 -0.24037128614E+01  0.40659143487E+02  0.00000000000E+00 0. -1.
         11    1    3    3    0    0  0.48608732116E+01 -0.27233964120E+01  0.32146765607E+00  0.55810678290E+01  0.51100000000E-03 0. -1.
        -11    1    3    3    0    0 -0.33694763752E+02 -0.23987730666E+02  0.11735968764E+01  0.41377840164E+02  0.51100000000E-03 0.  1.
        -12    1    3    3    0    0  0.13662067361E+01 -0.31705472398E+01  0.90864832890E+00  0.35699485194E+01  0.00000000000E+00 0.  1.
</event>
<event>
 7    1  0.6073302E-013  0.5052884E+02  0.7816164E-02  0.1300439E+00
        -11   -1    0    0    0    0  0.00000000000E+00  0.00000000000E+00  0.45593999997E+02  0.45594000000E+02  0.51100000000E-03 0.  1.
         11   -1    0    0    0    0 -0.00000000000E+00 -0.00000000000E+00 -0.45593999997E+02  0.45594000000E+02  0.51100000000E-03 0. -1.
    9900012    2    1    2    0    0 -0.26529337886E+02  0.15669527497E+02  0.26529745675E+02  0.50528840316E+02  0.29999940624E+02 0.  0.
         12    1    1    2    0    0  0.26529337886E+02 -0.15669527497E+02 -0.26529745675E+02  0.40659159684E+02  0.00000000000E+00 0. -1.
         11    1    3    3    0    0 -0.12101901255E+01  0.50568427260E+01 -0.46705315558E+01  0.69892834948E+01  0.51100000000E-03 0. -1.
        -11    1    3    3    0    0 -0.10175059019E+02  0.11299730646E+02  0.15323560641E+02  0.21587664294E+02  0.51100000000E-03 0.  1.
         12    1    3    3    0    0 -0.15144088741E+02 -0.68704587412E+00  0.15876716590E+02  0.21951892527E+02  0.00000000000E+00 0. -1.
</event>
<event>
 7    1  0.6073302E-013  0.5052888E+02  0.7816164E-02  0.1300439E+00
        -11   -1    0    0    0    0  0.00000000000E+00  0.00000000000E+00  0.45593999997E+02  0.45594000000E+02  0.51100000000E-03 0.  1.
         11   -1    0    0    0    0 -0.00000000000E+00 -0.00000000000E+00 -0.45593999997E+02  0.45594000000E+02  0.51100000000E-03 0. -1.
    9900012    2    1    2    0    0  0.21018637901E+02  0.11013831524E+02  0.33016307602E+02  0.50528878124E+02  0.30000055546E+02 0.  0.
         12    1    1    2    0    0 -0.21018637901E+02 -0.11013831524E+02 -0.33016307602E+02  0.40659121876E+02  0.00000000000E+00 0. -1.
         11    1    3    3    0    0 -0.49793856499E+01  0.90384337422E+01  0.72436875465E+01  0.12607877517E+02  0.51100000000E-03 0. -1.
        -11    1    3    3    0    0  0.23513879912E+02  0.48014283389E+01  0.21424181224E+02  0.32170666825E+02  0.51100000000E-03 0.  1.
        -12    1    3    3    0    0  0.24841436388E+01 -0.28260305571E+01  0.43484388317E+01  0.57503337817E+01  0.00000000000E+00 0.  1.
</event>
<event>
 7    1  0.6073302E-013  0.5052886E+02  0.7816164E-02  0.1300439E+00
        -11   -1    0    0    0    0  0.00000000000E+00  0.00000000000E+00  0.45593999997E+02  0.45594000000E+02  0.51100000000E-03 0.  1.
         11   -1    0    0    0    0 -0.00000000000E+00 -0.00000000000E+00 -0.45593999997E+02  0.45594000000E+02  0.51100000000E-03 0. -1.
    9900012    2    1    2    0    0  0.11249692371E+02 -0.17257742543E+02  0.35053960744E+02  0.50528863020E+02  0.30000009634E+02 0.  0.
         12    1    1    2    0    0 -0.11249692371E+02  0.17257742543E+02 -0.35053960744E+02  0.40659136980E+02  0.00000000000E+00 0. -1.
         11    1    3    3    0    0  0.92704667366E+01 -0.74736116734E+01  0.53997083251E+01  0.13074910142E+02  0.51100000000E-03 0. -1.
        -11    1    3    3    0    0 -0.18852709930E+01 -0.16577110719E+01  0.28232419349E+02  0.28343813351E+02  0.51100000000E-03 0.  1.
        -12    1    3    3    0    0  0.38644966276E+01 -0.81264197977E+01  0.14218330697E+01  0.91101395265E+01  0.00000000000E+00 0.  1.
</event>
<event>
 7    1  0.6073302E-013  0.5052886E+02  0.7816164E-02  0.1300439E+00
        -11   -1    0    0    0    0  0.00000000000E+00  0.00000000000E+00  0.45593999997E+02  0.45594000000E+02  0.51100000000E-03 0. -1.
         11   -1    0    0    0    0 -0.00000000000E+00 -0.00000000000E+00 -0.45593999997E+02  0.45594000000E+02  0.51100000000E-03 0.  1.
    9900012    2    1    2    0    0  0.20846757182E+01 -0.12442577592E+02 -0.38652326376E+02  0.50528856573E+02  0.29999990039E+02 0.  0.
         12    1    1    2    0    0 -0.20846757182E+01  0.12442577592E+02  0.38652326376E+02  0.40659143427E+02  0.00000000000E+00 0. -1.
         11    1    3    3    0    0 -0.48446697755E+01 -0.89827954188E+01 -0.77857700414E+00  0.10235605560E+02  0.51100000000E-03 0. -1.
        -11    1    3    3    0    0 -0.12268576485E+01 -0.22805695145E+01 -0.24126765121E+02  0.24265345093E+02  0.51100000000E-03 0.  1.
         12    1    3    3    0    0  0.81562031422E+01 -0.11792126585E+01 -0.13746984250E+02  0.16027905920E+02  0.00000000000E+00 0. -1.
</event>
<event>
 7    1  0.6073302E-013  0.5052886E+02  0.7816164E-02  0.1300439E+00
        -11   -1    0    0    0    0  0.00000000000E+00  0.00000000000E+00  0.45593999997E+02  0.45594000000E+02  0.51100000000E-03 0.  1.
         11   -1    0    0    0    0 -0.00000000000E+00 -0.00000000000E+00 -0.45593999997E+02  0.45594000000E+02  0.51100000000E-03 0. -1.
    9900012    2    1    2    0    0 -0.10903929607E+02 -0.38426692493E+02  0.75933679932E+01  0.50528860630E+02  0.30000002372E+02 0.  0.
         12    1    1    2    0    0  0.10903929607E+02  0.38426692493E+02 -0.75933679932E+01  0.40659139370E+02  0.00000000000E+00 0. -1.
         11    1    3    3    0    0 -0.17138373122E+01  0.23845635508E+01 -0.24049217513E+01  0.37956594356E+01  0.51100000000E-03 0. -1.
        -11    1    3    3    0    0 -0.47957789147E+01 -0.38683591146E+02  0.12893731861E+02  0.41056887862E+02  0.51100000000E-03 0.  1.
        -12    1    3    3    0    0 -0.43943133805E+01 -0.21276648975E+01 -0.28954421164E+01  0.56763133328E+01  0.00000000000E+00 0.  1.
</event>
<event>
 7    1  0.6073302E-013  0.5052885E+02  0.7816164E-02  0.1300439E+00
        -11   -1    0    0    0    0  0.00000000000E+00  0.00000000000E+00  0.45593999997E+02  0.45594000000E+02  0.51100000000E-03 0. -1.
         11   -1    0    0    0    0 -0.00000000000E+00 -0.00000000000E+00 -0.45593999997E+02  0.45594000000E+02  0.51100000000E-03 0.  1.
    9900012    2    1    2    0    0  0.29919481517E+02  0.11803060550E+02  0.24873258092E+02  0.50528848746E+02  0.29999966248E+02 0.  0.
         12    1    1    2    0    0 -0.29919481517E+02 -0.11803060550E+02 -0.24873258092E+02  0.40659151254E+02  0.00000000000E+00 0. -1.
         11    1    3    3    0    0  0.71042075936E+01  0.10143286488E+00 -0.63290693450E+01  0.95151023743E+01  0.51100000000E-03 0. -1.
        -11    1    3    3    0    0  0.15969225257E+02  0.99072126599E+01  0.17939015121E+02  0.25980324898E+02  0.51100000000E-03 0.  1.
         12    1    3    3    0    0  0.68460486658E+01  0.17944150247E+01  0.13263312316E+02  0.15033421474E+02  0.00000000000E+00 0. -1.
</event>
<event>
 7    1  0.6073302E-013  0.5052885E+02  0.7816164E-02  0.1300439E+00
        -11   -1    0    0    0    0  0.00000000000E+00  0.00000000000E+00  0.45593999997E+02  0.45594000000E+02  0.51100000000E-03 0.  1.
         11   -1    0    0    0    0 -0.00000000000E+00 -0.00000000000E+00 -0.45593999997E+02  0.45594000000E+02  0.51100000000E-03 0. -1.
    9900012    2    1    2    0    0  0.30443585239E+02  0.21801184084E+02  0.15844964529E+02  0.50528850838E+02  0.29999972607E+02 0.  0.
         12    1    1    2    0    0 -0.30443585239E+02 -0.21801184084E+02 -0.15844964529E+02  0.40659149162E+02  0.00000000000E+00 0. -1.
         11    1    3    3    0    0  0.17185441267E+01 -0.67429638725E+00 -0.51592244057E+01  0.54795680726E+01  0.51100000000E-03 0. -1.
        -11    1    3    3    0    0  0.28972360167E+02  0.19202344604E+02  0.22538448655E+02  0.41425950320E+02  0.51100000000E-03 0.  1.
        -12    1    3    3    0    0 -0.24731905439E+00  0.32731358671E+01 -0.15342597199E+01  0.36233324450E+01  0.00000000000E+00 0.  1.
</event>
<event>
 7    1  0.6073302E-013  0.5052886E+02  0.7816164E-02  0.1300439E+00
        -11   -1    0    0    0    0  0.00000000000E+00  0.00000000000E+00  0.45593999997E+02  0.45594000000E+02  0.51100000000E-03 0.  1.
         11   -1    0    0    0    0 -0.00000000000E+00 -0.00000000000E+00 -0.45593999997E+02  0.45594000000E+02  0.51100000000E-03 0. -1.
    9900012    2    1    2    0    0  0.32638988426E+01 -0.26102305689E+02  0.31002944744E+02  0.50528856124E+02  0.29999988675E+02 0.  0.
         12    1    1    2    0    0 -0.32638988426E+01  0.26102305689E+02 -0.31002944744E+02  0.40659143876E+02  0.00000000000E+00 0. -1.
         11    1    3    3    0    0 -0.10666102479E+02 -0.60285631658E+01  0.66314055044E+01  0.13931434067E+02  0.51100000000E-03 0. -1.
        -11    1    3    3    0    0  0.51746599253E+01 -0.46535119089E+01  0.15011547357E+02  0.16546263407E+02  0.51100000000E-03 0.  1.
         12    1    3    3    0    0  0.87553413963E+01 -0.15420230614E+02  0.93599918827E+01  0.20051158650E+02  0.00000000000E+00 0. -1.
</event>
<event>
 7    1  0.6073302E-013  0.5052885E+02  0.7816164E-02  0.1300439E+00
        -11   -1    0    0    0    0  0.00000000000E+00  0.00000000000E+00  0.45593999997E+02  0.45594000000E+02  0.51100000000E-03 0.  1.
         11   -1    0    0    0    0 -0.00000000000E+00 -0.00000000000E+00 -0.45593999997E+02  0.45594000000E+02  0.51100000000E-03 0. -1.
    9900012    2    1    2    0    0  0.19603081898E+01 -0.12914114641E+02  0.38503882642E+02  0.50528854121E+02  0.29999982585E+02 0.  0.
         12    1    1    2    0    0 -0.19603081898E+01  0.12914114641E+02 -0.38503882642E+02  0.40659145879E+02  0.00000000000E+00 0. -1.
         11    1    3    3    0    0  0.55112839679E+01 -0.27195858730E+01 -0.40609729648E+00  0.61591650060E+01  0.51100000000E-03 0. -1.
        -11    1    3    3    0    0 -0.93425308264E+01 -0.10503510133E+02  0.33924542646E+02  0.36721672094E+02  0.51100000000E-03 0.  1.
        -12    1    3    3    0    0  0.57915550483E+01  0.30898136483E+00  0.49854372918E+01  0.76480170209E+01  0.00000000000E+00 0.  1.
</event>
<event>
 7    1  0.6073302E-013  0.5052887E+02  0.7816164E-02  0.1300439E+00
        -11   -1    0    0    0    0  0.00000000000E+00  0.00000000000E+00  0.45593999997E+02  0.45594000000E+02  0.51100000000E-03 0.  1.
         11   -1    0    0    0    0 -0.00000000000E+00 -0.00000000000E+00 -0.45593999997E+02  0.45594000000E+02  0.51100000000E-03 0. -1.
    9900012    2    1    2    0    0 -0.36825960713E+01 -0.25375659893E+02  0.31554384761E+02  0.50528870318E+02  0.30000031819E+02 0.  0.
         12    1    1    2    0    0  0.36825960713E+01  0.25375659893E+02 -0.31554384761E+02  0.40659129682E+02  0.00000000000E+00 0. -1.
         11    1    3    3    0    0  0.79606727186E+01 -0.88797828563E+01 -0.87093670678E+00  0.11957482374E+02  0.51100000000E-03 0. -1.
        -11    1    3    3    0    0 -0.50544151661E+01 -0.10519104743E+02  0.14985413391E+02  0.18993717173E+02  0.51100000000E-03 0.  1.
         12    1    3    3    0    0 -0.65888536238E+01 -0.59767722935E+01  0.17439908077E+02  0.19577670772E+02  0.00000000000E+00 0. -1.
</event>
<event>
 7    1  0.6073302E-013  0.5052886E+02  0.7816164E-02  0.1300439E+00
        -11   -1    0    0    0    0  0.00000000000E+00  0.00000000000E+00  0.45593999997E+02  0.45594000000E+02  0.51100000000E-03 0.  1.
         11   -1    0    0    0    0 -0.00000000000E+00 -0.00000000000E+00 -0.45593999997E+02  0.45594000000E+02  0.51100000000E-03 0. -1.
    9900012    2    1    2    0    0  0.25703431500E+02 -0.28501397898E+02  0.13422735172E+02  0.50528857209E+02  0.29999991972E+02 0.  0.
         12    1    1    2    0    0 -0.25703431500E+02  0.28501397898E+02 -0.13422735172E+02  0.40659142791E+02  0.00000000000E+00 0. -1.
         11    1    3    3    0    0 -0.52664427272E+00 -0.14241849104E+02 -0.31370782749E+01  0.14592768088E+02  0.51100000000E-03 0. -1.
        -11    1    3    3    0    0  0.60215058288E+01  0.58776515867E+00  0.31642403549E+00  0.60583929188E+01  0.51100000000E-03 0.  1.
         12    1    3    3    0    0  0.20208569944E+02 -0.14847313953E+02  0.16243389412E+02  0.29877696202E+02  0.00000000000E+00 0. -1.
</event>
<event>
 7    1  0.6073302E-013  0.5052885E+02  0.7816164E-02  0.1300439E+00
        -11   -1    0    0    0    0  0.00000000000E+00  0.00000000000E+00  0.45593999997E+02  0.45594000000E+02  0.51100000000E-03 0.  1.
         11   -1    0    0    0    0 -0.00000000000E+00 -0.00000000000E+00 -0.45593999997E+02  0.45594000000E+02  0.51100000000E-03 0. -1.
    9900012    2    1    2    0    0  0.71735236942E+01  0.90262554624E+01  0.38990178902E+02  0.50528846287E+02  0.29999958773E+02 0.  0.
         12    1    1    2    0    0 -0.71735236942E+01 -0.90262554624E+01 -0.38990178902E+02  0.40659153713E+02  0.00000000000E+00 0. -1.
         11    1    3    3    0    0 -0.44098666983E+01 -0.36361168502E+01 -0.11883219953E+01  0.58378403088E+01  0.51100000000E-03 0. -1.
        -11    1    3    3    0    0  0.96097821583E+01  0.60768705257E+01  0.32257244157E+02  0.34202427829E+02  0.51100000000E-03 0.  1.
         12    1    3    3    0    0  0.19736082342E+01  0.65855017869E+01  0.79212567402E+01  0.10488578149E+02  0.00000000000E+00 0. -1.
</event>
<event>
 7    1  0.6073302E-013  0.5052886E+02  0.7816164E-02  0.1300439E+00
        -11   -1    0    0    0    0  0.00000000000E+00  0.00000000000E+00  0.45593999997E+02  0.45594000000E+02  0.51100000000E-03 0. -1.
         11   -1    0    0    0    0 -0.00000000000E+00 -0.00000000000E+00 -0.45593999997E+02  0.45594000000E+02  0.51100000000E-03 0.  1.
    9900012    2    1    2    0    0 -0.82926848173E+01  0.18163627767E+02 -0.35418636148E+02  0.50528858572E+02  0.29999996115E+02 0.  0.
         12    1    1    2    0    0  0.82926848173E+01 -0.18163627767E+02  0.35418636148E+02  0.40659141428E+02  0.00000000000E+00 0. -1.
         11    1    3    3    0    0 -0.71212995271E+01  0.94580746102E+01 -0.62937100202E+01  0.13408164243E+02  0.51100000000E-03 0. -1.
        -11    1    3    3    0    0  0.49676010073E+01 -0.30004872466E+01 -0.79344378251E+00  0.58574343174E+01  0.51100000000E-03 0.  1.
        -12    1    3    3    0    0 -0.61389862975E+01  0.11706040403E+02 -0.28331482345E+02  0.31263260011E+02  0.00000000000E+00 0.  1.
</event>
<event>
 7    1  0.6073302E-013  0.5052886E+02  0.7816164E-02  0.1300439E+00
        -11   -1    0    0    0    0  0.00000000000E+00  0.00000000000E+00  0.45593999997E+02  0.45594000000E+02  0.51100000000E-03 0. -1.
         11   -1    0    0    0    0 -0.00000000000E+00 -0.00000000000E+00 -0.45593999997E+02  0.45594000000E+02  0.51100000000E-03 0.  1.
    9900012    2    1    2    0    0 -0.30932499519E+02  0.25572338343E+02  0.65116472010E+01  0.50528861248E+02  0.30000004249E+02 0.  0.
         12    1    1    2    0    0  0.30932499519E+02 -0.25572338343E+02 -0.65116472010E+01  0.40659138752E+02  0.00000000000E+00 0. -1.
         11    1    3    3    0    0 -0.18427260208E+02 -0.19895670941E+01 -0.17693159618E+01  0.18618613676E+02  0.51100000000E-03 0. -1.
        -11    1    3    3    0    0 -0.72966463746E+01  0.21905020458E+02  0.69028819195E+01  0.24098148241E+02  0.51100000000E-03 0.  1.
         12    1    3    3    0    0 -0.52085929363E+01  0.56568849789E+01  0.13780812433E+01  0.78120993307E+01  0.00000000000E+00 0. -1.
</event>
<event>
 7    1  0.6073302E-013  0.5052886E+02  0.7816164E-02  0.1300439E+00
        -11   -1    0    0    0    0  0.00000000000E+00  0.00000000000E+00  0.45593999997E+02  0.45594000000E+02  0.51100000000E-03 0.  1.
         11   -1    0    0    0    0 -0.00000000000E+00 -0.00000000000E+00 -0.45593999997E+02  0.45594000000E+02  0.51100000000E-03 0. -1.
    9900012    2    1    2    0    0  0.87181449332E+01  0.26743613152E+02  0.29358789958E+02  0.50528862733E+02  0.30000008763E+02 0.  0.
         12    1    1    2    0    0 -0.87181449332E+01 -0.26743613152E+02 -0.29358789958E+02  0.40659137267E+02  0.00000000000E+00 0. -1.
         11    1    3    3    0    0  0.94153408444E+00 -0.36937650837E+01 -0.34198974067E+01  0.51211410310E+01  0.51100000000E-03 0. -1.
        -11    1    3    3    0    0  0.54010783010E+01  0.21358049767E+02  0.22517679354E+02  0.31502124062E+02  0.51100000000E-03 0.  1.
         12    1    3    3    0    0  0.23755325478E+01  0.90793284696E+01  0.10261008010E+02  0.13905597640E+02  0.00000000000E+00 0. -1.
</event>
<event>
 7    1  0.6073302E-013  0.5052886E+02  0.7816164E-02  0.1300439E+00
        -11   -1    0    0    0    0  0.00000000000E+00  0.00000000000E+00  0.45593999997E+02  0.45594000000E+02  0.51100000000E-03 0.  1.
         11   -1    0    0    0    0 -0.00000000000E+00 -0.00000000000E+00 -0.45593999997E+02  0.45594000000E+02  0.51100000000E-03 0. -1.
    9900012    2    1    2    0    0  0.22016340813E+02 -0.20365244639E+02  0.27453661136E+02  0.50528856357E+02  0.29999989384E+02 0.  0.
         12    1    1    2    0    0 -0.22016340813E+02  0.20365244639E+02 -0.27453661136E+02  0.40659143643E+02  0.00000000000E+00 0. -1.
         11    1    3    3    0    0  0.19774592638E+02  0.86833640579E+00  0.13204589466E+02  0.23793900591E+02  0.51100000000E-03 0. -1.
        -11    1    3    3    0    0 -0.44458073137E+00 -0.17642339421E+02  0.13427849905E+02  0.22175593466E+02  0.51100000000E-03 0.  1.
         12    1    3    3    0    0  0.26863289059E+01 -0.35912416239E+01  0.82122176524E+00  0.45593622997E+01  0.00000000000E+00 0. -1.
</event>
<event>
 7    1  0.6073302E-013  0.5052889E+02  0.7816164E-02  0.1300439E+00
        -11   -1    0    0    0    0  0.00000000000E+00  0.00000000000E+00  0.45593999997E+02  0.45594000000E+02  0.51100000000E-03 0. -1.
         11   -1    0    0    0    0 -0.00000000000E+00 -0.00000000000E+00 -0.45593999997E+02  0.45594000000E+02  0.51100000000E-03 0.  1.
    9900012    2    1    2    0    0  0.97849839683E+01  0.38456824612E+02 -0.88594553685E+01  0.50528890075E+02  0.30000091871E+02 0.  0.
         12    1    1    2    0    0 -0.97849839683E+01 -0.38456824612E+02  0.88594553685E+01  0.40659109925E+02  0.00000000000E+00 0. -1.
         11    1    3    3    0    0 -0.83078749841E+01  0.84158794610E+01 -0.72354212742E+01  0.13863590268E+02  0.51100000000E-03 0. -1.
        -11    1    3    3    0    0  0.63347757133E+01  0.46643853381E+01  0.27982168509E+01  0.83496042856E+01  0.51100000000E-03 0.  1.
         12    1    3    3    0    0  0.11758083239E+02  0.25376559813E+02 -0.44222509452E+01  0.28315695521E+02  0.00000000000E+00 0. -1.
</event>
<event>
 7    1  0.6073302E-013  0.5052889E+02  0.7816164E-02  0.1300439E+00
        -11   -1    0    0    0    0  0.00000000000E+00  0.00000000000E+00  0.45593999997E+02  0.45594000000E+02  0.51100000000E-03 0.  1.
         11   -1    0    0    0    0 -0.00000000000E+00 -0.00000000000E+00 -0.45593999997E+02  0.45594000000E+02  0.51100000000E-03 0. -1.
    9900012    2    1    2    0    0  0.38082240400E+02  0.32614588480E+01 -0.13866123670E+02  0.50528886220E+02  0.30000080155E+02 0.  0.
         12    1    1    2    0    0 -0.38082240400E+02 -0.32614588480E+01  0.13866123670E+02  0.40659113780E+02  0.00000000000E+00 0. -1.
         11    1    3    3    0    0  0.29983135512E+02  0.15614149521E+02 -0.99544259122E+01  0.35240327410E+02  0.51100000000E-03 0. -1.
        -11    1    3    3    0    0  0.27148427410E+01 -0.45772094988E+01 -0.14453650033E+01  0.55145533054E+01  0.51100000000E-03 0.  1.
         12    1    3    3    0    0  0.53842621468E+01 -0.77754811744E+01 -0.24663327548E+01  0.97740055053E+01  0.00000000000E+00 0. -1.
</event>
<event>
 7    1  0.6073302E-013  0.5052885E+02  0.7816164E-02  0.1300439E+00
        -11   -1    0    0    0    0  0.00000000000E+00  0.00000000000E+00  0.45593999997E+02  0.45594000000E+02  0.51100000000E-03 0.  1.
         11   -1    0    0    0    0 -0.00000000000E+00 -0.00000000000E+00 -0.45593999997E+02  0.45594000000E+02  0.51100000000E-03 0. -1.
    9900012    2    1    2    0    0 -0.54666919017E+01  0.10321812138E+02  0.38945374086E+02  0.50528847416E+02  0.29999962206E+02 0.  0.
         12    1    1    2    0    0  0.54666919017E+01 -0.10321812138E+02 -0.38945374086E+02  0.40659152584E+02  0.00000000000E+00 0. -1.
         11    1    3    3    0    0  0.65196878785E+00 -0.42326937510E+01 -0.27656966802E+01  0.50980229578E+01  0.51100000000E-03 0. -1.
        -11    1    3    3    0    0 -0.37157139601E+01  0.14677211022E+02  0.31633567819E+02  0.35070067962E+02  0.51100000000E-03 0.  1.
        -12    1    3    3    0    0 -0.24029467295E+01 -0.12270513321E+00  0.10077502947E+02  0.10360756496E+02  0.00000000000E+00 0.  1.
</event>
<event>
 7    1  0.6073302E-013  0.5052886E+02  0.7816164E-02  0.1300439E+00
        -11   -1    0    0    0    0  0.00000000000E+00  0.00000000000E+00  0.45593999997E+02  0.45594000000E+02  0.51100000000E-03 0. -1.
         11   -1    0    0    0    0 -0.00000000000E+00 -0.00000000000E+00 -0.45593999997E+02  0.45594000000E+02  0.51100000000E-03 0.  1.
    9900012    2    1    2    0    0  0.38143190330E+02  0.12007297112E+02 -0.73544254094E+01  0.50528859261E+02  0.29999998210E+02 0.  0.
         12    1    1    2    0    0 -0.38143190330E+02 -0.12007297112E+02  0.73544254094E+01  0.40659140739E+02  0.00000000000E+00 0. -1.
         11    1    3    3    0    0  0.74430389430E+01 -0.77580274639E+00 -0.13608550058E+02  0.15530400302E+02  0.51100000000E-03 0. -1.
        -11    1    3    3    0    0  0.15753869978E+02  0.10942381756E+02  0.53440588532E+01  0.19911783021E+02  0.51100000000E-03 0.  1.
         12    1    3    3    0    0  0.14946281409E+02  0.18407181027E+01  0.91006579542E+00  0.15086675938E+02  0.00000000000E+00 0. -1.
</event>
<event>
 7    1  0.6398400E-013  0.5052887E+02  0.7816164E-02  0.1300439E+00
        -11   -1    0    0    0    0  0.00000000000E+00  0.00000000000E+00  0.45593999997E+02  0.45594000000E+02  0.51100000000E-03 0.  1.
         11   -1    0    0    0    0 -0.00000000000E+00 -0.00000000000E+00 -0.45593999997E+02  0.45594000000E+02  0.51100000000E-03 0. -1.
    9900012    2    1    2    0    0  0.80455196928E+01 -0.32748680302E+02  0.22714726258E+02  0.50528865262E+02  0.30000016450E+02 0.  0.
         12    1    1    2    0    0 -0.80455196928E+01  0.32748680302E+02 -0.22714726258E+02  0.40659134738E+02  0.00000000000E+00 0. -1.
         11    1    3    3    0    0  0.75975372588E+01 -0.10139766515E+02 -0.11586754997E+01  0.12723205828E+02  0.51100000000E-03 0. -1.
        -11    1    3    3    0    0  0.42022738029E+01 -0.21953645565E+02  0.25278804210E+02  0.33743734252E+02  0.51100000000E-03 0.  1.
         12    1    3    3    0    0 -0.37542913689E+01 -0.65526822210E+00 -0.14054024522E+01  0.40619251813E+01  0.00000000000E+00 0. -1.
</event>
<event>
 7    1  0.6073302E-013  0.5052888E+02  0.7816164E-02  0.1300439E+00
        -11   -1    0    0    0    0  0.00000000000E+00  0.00000000000E+00  0.45593999997E+02  0.45594000000E+02  0.51100000000E-03 0.  1.
         11   -1    0    0    0    0 -0.00000000000E+00 -0.00000000000E+00 -0.45593999997E+02  0.45594000000E+02  0.51100000000E-03 0. -1.
    9900012    2    1    2    0    0 -0.24888369774E+02  0.31498425018E+02  0.64484488814E+01  0.50528877757E+02  0.30000054430E+02 0.  0.
         12    1    1    2    0    0  0.24888369774E+02 -0.31498425018E+02 -0.64484488814E+01  0.40659122243E+02  0.00000000000E+00 0. -1.
         11    1    3    3    0    0 -0.21176012427E+02  0.16218665154E+02 -0.16974855244E+01  0.26727327945E+02  0.51100000000E-03 0. -1.
        -11    1    3    3    0    0  0.35397597583E+01 -0.50123877844E+00  0.50073946778E+01  0.61526531821E+01  0.51100000000E-03 0.  1.
        -12    1    3    3    0    0 -0.72521171049E+01  0.15780998642E+02  0.31385397281E+01  0.17648896630E+02  0.00000000000E+00 0.  1.
</event>
<event>
 7    1  0.6073302E-013  0.5052885E+02  0.7816164E-02  0.1300439E+00
        -11   -1    0    0    0    0  0.00000000000E+00  0.00000000000E+00  0.45593999997E+02  0.45594000000E+02  0.51100000000E-03 0.  1.
         11   -1    0    0    0    0 -0.00000000000E+00 -0.00000000000E+00 -0.45593999997E+02  0.45594000000E+02  0.51100000000E-03 0. -1.
    9900012    2    1    2    0    0 -0.16287977743E+02  0.42896472989E+01  0.37006307493E+02  0.50528854815E+02  0.29999984697E+02 0.  0.
         12    1    1    2    0    0  0.16287977743E+02 -0.42896472989E+01 -0.37006307493E+02  0.40659145185E+02  0.00000000000E+00 0. -1.
         11    1    3    3    0    0  0.60458084368E+01 -0.28242422500E+01  0.90292098289E+01  0.11227411738E+02  0.51100000000E-03 0. -1.
        -11    1    3    3    0    0 -0.14699309210E+02  0.10993003074E+02  0.22891500675E+02  0.29341721340E+02  0.51100000000E-03 0.  1.
        -12    1    3    3    0    0 -0.76344769697E+01 -0.38791135247E+01  0.50855969893E+01  0.99597217369E+01  0.00000000000E+00 0.  1.
</event>
<event>
 7    1  0.6073302E-013  0.5052886E+02  0.7816164E-02  0.1300439E+00
        -11   -1    0    0    0    0  0.00000000000E+00  0.00000000000E+00  0.45593999997E+02  0.45594000000E+02  0.51100000000E-03 0.  1.
         11   -1    0    0    0    0 -0.00000000000E+00 -0.00000000000E+00 -0.45593999997E+02  0.45594000000E+02  0.51100000000E-03 0. -1.
    9900012    2    1    2    0    0  0.38421579414E+02 -0.54551632448E+01 -0.12132140916E+02  0.50528863094E+02  0.30000009861E+02 0.  0.
         12    1    1    2    0    0 -0.38421579414E+02  0.54551632448E+01  0.12132140916E+02  0.40659136906E+02  0.00000000000E+00 0. -1.
         11    1    3    3    0    0  0.27534339467E+01  0.68134087993E+01 -0.50398112121E+01  0.89108717464E+01  0.51100000000E-03 0. -1.
        -11    1    3    3    0    0  0.25093336386E+02 -0.11798812291E+02 -0.11671070385E+02  0.30084902969E+02  0.51100000000E-03 0.  1.
         12    1    3    3    0    0  0.10574809081E+02 -0.46975975275E+00  0.45787406805E+01  0.11533088379E+02  0.00000000000E+00 0. -1.
</event>
<event>
 7    1  0.6073302E-013  0.5052888E+02  0.7816164E-02  0.1300439E+00
        -11   -1    0    0    0    0  0.00000000000E+00  0.00000000000E+00  0.45593999997E+02  0.45594000000E+02  0.51100000000E-03 0. -1.
         11   -1    0    0    0    0 -0.00000000000E+00 -0.00000000000E+00 -0.45593999997E+02  0.45594000000E+02  0.51100000000E-03 0.  1.
    9900012    2    1    2    0    0  0.39734193639E+02 -0.83941311494E+01  0.19740295170E+01  0.50528875878E+02  0.30000048718E+02 0.  0.
         12    1    1    2    0    0 -0.39734193639E+02  0.83941311494E+01 -0.19740295170E+01  0.40659124122E+02  0.00000000000E+00 0. -1.
         11    1    3    3    0    0  0.41923287482E+01  0.14418672670E+01  0.40990317674E+01  0.60379353458E+01  0.51100000000E-03 0. -1.
        -11    1    3    3    0    0  0.54560576721E+01 -0.12037704848E+02 -0.51261379609E+01  0.14175760791E+02  0.51100000000E-03 0.  1.
        -12    1    3    3    0    0  0.30085807218E+02  0.22017064320E+01  0.30011357105E+01  0.30315179741E+02  0.00000000000E+00 0.  1.
</event>
<event>
 7    1  0.6073302E-013  0.5052885E+02  0.7816164E-02  0.1300439E+00
        -11   -1    0    0    0    0  0.00000000000E+00  0.00000000000E+00  0.45593999997E+02  0.45594000000E+02  0.51100000000E-03 0. -1.
         11   -1    0    0    0    0 -0.00000000000E+00 -0.00000000000E+00 -0.45593999997E+02  0.45594000000E+02  0.51100000000E-03 0.  1.
    9900012    2    1    2    0    0 -0.26127879752E+01 -0.21080873183E+02 -0.34668955995E+02  0.50528851153E+02  0.29999973566E+02 0.  0.
         12    1    1    2    0    0  0.26127879752E+01  0.21080873183E+02  0.34668955995E+02  0.40659148847E+02  0.00000000000E+00 0. -1.
         11    1    3    3    0    0 -0.62654745290E+01 -0.25123154313E+02 -0.15748882503E+02  0.30306044844E+02  0.51100000000E-03 0. -1.
        -11    1    3    3    0    0  0.21978738473E+01 -0.16348263759E+00 -0.10169770370E+02  0.10405844784E+02  0.51100000000E-03 0.  1.
         12    1    3    3    0    0  0.14548127064E+01  0.42057637676E+01 -0.87503031212E+01  0.98169615255E+01  0.00000000000E+00 0. -1.
</event>
<event>
 7    1  0.6073302E-013  0.5052888E+02  0.7816164E-02  0.1300439E+00
        -11   -1    0    0    0    0  0.00000000000E+00  0.00000000000E+00  0.45593999997E+02  0.45594000000E+02  0.51100000000E-03 0.  1.
         11   -1    0    0    0    0 -0.00000000000E+00 -0.00000000000E+00 -0.45593999997E+02  0.45594000000E+02  0.51100000000E-03 0. -1.
    9900012    2    1    2    0    0 -0.21013887800E+02 -0.10379301390E+01  0.34792289960E+02  0.50528877775E+02  0.30000054484E+02 0.  0.
         12    1    1    2    0    0  0.21013887800E+02  0.10379301390E+01 -0.34792289960E+02  0.40659122225E+02  0.00000000000E+00 0. -1.
         11    1    3    3    0    0 -0.21031533968E+02  0.17234051196E+01  0.11866354822E+02  0.24209624600E+02  0.51100000000E-03 0. -1.
        -11    1    3    3    0    0 -0.19075183734E+01  0.24848342446E+01  0.19530929109E+02  0.19780551552E+02  0.51100000000E-03 0.  1.
         12    1    3    3    0    0  0.19251645414E+01 -0.52461695031E+01  0.33950060291E+01  0.65387016223E+01  0.00000000000E+00 0. -1.
</event>
<event>
 7    1  0.6073302E-013  0.5052886E+02  0.7816164E-02  0.1300439E+00
        -11   -1    0    0    0    0  0.00000000000E+00  0.00000000000E+00  0.45593999997E+02  0.45594000000E+02  0.51100000000E-03 0. -1.
         11   -1    0    0    0    0 -0.00000000000E+00 -0.00000000000E+00 -0.45593999997E+02  0.45594000000E+02  0.51100000000E-03 0.  1.
    9900012    2    1    2    0    0 -0.29130377790E+02  0.28286492937E+02 -0.21121018904E+01  0.50528861208E+02  0.30000004128E+02 0.  0.
         12    1    1    2    0    0  0.29130377790E+02 -0.28286492937E+02  0.21121018904E+01  0.40659138792E+02  0.00000000000E+00 0. -1.
         11    1    3    3    0    0 -0.30643371831E+02  0.18648342492E+02  0.26360775746E+01  0.35968400300E+02  0.51100000000E-03 0. -1.
        -11    1    3    3    0    0 -0.20630433506E+01  0.95245913207E+01 -0.50384433135E+01  0.10970865917E+02  0.51100000000E-03 0.  1.
         12    1    3    3    0    0  0.35760373912E+01  0.11355912498E+00  0.29026384854E+00  0.35895949911E+01  0.00000000000E+00 0. -1.
</event>
<event>
 7    1  0.6073302E-013  0.5052887E+02  0.7816164E-02  0.1300439E+00
        -11   -1    0    0    0    0  0.00000000000E+00  0.00000000000E+00  0.45593999997E+02  0.45594000000E+02  0.51100000000E-03 0. -1.
         11   -1    0    0    0    0 -0.00000000000E+00 -0.00000000000E+00 -0.45593999997E+02  0.45594000000E+02  0.51100000000E-03 0.  1.
    9900012    2    1    2    0    0 -0.34818195118E+02  0.16667855497E+02  0.12768754865E+02  0.50528865492E+02  0.30000017150E+02 0.  0.
         12    1    1    2    0    0  0.34818195118E+02 -0.16667855497E+02 -0.12768754865E+02  0.40659134508E+02  0.00000000000E+00 0. -1.
         11    1    3    3    0    0 -0.35882632297E+01  0.11707906715E+02 -0.46813201510E+01  0.13109747186E+02  0.51100000000E-03 0. -1.
        -11    1    3    3    0    0 -0.24859886576E+02  0.67826203159E+01  0.10525472291E+02  0.27835291738E+02  0.51100000000E-03 0.  1.
         12    1    3    3    0    0 -0.63700453121E+01 -0.18226715343E+01  0.69246027250E+01  0.95838265687E+01  0.00000000000E+00 0. -1.
</event>
<event>
 7    1  0.6073302E-013  0.5052885E+02  0.7816164E-02  0.1300439E+00
        -11   -1    0    0    0    0  0.00000000000E+00  0.00000000000E+00  0.45593999997E+02  0.45594000000E+02  0.51100000000E-03 0.  1.
         11   -1    0    0    0    0 -0.00000000000E+00 -0.00000000000E+00 -0.45593999997E+02  0.45594000000E+02  0.51100000000E-03 0. -1.
    9900012    2    1    2    0    0  0.28240814370E+02  0.89278276538E+01  0.27855283483E+02  0.50528849483E+02  0.29999968488E+02 0.  0.
         12    1    1    2    0    0 -0.28240814370E+02 -0.89278276538E+01 -0.27855283483E+02  0.40659150517E+02  0.00000000000E+00 0. -1.
         11    1    3    3    0    0  0.43116607574E+01  0.89519656438E+01 -0.22331305418E+01  0.10184055167E+02  0.51100000000E-03 0. -1.
        -11    1    3    3    0    0  0.54157789461E+01  0.15981613765E+01  0.16166270256E+02  0.17124049627E+02  0.51100000000E-03 0.  1.
         12    1    3    3    0    0  0.18513374666E+02 -0.16222993664E+01  0.13922143768E+02  0.23220744688E+02  0.00000000000E+00 0. -1.
</event>
<event>
 7    1  0.6073302E-013  0.5052886E+02  0.7816164E-02  0.1300439E+00
        -11   -1    0    0    0    0  0.00000000000E+00  0.00000000000E+00  0.45593999997E+02  0.45594000000E+02  0.51100000000E-03 0. -1.
         11   -1    0    0    0    0 -0.00000000000E+00 -0.00000000000E+00 -0.45593999997E+02  0.45594000000E+02  0.51100000000E-03 0.  1.
    9900012    2    1    2    0    0  0.16010755591E+02  0.19598677203E+02 -0.31823159056E+02  0.50528857178E+02  0.29999991879E+02 0.  0.
         12    1    1    2    0    0 -0.16010755591E+02 -0.19598677203E+02  0.31823159056E+02  0.40659142822E+02  0.00000000000E+00 0. -1.
         11    1    3    3    0    0  0.11069710257E+02  0.15826464030E+02 -0.28063013368E+01  0.19516423246E+02  0.51100000000E-03 0. -1.
        -11    1    3    3    0    0  0.60871541405E+01  0.29889758209E+01 -0.10865452260E+02  0.12808023855E+02  0.51100000000E-03 0.  1.
         12    1    3    3    0    0 -0.11461088059E+01  0.78323735245E+00 -0.18151405459E+02  0.18204410078E+02  0.00000000000E+00 0. -1.
</event>
<event>
 7    1  0.6073302E-013  0.5052886E+02  0.7816164E-02  0.1300439E+00
        -11   -1    0    0    0    0  0.00000000000E+00  0.00000000000E+00  0.45593999997E+02  0.45594000000E+02  0.51100000000E-03 0.  1.
         11   -1    0    0    0    0 -0.00000000000E+00 -0.00000000000E+00 -0.45593999997E+02  0.45594000000E+02  0.51100000000E-03 0. -1.
    9900012    2    1    2    0    0 -0.10776972667E+02 -0.28642201399E+02  0.26770256617E+02  0.50528862279E+02  0.30000007384E+02 0.  0.
         12    1    1    2    0    0  0.10776972667E+02  0.28642201399E+02 -0.26770256617E+02  0.40659137721E+02  0.00000000000E+00 0. -1.
         11    1    3    3    0    0 -0.56771495138E+01 -0.15571306513E+02  0.14030606889E+00  0.16574537676E+02  0.51100000000E-03 0. -1.
        -11    1    3    3    0    0 -0.10473758095E+02 -0.64206936379E+01  0.18111934842E+02  0.21885316982E+02  0.51100000000E-03 0.  1.
        -12    1    3    3    0    0  0.53739349413E+01 -0.66502012481E+01  0.85180157065E+01  0.12069007622E+02  0.00000000000E+00 0.  1.
</event>
<event>
 7    1  0.6073302E-013  0.5052886E+02  0.7816164E-02  0.1300439E+00
        -11   -1    0    0    0    0  0.00000000000E+00  0.00000000000E+00  0.45593999997E+02  0.45594000000E+02  0.51100000000E-03 0. -1.
         11   -1    0    0    0    0 -0.00000000000E+00 -0.00000000000E+00 -0.45593999997E+02  0.45594000000E+02  0.51100000000E-03 0.  1.
    9900012    2    1    2    0    0 -0.39183422144E+02  0.10853998562E+02  0.12611711480E+00  0.50528858823E+02  0.29999996879E+02 0.  0.
         12    1    1    2    0    0  0.39183422144E+02 -0.10853998562E+02 -0.12611711480E+00  0.40659141177E+02  0.00000000000E+00 0. -1.
         11    1    3    3    0    0 -0.61657292755E+01 -0.22007662527E+01 -0.85035380525E+01  0.10731716977E+02  0.51100000000E-03 0. -1.
        -11    1    3    3    0    0 -0.29389050269E+02  0.16590400934E+02  0.80707675522E+01  0.34700071585E+02  0.51100000000E-03 0.  1.
        -12    1    3    3    0    0 -0.36286425994E+01 -0.35356361193E+01  0.55888761510E+00  0.50970702613E+01  0.00000000000E+00 0.  1.
</event>
<event>
 7    1  0.6073302E-013  0.5052886E+02  0.7816164E-02  0.1300439E+00
        -11   -1    0    0    0    0  0.00000000000E+00  0.00000000000E+00  0.45593999997E+02  0.45594000000E+02  0.51100000000E-03 0.  1.
         11   -1    0    0    0    0 -0.00000000000E+00 -0.00000000000E+00 -0.45593999997E+02  0.45594000000E+02  0.51100000000E-03 0. -1.
    9900012    2    1    2    0    0  0.21620223575E+02 -0.48771153242E+01  0.34087316902E+02  0.50528862099E+02  0.30000006835E+02 0.  0.
         12    1    1    2    0    0 -0.21620223575E+02  0.48771153242E+01 -0.34087316902E+02  0.40659137901E+02  0.00000000000E+00 0. -1.
         11    1    3    3    0    0 -0.32038634730E+01  0.23732627094E+01  0.43681926413E+01  0.59142391104E+01  0.51100000000E-03 0. -1.
        -11    1    3    3    0    0  0.15067072335E+02 -0.36587540700E+01  0.30472494983E+02  0.34190292494E+02  0.51100000000E-03 0.  1.
        -12    1    3    3    0    0  0.97570147129E+01 -0.35916239636E+01 -0.75337072228E+00  0.10424330494E+02  0.00000000000E+00 0.  1.
</event>
<event>
 7    1  0.6073302E-013  0.5052886E+02  0.7816164E-02  0.1300439E+00
        -11   -1    0    0    0    0  0.00000000000E+00  0.00000000000E+00  0.45593999997E+02  0.45594000000E+02  0.51100000000E-03 0. -1.
         11   -1    0    0    0    0 -0.00000000000E+00 -0.00000000000E+00 -0.45593999997E+02  0.45594000000E+02  0.51100000000E-03 0.  1.
    9900012    2    1    2    0    0 -0.16812777603E+01  0.22068808262E+02 -0.34107286883E+02  0.50528855745E+02  0.29999987521E+02 0.  0.
         12    1    1    2    0    0  0.16812777603E+01 -0.22068808262E+02  0.34107286883E+02  0.40659144255E+02  0.00000000000E+00 0. -1.
         11    1    3    3    0    0  0.11007716655E+02  0.12287903751E+02 -0.17256739062E+02  0.23873781599E+02  0.51100000000E-03 0. -1.
        -11    1    3    3    0    0 -0.49364463568E+01  0.74103100045E+01 -0.11406476082E+01  0.89767630148E+01  0.51100000000E-03 0.  1.
         12    1    3    3    0    0 -0.77525480583E+01  0.23705945072E+01 -0.15709900213E+02  0.17678311130E+02  0.00000000000E+00 0. -1.
</event>
<event>
 7    1  0.6073302E-013  0.5052886E+02  0.7816164E-02  0.1300439E+00
        -11   -1    0    0    0    0  0.00000000000E+00  0.00000000000E+00  0.45593999997E+02  0.45594000000E+02  0.51100000000E-03 0.  1.
         11   -1    0    0    0    0 -0.00000000000E+00 -0.00000000000E+00 -0.45593999997E+02  0.45594000000E+02  0.51100000000E-03 0. -1.
    9900012    2    1    2    0    0 -0.10254530421E+02 -0.17156448357E+02  0.35407159533E+02  0.50528855142E+02  0.29999985689E+02 0.  0.
         12    1    1    2    0    0  0.10254530421E+02  0.17156448357E+02 -0.35407159533E+02  0.40659144858E+02  0.00000000000E+00 0. -1.
         11    1    3    3    0    0 -0.11700774172E+02 -0.54246307572E+01  0.13105380038E+02  0.18387107474E+02  0.51100000000E-03 0. -1.
        -11    1    3    3    0    0  0.50057524671E+01  0.24045654991E+01  0.66326472965E-01  0.55537277988E+01  0.51100000000E-03 0.  1.
        -12    1    3    3    0    0 -0.35595087164E+01 -0.14136383099E+02  0.22235453023E+02  0.26588019869E+02  0.00000000000E+00 0.  1.
</event>
<event>
 7    1  0.6073302E-013  0.5052886E+02  0.7816164E-02  0.1300439E+00
        -11   -1    0    0    0    0  0.00000000000E+00  0.00000000000E+00  0.45593999997E+02  0.45594000000E+02  0.51100000000E-03 0.  1.
         11   -1    0    0    0    0 -0.00000000000E+00 -0.00000000000E+00 -0.45593999997E+02  0.45594000000E+02  0.51100000000E-03 0. -1.
    9900012    2    1    2    0    0  0.57365745820E+01  0.34325508863E+02  0.21024197691E+02  0.50528859144E+02  0.29999997853E+02 0.  0.
         12    1    1    2    0    0 -0.57365745820E+01 -0.34325508863E+02 -0.21024197691E+02  0.40659140856E+02  0.00000000000E+00 0. -1.
         11    1    3    3    0    0  0.46000566125E+01 -0.39521878252E+01  0.62366956748E+01  0.86992346011E+01  0.51100000000E-03 0. -1.
        -11    1    3    3    0    0  0.18239468576E+01  0.22929510045E+02  0.12840240976E+02  0.26343139555E+02  0.51100000000E-03 0.  1.
         12    1    3    3    0    0 -0.68742888806E+00  0.15348186643E+02  0.19472610399E+01  0.15486484987E+02  0.00000000000E+00 0. -1.
</event>
<event>
 7    1  0.6073302E-013  0.5052887E+02  0.7816164E-02  0.1300439E+00
        -11   -1    0    0    0    0  0.00000000000E+00  0.00000000000E+00  0.45593999997E+02  0.45594000000E+02  0.51100000000E-03 0.  1.
         11   -1    0    0    0    0 -0.00000000000E+00 -0.00000000000E+00 -0.45593999997E+02  0.45594000000E+02  0.51100000000E-03 0. -1.
    9900012    2    1    2    0    0 -0.15202164463E+02  0.40327477762E+01  0.37493943777E+02  0.50528872133E+02  0.30000037335E+02 0.  0.
         12    1    1    2    0    0  0.15202164463E+02 -0.40327477762E+01 -0.37493943777E+02  0.40659127867E+02  0.00000000000E+00 0. -1.
         11    1    3    3    0    0 -0.18460644366E+01  0.49466400062E+01 -0.38517217900E+01  0.65355154551E+01  0.51100000000E-03 0. -1.
        -11    1    3    3    0    0 -0.12543983180E+02 -0.28973699520E+01  0.34749232290E+02  0.37057460945E+02  0.51100000000E-03 0.  1.
         12    1    3    3    0    0 -0.81211684620E+00  0.19834777220E+01  0.65964332767E+01  0.69358957330E+01  0.00000000000E+00 0. -1.
</event>
<event>
 7    1  0.6073302E-013  0.5052885E+02  0.7816164E-02  0.1300439E+00
        -11   -1    0    0    0    0  0.00000000000E+00  0.00000000000E+00  0.45593999997E+02  0.45594000000E+02  0.51100000000E-03 0. -1.
         11   -1    0    0    0    0 -0.00000000000E+00 -0.00000000000E+00 -0.45593999997E+02  0.45594000000E+02  0.51100000000E-03 0.  1.
    9900012    2    1    2    0    0  0.14036649222E+02  0.31405911228E+02 -0.21675043674E+02  0.50528852202E+02  0.29999976752E+02 0.  0.
         12    1    1    2    0    0 -0.14036649222E+02 -0.31405911228E+02  0.21675043674E+02  0.40659147798E+02  0.00000000000E+00 0. -1.
         11    1    3    3    0    0  0.10155940228E+02  0.23414679536E+01 -0.44795438443E+00  0.10431982433E+02  0.51100000000E-03 0. -1.
        -11    1    3    3    0    0 -0.62087203134E+01  0.14494154687E+02 -0.65047969918E+01  0.17056995990E+02  0.51100000000E-03 0.  1.
        -12    1    3    3    0    0  0.10089429308E+02  0.14570288587E+02 -0.14722292298E+02  0.23039873779E+02  0.00000000000E+00 0.  1.
</event>
<event>
 7    1  0.6073302E-013  0.5052886E+02  0.7816164E-02  0.1300439E+00
        -11   -1    0    0    0    0  0.00000000000E+00  0.00000000000E+00  0.45593999997E+02  0.45594000000E+02  0.51100000000E-03 0. -1.
         11   -1    0    0    0    0 -0.00000000000E+00 -0.00000000000E+00 -0.45593999997E+02  0.45594000000E+02  0.51100000000E-03 0.  1.
    9900012    2    1    2    0    0  0.22120538486E+02  0.62437038234E+01 -0.33538988338E+02  0.50528858358E+02  0.29999995465E+02 0.  0.
         12    1    1    2    0    0 -0.22120538486E+02 -0.62437038234E+01  0.33538988338E+02  0.40659141642E+02  0.00000000000E+00 0. -1.
         11    1    3    3    0    0  0.15737376832E+02  0.14358806625E+02 -0.28913543162E+02  0.35914249758E+02  0.51100000000E-03 0.  1.
        -11    1    3    3    0    0 -0.42688483625E-01 -0.21775644216E+01  0.25111249572E+01  0.33240574497E+01  0.51100000000E-03 0. -1.
        -12    1    3    3    0    0  0.64258501375E+01 -0.59375383804E+01 -0.71365701329E+01  0.11290551150E+02  0.00000000000E+00 0.  1.
</event>
<event>
 7    1  0.6073302E-013  0.5052885E+02  0.7816164E-02  0.1300439E+00
        -11   -1    0    0    0    0  0.00000000000E+00  0.00000000000E+00  0.45593999997E+02  0.45594000000E+02  0.51100000000E-03 0.  1.
         11   -1    0    0    0    0 -0.00000000000E+00 -0.00000000000E+00 -0.45593999997E+02  0.45594000000E+02  0.51100000000E-03 0. -1.
    9900012    2    1    2    0    0  0.27498446029E+02  0.40962151101E+00  0.29947183916E+02  0.50528854063E+02  0.29999982411E+02 0.  0.
         12    1    1    2    0    0 -0.27498446029E+02 -0.40962151101E+00 -0.29947183916E+02  0.40659145937E+02  0.00000000000E+00 0. -1.
         11    1    3    3    0    0 -0.37972024954E+01  0.45670000829E+01  0.12262913427E+02  0.13625537881E+02  0.51100000000E-03 0. -1.
        -11    1    3    3    0    0  0.10307636610E+01 -0.15377537893E+01  0.19631534902E+01  0.26983573390E+01  0.51100000000E-03 0.  1.
         12    1    3    3    0    0  0.30264884864E+02 -0.26196247825E+01  0.15721116998E+02  0.34204958844E+02  0.00000000000E+00 0. -1.
</event>
<event>
 7    1  0.6073302E-013  0.5052886E+02  0.7816164E-02  0.1300439E+00
        -11   -1    0    0    0    0  0.00000000000E+00  0.00000000000E+00  0.45593999997E+02  0.45594000000E+02  0.51100000000E-03 0.  1.
         11   -1    0    0    0    0 -0.00000000000E+00 -0.00000000000E+00 -0.45593999997E+02  0.45594000000E+02  0.51100000000E-03 0. -1.
    9900012    2    1    2    0    0  0.19541020240E+02  0.30854142399E+02  0.17869971665E+02  0.50528862497E+02  0.30000008045E+02 0.  0.
         12    1    1    2    0    0 -0.19541020240E+02 -0.30854142399E+02 -0.17869971665E+02  0.40659137503E+02  0.00000000000E+00 0. -1.
         11    1    3    3    0    0  0.19656017110E+02  0.17366891716E+02  0.33945334940E+01  0.26447888279E+02  0.51100000000E-03 0. -1.
        -11    1    3    3    0    0 -0.40057172574E+01  0.54433547437E+01  0.13493941706E+02  0.15091797264E+02  0.51100000000E-03 0.  1.
         12    1    3    3    0    0  0.38907203878E+01  0.80438959386E+01  0.98149646491E+00  0.89891769544E+01  0.00000000000E+00 0. -1.
</event>
<event>
 7    1  0.6073302E-013  0.5052886E+02  0.7816164E-02  0.1300439E+00
        -11   -1    0    0    0    0  0.00000000000E+00  0.00000000000E+00  0.45593999997E+02  0.45594000000E+02  0.51100000000E-03 0.  1.
         11   -1    0    0    0    0 -0.00000000000E+00 -0.00000000000E+00 -0.45593999997E+02  0.45594000000E+02  0.51100000000E-03 0. -1.
    9900012    2    1    2    0    0 -0.10825273237E+02  0.17775089530E+02  0.34928857649E+02  0.50528862710E+02  0.30000008695E+02 0.  0.
         12    1    1    2    0    0  0.10825273237E+02 -0.17775089530E+02 -0.34928857649E+02  0.40659137290E+02  0.00000000000E+00 0. -1.
         11    1    3    3    0    0 -0.19209226505E+02  0.17166251177E+02  0.21685310904E+02  0.33673836604E+02  0.51100000000E-03 0. -1.
        -11    1    3    3    0    0  0.29503888467E+01 -0.27249685741E+01  0.44575767513E+01  0.60000199026E+01  0.51100000000E-03 0.  1.
         12    1    3    3    0    0  0.54335644213E+01  0.33338069273E+01  0.87859699938E+01  0.10855006204E+02  0.00000000000E+00 0. -1.
</event>
<event>
 7    1  0.6073302E-013  0.5052886E+02  0.7816164E-02  0.1300439E+00
        -11   -1    0    0    0    0  0.00000000000E+00  0.00000000000E+00  0.45593999997E+02  0.45594000000E+02  0.51100000000E-03 0. -1.
         11   -1    0    0    0    0 -0.00000000000E+00 -0.00000000000E+00 -0.45593999997E+02  0.45594000000E+02  0.51100000000E-03 0.  1.
    9900012    2    1    2    0    0 -0.11366379814E+01  0.25591656171E+02 -0.31574369914E+02  0.50528860229E+02  0.30000001152E+02 0.  0.
         12    1    1    2    0    0  0.11366379814E+01 -0.25591656171E+02  0.31574369914E+02  0.40659139771E+02  0.00000000000E+00 0. -1.
         11    1    3    3    0    0 -0.10680121328E+01 -0.48640252688E-01  0.47258266131E+01  0.48452505846E+01  0.51100000000E-03 0. -1.
        -11    1    3    3    0    0  0.44578980804E+01  0.13007771392E+02 -0.22955467038E+02  0.26758707724E+02  0.51100000000E-03 0.  1.
        -12    1    3    3    0    0 -0.45265239291E+01  0.12632525031E+02 -0.13344729489E+02  0.18924901920E+02  0.00000000000E+00 0.  1.
</event>
<event>
 7    1  0.6073302E-013  0.5052886E+02  0.7816164E-02  0.1300439E+00
        -11   -1    0    0    0    0  0.00000000000E+00  0.00000000000E+00  0.45593999997E+02  0.45594000000E+02  0.51100000000E-03 0.  1.
         11   -1    0    0    0    0 -0.00000000000E+00 -0.00000000000E+00 -0.45593999997E+02  0.45594000000E+02  0.51100000000E-03 0. -1.
    9900012    2    1    2    0    0  0.19220204915E+02 -0.78646807984E+01  0.34955631791E+02  0.50528859885E+02  0.30000000106E+02 0.  0.
         12    1    1    2    0    0 -0.19220204915E+02  0.78646807984E+01 -0.34955631791E+02  0.40659140115E+02  0.00000000000E+00 0. -1.
         11    1    3    3    0    0  0.15564709240E+01 -0.14864376961E+02  0.14734901696E+02  0.20987844873E+02  0.51100000000E-03 0. -1.
        -11    1    3    3    0    0  0.16080985432E+02  0.34500739100E+01  0.19630874908E+02  0.25610004928E+02  0.51100000000E-03 0.  1.
         12    1    3    3    0    0  0.15827485582E+01  0.35496222530E+01  0.58985518673E+00  0.39310100838E+01  0.00000000000E+00 0. -1.
</event>
<event>
 7    1  0.6073302E-013  0.5052886E+02  0.7816164E-02  0.1300439E+00
        -11   -1    0    0    0    0  0.00000000000E+00  0.00000000000E+00  0.45593999997E+02  0.45594000000E+02  0.51100000000E-03 0.  1.
         11   -1    0    0    0    0 -0.00000000000E+00 -0.00000000000E+00 -0.45593999997E+02  0.45594000000E+02  0.51100000000E-03 0. -1.
    9900012    2    1    2    0    0 -0.26456930044E+02  0.46967789260E+01  0.30514540673E+02  0.50528855000E+02  0.29999985259E+02 0.  0.
         12    1    1    2    0    0  0.26456930044E+02 -0.46967789260E+01 -0.30514540673E+02  0.40659145000E+02  0.00000000000E+00 0. -1.
         11    1    3    3    0    0 -0.11653247908E+02 -0.11105304612E+01 -0.58590558120E+00  0.11720697518E+02  0.51100000000E-03 0. -1.
        -11    1    3    3    0    0 -0.63523620665E+01  0.65155419221E+01  0.28530290835E+02  0.29946323410E+02  0.51100000000E-03 0.  1.
        -12    1    3    3    0    0 -0.84513200697E+01 -0.70823253485E+00  0.25701554190E+01  0.88618340721E+01  0.00000000000E+00 0.  1.
</event>
<event>
 7    1  0.6073302E-013  0.5052886E+02  0.7816164E-02  0.1300439E+00
        -11   -1    0    0    0    0  0.00000000000E+00  0.00000000000E+00  0.45593999997E+02  0.45594000000E+02  0.51100000000E-03 0. -1.
         11   -1    0    0    0    0 -0.00000000000E+00 -0.00000000000E+00 -0.45593999997E+02  0.45594000000E+02  0.51100000000E-03 0.  1.
    9900012    2    1    2    0    0  0.39679613407E+02 -0.17238989221E+01  0.87018599027E+01  0.50528856952E+02  0.29999991191E+02 0.  0.
         12    1    1    2    0    0 -0.39679613407E+02  0.17238989221E+01 -0.87018599027E+01  0.40659143048E+02  0.00000000000E+00 0. -1.
         11    1    3    3    0    0  0.11043786639E+02  0.10075210668E+02 -0.27966995983E+01  0.15208439178E+02  0.51100000000E-03 0. -1.
        -11    1    3    3    0    0  0.77933208500E+01 -0.91876457484E+01  0.17906120041E+01  0.12180105742E+02  0.51100000000E-03 0.  1.
         12    1    3    3    0    0  0.20842505918E+02 -0.26114638416E+01  0.97079474969E+01  0.23140312032E+02  0.00000000000E+00 0. -1.
</event>
<event>
 7    1  0.6073302E-013  0.5052887E+02  0.7816164E-02  0.1300439E+00
        -11   -1    0    0    0    0  0.00000000000E+00  0.00000000000E+00  0.45593999997E+02  0.45594000000E+02  0.51100000000E-03 0.  1.
         11   -1    0    0    0    0 -0.00000000000E+00 -0.00000000000E+00 -0.45593999997E+02  0.45594000000E+02  0.51100000000E-03 0. -1.
    9900012    2    1    2    0    0  0.96292047026E+01 -0.29248554193E+02  0.26551189384E+02  0.50528866177E+02  0.30000019230E+02 0.  0.
         12    1    1    2    0    0 -0.96292047026E+01  0.29248554193E+02 -0.26551189384E+02  0.40659133823E+02  0.00000000000E+00 0. -1.
         11    1    3    3    0    0 -0.62027761884E+01  0.54482514723E+00  0.62386775899E+01  0.88143272696E+01  0.51100000000E-03 0. -1.
        -11    1    3    3    0    0  0.12878309284E+02 -0.25432673466E+02  0.22187172413E+02  0.36123985793E+02  0.51100000000E-03 0.  1.
        -12    1    3    3    0    0  0.29536716067E+01 -0.43607058739E+01 -0.18746606191E+01  0.55905531136E+01  0.00000000000E+00 0.  1.
</event>
<event>
 7    1  0.6073302E-013  0.5052888E+02  0.7816164E-02  0.1300439E+00
        -11   -1    0    0    0    0  0.00000000000E+00  0.00000000000E+00  0.45593999997E+02  0.45594000000E+02  0.51100000000E-03 0.  1.
         11   -1    0    0    0    0 -0.00000000000E+00 -0.00000000000E+00 -0.45593999997E+02  0.45594000000E+02  0.51100000000E-03 0. -1.
    9900012    2    1    2    0    0  0.16197640832E+02 -0.54188521644E+01  0.36897649340E+02  0.50528879816E+02  0.30000060688E+02 0.  0.
         12    1    1    2    0    0 -0.16197640832E+02  0.54188521644E+01 -0.36897649340E+02  0.40659120184E+02  0.00000000000E+00 0. -1.
         11    1    3    3    0    0 -0.22192513501E+01  0.52462097396E-01  0.33566298086E+01  0.40242754329E+01  0.51100000000E-03 0. -1.
        -11    1    3    3    0    0  0.19093879360E+02  0.48217948956E+01  0.13231145346E+02  0.23725284876E+02  0.51100000000E-03 0.  1.
        -12    1    3    3    0    0 -0.67698717772E+00 -0.10293109157E+02  0.20309874186E+02  0.22779319507E+02  0.00000000000E+00 0.  1.
</event>
<event>
 7    1  0.6073302E-013  0.5052885E+02  0.7816164E-02  0.1300439E+00
        -11   -1    0    0    0    0  0.00000000000E+00  0.00000000000E+00  0.45593999997E+02  0.45594000000E+02  0.51100000000E-03 0.  1.
         11   -1    0    0    0    0 -0.00000000000E+00 -0.00000000000E+00 -0.45593999997E+02  0.45594000000E+02  0.51100000000E-03 0. -1.
    9900012    2    1    2    0    0 -0.35658837791E+02 -0.71271051623E+00 -0.19521935841E+02  0.50528847920E+02  0.29999963738E+02 0.  0.
         12    1    1    2    0    0  0.35658837791E+02  0.71271051623E+00  0.19521935841E+02  0.40659152080E+02  0.00000000000E+00 0. -1.
         11    1    3    3    0    0  0.26900077812E+01  0.18280028994E+01 -0.29106404974E+01  0.43645807163E+01  0.51100000000E-03 0. -1.
        -11    1    3    3    0    0 -0.33632165547E+02  0.51353974590E+01 -0.13940832097E+02  0.36767399504E+02  0.51100000000E-03 0.  1.
        -12    1    3    3    0    0 -0.47166800246E+01 -0.76761108745E+01 -0.26704632469E+01  0.93968676997E+01  0.00000000000E+00 0.  1.
</event>
<event>
 7    1  0.6073302E-013  0.5052886E+02  0.7816164E-02  0.1300439E+00
        -11   -1    0    0    0    0  0.00000000000E+00  0.00000000000E+00  0.45593999997E+02  0.45594000000E+02  0.51100000000E-03 0. -1.
         11   -1    0    0    0    0 -0.00000000000E+00 -0.00000000000E+00 -0.45593999997E+02  0.45594000000E+02  0.51100000000E-03 0.  1.
    9900012    2    1    2    0    0  0.37112978285E+02  0.13621724038E+02 -0.94995474523E+01  0.50528856813E+02  0.29999990767E+02 0.  0.
         12    1    1    2    0    0 -0.37112978285E+02 -0.13621724038E+02  0.94995474523E+01  0.40659143187E+02  0.00000000000E+00 0. -1.
         11    1    3    3    0    0  0.17459029084E+01 -0.30616813780E+01  0.15777468396E+01  0.38615223911E+01  0.51100000000E-03 0. -1.
        -11    1    3    3    0    0  0.37833426940E+02  0.11433451580E+02 -0.93328104013E+01  0.40610261749E+02  0.51100000000E-03 0.  1.
        -12    1    3    3    0    0 -0.24663515636E+01  0.52499538362E+01 -0.17444838906E+01  0.60570726727E+01  0.00000000000E+00 0.  1.
</event>
<event>
 7    1  0.6073302E-013  0.5052886E+02  0.7816164E-02  0.1300439E+00
        -11   -1    0    0    0    0  0.00000000000E+00  0.00000000000E+00  0.45593999997E+02  0.45594000000E+02  0.51100000000E-03 0. -1.
         11   -1    0    0    0    0 -0.00000000000E+00 -0.00000000000E+00 -0.45593999997E+02  0.45594000000E+02  0.51100000000E-03 0.  1.
    9900012    2    1    2    0    0 -0.84297163888E+01  0.33534065978E+01 -0.39634079132E+02  0.50528859787E+02  0.29999999809E+02 0.  0.
         12    1    1    2    0    0  0.84297163888E+01 -0.33534065978E+01  0.39634079132E+02  0.40659140213E+02  0.00000000000E+00 0. -1.
         11    1    3    3    0    0 -0.17374628718E+02  0.14508083100E+01 -0.28059734818E+02  0.33035303633E+02  0.51100000000E-03 0. -1.
        -11    1    3    3    0    0  0.71775271320E+01  0.69064446892E+00 -0.17254990031E+01  0.74142587346E+01  0.51100000000E-03 0.  1.
        -12    1    3    3    0    0  0.17673851973E+01  0.12119538188E+01 -0.98488453115E+01  0.10079297419E+02  0.00000000000E+00 0.  1.
</event>
<event>
 7    1  0.6073302E-013  0.5052886E+02  0.7816164E-02  0.1300439E+00
        -11   -1    0    0    0    0  0.00000000000E+00  0.00000000000E+00  0.45593999997E+02  0.45594000000E+02  0.51100000000E-03 0. -1.
         11   -1    0    0    0    0 -0.00000000000E+00 -0.00000000000E+00 -0.45593999997E+02  0.45594000000E+02  0.51100000000E-03 0.  1.
    9900012    2    1    2    0    0  0.17508856558E+02  0.36317794882E+02 -0.52557721560E+01  0.50528862970E+02  0.30000009482E+02 0.  0.
         12    1    1    2    0    0 -0.17508856558E+02 -0.36317794882E+02  0.52557721560E+01  0.40659137030E+02  0.00000000000E+00 0. -1.
         11    1    3    3    0    0 -0.39186606865E+01  0.10343889582E+00  0.36134780501E+01  0.53313999156E+01  0.51100000000E-03 0. -1.
        -11    1    3    3    0    0  0.16275746565E+02  0.14050038017E+02 -0.55065465679E+01  0.22195169518E+02  0.51100000000E-03 0.  1.
         12    1    3    3    0    0  0.51517706794E+01  0.22164317969E+02 -0.33627036381E+01  0.23002293536E+02  0.00000000000E+00 0. -1.
</event>
<event>
 7    1  0.6073302E-013  0.5052884E+02  0.7816164E-02  0.1300439E+00
        -11   -1    0    0    0    0  0.00000000000E+00  0.00000000000E+00  0.45593999997E+02  0.45594000000E+02  0.51100000000E-03 0. -1.
         11   -1    0    0    0    0 -0.00000000000E+00 -0.00000000000E+00 -0.45593999997E+02  0.45594000000E+02  0.51100000000E-03 0.  1.
    9900012    2    1    2    0    0  0.31377838925E+02 -0.23052117282E+02  0.11713160012E+02  0.50528843537E+02  0.29999950415E+02 0.  0.
         12    1    1    2    0    0 -0.31377838925E+02  0.23052117282E+02 -0.11713160012E+02  0.40659156463E+02  0.00000000000E+00 0. -1.
         11    1    3    3    0    0  0.12141972145E+02 -0.61136630353E+01  0.13844340640E+02  0.19402838228E+02  0.51100000000E-03 0. -1.
        -11    1    3    3    0    0  0.19506137102E+02 -0.16206142347E+02 -0.69094578536E+01  0.26284387810E+02  0.51100000000E-03 0.  1.
         12    1    3    3    0    0 -0.27027032252E+00 -0.73231189976E+00  0.47782772258E+01  0.48416174995E+01  0.00000000000E+00 0. -1.
</event>
<event>
 7    1  0.6073302E-013  0.5052886E+02  0.7816164E-02  0.1300439E+00
        -11   -1    0    0    0    0  0.00000000000E+00  0.00000000000E+00  0.45593999997E+02  0.45594000000E+02  0.51100000000E-03 0.  1.
         11   -1    0    0    0    0 -0.00000000000E+00 -0.00000000000E+00 -0.45593999997E+02  0.45594000000E+02  0.51100000000E-03 0. -1.
    9900012    2    1    2    0    0  0.32702035134E+02  0.23790093200E+02  0.42159385297E+01  0.50528858665E+02  0.29999996400E+02 0.  0.
         12    1    1    2    0    0 -0.32702035134E+02 -0.23790093200E+02 -0.42159385297E+01  0.40659141335E+02  0.00000000000E+00 0. -1.
         11    1    3    3    0    0 -0.39315111818E+01 -0.25476590799E+01 -0.13785454314E+01  0.48834142490E+01  0.51100000000E-03 0. -1.
        -11    1    3    3    0    0  0.29346973388E+02  0.22612439249E+02  0.55506863414E+01  0.37461678752E+02  0.51100000000E-03 0.  1.
         12    1    3    3    0    0  0.72865729282E+01  0.37253130303E+01  0.43797619591E-01  0.81837656640E+01  0.00000000000E+00 0. -1.
</event>
<event>
 7    1  0.6073302E-013  0.5052876E+02  0.7816164E-02  0.1300439E+00
        -11   -1    0    0    0    0  0.00000000000E+00  0.00000000000E+00  0.45593999997E+02  0.45594000000E+02  0.51100000000E-03 0.  1.
         11   -1    0    0    0    0 -0.00000000000E+00 -0.00000000000E+00 -0.45593999997E+02  0.45594000000E+02  0.51100000000E-03 0. -1.
    9900012    2    1    2    0    0  0.40763299824E+01 -0.10481206036E+02  0.39073025959E+02  0.50528763611E+02  0.29999707471E+02 0.  0.
         12    1    1    2    0    0 -0.40763299824E+01  0.10481206036E+02 -0.39073025959E+02  0.40659236389E+02  0.00000000000E+00 0. -1.
         11    1    3    3    0    0 -0.34306578761E+01 -0.59493492026E+01  0.81801464014E+00  0.69161635037E+01  0.51100000000E-03 0. -1.
        -11    1    3    3    0    0 -0.71100987688E+00  0.22560937071E+01  0.30097599584E+02  0.30190412300E+02  0.51100000000E-03 0.  1.
        -12    1    3    3    0    0  0.82179977355E+01 -0.67879505409E+01  0.81574117350E+01  0.13422187807E+02  0.00000000000E+00 0.  1.
</event>
<event>
 7    1  0.6073302E-013  0.5052886E+02  0.7816164E-02  0.1300439E+00
        -11   -1    0    0    0    0  0.00000000000E+00  0.00000000000E+00  0.45593999997E+02  0.45594000000E+02  0.51100000000E-03 0.  1.
         11   -1    0    0    0    0 -0.00000000000E+00 -0.00000000000E+00 -0.45593999997E+02  0.45594000000E+02  0.51100000000E-03 0. -1.
    9900012    2    1    2    0    0 -0.14918262188E+02 -0.23622706114E+02  0.29539449512E+02  0.50528857506E+02  0.29999992875E+02 0.  0.
         12    1    1    2    0    0  0.14918262188E+02  0.23622706114E+02 -0.29539449512E+02  0.40659142494E+02  0.00000000000E+00 0. -1.
         11    1    3    3    0    0  0.32227967638E+01 -0.69179621648E+01  0.77493721528E+01  0.10876460294E+02  0.51100000000E-03 0. -1.
        -11    1    3    3    0    0 -0.22087248674E+02 -0.82963569998E+01  0.13388318894E+02  0.27127904020E+02  0.51100000000E-03 0.  1.
        -12    1    3    3    0    0  0.39461897224E+01 -0.84083869493E+01  0.84017584653E+01  0.12524493192E+02  0.00000000000E+00 0.  1.
</event>
<event>
 7    1  0.6073302E-013  0.5052887E+02  0.7816164E-02  0.1300439E+00
        -11   -1    0    0    0    0  0.00000000000E+00  0.00000000000E+00  0.45593999997E+02  0.45594000000E+02  0.51100000000E-03 0. -1.
         11   -1    0    0    0    0 -0.00000000000E+00 -0.00000000000E+00 -0.45593999997E+02  0.45594000000E+02  0.51100000000E-03 0.  1.
    9900012    2    1    2    0    0  0.26533146748E+02 -0.30805390853E+02  0.42978289400E+00  0.50528871931E+02  0.30000036723E+02 0.  0.
         12    1    1    2    0    0 -0.26533146748E+02  0.30805390853E+02 -0.42978289400E+00  0.40659128069E+02  0.00000000000E+00 0. -1.
         11    1    3    3    0    0  0.25212130329E+02 -0.27331712013E+02 -0.32003848659E+01  0.37321796056E+02  0.51100000000E-03 0.  1.
        -11    1    3    3    0    0  0.18562454772E+01 -0.52744440550E-01  0.76670014439E+01  0.78886843421E+01  0.51100000000E-03 0. -1.
         12    1    3    3    0    0 -0.53522905804E+00 -0.34209343997E+01 -0.40368336840E+01  0.53183915335E+01  0.00000000000E+00 0. -1.
</event>
<event>
 7    1  0.6073302E-013  0.5052885E+02  0.7816164E-02  0.1300439E+00
        -11   -1    0    0    0    0  0.00000000000E+00  0.00000000000E+00  0.45593999997E+02  0.45594000000E+02  0.51100000000E-03 0.  1.
         11   -1    0    0    0    0 -0.00000000000E+00 -0.00000000000E+00 -0.45593999997E+02  0.45594000000E+02  0.51100000000E-03 0. -1.
    9900012    2    1    2    0    0 -0.25055873281E+02 -0.17035336009E+02  0.27113960445E+02  0.50528852077E+02  0.29999976374E+02 0.  0.
         12    1    1    2    0    0  0.25055873281E+02  0.17035336009E+02 -0.27113960445E+02  0.40659147923E+02  0.00000000000E+00 0. -1.
         11    1    3    3    0    0 -0.14731483463E+02  0.32998488209E+01  0.13824598317E+01  0.15159709849E+02  0.51100000000E-03 0. -1.
        -11    1    3    3    0    0 -0.66708681420E+00 -0.86730832361E+01  0.12691490945E+02  0.15386400499E+02  0.51100000000E-03 0.  1.
        -12    1    3    3    0    0 -0.96573030037E+01 -0.11662101594E+02  0.13040009669E+02  0.19982741730E+02  0.00000000000E+00 0.  1.
</event>
<event>
 7    1  0.6073302E-013  0.5052887E+02  0.7816164E-02  0.1300439E+00
        -11   -1    0    0    0    0  0.00000000000E+00  0.00000000000E+00  0.45593999997E+02  0.45594000000E+02  0.51100000000E-03 0.  1.
         11   -1    0    0    0    0 -0.00000000000E+00 -0.00000000000E+00 -0.45593999997E+02  0.45594000000E+02  0.51100000000E-03 0. -1.
    9900012    2    1    2    0    0 -0.38014243785E+02  0.81326850837E+01  0.11913930622E+02  0.50528867691E+02  0.30000023834E+02 0.  0.
         12    1    1    2    0    0  0.38014243785E+02 -0.81326850837E+01 -0.11913930622E+02  0.40659132309E+02  0.00000000000E+00 0. -1.
         11    1    3    3    0    0 -0.32019388338E+01  0.40178837925E+01 -0.76542646773E+01  0.92186533982E+01  0.51100000000E-03 0. -1.
        -11    1    3    3    0    0 -0.15584789820E+02 -0.17995754600E+01  0.12247787336E+02  0.19903076156E+02  0.51100000000E-03 0.  1.
        -12    1    3    3    0    0 -0.19227515131E+02  0.59143767511E+01  0.73204079630E+01  0.21407138137E+02  0.00000000000E+00 0.  1.
</event>
<event>
 7    1  0.6073302E-013  0.5052885E+02  0.7816164E-02  0.1300439E+00
        -11   -1    0    0    0    0  0.00000000000E+00  0.00000000000E+00  0.45593999997E+02  0.45594000000E+02  0.51100000000E-03 0. -1.
         11   -1    0    0    0    0 -0.00000000000E+00 -0.00000000000E+00 -0.45593999997E+02  0.45594000000E+02  0.51100000000E-03 0.  1.
    9900012    2    1    2    0    0  0.32270760262E+02 -0.61807592237E+00 -0.24726150319E+02  0.50528849796E+02  0.29999969440E+02 0.  0.
         12    1    1    2    0    0 -0.32270760262E+02  0.61807592237E+00  0.24726150319E+02  0.40659150204E+02  0.00000000000E+00 0. -1.
         11    1    3    3    0    0  0.11914087405E+02 -0.11910384614E+02 -0.14202542828E+02  0.22034404085E+02  0.51100000000E-03 0.  1.
        -11    1    3    3    0    0  0.21217884355E+02  0.12756824043E+02 -0.95450114854E+01  0.26533797705E+02  0.51100000000E-03 0. -1.
         12    1    3    3    0    0 -0.86121149798E+00 -0.14645153515E+01 -0.97859600526E+00  0.19606480053E+01  0.00000000000E+00 0. -1.
</event>
<event>
 7    1  0.6073302E-013  0.5052885E+02  0.7816164E-02  0.1300439E+00
        -11   -1    0    0    0    0  0.00000000000E+00  0.00000000000E+00  0.45593999997E+02  0.45594000000E+02  0.51100000000E-03 0.  1.
         11   -1    0    0    0    0 -0.00000000000E+00 -0.00000000000E+00 -0.45593999997E+02  0.45594000000E+02  0.51100000000E-03 0. -1.
    9900012    2    1    2    0    0 -0.37246820258E+02  0.87904440880E+01  0.13732052034E+02  0.50528846299E+02  0.29999958811E+02 0.  0.
         12    1    1    2    0    0  0.37246820258E+02 -0.87904440880E+01 -0.13732052034E+02  0.40659153701E+02  0.00000000000E+00 0. -1.
         11    1    3    3    0    0 -0.13778203266E+02  0.30949152589E+01 -0.17556340497E+01  0.14230236712E+02  0.51100000000E-03 0. -1.
        -11    1    3    3    0    0 -0.15075526928E+02  0.10088842608E+02  0.18930803026E+02  0.26218916087E+02  0.51100000000E-03 0.  1.
        -12    1    3    3    0    0 -0.83930900641E+01 -0.43933137787E+01 -0.34431169421E+01  0.10079693500E+02  0.00000000000E+00 0.  1.
</event>
<event>
 7    1  0.6073302E-013  0.5052886E+02  0.7816164E-02  0.1300439E+00
        -11   -1    0    0    0    0  0.00000000000E+00  0.00000000000E+00  0.45593999997E+02  0.45594000000E+02  0.51100000000E-03 0.  1.
         11   -1    0    0    0    0 -0.00000000000E+00 -0.00000000000E+00 -0.45593999997E+02  0.45594000000E+02  0.51100000000E-03 0. -1.
    9900012    2    1    2    0    0  0.27213792051E+02  0.23343526015E+02  0.19174332806E+02  0.50528859291E+02  0.29999998302E+02 0.  0.
         12    1    1    2    0    0 -0.27213792051E+02 -0.23343526015E+02 -0.19174332806E+02  0.40659140709E+02  0.00000000000E+00 0. -1.
         11    1    3    3    0    0  0.89800748506E+01  0.17333896548E+02 -0.26119072587E+00  0.19523676260E+02  0.51100000000E-03 0. -1.
        -11    1    3    3    0    0 -0.73587633199E+00 -0.12075437912E+01  0.71324247308E+01  0.72712556540E+01  0.51100000000E-03 0.  1.
        -12    1    3    3    0    0  0.18969593532E+02  0.72171732576E+01  0.12303098801E+02  0.23733927377E+02  0.00000000000E+00 0.  1.
</event>
<event>
 7    1  0.6073302E-013  0.5052887E+02  0.7816164E-02  0.1300439E+00
        -11   -1    0    0    0    0  0.00000000000E+00  0.00000000000E+00  0.45593999997E+02  0.45594000000E+02  0.51100000000E-03 0. -1.
         11   -1    0    0    0    0 -0.00000000000E+00 -0.00000000000E+00 -0.45593999997E+02  0.45594000000E+02  0.51100000000E-03 0.  1.
    9900012    2    1    2    0    0  0.97081656763E+01  0.15312184938E+02 -0.36393042618E+02  0.50528867700E+02  0.30000023862E+02 0.  0.
         12    1    1    2    0    0 -0.97081656763E+01 -0.15312184938E+02  0.36393042618E+02  0.40659132300E+02  0.00000000000E+00 0. -1.
         11    1    3    3    0    0 -0.10149364591E+01 -0.46966334078E+01 -0.16551080011E+02  0.17234462892E+02  0.51100000000E-03 0. -1.
        -11    1    3    3    0    0  0.81461108613E+01  0.54202701001E+01 -0.17986025490E+01  0.99485386622E+01  0.51100000000E-03 0.  1.
         12    1    3    3    0    0  0.25769912741E+01  0.14588548246E+02 -0.18043360057E+02  0.23345866146E+02  0.00000000000E+00 0. -1.
</event>
<event>
 7    1  0.6073302E-013  0.5052886E+02  0.7816164E-02  0.1300439E+00
        -11   -1    0    0    0    0  0.00000000000E+00  0.00000000000E+00  0.45593999997E+02  0.45594000000E+02  0.51100000000E-03 0.  1.
         11   -1    0    0    0    0 -0.00000000000E+00 -0.00000000000E+00 -0.45593999997E+02  0.45594000000E+02  0.51100000000E-03 0. -1.
    9900012    2    1    2    0    0  0.21401616479E+02 -0.33089638018E+02  0.10010611763E+02  0.50528859823E+02  0.29999999917E+02 0.  0.
         12    1    1    2    0    0 -0.21401616479E+02  0.33089638018E+02 -0.10010611763E+02  0.40659140177E+02  0.00000000000E+00 0. -1.
         11    1    3    3    0    0  0.12603926716E+02 -0.51727008916E+01  0.43393867491E+01  0.14298464281E+02  0.51100000000E-03 0. -1.
        -11    1    3    3    0    0 -0.23128684235E+00 -0.25565002424E+02  0.51732512878E+00  0.25571282098E+02  0.51100000000E-03 0.  1.
         12    1    3    3    0    0  0.90289766049E+01 -0.23519347024E+01  0.51538998855E+01  0.10659113444E+02  0.00000000000E+00 0. -1.
</event>
<event>
 7    1  0.6073302E-013  0.5052885E+02  0.7816164E-02  0.1300439E+00
        -11   -1    0    0    0    0  0.00000000000E+00  0.00000000000E+00  0.45593999997E+02  0.45594000000E+02  0.51100000000E-03 0.  1.
         11   -1    0    0    0    0 -0.00000000000E+00 -0.00000000000E+00 -0.45593999997E+02  0.45594000000E+02  0.51100000000E-03 0. -1.
    9900012    2    1    2    0    0  0.26114423315E+02 -0.18123859167E+02  0.25352099950E+02  0.50528851607E+02  0.29999974944E+02 0.  0.
         12    1    1    2    0    0 -0.26114423315E+02  0.18123859167E+02 -0.25352099950E+02  0.40659148393E+02  0.00000000000E+00 0. -1.
         11    1    3    3    0    0  0.41483943102E+01  0.94120892366E+00  0.78547992748E+00  0.43257402335E+01  0.51100000000E-03 0. -1.
        -11    1    3    3    0    0  0.25988769302E+01 -0.16776792106E+02  0.32021447409E+01  0.17276245132E+02  0.51100000000E-03 0.  1.
        -12    1    3    3    0    0  0.19367152074E+02 -0.22882759850E+01  0.21364475282E+02  0.28926866241E+02  0.00000000000E+00 0.  1.
</event>
<event>
 7    1  0.6073302E-013  0.5052885E+02  0.7816164E-02  0.1300439E+00
        -11   -1    0    0    0    0  0.00000000000E+00  0.00000000000E+00  0.45593999997E+02  0.45594000000E+02  0.51100000000E-03 0.  1.
         11   -1    0    0    0    0 -0.00000000000E+00 -0.00000000000E+00 -0.45593999997E+02  0.45594000000E+02  0.51100000000E-03 0. -1.
    9900012    2    1    2    0    0  0.12214834104E+01  0.40304742521E+02  0.52155438051E+01  0.50528853568E+02  0.29999980905E+02 0.  0.
         12    1    1    2    0    0 -0.12214834104E+01 -0.40304742521E+02 -0.52155438051E+01  0.40659146432E+02  0.00000000000E+00 0. -1.
         11    1    3    3    0    0 -0.87404892008E+01  0.15688622679E+02  0.90462245964E+01  0.20108784467E+02  0.51100000000E-03 0. -1.
        -11    1    3    3    0    0  0.99914582700E+01  0.17633566576E+02  0.31913754684E+01  0.20517231445E+02  0.51100000000E-03 0.  1.
         12    1    3    3    0    0 -0.29485658739E-01  0.69825532659E+01 -0.70220562597E+01  0.99028376554E+01  0.00000000000E+00 0. -1.
</event>
<event>
 7    1  0.6073302E-013  0.5052886E+02  0.7816164E-02  0.1300439E+00
        -11   -1    0    0    0    0  0.00000000000E+00  0.00000000000E+00  0.45593999997E+02  0.45594000000E+02  0.51100000000E-03 0.  1.
         11   -1    0    0    0    0 -0.00000000000E+00 -0.00000000000E+00 -0.45593999997E+02  0.45594000000E+02  0.51100000000E-03 0. -1.
    9900012    2    1    2    0    0 -0.18220754683E+01 -0.32475360053E+02  0.24396653672E+02  0.50528859823E+02  0.29999999917E+02 0.  0.
         12    1    1    2    0    0  0.18220754683E+01  0.32475360053E+02 -0.24396653672E+02  0.40659140177E+02  0.00000000000E+00 0. -1.
         11    1    3    3    0    0 -0.97387657179E+01 -0.20209084396E+01  0.57208633458E+01  0.11474140766E+02  0.51100000000E-03 0. -1.
        -11    1    3    3    0    0  0.76448090598E+00 -0.22024209888E+02  0.73580794819E+01  0.23233415293E+02  0.51100000000E-03 0.  1.
        -12    1    3    3    0    0  0.71522093436E+01 -0.84302417249E+01  0.11317710844E+02  0.15821303764E+02  0.00000000000E+00 0.  1.
</event>
<event>
 7    1  0.6073302E-013  0.5052887E+02  0.7816164E-02  0.1300439E+00
        -11   -1    0    0    0    0  0.00000000000E+00  0.00000000000E+00  0.45593999997E+02  0.45594000000E+02  0.51100000000E-03 0.  1.
         11   -1    0    0    0    0 -0.00000000000E+00 -0.00000000000E+00 -0.45593999997E+02  0.45594000000E+02  0.51100000000E-03 0. -1.
    9900012    2    1    2    0    0  0.25870113539E+02 -0.19847281898E+02  0.24289651361E+02  0.50528873884E+02  0.30000042659E+02 0.  0.
         12    1    1    2    0    0 -0.25870113539E+02  0.19847281898E+02 -0.24289651361E+02  0.40659126116E+02  0.00000000000E+00 0. -1.
         11    1    3    3    0    0  0.74624777958E+01  0.77980121296E+00  0.28268928648E+01  0.80179790667E+01  0.51100000000E-03 0. -1.
        -11    1    3    3    0    0 -0.52384316940E+01 -0.40364649439E+01  0.87079669410E+01  0.10934482355E+02  0.51100000000E-03 0.  1.
        -12    1    3    3    0    0  0.23646067437E+02 -0.16590618167E+02  0.12754791555E+02  0.31576412463E+02  0.00000000000E+00 0.  1.
</event>
<event>
 7    1  0.6073302E-013  0.5052886E+02  0.7816164E-02  0.1300439E+00
        -11   -1    0    0    0    0  0.00000000000E+00  0.00000000000E+00  0.45593999997E+02  0.45594000000E+02  0.51100000000E-03 0.  1.
         11   -1    0    0    0    0 -0.00000000000E+00 -0.00000000000E+00 -0.45593999997E+02  0.45594000000E+02  0.51100000000E-03 0. -1.
    9900012    2    1    2    0    0 -0.35967299970E+02  0.92135728766E+01  0.16571942431E+02  0.50528857508E+02  0.29999992881E+02 0.  0.
         12    1    1    2    0    0  0.35967299970E+02 -0.92135728766E+01 -0.16571942431E+02  0.40659142492E+02  0.00000000000E+00 0. -1.
         11    1    3    3    0    0 -0.74066790145E+01  0.89674313856E+01  0.16770421249E+02  0.20408839967E+02  0.51100000000E-03 0. -1.
        -11    1    3    3    0    0 -0.13531455232E+02 -0.30564873237E+01  0.34726268650E+01  0.14300403249E+02  0.51100000000E-03 0.  1.
         12    1    3    3    0    0 -0.15029165723E+02  0.33026288147E+01 -0.36711056832E+01  0.15819614292E+02  0.00000000000E+00 0. -1.
</event>
<event>
 7    1  0.6073302E-013  0.5052886E+02  0.7816164E-02  0.1300439E+00
        -11   -1    0    0    0    0  0.00000000000E+00  0.00000000000E+00  0.45593999997E+02  0.45594000000E+02  0.51100000000E-03 0.  1.
         11   -1    0    0    0    0 -0.00000000000E+00 -0.00000000000E+00 -0.45593999997E+02  0.45594000000E+02  0.51100000000E-03 0. -1.
    9900012    2    1    2    0    0  0.26252993446E+02  0.29902356367E+02  0.83543507968E+01  0.50528858858E+02  0.29999996984E+02 0.  0.
         12    1    1    2    0    0 -0.26252993446E+02 -0.29902356367E+02 -0.83543507968E+01  0.40659141142E+02  0.00000000000E+00 0. -1.
         11    1    3    3    0    0 -0.14683205638E+01  0.23490824382E+01 -0.25988315986E+01  0.37984311918E+01  0.51100000000E-03 0. -1.
        -11    1    3    3    0    0  0.23515644001E+02  0.31667341704E+02  0.84606221517E+01  0.40340899479E+02  0.51100000000E-03 0.  1.
        -12    1    3    3    0    0  0.42056700095E+01 -0.41140677746E+01  0.24925602437E+01  0.63895281869E+01  0.00000000000E+00 0.  1.
</event>
<event>
 7    1  0.6073302E-013  0.5052886E+02  0.7816164E-02  0.1300439E+00
        -11   -1    0    0    0    0  0.00000000000E+00  0.00000000000E+00  0.45593999997E+02  0.45594000000E+02  0.51100000000E-03 0. -1.
         11   -1    0    0    0    0 -0.00000000000E+00 -0.00000000000E+00 -0.45593999997E+02  0.45594000000E+02  0.51100000000E-03 0.  1.
    9900012    2    1    2    0    0 -0.20409576412E+02 -0.53190617275E+01 -0.34760931887E+02  0.50528860651E+02  0.30000002433E+02 0.  0.
         12    1    1    2    0    0  0.20409576412E+02  0.53190617275E+01  0.34760931887E+02  0.40659139349E+02  0.00000000000E+00 0. -1.
         11    1    3    3    0    0 -0.55194621415E+01 -0.52742201971E+01  0.37223960881E+01  0.84934147383E+01  0.51100000000E-03 0. -1.
        -11    1    3    3    0    0 -0.12017488441E+02  0.33392011902E+01 -0.28477545943E+02  0.31089241165E+02  0.51100000000E-03 0.  1.
        -12    1    3    3    0    0 -0.28726258295E+01 -0.33840427206E+01 -0.10005782032E+02  0.10946204747E+02  0.00000000000E+00 0.  1.
</event>
<event>
 7    1  0.6073302E-013  0.5052885E+02  0.7816164E-02  0.1300439E+00
        -11   -1    0    0    0    0  0.00000000000E+00  0.00000000000E+00  0.45593999997E+02  0.45594000000E+02  0.51100000000E-03 0. -1.
         11   -1    0    0    0    0 -0.00000000000E+00 -0.00000000000E+00 -0.45593999997E+02  0.45594000000E+02  0.51100000000E-03 0.  1.
    9900012    2    1    2    0    0  0.18970095002E+02 -0.32085141188E+02 -0.16243321050E+02  0.50528852589E+02  0.29999977930E+02 0.  0.
         12    1    1    2    0    0 -0.18970095002E+02  0.32085141188E+02  0.16243321050E+02  0.40659147411E+02  0.00000000000E+00 0. -1.
         11    1    3    3    0    0 -0.76387542029E+01 -0.52812442135E+01 -0.62988471912E+01  0.11221300389E+02  0.51100000000E-03 0. -1.
        -11    1    3    3    0    0  0.25122716413E+02 -0.26423422088E+02 -0.98659258518E+01  0.37771478763E+02  0.51100000000E-03 0.  1.
         12    1    3    3    0    0  0.14861327919E+01 -0.38047488646E+00 -0.78548007475E-01  0.15360734370E+01  0.00000000000E+00 0. -1.
</event>
<event>
 7    1  0.6073302E-013  0.5052886E+02  0.7816164E-02  0.1300439E+00
        -11   -1    0    0    0    0  0.00000000000E+00  0.00000000000E+00  0.45593999997E+02  0.45594000000E+02  0.51100000000E-03 0. -1.
         11   -1    0    0    0    0 -0.00000000000E+00 -0.00000000000E+00 -0.45593999997E+02  0.45594000000E+02  0.51100000000E-03 0.  1.
    9900012    2    1    2    0    0  0.13430919207E+02 -0.29781976608E+02 -0.24203509698E+02  0.50528860768E+02  0.30000002790E+02 0.  0.
         12    1    1    2    0    0 -0.13430919207E+02  0.29781976608E+02  0.24203509698E+02  0.40659139232E+02  0.00000000000E+00 0. -1.
         11    1    3    3    0    0 -0.63479824260E+01 -0.10698491038E+01 -0.11499342298E+01  0.65394041762E+01  0.51100000000E-03 0. -1.
        -11    1    3    3    0    0  0.73706147170E+01 -0.38286826718E+01 -0.10746285749E+02  0.13581878735E+02  0.51100000000E-03 0.  1.
         12    1    3    3    0    0  0.12408286916E+02 -0.24883444832E+02 -0.12307289719E+02  0.30407577857E+02  0.00000000000E+00 0. -1.
</event>
<event>
 7    1  0.6073302E-013  0.5052886E+02  0.7816164E-02  0.1300439E+00
        -11   -1    0    0    0    0  0.00000000000E+00  0.00000000000E+00  0.45593999997E+02  0.45594000000E+02  0.51100000000E-03 0. -1.
         11   -1    0    0    0    0 -0.00000000000E+00 -0.00000000000E+00 -0.45593999997E+02  0.45594000000E+02  0.51100000000E-03 0.  1.
    9900012    2    1    2    0    0 -0.35625973164E+02 -0.86556750790E+01  0.17579401070E+02  0.50528855679E+02  0.29999987320E+02 0.  0.
         12    1    1    2    0    0  0.35625973164E+02  0.86556750790E+01 -0.17579401070E+02  0.40659144321E+02  0.00000000000E+00 0. -1.
         11    1    3    3    0    0  0.40540846651E+01 -0.17437000963E+00  0.51612360708E+01  0.65653914896E+01  0.51100000000E-03 0. -1.
        -11    1    3    3    0    0 -0.31358582605E+02 -0.72359474089E+01  0.14495855133E+02  0.35296592671E+02  0.51100000000E-03 0.  1.
         12    1    3    3    0    0 -0.83214752244E+01 -0.12453576605E+01 -0.20776901339E+01  0.86668715178E+01  0.00000000000E+00 0. -1.
</event>
<event>
 7    1  0.6073302E-013  0.5052885E+02  0.7816164E-02  0.1300439E+00
        -11   -1    0    0    0    0  0.00000000000E+00  0.00000000000E+00  0.45593999997E+02  0.45594000000E+02  0.51100000000E-03 0.  1.
         11   -1    0    0    0    0 -0.00000000000E+00 -0.00000000000E+00 -0.45593999997E+02  0.45594000000E+02  0.51100000000E-03 0. -1.
    9900012    2    1    2    0    0  0.27013014457E+02  0.30063609654E+02  0.44319958050E+01  0.50528853892E+02  0.29999981889E+02 0.  0.
         12    1    1    2    0    0 -0.27013014457E+02 -0.30063609654E+02 -0.44319958050E+01  0.40659146108E+02  0.00000000000E+00 0. -1.
         11    1    3    3    0    0 -0.54202556302E+01  0.39872494058E+01 -0.11976067978E+01  0.68345878606E+01  0.51100000000E-03 0. -1.
        -11    1    3    3    0    0  0.12078781840E+02  0.16480470563E+02  0.56183225486E+01  0.21191234726E+02  0.51100000000E-03 0.  1.
         12    1    3    3    0    0  0.20354488247E+02  0.95958896851E+01  0.11280054270E-01  0.22503031305E+02  0.00000000000E+00 0. -1.
</event>
<event>
 7    1  0.6073302E-013  0.5052886E+02  0.7816164E-02  0.1300439E+00
        -11   -1    0    0    0    0  0.00000000000E+00  0.00000000000E+00  0.45593999997E+02  0.45594000000E+02  0.51100000000E-03 0.  1.
         11   -1    0    0    0    0 -0.00000000000E+00 -0.00000000000E+00 -0.45593999997E+02  0.45594000000E+02  0.51100000000E-03 0. -1.
    9900012    2    1    2    0    0  0.30162370347E+02  0.22847540155E+02  0.14879080369E+02  0.50528859469E+02  0.29999998843E+02 0.  0.
         12    1    1    2    0    0 -0.30162370347E+02 -0.22847540155E+02 -0.14879080369E+02  0.40659140531E+02  0.00000000000E+00 0. -1.
         11    1    3    3    0    0  0.78424300941E+01 -0.47140607045E+01  0.72216250730E+01  0.11656669639E+02  0.51100000000E-03 0. -1.
        -11    1    3    3    0    0  0.22109193261E+02  0.19919361986E+02  0.29756330709E+01  0.29907387065E+02  0.51100000000E-03 0.  1.
         12    1    3    3    0    0  0.21074699182E+00  0.76422388732E+01  0.46818222247E+01  0.89648027660E+01  0.00000000000E+00 0. -1.
</event>
<event>
 7    1  0.6073302E-013  0.5052885E+02  0.7816164E-02  0.1300439E+00
        -11   -1    0    0    0    0  0.00000000000E+00  0.00000000000E+00  0.45593999997E+02  0.45594000000E+02  0.51100000000E-03 0.  1.
         11   -1    0    0    0    0 -0.00000000000E+00 -0.00000000000E+00 -0.45593999997E+02  0.45594000000E+02  0.51100000000E-03 0. -1.
    9900012    2    1    2    0    0  0.75426584979E+01  0.12805006150E+02  0.37845822477E+02  0.50528853936E+02  0.29999982024E+02 0.  0.
         12    1    1    2    0    0 -0.75426584979E+01 -0.12805006150E+02 -0.37845822477E+02  0.40659146064E+02  0.00000000000E+00 0. -1.
         11    1    3    3    0    0  0.36841565059E+01  0.30353350791E+01 -0.27092334190E+01  0.54887352079E+01  0.51100000000E-03 0. -1.
        -11    1    3    3    0    0  0.70913738472E+01  0.10274895344E+02  0.39758390536E+02  0.41672421044E+02  0.51100000000E-03 0.  1.
        -12    1    3    3    0    0 -0.32328718552E+01 -0.50522427289E+00  0.79666535914E+00  0.33676976843E+01  0.00000000000E+00 0.  1.
</event>
<event>
 7    1  0.6073302E-013  0.5052886E+02  0.7816164E-02  0.1300439E+00
        -11   -1    0    0    0    0  0.00000000000E+00  0.00000000000E+00  0.45593999997E+02  0.45594000000E+02  0.51100000000E-03 0. -1.
         11   -1    0    0    0    0 -0.00000000000E+00 -0.00000000000E+00 -0.45593999997E+02  0.45594000000E+02  0.51100000000E-03 0.  1.
    9900012    2    1    2    0    0  0.10729330121E+02 -0.22868251283E+01 -0.39151211426E+02  0.50528862649E+02  0.30000008508E+02 0.  0.
         12    1    1    2    0    0 -0.10729330121E+02  0.22868251283E+01  0.39151211426E+02  0.40659137351E+02  0.00000000000E+00 0. -1.
         11    1    3    3    0    0 -0.36018708489E-03  0.62559943913E+00  0.15532555712E+01  0.16745082617E+01  0.51100000000E-03 0. -1.
        -11    1    3    3    0    0  0.17773859638E+02  0.22563477293E+01 -0.23421152746E+02  0.29488160127E+02  0.51100000000E-03 0.  1.
        -12    1    3    3    0    0 -0.70441693299E+01 -0.51687722967E+01 -0.17283314251E+02  0.19366194260E+02  0.00000000000E+00 0.  1.
</event>
<event>
 7    1  0.6073302E-013  0.5052887E+02  0.7816164E-02  0.1300439E+00
        -11   -1    0    0    0    0  0.00000000000E+00  0.00000000000E+00  0.45593999997E+02  0.45594000000E+02  0.51100000000E-03 0.  1.
         11   -1    0    0    0    0 -0.00000000000E+00 -0.00000000000E+00 -0.45593999997E+02  0.45594000000E+02  0.51100000000E-03 0. -1.
    9900012    2    1    2    0    0  0.14073585666E+02 -0.38124569147E+02 -0.12713667317E+01  0.50528868682E+02  0.30000026846E+02 0.  0.
         12    1    1    2    0    0 -0.14073585666E+02  0.38124569147E+02  0.12713667317E+01  0.40659131318E+02  0.00000000000E+00 0. -1.
         11    1    3    3    0    0  0.73704895646E+01 -0.76654865159E+01 -0.32639956927E+01  0.11123734449E+02  0.51100000000E-03 0. -1.
        -11    1    3    3    0    0  0.37771281219E+01 -0.10998667313E+02  0.12519544479E+02  0.17087316166E+02  0.51100000000E-03 0.  1.
        -12    1    3    3    0    0  0.29259679799E+01 -0.19460415318E+02 -0.10526915518E+02  0.22317818067E+02  0.00000000000E+00 0.  1.
</event>
<event>
 7    1  0.6073302E-013  0.5052885E+02  0.7816164E-02  0.1300439E+00
        -11   -1    0    0    0    0  0.00000000000E+00  0.00000000000E+00  0.45593999997E+02  0.45594000000E+02  0.51100000000E-03 0.  1.
         11   -1    0    0    0    0 -0.00000000000E+00 -0.00000000000E+00 -0.45593999997E+02  0.45594000000E+02  0.51100000000E-03 0. -1.
    9900012    2    1    2    0    0 -0.19443573879E+02  0.18672869514E+02  0.30437437858E+02  0.50528852881E+02  0.29999978817E+02 0.  0.
         12    1    1    2    0    0  0.19443573879E+02 -0.18672869514E+02 -0.30437437858E+02  0.40659147119E+02  0.00000000000E+00 0. -1.
         11    1    3    3    0    0  0.34116488698E+01  0.81070223516E+01  0.20448995175E+01  0.90302144891E+01  0.51100000000E-03 0. -1.
        -11    1    3    3    0    0 -0.20892828483E+02  0.14763778453E+01  0.20379826817E+02  0.29223745737E+02  0.51100000000E-03 0.  1.
        -12    1    3    3    0    0 -0.19623942657E+01  0.90894693174E+01  0.80127115233E+01  0.12274892655E+02  0.00000000000E+00 0.  1.
</event>
<event>
 7    1  0.6073302E-013  0.5052886E+02  0.7816164E-02  0.1300439E+00
        -11   -1    0    0    0    0  0.00000000000E+00  0.00000000000E+00  0.45593999997E+02  0.45594000000E+02  0.51100000000E-03 0.  1.
         11   -1    0    0    0    0 -0.00000000000E+00 -0.00000000000E+00 -0.45593999997E+02  0.45594000000E+02  0.51100000000E-03 0. -1.
    9900012    2    1    2    0    0  0.17201000328E+02 -0.33469554880E+02  0.15397410878E+02  0.50528858618E+02  0.29999996256E+02 0.  0.
         12    1    1    2    0    0 -0.17201000328E+02  0.33469554880E+02 -0.15397410878E+02  0.40659141382E+02  0.00000000000E+00 0. -1.
         11    1    3    3    0    0 -0.37253650745E+01 -0.16834842335E+01  0.60530852121E+00  0.41326580756E+01  0.51100000000E-03 0. -1.
        -11    1    3    3    0    0  0.56421575098E+01 -0.22634836397E+02  0.16390935798E+02  0.28510218110E+02  0.51100000000E-03 0.  1.
        -12    1    3    3    0    0  0.15284207893E+02 -0.91512342502E+01 -0.15988334414E+01  0.17885982433E+02  0.00000000000E+00 0.  1.
</event>
<event>
 7    1  0.6073302E-013  0.5052886E+02  0.7816164E-02  0.1300439E+00
        -11   -1    0    0    0    0  0.00000000000E+00  0.00000000000E+00  0.45593999997E+02  0.45594000000E+02  0.51100000000E-03 0. -1.
         11   -1    0    0    0    0 -0.00000000000E+00 -0.00000000000E+00 -0.45593999997E+02  0.45594000000E+02  0.51100000000E-03 0.  1.
    9900012    2    1    2    0    0 -0.14749825504E+02  0.42110407669E+01 -0.37654686135E+02  0.50528860748E+02  0.30000002730E+02 0.  0.
         12    1    1    2    0    0  0.14749825504E+02 -0.42110407669E+01  0.37654686135E+02  0.40659139252E+02  0.00000000000E+00 0. -1.
         11    1    3    3    0    0 -0.13807628651E+01 -0.32911411046E+01 -0.63021069887E+01  0.72425595350E+01  0.51100000000E-03 0. -1.
        -11    1    3    3    0    0  0.14738591065E+01  0.80164197560E+01  0.47443263657E+00  0.81645779412E+01  0.51100000000E-03 0.  1.
        -12    1    3    3    0    0 -0.14842921745E+02 -0.51423788452E+00 -0.31827011783E+02  0.35121723272E+02  0.00000000000E+00 0.  1.
</event>
<event>
 7    1  0.6073302E-013  0.5052886E+02  0.7816164E-02  0.1300439E+00
        -11   -1    0    0    0    0  0.00000000000E+00  0.00000000000E+00  0.45593999997E+02  0.45594000000E+02  0.51100000000E-03 0. -1.
         11   -1    0    0    0    0 -0.00000000000E+00 -0.00000000000E+00 -0.45593999997E+02  0.45594000000E+02  0.51100000000E-03 0.  1.
    9900012    2    1    2    0    0  0.17495244053E+02  0.30694184441E+02 -0.20123344519E+02  0.50528861819E+02  0.30000005986E+02 0.  0.
         12    1    1    2    0    0 -0.17495244053E+02 -0.30694184441E+02  0.20123344519E+02  0.40659138181E+02  0.00000000000E+00 0. -1.
         11    1    3    3    0    0  0.10559516889E+02  0.83175734788E+01  0.46573526427E+01  0.14225904520E+02  0.51100000000E-03 0. -1.
        -11    1    3    3    0    0  0.28772878276E+01  0.62615932531E+01 -0.16190190690E+02  0.17595698627E+02  0.51100000000E-03 0.  1.
        -12    1    3    3    0    0  0.40584393360E+01  0.16115017709E+02 -0.85905064718E+01  0.18707258673E+02  0.00000000000E+00 0.  1.
</event>
<event>
 7    1  0.6073302E-013  0.5052892E+02  0.7816164E-02  0.1300439E+00
        -11   -1    0    0    0    0  0.00000000000E+00  0.00000000000E+00  0.45593999997E+02  0.45594000000E+02  0.51100000000E-03 0. -1.
         11   -1    0    0    0    0 -0.00000000000E+00 -0.00000000000E+00 -0.45593999997E+02  0.45594000000E+02  0.51100000000E-03 0.  1.
    9900012    2    1    2    0    0  0.26084548024E+02  0.22105245765E+02 -0.22002624374E+02  0.50528917186E+02  0.30000174277E+02 0.  0.
         12    1    1    2    0    0 -0.26084548024E+02 -0.22105245765E+02  0.22002624374E+02  0.40659082814E+02  0.00000000000E+00 0. -1.
         11    1    3    3    0    0  0.14623834052E+01  0.13308690073E+02 -0.17057716858E+02  0.21684683565E+02  0.51100000000E-03 0. -1.
        -11    1    3    3    0    0  0.21401586447E+02  0.89515056768E+01 -0.78639440731E+01  0.24494876464E+02  0.51100000000E-03 0.  1.
         12    1    3    3    0    0  0.32205781716E+01 -0.15494998427E+00  0.29190365565E+01  0.43493571566E+01  0.00000000000E+00 0. -1.
</event>
<event>
 7    1  0.6073302E-013  0.5052886E+02  0.7816164E-02  0.1300439E+00
        -11   -1    0    0    0    0  0.00000000000E+00  0.00000000000E+00  0.45593999997E+02  0.45594000000E+02  0.51100000000E-03 0.  1.
         11   -1    0    0    0    0 -0.00000000000E+00 -0.00000000000E+00 -0.45593999997E+02  0.45594000000E+02  0.51100000000E-03 0. -1.
    9900012    2    1    2    0    0 -0.34494614232E+02 -0.24329941889E+01 -0.21386163990E+02  0.50528857339E+02  0.29999992366E+02 0.  0.
         12    1    1    2    0    0  0.34494614232E+02  0.24329941889E+01  0.21386163990E+02  0.40659142661E+02  0.00000000000E+00 0. -1.
         11    1    3    3    0    0  0.27971549993E+01  0.11125482082E+01  0.42827251495E+00  0.30406014559E+01  0.51100000000E-03 0. -1.
        -11    1    3    3    0    0 -0.22423892467E+02 -0.11117196433E+02 -0.95830886400E+01  0.26800346976E+02  0.51100000000E-03 0.  1.
        -12    1    3    3    0    0 -0.14867876764E+02  0.75716540359E+01 -0.12231347865E+02  0.20687908906E+02  0.00000000000E+00 0.  1.
</event>
<event>
 7    1  0.6073302E-013  0.5052886E+02  0.7816164E-02  0.1300439E+00
        -11   -1    0    0    0    0  0.00000000000E+00  0.00000000000E+00  0.45593999997E+02  0.45594000000E+02  0.51100000000E-03 0.  1.
         11   -1    0    0    0    0 -0.00000000000E+00 -0.00000000000E+00 -0.45593999997E+02  0.45594000000E+02  0.51100000000E-03 0. -1.
    9900012    2    1    2    0    0  0.52112561668E+00 -0.11882859738E+02  0.38880484090E+02  0.50528856249E+02  0.29999989054E+02 0.  0.
         12    1    1    2    0    0 -0.52112561668E+00  0.11882859738E+02 -0.38880484090E+02  0.40659143751E+02  0.00000000000E+00 0. -1.
         11    1    3    3    0    0  0.41361785427E+01 -0.42757137595E+01 -0.11676288498E+00  0.59500701612E+01  0.51100000000E-03 0. -1.
        -11    1    3    3    0    0 -0.40613595305E+01 -0.11524653921E+02  0.38746894739E+02  0.40627997014E+02  0.51100000000E-03 0.  1.
         12    1    3    3    0    0  0.44630660453E+00  0.39175079421E+01  0.25035223683E+00  0.39507890736E+01  0.00000000000E+00 0. -1.
</event>
<event>
 7    1  0.6073302E-013  0.5052885E+02  0.7816164E-02  0.1300439E+00
        -11   -1    0    0    0    0  0.00000000000E+00  0.00000000000E+00  0.45593999997E+02  0.45594000000E+02  0.51100000000E-03 0.  1.
         11   -1    0    0    0    0 -0.00000000000E+00 -0.00000000000E+00 -0.45593999997E+02  0.45594000000E+02  0.51100000000E-03 0. -1.
    9900012    2    1    2    0    0  0.99585422307E+01 -0.34679712447E+02  0.18743295978E+02  0.50528853884E+02  0.29999981865E+02 0.  0.
         12    1    1    2    0    0 -0.99585422307E+01  0.34679712447E+02 -0.18743295978E+02  0.40659146116E+02  0.00000000000E+00 0. -1.
         11    1    3    3    0    0 -0.11268930773E+01  0.24653295288E+01 -0.18331474756E+01  0.32723336660E+01  0.51100000000E-03 0. -1.
        -11    1    3    3    0    0  0.13821271742E+02 -0.23897997319E+02  0.19269699276E+02  0.33666944305E+02  0.51100000000E-03 0.  1.
         12    1    3    3    0    0 -0.27358364336E+01 -0.13247044657E+02  0.13067441777E+01  0.13589575913E+02  0.00000000000E+00 0. -1.
</event>
<event>
 7    1  0.6073302E-013  0.5052885E+02  0.7816164E-02  0.1300439E+00
        -11   -1    0    0    0    0  0.00000000000E+00  0.00000000000E+00  0.45593999997E+02  0.45594000000E+02  0.51100000000E-03 0. -1.
         11   -1    0    0    0    0 -0.00000000000E+00 -0.00000000000E+00 -0.45593999997E+02  0.45594000000E+02  0.51100000000E-03 0.  1.
    9900012    2    1    2    0    0 -0.90095693676E+01 -0.30807047983E+02 -0.24958359380E+02  0.50528852830E+02  0.29999978663E+02 0.  0.
         12    1    1    2    0    0  0.90095693676E+01  0.30807047983E+02  0.24958359380E+02  0.40659147170E+02  0.00000000000E+00 0. -1.
         11    1    3    3    0    0 -0.11199104589E+02 -0.12778742882E+02 -0.18834218463E+02  0.25366197954E+02  0.51100000000E-03 0. -1.
        -11    1    3    3    0    0  0.30237471098E+01 -0.15569155595E+02 -0.11230711102E+02  0.19433747056E+02  0.51100000000E-03 0.  1.
         12    1    3    3    0    0 -0.83421188813E+00 -0.24591495055E+01  0.51065701845E+01  0.57289078203E+01  0.00000000000E+00 0. -1.
</event>
<event>
 7    1  0.6073302E-013  0.5052887E+02  0.7816164E-02  0.1300439E+00
        -11   -1    0    0    0    0  0.00000000000E+00  0.00000000000E+00  0.45593999997E+02  0.45594000000E+02  0.51100000000E-03 0.  1.
         11   -1    0    0    0    0 -0.00000000000E+00 -0.00000000000E+00 -0.45593999997E+02  0.45594000000E+02  0.51100000000E-03 0. -1.
    9900012    2    1    2    0    0  0.38087325622E+01 -0.35474128610E+02  0.19499861122E+02  0.50528870298E+02  0.30000031758E+02 0.  0.
         12    1    1    2    0    0 -0.38087325622E+01  0.35474128610E+02 -0.19499861122E+02  0.40659129702E+02  0.00000000000E+00 0. -1.
         11    1    3    3    0    0 -0.19649674887E+00 -0.15278769448E+02 -0.54761156475E+01  0.16231674271E+02  0.51100000000E-03 0. -1.
        -11    1    3    3    0    0  0.68978816871E+01 -0.18626922013E+02  0.19065295436E+02  0.27532317116E+02  0.51100000000E-03 0.  1.
         12    1    3    3    0    0 -0.28926523760E+01 -0.15684371493E+01  0.59106813332E+01  0.67648789111E+01  0.00000000000E+00 0. -1.
</event>
<event>
 7    1  0.6073302E-013  0.5052886E+02  0.7816164E-02  0.1300439E+00
        -11   -1    0    0    0    0  0.00000000000E+00  0.00000000000E+00  0.45593999997E+02  0.45594000000E+02  0.51100000000E-03 0.  1.
         11   -1    0    0    0    0 -0.00000000000E+00 -0.00000000000E+00 -0.45593999997E+02  0.45594000000E+02  0.51100000000E-03 0. -1.
    9900012    2    1    2    0    0 -0.21262608445E+02 -0.79729754381E+01  0.33726822589E+02  0.50528863054E+02  0.30000009740E+02 0.  0.
         12    1    1    2    0    0  0.21262608445E+02  0.79729754381E+01 -0.33726822589E+02  0.40659136946E+02  0.00000000000E+00 0. -1.
         11    1    3    3    0    0  0.10300754664E+00 -0.11031976207E+02  0.12181446559E+02  0.16434803014E+02  0.51100000000E-03 0. -1.
        -11    1    3    3    0    0 -0.12216192922E+02  0.55213049867E+01  0.20591888145E+02  0.24571244085E+02  0.51100000000E-03 0.  1.
         12    1    3    3    0    0 -0.91494230693E+01 -0.24623042178E+01  0.95348788511E+00  0.95228159548E+01  0.00000000000E+00 0. -1.
</event>
<event>
 7    1  0.6073302E-013  0.5052885E+02  0.7816164E-02  0.1300439E+00
        -11   -1    0    0    0    0  0.00000000000E+00  0.00000000000E+00  0.45593999997E+02  0.45594000000E+02  0.51100000000E-03 0.  1.
         11   -1    0    0    0    0 -0.00000000000E+00 -0.00000000000E+00 -0.45593999997E+02  0.45594000000E+02  0.51100000000E-03 0. -1.
    9900012    2    1    2    0    0  0.70453281584E+01  0.29866855134E+02  0.26673969589E+02  0.50528851730E+02  0.29999975317E+02 0.  0.
         12    1    1    2    0    0 -0.70453281584E+01 -0.29866855134E+02 -0.26673969589E+02  0.40659148270E+02  0.00000000000E+00 0. -1.
         11    1    3    3    0    0  0.26167261345E+01  0.11805890508E+01  0.27720866779E+01  0.39906780102E+01  0.51100000000E-03 0. -1.
        -11    1    3    3    0    0  0.65647875874E+01  0.13330048761E+02 -0.33066287531E+01  0.15222366111E+02  0.51100000000E-03 0.  1.
        -12    1    3    3    0    0 -0.21361855634E+01  0.15356217322E+02  0.27208511664E+02  0.31315807608E+02  0.00000000000E+00 0.  1.
</event>
<event>
 7    1  0.6073302E-013  0.5052885E+02  0.7816164E-02  0.1300439E+00
        -11   -1    0    0    0    0  0.00000000000E+00  0.00000000000E+00  0.45593999997E+02  0.45594000000E+02  0.51100000000E-03 0. -1.
         11   -1    0    0    0    0 -0.00000000000E+00 -0.00000000000E+00 -0.45593999997E+02  0.45594000000E+02  0.51100000000E-03 0.  1.
    9900012    2    1    2    0    0  0.74134335993E+01 -0.38924465521E+02  0.91155433029E+01  0.50528854122E+02  0.29999982590E+02 0.  0.
         12    1    1    2    0    0 -0.74134335993E+01  0.38924465521E+02 -0.91155433029E+01  0.40659145878E+02  0.00000000000E+00 0. -1.
         11    1    3    3    0    0  0.66339758862E+01 -0.36160095871E+01  0.33558640671E+01  0.82672235539E+01  0.51100000000E-03 0. -1.
        -11    1    3    3    0    0 -0.75822771609E+01 -0.99878806689E+01  0.89496150619E+01  0.15405982514E+02  0.51100000000E-03 0.  1.
        -12    1    3    3    0    0  0.83617348740E+01 -0.25320575265E+02 -0.31899358260E+01  0.26855648054E+02  0.00000000000E+00 0.  1.
</event>
<event>
 7    1  0.6073302E-013  0.5052886E+02  0.7816164E-02  0.1300439E+00
        -11   -1    0    0    0    0  0.00000000000E+00  0.00000000000E+00  0.45593999997E+02  0.45594000000E+02  0.51100000000E-03 0.  1.
         11   -1    0    0    0    0 -0.00000000000E+00 -0.00000000000E+00 -0.45593999997E+02  0.45594000000E+02  0.51100000000E-03 0. -1.
    9900012    2    1    2    0    0  0.19549803542E+02 -0.28560423683E+02 -0.21337127156E+02  0.50528860624E+02  0.30000002353E+02 0.  0.
         12    1    1    2    0    0 -0.19549803542E+02  0.28560423683E+02  0.21337127156E+02  0.40659139376E+02  0.00000000000E+00 0. -1.
         11    1    3    3    0    0  0.20802982098E+01 -0.69218710200E+01  0.46295065133E+01  0.85832552029E+01  0.51100000000E-03 0.  1.
        -11    1    3    3    0    0  0.28368412028E+01 -0.48724121016E+01 -0.17074509831E+02  0.17981294557E+02  0.51100000000E-03 0. -1.
         12    1    3    3    0    0  0.14632664129E+02 -0.16766140562E+02 -0.88921238385E+01  0.23964310865E+02  0.00000000000E+00 0. -1.
</event>
<event>
 7    1  0.6073302E-013  0.5052885E+02  0.7816164E-02  0.1300439E+00
        -11   -1    0    0    0    0  0.00000000000E+00  0.00000000000E+00  0.45593999997E+02  0.45594000000E+02  0.51100000000E-03 0. -1.
         11   -1    0    0    0    0 -0.00000000000E+00 -0.00000000000E+00 -0.45593999997E+02  0.45594000000E+02  0.51100000000E-03 0.  1.
    9900012    2    1    2    0    0 -0.26156651745E+02 -0.11008035572E+02 -0.29117329683E+02  0.50528853851E+02  0.29999981766E+02 0.  0.
         12    1    1    2    0    0  0.26156651745E+02  0.11008035572E+02  0.29117329683E+02  0.40659146149E+02  0.00000000000E+00 0. -1.
         11    1    3    3    0    0 -0.25599831855E+01 -0.14821045398E+01  0.20722652338E+01  0.36117075237E+01  0.51100000000E-03 0. -1.
        -11    1    3    3    0    0 -0.20068283513E+02 -0.15510456713E+02 -0.30882716501E+02  0.39963138632E+02  0.51100000000E-03 0.  1.
        -12    1    3    3    0    0 -0.35283850466E+01  0.59845256808E+01 -0.30687841586E+00  0.69540076951E+01  0.00000000000E+00 0.  1.
</event>
<event>
 7    1  0.6073302E-013  0.5052886E+02  0.7816164E-02  0.1300439E+00
        -11   -1    0    0    0    0  0.00000000000E+00  0.00000000000E+00  0.45593999997E+02  0.45594000000E+02  0.51100000000E-03 0. -1.
         11   -1    0    0    0    0 -0.00000000000E+00 -0.00000000000E+00 -0.45593999997E+02  0.45594000000E+02  0.51100000000E-03 0.  1.
    9900012    2    1    2    0    0  0.26679723079E+02  0.29789684600E+02 -0.73439071605E+01  0.50528857061E+02  0.29999991522E+02 0.  0.
         12    1    1    2    0    0 -0.26679723079E+02 -0.29789684600E+02  0.73439071605E+01  0.40659142939E+02  0.00000000000E+00 0. -1.
         11    1    3    3    0    0 -0.11148894753E+01  0.11337525628E+02  0.16854795737E+00  0.11393457534E+02  0.51100000000E-03 0. -1.
        -11    1    3    3    0    0  0.21065046919E+02  0.30384517844E+01 -0.17417028473E+01  0.21354201460E+02  0.51100000000E-03 0.  1.
        -12    1    3    3    0    0  0.67295656358E+01  0.15413707187E+02 -0.57707522705E+01  0.17781198066E+02  0.00000000000E+00 0.  1.
</event>
<event>
 7    1  0.6073302E-013  0.5052886E+02  0.7816164E-02  0.1300439E+00
        -11   -1    0    0    0    0  0.00000000000E+00  0.00000000000E+00  0.45593999997E+02  0.45594000000E+02  0.51100000000E-03 0.  1.
         11   -1    0    0    0    0 -0.00000000000E+00 -0.00000000000E+00 -0.45593999997E+02  0.45594000000E+02  0.51100000000E-03 0. -1.
    9900012    2    1    2    0    0  0.17577681859E+02 -0.76260671374E+01  0.35861314681E+02  0.50528859697E+02  0.29999999536E+02 0.  0.
         12    1    1    2    0    0 -0.17577681859E+02  0.76260671374E+01 -0.35861314681E+02  0.40659140303E+02  0.00000000000E+00 0. -1.
         11    1    3    3    0    0 -0.14110268049E+01 -0.36541096440E+01  0.25528690196E+02  0.25827457043E+02  0.51100000000E-03 0. -1.
        -11    1    3    3    0    0  0.16881779645E+02  0.10786387945E+01  0.71023971589E+01  0.18346716090E+02  0.51100000000E-03 0.  1.
        -12    1    3    3    0    0  0.21069290192E+01 -0.50505962879E+01  0.32302273257E+01  0.63546865643E+01  0.00000000000E+00 0.  1.
</event>
<event>
 7    1  0.6073302E-013  0.5052885E+02  0.7816164E-02  0.1300439E+00
        -11   -1    0    0    0    0  0.00000000000E+00  0.00000000000E+00  0.45593999997E+02  0.45594000000E+02  0.51100000000E-03 0.  1.
         11   -1    0    0    0    0 -0.00000000000E+00 -0.00000000000E+00 -0.45593999997E+02  0.45594000000E+02  0.51100000000E-03 0. -1.
    9900012    2    1    2    0    0  0.24449812624E+01 -0.23788389230E+02  0.32883148834E+02  0.50528845154E+02  0.29999955331E+02 0.  0.
         12    1    1    2    0    0 -0.24449812624E+01  0.23788389230E+02 -0.32883148834E+02  0.40659154846E+02  0.00000000000E+00 0. -1.
         11    1    3    3    0    0 -0.49739754868E+01  0.25956240415E+01  0.59736109446E+01  0.81952257008E+01  0.51100000000E-03 0. -1.
        -11    1    3    3    0    0 -0.42023139509E+01 -0.17144287964E+02  0.12381326616E+02  0.21561152598E+02  0.51100000000E-03 0.  1.
        -12    1    3    3    0    0  0.11621270700E+02 -0.92397253075E+01  0.14528211274E+02  0.20772466856E+02  0.00000000000E+00 0.  1.
</event>
<event>
 7    1  0.6073302E-013  0.5052886E+02  0.7816164E-02  0.1300439E+00
        -11   -1    0    0    0    0  0.00000000000E+00  0.00000000000E+00  0.45593999997E+02  0.45594000000E+02  0.51100000000E-03 0. -1.
         11   -1    0    0    0    0 -0.00000000000E+00 -0.00000000000E+00 -0.45593999997E+02  0.45594000000E+02  0.51100000000E-03 0.  1.
    9900012    2    1    2    0    0 -0.19816577559E+02 -0.31260718650E+02 -0.16829628269E+02  0.50528860015E+02  0.30000000502E+02 0.  0.
         12    1    1    2    0    0  0.19816577559E+02  0.31260718650E+02  0.16829628269E+02  0.40659139985E+02  0.00000000000E+00 0. -1.
         11    1    3    3    0    0 -0.40455573704E+01  0.42628184056E+01  0.18869187441E+01  0.61724077801E+01  0.51100000000E-03 0. -1.
        -11    1    3    3    0    0 -0.13005929566E+02 -0.17863572386E+02 -0.12753163295E+02  0.25512831998E+02  0.51100000000E-03 0.  1.
         12    1    3    3    0    0 -0.27650906224E+01 -0.17659964669E+02 -0.59633837180E+01  0.18843620237E+02  0.00000000000E+00 0. -1.
</event>
<event>
 7    1  0.6073302E-013  0.5052886E+02  0.7816164E-02  0.1300439E+00
        -11   -1    0    0    0    0  0.00000000000E+00  0.00000000000E+00  0.45593999997E+02  0.45594000000E+02  0.51100000000E-03 0.  1.
         11   -1    0    0    0    0 -0.00000000000E+00 -0.00000000000E+00 -0.45593999997E+02  0.45594000000E+02  0.51100000000E-03 0. -1.
    9900012    2    1    2    0    0  0.23211698418E+02  0.20431770690E+02  0.26399342699E+02  0.50528862135E+02  0.30000006947E+02 0.  0.
         12    1    1    2    0    0 -0.23211698418E+02 -0.20431770690E+02 -0.26399342699E+02  0.40659137865E+02  0.00000000000E+00 0. -1.
         11    1    3    3    0    0 -0.19393002558E+00 -0.65348745692E+00 -0.47354717754E+01  0.47842813366E+01  0.51100000000E-03 0. -1.
        -11    1    3    3    0    0  0.23981327212E+02  0.19671448278E+02  0.31464992611E+02  0.44182753337E+02  0.51100000000E-03 0.  1.
        -12    1    3    3    0    0 -0.57569876818E+00  0.14138098688E+01 -0.33017813700E+00  0.15618274613E+01  0.00000000000E+00 0.  1.
</event>
<event>
 7    1  0.6073302E-013  0.5052887E+02  0.7816164E-02  0.1300439E+00
        -11   -1    0    0    0    0  0.00000000000E+00  0.00000000000E+00  0.45593999997E+02  0.45594000000E+02  0.51100000000E-03 0.  1.
         11   -1    0    0    0    0 -0.00000000000E+00 -0.00000000000E+00 -0.45593999997E+02  0.45594000000E+02  0.51100000000E-03 0. -1.
    9900012    2    1    2    0    0  0.27989500590E+01  0.29624264258E+02  0.27708000630E+02  0.50528874909E+02  0.30000045774E+02 0.  0.
         12    1    1    2    0    0 -0.27989500590E+01 -0.29624264258E+02 -0.27708000630E+02  0.40659125091E+02  0.00000000000E+00 0. -1.
         11    1    3    3    0    0 -0.42932420541E+01  0.19208230991E+01  0.25877497578E+01  0.53682341401E+01  0.51100000000E-03 0. -1.
        -11    1    3    3    0    0  0.11890885065E+02  0.25533642871E+02  0.11260649530E+02  0.30334176996E+02  0.51100000000E-03 0.  1.
        -12    1    3    3    0    0 -0.47986929521E+01  0.21697982872E+01  0.13859601342E+02  0.14826463773E+02  0.00000000000E+00 0.  1.
</event>
<event>
 7    1  0.6073302E-013  0.5052887E+02  0.7816164E-02  0.1300439E+00
        -11   -1    0    0    0    0  0.00000000000E+00  0.00000000000E+00  0.45593999997E+02  0.45594000000E+02  0.51100000000E-03 0.  1.
         11   -1    0    0    0    0 -0.00000000000E+00 -0.00000000000E+00 -0.45593999997E+02  0.45594000000E+02  0.51100000000E-03 0. -1.
    9900012    2    1    2    0    0  0.15739401581E+02  0.15914833485E+02  0.33943391401E+02  0.50528874250E+02  0.30000043770E+02 0.  0.
         12    1    1    2    0    0 -0.15739401581E+02 -0.15914833485E+02 -0.33943391401E+02  0.40659125750E+02  0.00000000000E+00 0. -1.
         11    1    3    3    0    0  0.14441062521E+02  0.16137845841E+02  0.20913674015E+02  0.30105748889E+02  0.51100000000E-03 0. -1.
        -11    1    3    3    0    0  0.22716893868E+01 -0.43586034748E+01  0.14967227646E+02  0.15753599607E+02  0.51100000000E-03 0.  1.
        -12    1    3    3    0    0 -0.97335032634E+00  0.41355911185E+01 -0.19375102598E+01  0.46695257537E+01  0.00000000000E+00 0.  1.
</event>
<event>
 7    1  0.6073302E-013  0.5052887E+02  0.7816164E-02  0.1300439E+00
        -11   -1    0    0    0    0  0.00000000000E+00  0.00000000000E+00  0.45593999997E+02  0.45594000000E+02  0.51100000000E-03 0.  1.
         11   -1    0    0    0    0 -0.00000000000E+00 -0.00000000000E+00 -0.45593999997E+02  0.45594000000E+02  0.51100000000E-03 0. -1.
    9900012    2    1    2    0    0 -0.15813705204E+02 -0.35700049523E+02  0.11340098081E+02  0.50528872701E+02  0.30000039061E+02 0.  0.
         12    1    1    2    0    0  0.15813705204E+02  0.35700049523E+02 -0.11340098081E+02  0.40659127299E+02  0.00000000000E+00 0. -1.
         11    1    3    3    0    0 -0.41068169025E+01 -0.18207123805E+02 -0.64617624598E+01  0.19751447458E+02  0.51100000000E-03 0. -1.
        -11    1    3    3    0    0  0.55764221876E+00 -0.71163940302E+01  0.11469219949E+02  0.13509146358E+02  0.51100000000E-03 0.  1.
         12    1    3    3    0    0 -0.12264530521E+02 -0.10376531688E+02  0.63326405921E+01  0.17268278884E+02  0.00000000000E+00 0. -1.
</event>
<event>
 7    1  0.6073302E-013  0.5052887E+02  0.7816164E-02  0.1300439E+00
        -11   -1    0    0    0    0  0.00000000000E+00  0.00000000000E+00  0.45593999997E+02  0.45594000000E+02  0.51100000000E-03 0.  1.
         11   -1    0    0    0    0 -0.00000000000E+00 -0.00000000000E+00 -0.45593999997E+02  0.45594000000E+02  0.51100000000E-03 0. -1.
    9900012    2    1    2    0    0 -0.31606918358E+02  0.11351795632E+02  0.22919520620E+02  0.50528868460E+02  0.30000026171E+02 0.  0.
         12    1    1    2    0    0  0.31606918358E+02 -0.11351795632E+02 -0.22919520620E+02  0.40659131540E+02  0.00000000000E+00 0. -1.
         11    1    3    3    0    0 -0.76897488925E+01  0.34486539831E+01  0.35732179359E+01  0.91538701653E+01  0.51100000000E-03 0.  1.
        -11    1    3    3    0    0 -0.75826804463E+01  0.16453766844E+02  0.89170599704E+01  0.20192509623E+02  0.51100000000E-03 0. -1.
        -12    1    3    3    0    0 -0.16334489019E+02 -0.85506251952E+01  0.10429242714E+02  0.21182488672E+02  0.00000000000E+00 0.  1.
</event>
<event>
 7    1  0.6073302E-013  0.5052879E+02  0.7816164E-02  0.1300439E+00
        -11   -1    0    0    0    0  0.00000000000E+00  0.00000000000E+00  0.45593999997E+02  0.45594000000E+02  0.51100000000E-03 0.  1.
         11   -1    0    0    0    0 -0.00000000000E+00 -0.00000000000E+00 -0.45593999997E+02  0.45594000000E+02  0.51100000000E-03 0. -1.
    9900012    2    1    2    0    0 -0.40383901143E+02 -0.19867837372E+01 -0.42853439066E+01  0.50528794971E+02  0.29999802795E+02 0.  0.
         12    1    1    2    0    0  0.40383901143E+02  0.19867837372E+01  0.42853439066E+01  0.40659205029E+02  0.00000000000E+00 0. -1.
         11    1    3    3    0    0 -0.81018740784E+00 -0.47223499143E+00  0.69341823164E+01  0.69973062089E+01  0.51100000000E-03 0. -1.
        -11    1    3    3    0    0 -0.32576424741E+02  0.27042342037E+01 -0.45891610642E+01  0.33009040141E+02  0.51100000000E-03 0.  1.
        -12    1    3    3    0    0 -0.69972889948E+01 -0.42187829494E+01 -0.66303651588E+01  0.10522448621E+02  0.00000000000E+00 0.  1.
</event>
<event>
 7    1  0.6073302E-013  0.5052885E+02  0.7816164E-02  0.1300439E+00
        -11   -1    0    0    0    0  0.00000000000E+00  0.00000000000E+00  0.45593999997E+02  0.45594000000E+02  0.51100000000E-03 0.  1.
         11   -1    0    0    0    0 -0.00000000000E+00 -0.00000000000E+00 -0.45593999997E+02  0.45594000000E+02  0.51100000000E-03 0. -1.
    9900012    2    1    2    0    0 -0.28510810586E+02 -0.28323247310E+02  0.61720426284E+01  0.50528846434E+02  0.29999959222E+02 0.  0.
         12    1    1    2    0    0  0.28510810586E+02  0.28323247310E+02 -0.61720426284E+01  0.40659153566E+02  0.00000000000E+00 0. -1.
         11    1    3    3    0    0 -0.20768946611E+02 -0.19222524429E+02 -0.46960973294E+01  0.28686371662E+02  0.51100000000E-03 0. -1.
        -11    1    3    3    0    0  0.30635577366E+00  0.11719270846E+01  0.84920109482E+01  0.85779669594E+01  0.51100000000E-03 0.  1.
        -12    1    3    3    0    0 -0.80482197490E+01 -0.10272649965E+02  0.23761290096E+01  0.13264507812E+02  0.00000000000E+00 0.  1.
</event>
<event>
 7    1  0.6073302E-013  0.5052886E+02  0.7816164E-02  0.1300439E+00
        -11   -1    0    0    0    0  0.00000000000E+00  0.00000000000E+00  0.45593999997E+02  0.45594000000E+02  0.51100000000E-03 0.  1.
         11   -1    0    0    0    0 -0.00000000000E+00 -0.00000000000E+00 -0.45593999997E+02  0.45594000000E+02  0.51100000000E-03 0. -1.
    9900012    2    1    2    0    0 -0.51998092173E+01  0.20654884476E+02  0.34633850577E+02  0.50528857431E+02  0.29999992648E+02 0.  0.
         12    1    1    2    0    0  0.51998092173E+01 -0.20654884476E+02 -0.34633850577E+02  0.40659142569E+02  0.00000000000E+00 0. -1.
         11    1    3    3    0    0 -0.12404597577E+02  0.17220252714E+02  0.34745298822E+02  0.40714210481E+02  0.51100000000E-03 0. -1.
        -11    1    3    3    0    0  0.17339286009E+01  0.18992524130E+01 -0.25587647055E+01  0.36278017036E+01  0.51100000000E-03 0.  1.
        -12    1    3    3    0    0  0.54708597593E+01  0.15353793495E+01  0.24473164607E+01  0.61868452471E+01  0.00000000000E+00 0.  1.
</event>
<event>
 7    1  0.6073302E-013  0.5052886E+02  0.7816164E-02  0.1300439E+00
        -11   -1    0    0    0    0  0.00000000000E+00  0.00000000000E+00  0.45593999997E+02  0.45594000000E+02  0.51100000000E-03 0.  1.
         11   -1    0    0    0    0 -0.00000000000E+00 -0.00000000000E+00 -0.45593999997E+02  0.45594000000E+02  0.51100000000E-03 0. -1.
    9900012    2    1    2    0    0 -0.24490591465E+01  0.37224572347E+02 -0.16170936632E+02  0.50528857502E+02  0.29999992862E+02 0.  0.
         12    1    1    2    0    0  0.24490591465E+01 -0.37224572347E+02  0.16170936632E+02  0.40659142498E+02  0.00000000000E+00 0. -1.
         11    1    3    3    0    0  0.71983797510E+01  0.95745614142E+01 -0.93388067558E+01  0.15188884396E+02  0.51100000000E-03 0. -1.
        -11    1    3    3    0    0 -0.14641237088E+02  0.25116527548E+02 -0.58347081553E+01  0.29652143246E+02  0.51100000000E-03 0.  1.
        -12    1    3    3    0    0  0.49937981904E+01  0.25334833848E+01 -0.99742172078E+00  0.56878298600E+01  0.00000000000E+00 0.  1.
</event>
<event>
 7    1  0.6073302E-013  0.5052884E+02  0.7816164E-02  0.1300439E+00
        -11   -1    0    0    0    0  0.00000000000E+00  0.00000000000E+00  0.45593999997E+02  0.45594000000E+02  0.51100000000E-03 0.  1.
         11   -1    0    0    0    0 -0.00000000000E+00 -0.00000000000E+00 -0.45593999997E+02  0.45594000000E+02  0.51100000000E-03 0. -1.
    9900012    2    1    2    0    0 -0.30430423525E+02 -0.14745343516E+02  0.22577230956E+02  0.50528841266E+02  0.29999943513E+02 0.  0.
         12    1    1    2    0    0  0.30430423525E+02  0.14745343516E+02 -0.22577230956E+02  0.40659158734E+02  0.00000000000E+00 0. -1.
         11    1    3    3    0    0 -0.16841481510E+02  0.53977864737E+01  0.11730240439E+02  0.21221925909E+02  0.51100000000E-03 0. -1.
        -11    1    3    3    0    0 -0.14094442897E+02 -0.16885883928E+02  0.49409169476E+01  0.22543270773E+02  0.51100000000E-03 0.  1.
        -12    1    3    3    0    0  0.50550088233E+00 -0.32572460617E+01  0.59060735695E+01  0.67636445839E+01  0.00000000000E+00 0.  1.
</event>
<event>
 7    1  0.6073302E-013  0.5052886E+02  0.7816164E-02  0.1300439E+00
        -11   -1    0    0    0    0  0.00000000000E+00  0.00000000000E+00  0.45593999997E+02  0.45594000000E+02  0.51100000000E-03 0. -1.
         11   -1    0    0    0    0 -0.00000000000E+00 -0.00000000000E+00 -0.45593999997E+02  0.45594000000E+02  0.51100000000E-03 0.  1.
    9900012    2    1    2    0    0  0.25244706609E+02  0.31346315749E+02 -0.57688142105E+01  0.50528856622E+02  0.29999990189E+02 0.  0.
         12    1    1    2    0    0 -0.25244706609E+02 -0.31346315749E+02  0.57688142105E+01  0.40659143378E+02  0.00000000000E+00 0. -1.
         11    1    3    3    0    0  0.14518586559E+01 -0.26033436444E+01  0.10106256147E+01  0.31474840876E+01  0.51100000000E-03 0. -1.
        -11    1    3    3    0    0  0.26677041237E+02  0.26945395301E+02 -0.11340492253E+01  0.37934218392E+02  0.51100000000E-03 0.  1.
        -12    1    3    3    0    0 -0.28841932838E+01  0.70042640926E+01 -0.56453905999E+01  0.94471541431E+01  0.00000000000E+00 0.  1.
</event>
<event>
 7    1  0.6073302E-013  0.5052885E+02  0.7816164E-02  0.1300439E+00
        -11   -1    0    0    0    0  0.00000000000E+00  0.00000000000E+00  0.45593999997E+02  0.45594000000E+02  0.51100000000E-03 0.  1.
         11   -1    0    0    0    0 -0.00000000000E+00 -0.00000000000E+00 -0.45593999997E+02  0.45594000000E+02  0.51100000000E-03 0. -1.
    9900012    2    1    2    0    0  0.25208779438E+02  0.23198060211E+02  0.21898263890E+02  0.50528849496E+02  0.29999968529E+02 0.  0.
         12    1    1    2    0    0 -0.25208779438E+02 -0.23198060211E+02 -0.21898263890E+02  0.40659150504E+02  0.00000000000E+00 0. -1.
         11    1    3    3    0    0 -0.62646412870E+01  0.47266458808E+01  0.62694050196E+01  0.10044518470E+02  0.51100000000E-03 0. -1.
        -11    1    3    3    0    0  0.13654912198E+02  0.39256032241E+01  0.43023325968E+01  0.14845102015E+02  0.51100000000E-03 0.  1.
         12    1    3    3    0    0  0.17818508527E+02  0.14545811106E+02  0.11326526274E+02  0.25639229011E+02  0.00000000000E+00 0. -1.
</event>
<event>
 7    1  0.6073302E-013  0.5052885E+02  0.7816164E-02  0.1300439E+00
        -11   -1    0    0    0    0  0.00000000000E+00  0.00000000000E+00  0.45593999997E+02  0.45594000000E+02  0.51100000000E-03 0. -1.
         11   -1    0    0    0    0 -0.00000000000E+00 -0.00000000000E+00 -0.45593999997E+02  0.45594000000E+02  0.51100000000E-03 0.  1.
    9900012    2    1    2    0    0  0.24535094331E+02 -0.16240246027E+02 -0.28061540099E+02  0.50528850014E+02  0.29999970103E+02 0.  0.
         12    1    1    2    0    0 -0.24535094331E+02  0.16240246027E+02  0.28061540099E+02  0.40659149986E+02  0.00000000000E+00 0. -1.
         11    1    3    3    0    0  0.43641988052E+01 -0.16293105333E+02 -0.26874426080E+01  0.17080218402E+02  0.51100000000E-03 0. -1.
        -11    1    3    3    0    0  0.39203379590E+01 -0.20140765467E+01 -0.10231951163E+02  0.11140842828E+02  0.51100000000E-03 0.  1.
         12    1    3    3    0    0  0.16250557566E+02  0.20669358527E+01 -0.15142146328E+02  0.22307788784E+02  0.00000000000E+00 0. -1.
</event>
<event>
 7    1  0.6073302E-013  0.5052886E+02  0.7816164E-02  0.1300439E+00
        -11   -1    0    0    0    0  0.00000000000E+00  0.00000000000E+00  0.45593999997E+02  0.45594000000E+02  0.51100000000E-03 0.  1.
         11   -1    0    0    0    0 -0.00000000000E+00 -0.00000000000E+00 -0.45593999997E+02  0.45594000000E+02  0.51100000000E-03 0. -1.
    9900012    2    1    2    0    0 -0.16674506426E+02 -0.26388396228E+02 -0.26053385371E+02  0.50528861921E+02  0.30000006294E+02 0.  0.
         12    1    1    2    0    0  0.16674506426E+02  0.26388396228E+02  0.26053385371E+02  0.40659138079E+02  0.00000000000E+00 0. -1.
         11    1    3    3    0    0 -0.63018949574E+00 -0.12372294164E+01  0.41652479926E+01  0.43905770157E+01  0.51100000000E-03 0. -1.
        -11    1    3    3    0    0  0.19973428849E+01 -0.12780156040E+02 -0.99983205320E+01  0.16348950447E+02  0.51100000000E-03 0.  1.
         12    1    3    3    0    0 -0.18041659815E+02 -0.12371010772E+02 -0.20220312832E+02  0.29789334458E+02  0.00000000000E+00 0. -1.
</event>
<event>
 7    1  0.6073302E-013  0.5052887E+02  0.7816164E-02  0.1300439E+00
        -11   -1    0    0    0    0  0.00000000000E+00  0.00000000000E+00  0.45593999997E+02  0.45594000000E+02  0.51100000000E-03 0. -1.
         11   -1    0    0    0    0 -0.00000000000E+00 -0.00000000000E+00 -0.45593999997E+02  0.45594000000E+02  0.51100000000E-03 0.  1.
    9900012    2    1    2    0    0 -0.74599225719E+01  0.35898467610E+02  0.17573106762E+02  0.50528874299E+02  0.30000043919E+02 0.  0.
         12    1    1    2    0    0  0.74599225719E+01 -0.35898467610E+02 -0.17573106762E+02  0.40659125701E+02  0.00000000000E+00 0. -1.
         11    1    3    3    0    0 -0.12493277219E+01 -0.27456957840E+01 -0.18807940273E+00  0.30224227398E+01  0.51100000000E-03 0. -1.
        -11    1    3    3    0    0 -0.44900670242E+01  0.30394440878E+02  0.34753741352E+01  0.30920235507E+02  0.51100000000E-03 0.  1.
         12    1    3    3    0    0 -0.17205278257E+01  0.82497225160E+01  0.14285812029E+02  0.16586216052E+02  0.00000000000E+00 0. -1.
</event>
<event>
 7    1  0.6073302E-013  0.5052886E+02  0.7816164E-02  0.1300439E+00
        -11   -1    0    0    0    0  0.00000000000E+00  0.00000000000E+00  0.45593999997E+02  0.45594000000E+02  0.51100000000E-03 0. -1.
         11   -1    0    0    0    0 -0.00000000000E+00 -0.00000000000E+00 -0.45593999997E+02  0.45594000000E+02  0.51100000000E-03 0.  1.
    9900012    2    1    2    0    0  0.53183179015E+01  0.40292633688E+02 -0.11768093853E+01  0.50528859390E+02  0.29999998602E+02 0.  0.
         12    1    1    2    0    0 -0.53183179015E+01 -0.40292633688E+02  0.11768093853E+01  0.40659140610E+02  0.00000000000E+00 0. -1.
         11    1    3    3    0    0  0.11102413803E+02  0.69508279380E+01 -0.21656455547E+01  0.13276581722E+02  0.51100000000E-03 0. -1.
        -11    1    3    3    0    0 -0.97555504633E+01  0.20626711554E+02 -0.37300979240E+01  0.23120242758E+02  0.51100000000E-03 0.  1.
         12    1    3    3    0    0  0.39714545615E+01  0.12715094196E+02  0.47189340934E+01  0.14132034911E+02  0.00000000000E+00 0. -1.
</event>
<event>
 7    1  0.6073302E-013  0.5052886E+02  0.7816164E-02  0.1300439E+00
        -11   -1    0    0    0    0  0.00000000000E+00  0.00000000000E+00  0.45593999997E+02  0.45594000000E+02  0.51100000000E-03 0.  1.
         11   -1    0    0    0    0 -0.00000000000E+00 -0.00000000000E+00 -0.45593999997E+02  0.45594000000E+02  0.51100000000E-03 0. -1.
    9900012    2    1    2    0    0  0.20410346429E+02 -0.30823253299E+02  0.16926615940E+02  0.50528861882E+02  0.30000006176E+02 0.  0.
         12    1    1    2    0    0 -0.20410346429E+02  0.30823253299E+02 -0.16926615940E+02  0.40659138118E+02  0.00000000000E+00 0. -1.
         11    1    3    3    0    0  0.80425704051E+01 -0.12828664174E+01 -0.45890324629E+01  0.93481497727E+01  0.51100000000E-03 0. -1.
        -11    1    3    3    0    0  0.11293880742E+02 -0.27247703493E+02  0.12886341387E+02  0.32187682154E+02  0.51100000000E-03 0.  1.
        -12    1    3    3    0    0  0.10738952823E+01 -0.22926833894E+01  0.86293070162E+01  0.89930299555E+01  0.00000000000E+00 0.  1.
</event>
<event>
 7    1  0.6073302E-013  0.5052897E+02  0.7816164E-02  0.1300438E+00
        -11   -1    0    0    0    0  0.00000000000E+00  0.00000000000E+00  0.45593999997E+02  0.45594000000E+02  0.51100000000E-03 0. -1.
         11   -1    0    0    0    0 -0.00000000000E+00 -0.00000000000E+00 -0.45593999997E+02  0.45594000000E+02  0.51100000000E-03 0.  1.
    9900012    2    1    2    0    0  0.23638208190E+02  0.33061220981E+02 -0.11607184886E+01  0.50528972877E+02  0.30000343554E+02 0.  0.
         12    1    1    2    0    0 -0.23638208190E+02 -0.33061220981E+02  0.11607184886E+01  0.40659027123E+02  0.00000000000E+00 0. -1.
         11    1    3    3    0    0 -0.11274220288E+01  0.29240183455E+01  0.31523623837E+01  0.44450368475E+01  0.51100000000E-03 0.  1.
        -11    1    3    3    0    0  0.13596841334E+02  0.28268543437E+02 -0.10625607782E+02  0.33119302277E+02  0.51100000000E-03 0. -1.
        -12    1    3    3    0    0  0.11168788884E+02  0.18686591991E+01  0.63125269100E+01  0.12964633752E+02  0.00000000000E+00 0.  1.
</event>
<event>
 7    1  0.6073302E-013  0.5052886E+02  0.7816164E-02  0.1300439E+00
        -11   -1    0    0    0    0  0.00000000000E+00  0.00000000000E+00  0.45593999997E+02  0.45594000000E+02  0.51100000000E-03 0.  1.
         11   -1    0    0    0    0 -0.00000000000E+00 -0.00000000000E+00 -0.45593999997E+02  0.45594000000E+02  0.51100000000E-03 0. -1.
    9900012    2    1    2    0    0  0.13054907898E+02  0.12346400787E+02  0.36473299033E+02  0.50528858654E+02  0.29999996366E+02 0.  0.
         12    1    1    2    0    0 -0.13054907898E+02 -0.12346400787E+02 -0.36473299033E+02  0.40659141346E+02  0.00000000000E+00 0. -1.
         11    1    3    3    0    0  0.24501834123E+01 -0.16691976140E+01 -0.26665865614E+01  0.39875184738E+01  0.51100000000E-03 0. -1.
        -11    1    3    3    0    0  0.11103600389E+02  0.41634657145E+01  0.32640728004E+02  0.34728108403E+02  0.51100000000E-03 0.  1.
        -12    1    3    3    0    0 -0.49887590388E+00  0.98521326870E+01  0.64991575905E+01  0.11813231778E+02  0.00000000000E+00 0.  1.
</event>
<event>
 7    1  0.6073302E-013  0.5052886E+02  0.7816164E-02  0.1300439E+00
        -11   -1    0    0    0    0  0.00000000000E+00  0.00000000000E+00  0.45593999997E+02  0.45594000000E+02  0.51100000000E-03 0.  1.
         11   -1    0    0    0    0 -0.00000000000E+00 -0.00000000000E+00 -0.45593999997E+02  0.45594000000E+02  0.51100000000E-03 0. -1.
    9900012    2    1    2    0    0  0.50667986706E+00 -0.34463254315E+02  0.21568327160E+02  0.50528863770E+02  0.30000011916E+02 0.  0.
         12    1    1    2    0    0 -0.50667986706E+00  0.34463254315E+02 -0.21568327160E+02  0.40659136230E+02  0.00000000000E+00 0. -1.
         11    1    3    3    0    0  0.58924058543E+01  0.20194835179E+01  0.65652555267E+01  0.90499359569E+01  0.51100000000E-03 0. -1.
        -11    1    3    3    0    0 -0.57277206209E+01 -0.86184784998E+01  0.13123644339E+01  0.10431071653E+02  0.51100000000E-03 0.  1.
         12    1    3    3    0    0  0.34199463366E+00 -0.27864259333E+02  0.13690707200E+02  0.31047856160E+02  0.00000000000E+00 0. -1.
</event>
<event>
 7    1  0.6073302E-013  0.5052886E+02  0.7816164E-02  0.1300439E+00
        -11   -1    0    0    0    0  0.00000000000E+00  0.00000000000E+00  0.45593999997E+02  0.45594000000E+02  0.51100000000E-03 0.  1.
         11   -1    0    0    0    0 -0.00000000000E+00 -0.00000000000E+00 -0.45593999997E+02  0.45594000000E+02  0.51100000000E-03 0. -1.
    9900012    2    1    2    0    0 -0.20679090655E+02 -0.35006884696E+02 -0.24281738805E+00  0.50528859248E+02  0.29999998171E+02 0.  0.
         12    1    1    2    0    0  0.20679090655E+02  0.35006884696E+02  0.24281738805E+00  0.40659140752E+02  0.00000000000E+00 0. -1.
         11    1    3    3    0    0 -0.90926940751E+01  0.89456034971E+00 -0.59495079105E+01  0.10902933935E+02  0.51100000000E-03 0. -1.
        -11    1    3    3    0    0 -0.48067426264E+01 -0.29414933343E+02  0.49408569636E+01  0.30211837846E+02  0.51100000000E-03 0.  1.
        -12    1    3    3    0    0 -0.67796539531E+01 -0.64865117021E+01  0.76583355883E+00  0.94140874664E+01  0.00000000000E+00 0.  1.
</event>
<event>
 7    1  0.6073302E-013  0.5052887E+02  0.7816164E-02  0.1300439E+00
        -11   -1    0    0    0    0  0.00000000000E+00  0.00000000000E+00  0.45593999997E+02  0.45594000000E+02  0.51100000000E-03 0.  1.
         11   -1    0    0    0    0 -0.00000000000E+00 -0.00000000000E+00 -0.45593999997E+02  0.45594000000E+02  0.51100000000E-03 0. -1.
    9900012    2    1    2    0    0 -0.24092842724E+02 -0.10515631963E+02  0.31018084588E+02  0.50528866246E+02  0.30000019442E+02 0.  0.
         12    1    1    2    0    0  0.24092842724E+02  0.10515631963E+02 -0.31018084588E+02  0.40659133754E+02  0.00000000000E+00 0. -1.
         11    1    3    3    0    0 -0.38039505924E+01 -0.40100063853E+01 -0.42896611150E+01  0.69965265712E+01  0.51100000000E-03 0. -1.
        -11    1    3    3    0    0 -0.22240624821E+02 -0.71309131635E+01  0.31580362566E+02  0.39278678886E+02  0.51100000000E-03 0.  1.
         12    1    3    3    0    0  0.19517326894E+01  0.62528758584E+00  0.37273831367E+01  0.42536607885E+01  0.00000000000E+00 0. -1.
</event>
<event>
 7    1  0.6073302E-013  0.5052886E+02  0.7816164E-02  0.1300439E+00
        -11   -1    0    0    0    0  0.00000000000E+00  0.00000000000E+00  0.45593999997E+02  0.45594000000E+02  0.51100000000E-03 0. -1.
         11   -1    0    0    0    0 -0.00000000000E+00 -0.00000000000E+00 -0.45593999997E+02  0.45594000000E+02  0.51100000000E-03 0.  1.
    9900012    2    1    2    0    0  0.38810312864E+02 -0.11893311748E+02 -0.23397605443E+01  0.50528859227E+02  0.29999998108E+02 0.  0.
         12    1    1    2    0    0 -0.38810312864E+02  0.11893311748E+02  0.23397605443E+01  0.40659140773E+02  0.00000000000E+00 0. -1.
         11    1    3    3    0    0  0.65679599716E+01  0.61397500383E+01 -0.87903364347E+01  0.12573966901E+02  0.51100000000E-03 0. -1.
        -11    1    3    3    0    0  0.13786401880E+02 -0.69628057433E+01 -0.14455288670E+00  0.15445596020E+02  0.51100000000E-03 0.  1.
         12    1    3    3    0    0  0.18455951013E+02 -0.11070256043E+02  0.65951287772E+01  0.22509296307E+02  0.00000000000E+00 0. -1.
</event>
<event>
 7    1  0.6073302E-013  0.5052890E+02  0.7816164E-02  0.1300439E+00
        -11   -1    0    0    0    0  0.00000000000E+00  0.00000000000E+00  0.45593999997E+02  0.45594000000E+02  0.51100000000E-03 0. -1.
         11   -1    0    0    0    0 -0.00000000000E+00 -0.00000000000E+00 -0.45593999997E+02  0.45594000000E+02  0.51100000000E-03 0.  1.
    9900012    2    1    2    0    0 -0.35605958063E+02 -0.10563813219E+02  0.16546431653E+02  0.50528895242E+02  0.30000107576E+02 0.  0.
         12    1    1    2    0    0  0.35605958063E+02  0.10563813219E+02 -0.16546431653E+02  0.40659104758E+02  0.00000000000E+00 0. -1.
         11    1    3    3    0    0  0.46263488047E+01 -0.14350772531E+01  0.35659146295E+00  0.48569236887E+01  0.51100000000E-03 0. -1.
        -11    1    3    3    0    0 -0.26119242260E+02 -0.49710225528E+00  0.10857939446E+02  0.28290577516E+02  0.51100000000E-03 0.  1.
         12    1    3    3    0    0 -0.14113064607E+02 -0.86316337109E+01  0.53319007435E+01  0.17381394037E+02  0.00000000000E+00 0. -1.
</event>
<event>
 7    1  0.6073302E-013  0.5052885E+02  0.7816164E-02  0.1300439E+00
        -11   -1    0    0    0    0  0.00000000000E+00  0.00000000000E+00  0.45593999997E+02  0.45594000000E+02  0.51100000000E-03 0.  1.
         11   -1    0    0    0    0 -0.00000000000E+00 -0.00000000000E+00 -0.45593999997E+02  0.45594000000E+02  0.51100000000E-03 0. -1.
    9900012    2    1    2    0    0  0.33117615265E+02  0.23290361230E+02  0.37348377823E+01  0.50528851210E+02  0.29999973739E+02 0.  0.
         12    1    1    2    0    0 -0.33117615265E+02 -0.23290361230E+02 -0.37348377823E+01  0.40659148790E+02  0.00000000000E+00 0. -1.
         11    1    3    3    0    0  0.48725957081E+01 -0.71870795608E+01  0.19230258825E+01  0.88934993312E+01  0.51100000000E-03 0. -1.
        -11    1    3    3    0    0  0.76223533638E+01  0.71827525036E+01  0.44252448880E-01  0.10473498120E+02  0.51100000000E-03 0.  1.
         12    1    3    3    0    0  0.20622666193E+02  0.23294688287E+02  0.17675594509E+01  0.31161853759E+02  0.00000000000E+00 0. -1.
</event>
<event>
 7    1  0.6073302E-013  0.5052886E+02  0.7816164E-02  0.1300439E+00
        -11   -1    0    0    0    0  0.00000000000E+00  0.00000000000E+00  0.45593999997E+02  0.45594000000E+02  0.51100000000E-03 0.  1.
         11   -1    0    0    0    0 -0.00000000000E+00 -0.00000000000E+00 -0.45593999997E+02  0.45594000000E+02  0.51100000000E-03 0. -1.
    9900012    2    1    2    0    0  0.28564036136E+02  0.28770200056E+02  0.30882267506E+01  0.50528859378E+02  0.29999998566E+02 0.  0.
         12    1    1    2    0    0 -0.28564036136E+02 -0.28770200056E+02 -0.30882267506E+01  0.40659140622E+02  0.00000000000E+00 0. -1.
         11    1    3    3    0    0  0.35412078370E+01  0.18918813929E+02 -0.74264582020E+01  0.20630413353E+02  0.51100000000E-03 0. -1.
        -11    1    3    3    0    0  0.19846666056E+02  0.10828309478E+02  0.74503347251E+01  0.23804409832E+02  0.51100000000E-03 0.  1.
        -12    1    3    3    0    0  0.51761622435E+01 -0.97692335119E+00  0.30643502274E+01  0.60940361930E+01  0.00000000000E+00 0.  1.
</event>
<event>
 7    1  0.6073302E-013  0.5052888E+02  0.7816164E-02  0.1300439E+00
        -11   -1    0    0    0    0  0.00000000000E+00  0.00000000000E+00  0.45593999997E+02  0.45594000000E+02  0.51100000000E-03 0. -1.
         11   -1    0    0    0    0 -0.00000000000E+00 -0.00000000000E+00 -0.45593999997E+02  0.45594000000E+02  0.51100000000E-03 0.  1.
    9900012    2    1    2    0    0  0.30839386115E+02  0.90587827653E+01 -0.24900497506E+02  0.50528879778E+02  0.30000060573E+02 0.  0.
         12    1    1    2    0    0 -0.30839386115E+02 -0.90587827653E+01  0.24900497506E+02  0.40659120222E+02  0.00000000000E+00 0. -1.
         11    1    3    3    0    0 -0.11926267857E+01  0.28277732233E+01 -0.23605744998E+01  0.38718176975E+01  0.51100000000E-03 0. -1.
        -11    1    3    3    0    0  0.12466965328E+02 -0.75657978173E+01 -0.16391698074E+02  0.21939787763E+02  0.51100000000E-03 0.  1.
        -12    1    3    3    0    0  0.19565047573E+02  0.13796807359E+02 -0.61482249327E+01  0.24717274317E+02  0.00000000000E+00 0.  1.
</event>
<event>
 7    1  0.6073302E-013  0.5052886E+02  0.7816164E-02  0.1300439E+00
        -11   -1    0    0    0    0  0.00000000000E+00  0.00000000000E+00  0.45593999997E+02  0.45594000000E+02  0.51100000000E-03 0.  1.
         11   -1    0    0    0    0 -0.00000000000E+00 -0.00000000000E+00 -0.45593999997E+02  0.45594000000E+02  0.51100000000E-03 0. -1.
    9900012    2    1    2    0    0 -0.25343099081E+02  0.11889311091E+02  0.29487920716E+02  0.50528857640E+02  0.29999993284E+02 0.  0.
         12    1    1    2    0    0  0.25343099081E+02 -0.11889311091E+02 -0.29487920716E+02  0.40659142360E+02  0.00000000000E+00 0. -1.
         11    1    3    3    0    0 -0.25563975721E+00  0.93657852366E+01  0.54360114354E+01  0.10832059147E+02  0.51100000000E-03 0. -1.
        -11    1    3    3    0    0 -0.13011053396E+02 -0.27486168958E+01  0.12443031447E+01  0.13356297986E+02  0.51100000000E-03 0.  1.
        -12    1    3    3    0    0 -0.12076405928E+02  0.52721427502E+01  0.22807606136E+02  0.26340500507E+02  0.00000000000E+00 0.  1.
</event>
<event>
 7    1  0.6073302E-013  0.5052885E+02  0.7816164E-02  0.1300439E+00
        -11   -1    0    0    0    0  0.00000000000E+00  0.00000000000E+00  0.45593999997E+02  0.45594000000E+02  0.51100000000E-03 0.  1.
         11   -1    0    0    0    0 -0.00000000000E+00 -0.00000000000E+00 -0.45593999997E+02  0.45594000000E+02  0.51100000000E-03 0. -1.
    9900012    2    1    2    0    0 -0.33450570380E+02  0.93615858950E+01  0.21132584682E+02  0.50528854847E+02  0.29999984793E+02 0.  0.
         12    1    1    2    0    0  0.33450570380E+02 -0.93615858950E+01 -0.21132584682E+02  0.40659145153E+02  0.00000000000E+00 0. -1.
         11    1    3    3    0    0 -0.33328722921E+01 -0.53129479267E+01 -0.32885975613E+01  0.70816895984E+01  0.51100000000E-03 0. -1.
        -11    1    3    3    0    0 -0.22306904095E+02  0.10235749353E+02  0.10097449110E+02  0.26539160007E+02  0.51100000000E-03 0.  1.
        -12    1    3    3    0    0 -0.78107939936E+01  0.44387844688E+01  0.14323733133E+02  0.16908005241E+02  0.00000000000E+00 0.  1.
</event>
<event>
 7    1  0.6073302E-013  0.5052878E+02  0.7816164E-02  0.1300439E+00
        -11   -1    0    0    0    0  0.00000000000E+00  0.00000000000E+00  0.45593999997E+02  0.45594000000E+02  0.51100000000E-03 0.  1.
         11   -1    0    0    0    0 -0.00000000000E+00 -0.00000000000E+00 -0.45593999997E+02  0.45594000000E+02  0.51100000000E-03 0. -1.
    9900012    2    1    2    0    0  0.13498609110E+02  0.29118978553E+02  0.24960868958E+02  0.50528777934E+02  0.29999751008E+02 0.  0.
         12    1    1    2    0    0 -0.13498609110E+02 -0.29118978553E+02 -0.24960868958E+02  0.40659222066E+02  0.00000000000E+00 0. -1.
         11    1    3    3    0    0  0.93895054341E+01  0.30318627617E+02  0.10088552562E+02  0.33304067108E+02  0.51100000000E-03 0. -1.
        -11    1    3    3    0    0  0.62631032485E+01 -0.12141117926E+01  0.12405415851E+02  0.13949726608E+02  0.51100000000E-03 0.  1.
         12    1    3    3    0    0 -0.21539995725E+01  0.14462728201E-01  0.24669005450E+01  0.32749842180E+01  0.00000000000E+00 0. -1.
</event>
<event>
 7    1  0.6073302E-013  0.5052886E+02  0.7816164E-02  0.1300439E+00
        -11   -1    0    0    0    0  0.00000000000E+00  0.00000000000E+00  0.45593999997E+02  0.45594000000E+02  0.51100000000E-03 0.  1.
         11   -1    0    0    0    0 -0.00000000000E+00 -0.00000000000E+00 -0.45593999997E+02  0.45594000000E+02  0.51100000000E-03 0. -1.
    9900012    2    1    2    0    0  0.37615952413E+01  0.35754421437E+01  0.40326566770E+02  0.50528863601E+02  0.30000011400E+02 0.  0.
         12    1    1    2    0    0 -0.37615952413E+01 -0.35754421437E+01 -0.40326566770E+02  0.40659136399E+02  0.00000000000E+00 0. -1.
         11    1    3    3    0    0  0.12986286866E+01  0.93388720709E+01  0.53269008841E+01  0.10829443260E+02  0.51100000000E-03 0. -1.
        -11    1    3    3    0    0 -0.33325562066E+00 -0.11520547031E+02  0.16522382663E+02  0.20145053793E+02  0.51100000000E-03 0.  1.
        -12    1    3    3    0    0  0.27962221753E+01  0.57571171035E+01  0.18477283223E+02  0.19554366548E+02  0.00000000000E+00 0.  1.
</event>
<event>
 7    1  0.6073302E-013  0.5052885E+02  0.7816164E-02  0.1300439E+00
        -11   -1    0    0    0    0  0.00000000000E+00  0.00000000000E+00  0.45593999997E+02  0.45594000000E+02  0.51100000000E-03 0.  1.
         11   -1    0    0    0    0 -0.00000000000E+00 -0.00000000000E+00 -0.45593999997E+02  0.45594000000E+02  0.51100000000E-03 0. -1.
    9900012    2    1    2    0    0  0.34401855110E+02  0.12338895369E+02  0.17816590150E+02  0.50528845330E+02  0.29999955864E+02 0.  0.
         12    1    1    2    0    0 -0.34401855110E+02 -0.12338895369E+02 -0.17816590150E+02  0.40659154670E+02  0.00000000000E+00 0. -1.
         11    1    3    3    0    0  0.84670397527E+01 -0.31003450479E+00 -0.61481555703E+01  0.10468366670E+02  0.51100000000E-03 0. -1.
        -11    1    3    3    0    0  0.98671727459E+01  0.12570311160E+02  0.10792151649E+02  0.19283266273E+02  0.51100000000E-03 0.  1.
         12    1    3    3    0    0  0.16067642611E+02  0.78618713282E-01  0.13172594072E+02  0.20777212387E+02  0.00000000000E+00 0. -1.
</event>
<event>
 7    1  0.6073302E-013  0.5052887E+02  0.7816164E-02  0.1300439E+00
        -11   -1    0    0    0    0  0.00000000000E+00  0.00000000000E+00  0.45593999997E+02  0.45594000000E+02  0.51100000000E-03 0.  1.
         11   -1    0    0    0    0 -0.00000000000E+00 -0.00000000000E+00 -0.45593999997E+02  0.45594000000E+02  0.51100000000E-03 0. -1.
    9900012    2    1    2    0    0 -0.17326988832E+02 -0.17189514756E+02  0.32518624108E+02  0.50528869741E+02  0.30000030065E+02 0.  0.
         12    1    1    2    0    0  0.17326988832E+02  0.17189514756E+02 -0.32518624108E+02  0.40659130259E+02  0.00000000000E+00 0. -1.
         11    1    3    3    0    0 -0.15377634490E+02 -0.10045712145E+01  0.61669878151E+01  0.16598570565E+02  0.51100000000E-03 0. -1.
        -11    1    3    3    0    0 -0.12542642405E+01 -0.17648842361E+02  0.17338134554E+02  0.24772277359E+02  0.51100000000E-03 0.  1.
         12    1    3    3    0    0 -0.69509010170E+00  0.14638988199E+01  0.90135017393E+01  0.91580218174E+01  0.00000000000E+00 0. -1.
</event>
<event>
 7    1  0.6073302E-013  0.5052886E+02  0.7816164E-02  0.1300439E+00
        -11   -1    0    0    0    0  0.00000000000E+00  0.00000000000E+00  0.45593999997E+02  0.45594000000E+02  0.51100000000E-03 0. -1.
         11   -1    0    0    0    0 -0.00000000000E+00 -0.00000000000E+00 -0.45593999997E+02  0.45594000000E+02  0.51100000000E-03 0.  1.
    9900012    2    1    2    0    0  0.20479063010E+02 -0.17438483622E+02 -0.30490533203E+02  0.50528863908E+02  0.30000012334E+02 0.  0.
         12    1    1    2    0    0 -0.20479063010E+02  0.17438483622E+02  0.30490533203E+02  0.40659136092E+02  0.00000000000E+00 0. -1.
         11    1    3    3    0    0 -0.89890899968E+00  0.16859867282E+01  0.25022845966E+01  0.31483356080E+01  0.51100000000E-03 0. -1.
        -11    1    3    3    0    0  0.12905497328E+02 -0.18161237501E+02 -0.31714601423E+02  0.38758203680E+02  0.51100000000E-03 0.  1.
        -12    1    3    3    0    0  0.84724746810E+01 -0.96323284930E+00 -0.12782163765E+01  0.86223246197E+01  0.00000000000E+00 0.  1.
</event>
<event>
 7    1  0.6073302E-013  0.5052888E+02  0.7816164E-02  0.1300439E+00
        -11   -1    0    0    0    0  0.00000000000E+00  0.00000000000E+00  0.45593999997E+02  0.45594000000E+02  0.51100000000E-03 0.  1.
         11   -1    0    0    0    0 -0.00000000000E+00 -0.00000000000E+00 -0.45593999997E+02  0.45594000000E+02  0.51100000000E-03 0. -1.
    9900012    2    1    2    0    0  0.85570324805E+01  0.17464437424E+02  0.35706229696E+02  0.50528877794E+02  0.30000054543E+02 0.  0.
         12    1    1    2    0    0 -0.85570324805E+01 -0.17464437424E+02 -0.35706229696E+02  0.40659122206E+02  0.00000000000E+00 0. -1.
         11    1    3    3    0    0 -0.36740730466E+01  0.21651284765E+01  0.21906261042E+02  0.22317501365E+02  0.51100000000E-03 0. -1.
        -11    1    3    3    0    0  0.11064391522E+02  0.16698658230E+02  0.15794886709E+02  0.25509692135E+02  0.51100000000E-03 0.  1.
         12    1    3    3    0    0  0.11667140052E+01 -0.13993492817E+01 -0.19949180544E+01  0.27016842943E+01  0.00000000000E+00 0. -1.
</event>
<event>
 7    1  0.6073302E-013  0.5052885E+02  0.7816164E-02  0.1300439E+00
        -11   -1    0    0    0    0  0.00000000000E+00  0.00000000000E+00  0.45593999997E+02  0.45594000000E+02  0.51100000000E-03 0.  1.
         11   -1    0    0    0    0 -0.00000000000E+00 -0.00000000000E+00 -0.45593999997E+02  0.45594000000E+02  0.51100000000E-03 0. -1.
    9900012    2    1    2    0    0  0.18622427373E+02 -0.36021221275E+02 -0.29738020214E+01  0.50528847502E+02  0.29999962468E+02 0.  0.
         12    1    1    2    0    0 -0.18622427373E+02  0.36021221275E+02  0.29738020214E+01  0.40659152498E+02  0.00000000000E+00 0. -1.
         11    1    3    3    0    0  0.17093834823E+02 -0.29529498353E+02  0.58791214363E+01  0.34623034688E+02  0.51100000000E-03 0. -1.
        -11    1    3    3    0    0  0.57996717054E+01 -0.22351697570E+01 -0.74730065821E+01  0.97199795972E+01  0.51100000000E-03 0.  1.
         12    1    3    3    0    0 -0.42710791558E+01 -0.42565531651E+01 -0.13799168756E+01  0.61858332168E+01  0.00000000000E+00 0. -1.
</event>
<event>
 7    1  0.6073302E-013  0.5052886E+02  0.7816164E-02  0.1300439E+00
        -11   -1    0    0    0    0  0.00000000000E+00  0.00000000000E+00  0.45593999997E+02  0.45594000000E+02  0.51100000000E-03 0.  1.
         11   -1    0    0    0    0 -0.00000000000E+00 -0.00000000000E+00 -0.45593999997E+02  0.45594000000E+02  0.51100000000E-03 0. -1.
    9900012    2    1    2    0    0 -0.18539162534E+02  0.28858525364E+02  0.21832324882E+02  0.50528862731E+02  0.30000008759E+02 0.  0.
         12    1    1    2    0    0  0.18539162534E+02 -0.28858525364E+02 -0.21832324882E+02  0.40659137269E+02  0.00000000000E+00 0. -1.
         11    1    3    3    0    0 -0.12179332935E+02  0.15290723446E+02  0.82951748776E+01  0.21235637517E+02  0.51100000000E-03 0. -1.
        -11    1    3    3    0    0  0.26677692991E+01 -0.40949033748E+01  0.67389378755E+01  0.83245726997E+01  0.51100000000E-03 0.  1.
        -12    1    3    3    0    0 -0.90275988983E+01  0.17662705292E+02  0.67982121292E+01  0.20968652514E+02  0.00000000000E+00 0.  1.
</event>
<event>
 7    1  0.6073302E-013  0.5052887E+02  0.7816164E-02  0.1300439E+00
        -11   -1    0    0    0    0  0.00000000000E+00  0.00000000000E+00  0.45593999997E+02  0.45594000000E+02  0.51100000000E-03 0.  1.
         11   -1    0    0    0    0 -0.00000000000E+00 -0.00000000000E+00 -0.45593999997E+02  0.45594000000E+02  0.51100000000E-03 0. -1.
    9900012    2    1    2    0    0  0.78870411476E+01  0.31561482971E+02  0.24389174921E+02  0.50528874595E+02  0.30000044819E+02 0.  0.
         12    1    1    2    0    0 -0.78870411476E+01 -0.31561482971E+02 -0.24389174921E+02  0.40659125405E+02  0.00000000000E+00 0. -1.
         11    1    3    3    0    0  0.44526412140E+01  0.10911172815E+02 -0.25214581576E+01  0.12051450430E+02  0.51100000000E-03 0. -1.
        -11    1    3    3    0    0 -0.46635390439E+01  0.14471352648E+02  0.22990116572E+02  0.27562911750E+02  0.51100000000E-03 0.  1.
        -12    1    3    3    0    0  0.80979389775E+01  0.61789575082E+01  0.39205165059E+01  0.10914512414E+02  0.00000000000E+00 0.  1.
</event>
<event>
 7    1  0.6073302E-013  0.5052885E+02  0.7816164E-02  0.1300439E+00
        -11   -1    0    0    0    0  0.00000000000E+00  0.00000000000E+00  0.45593999997E+02  0.45594000000E+02  0.51100000000E-03 0.  1.
         11   -1    0    0    0    0 -0.00000000000E+00 -0.00000000000E+00 -0.45593999997E+02  0.45594000000E+02  0.51100000000E-03 0. -1.
    9900012    2    1    2    0    0  0.17203149935E+02  0.22019283649E+02  0.29535898088E+02  0.50528849788E+02  0.29999969414E+02 0.  0.
         12    1    1    2    0    0 -0.17203149935E+02 -0.22019283649E+02 -0.29535898088E+02  0.40659150212E+02  0.00000000000E+00 0. -1.
         11    1    3    3    0    0 -0.39482950434E+01  0.13628212381E+02  0.21408817302E+02  0.25683743204E+02  0.51100000000E-03 0. -1.
        -11    1    3    3    0    0  0.13428435779E+02  0.60460604178E+01  0.80291307008E+01  0.16773332231E+02  0.51100000000E-03 0.  1.
         12    1    3    3    0    0  0.77230091988E+01  0.23450108508E+01  0.97950085364E-01  0.80717743523E+01  0.00000000000E+00 0. -1.
</event>
<event>
 7    1  0.6073302E-013  0.5052886E+02  0.7816164E-02  0.1300439E+00
        -11   -1    0    0    0    0  0.00000000000E+00  0.00000000000E+00  0.45593999997E+02  0.45594000000E+02  0.51100000000E-03 0.  1.
         11   -1    0    0    0    0 -0.00000000000E+00 -0.00000000000E+00 -0.45593999997E+02  0.45594000000E+02  0.51100000000E-03 0. -1.
    9900012    2    1    2    0    0 -0.35928911660E+02  0.15732944046E+02  0.10712314132E+02  0.50528857172E+02  0.29999991861E+02 0.  0.
         12    1    1    2    0    0  0.35928911660E+02 -0.15732944046E+02 -0.10712314132E+02  0.40659142828E+02  0.00000000000E+00 0. -1.
         11    1    3    3    0    0  0.26655525065E+01  0.94003584566E+01  0.38560997002E+01  0.10504352166E+02  0.51100000000E-03 0. -1.
        -11    1    3    3    0    0 -0.27197613794E+02  0.50154015618E+01  0.70858383033E+01  0.28549493054E+02  0.51100000000E-03 0.  1.
         12    1    3    3    0    0 -0.11396850372E+02  0.13171840273E+01 -0.22962387186E+00  0.11475011952E+02  0.00000000000E+00 0. -1.
</event>
<event>
 7    1  0.6073302E-013  0.5052880E+02  0.7816164E-02  0.1300439E+00
        -11   -1    0    0    0    0  0.00000000000E+00  0.00000000000E+00  0.45593999997E+02  0.45594000000E+02  0.51100000000E-03 0.  1.
         11   -1    0    0    0    0 -0.00000000000E+00 -0.00000000000E+00 -0.45593999997E+02  0.45594000000E+02  0.51100000000E-03 0. -1.
    9900012    2    1    2    0    0 -0.32067534017E+02 -0.21197837824E+02  0.13247471951E+02  0.50528799572E+02  0.29999816778E+02 0.  0.
         12    1    1    2    0    0  0.32067534017E+02  0.21197837824E+02 -0.13247471951E+02  0.40659200428E+02  0.00000000000E+00 0. -1.
         11    1    3    3    0    0  0.24760440580E+01 -0.12726964594E+02  0.36934227447E+01  0.13481386939E+02  0.51100000000E-03 0. -1.
        -11    1    3    3    0    0 -0.62900991466E+01 -0.24126332693E-01  0.20912433496E+01  0.66286671633E+01  0.51100000000E-03 0.  1.
         12    1    3    3    0    0 -0.28253478928E+02 -0.84467468975E+01  0.74628058570E+01  0.30418745470E+02  0.00000000000E+00 0. -1.
</event>
<event>
 7    1  0.6073302E-013  0.5052886E+02  0.7816164E-02  0.1300439E+00
        -11   -1    0    0    0    0  0.00000000000E+00  0.00000000000E+00  0.45593999997E+02  0.45594000000E+02  0.51100000000E-03 0.  1.
         11   -1    0    0    0    0 -0.00000000000E+00 -0.00000000000E+00 -0.45593999997E+02  0.45594000000E+02  0.51100000000E-03 0. -1.
    9900012    2    1    2    0    0 -0.27103440634E+02 -0.49521114973E+01  0.29900596970E+02  0.50528860786E+02  0.30000002845E+02 0.  0.
         12    1    1    2    0    0  0.27103440634E+02  0.49521114973E+01 -0.29900596970E+02  0.40659139214E+02  0.00000000000E+00 0. -1.
         11    1    3    3    0    0 -0.49163508402E+01  0.18159759591E+01 -0.23034648701E+01  0.57248777224E+01  0.51100000000E-03 0. -1.
        -11    1    3    3    0    0 -0.20821247594E+02 -0.31249201980E+01  0.34403376836E+02  0.40334623038E+02  0.51100000000E-03 0.  1.
        -12    1    3    3    0    0 -0.13658421992E+01 -0.36431672584E+01 -0.21993149963E+01  0.44693600256E+01  0.00000000000E+00 0.  1.
</event>
<event>
 7    1  0.6073302E-013  0.5052879E+02  0.7816164E-02  0.1300439E+00
        -11   -1    0    0    0    0  0.00000000000E+00  0.00000000000E+00  0.45593999997E+02  0.45594000000E+02  0.51100000000E-03 0.  1.
         11   -1    0    0    0    0 -0.00000000000E+00 -0.00000000000E+00 -0.45593999997E+02  0.45594000000E+02  0.51100000000E-03 0. -1.
    9900012    2    1    2    0    0  0.80954743807E+01 -0.31486530539E+02  0.24417891147E+02  0.50528785560E+02  0.29999774188E+02 0.  0.
         12    1    1    2    0    0 -0.80954743807E+01  0.31486530539E+02 -0.24417891147E+02  0.40659214440E+02  0.00000000000E+00 0. -1.
         11    1    3    3    0    0  0.99555346332E+01 -0.30624247311E+02  0.22893496013E+02  0.39510370198E+02  0.51100000000E-03 0. -1.
        -11    1    3    3    0    0 -0.24660845810E+01 -0.61748026265E+00  0.59889978284E+01  0.65062239652E+01  0.51100000000E-03 0.  1.
         12    1    3    3    0    0  0.60602432856E+00 -0.24480296472E+00 -0.44646026950E+01  0.45121913969E+01  0.00000000000E+00 0. -1.
</event>
<event>
 7    1  0.6073302E-013  0.5052887E+02  0.7816164E-02  0.1300439E+00
        -11   -1    0    0    0    0  0.00000000000E+00  0.00000000000E+00  0.45593999997E+02  0.45594000000E+02  0.51100000000E-03 0.  1.
         11   -1    0    0    0    0 -0.00000000000E+00 -0.00000000000E+00 -0.45593999997E+02  0.45594000000E+02  0.51100000000E-03 0. -1.
    9900012    2    1    2    0    0 -0.19784351258E+02  0.28671077779E+02  0.20969357648E+02  0.50528865530E+02  0.30000017265E+02 0.  0.
         12    1    1    2    0    0  0.19784351258E+02 -0.28671077779E+02 -0.20969357648E+02  0.40659134470E+02  0.00000000000E+00 0. -1.
         11    1    3    3    0    0 -0.29052709380E+01  0.36913585306E+01 -0.57978161560E+01  0.74619970159E+01  0.51100000000E-03 0. -1.
        -11    1    3    3    0    0 -0.19437095088E+02  0.23546406506E+02  0.25817490666E+02  0.39984706443E+02  0.51100000000E-03 0.  1.
        -12    1    3    3    0    0  0.25580147677E+01  0.14333127426E+01  0.94968313734E+00  0.30821620709E+01  0.00000000000E+00 0.  1.
</event>
<event>
 7    1  0.6073302E-013  0.5052885E+02  0.7816164E-02  0.1300439E+00
        -11   -1    0    0    0    0  0.00000000000E+00  0.00000000000E+00  0.45593999997E+02  0.45594000000E+02  0.51100000000E-03 0. -1.
         11   -1    0    0    0    0 -0.00000000000E+00 -0.00000000000E+00 -0.45593999997E+02  0.45594000000E+02  0.51100000000E-03 0.  1.
    9900012    2    1    2    0    0  0.26051317266E+02  0.12678770356E+02 -0.28526197764E+02  0.50528852101E+02  0.29999976445E+02 0.  0.
         12    1    1    2    0    0 -0.26051317266E+02 -0.12678770356E+02  0.28526197764E+02  0.40659147899E+02  0.00000000000E+00 0. -1.
         11    1    3    3    0    0 -0.25667734191E+01  0.26516486963E+01  0.31823343513E+00  0.37041651386E+01  0.51100000000E-03 0. -1.
        -11    1    3    3    0    0  0.27289562870E+02  0.87061612052E+01 -0.14036870065E+02  0.31899078452E+02  0.51100000000E-03 0.  1.
        -12    1    3    3    0    0  0.13285278149E+01  0.13209604546E+01 -0.14807561134E+02  0.14925608510E+02  0.00000000000E+00 0.  1.
</event>
<event>
 7    1  0.6073302E-013  0.5052886E+02  0.7816164E-02  0.1300439E+00
        -11   -1    0    0    0    0  0.00000000000E+00  0.00000000000E+00  0.45593999997E+02  0.45594000000E+02  0.51100000000E-03 0.  1.
         11   -1    0    0    0    0 -0.00000000000E+00 -0.00000000000E+00 -0.45593999997E+02  0.45594000000E+02  0.51100000000E-03 0. -1.
    9900012    2    1    2    0    0  0.40086742026E+02  0.61206941115E+01  0.29590189819E+01  0.50528861101E+02  0.30000003802E+02 0.  0.
         12    1    1    2    0    0 -0.40086742026E+02 -0.61206941115E+01 -0.29590189819E+01  0.40659138899E+02  0.00000000000E+00 0. -1.
         11    1    3    3    0    0  0.26585422170E+02  0.12681392665E+02 -0.29181856622E+01  0.29599293905E+02  0.51100000000E-03 0.  1.
        -11    1    3    3    0    0  0.64122563206E+01 -0.34571609062E+01  0.98337591107E+01  0.12238129398E+02  0.51100000000E-03 0. -1.
        -12    1    3    3    0    0  0.70890635361E+01 -0.31035376471E+01 -0.39565544666E+01  0.86914377978E+01  0.00000000000E+00 0.  1.
</event>
<event>
 7    1  0.6073302E-013  0.5052886E+02  0.7816164E-02  0.1300439E+00
        -11   -1    0    0    0    0  0.00000000000E+00  0.00000000000E+00  0.45593999997E+02  0.45594000000E+02  0.51100000000E-03 0.  1.
         11   -1    0    0    0    0 -0.00000000000E+00 -0.00000000000E+00 -0.45593999997E+02  0.45594000000E+02  0.51100000000E-03 0. -1.
    9900012    2    1    2    0    0  0.12249704269E+02 -0.59815620155E+01  0.38305759771E+02  0.50528861170E+02  0.30000004012E+02 0.  0.
         12    1    1    2    0    0 -0.12249704269E+02  0.59815620155E+01 -0.38305759771E+02  0.40659138830E+02  0.00000000000E+00 0. -1.
         11    1    3    3    0    0 -0.62902348165E+01 -0.23750144756E+01  0.65020170771E+00  0.67550359235E+01  0.51100000000E-03 0. -1.
        -11    1    3    3    0    0  0.17686684814E+02 -0.22132735886E+01  0.23352837240E+02  0.29378094001E+02  0.51100000000E-03 0.  1.
        -12    1    3    3    0    0  0.85325427051E+00 -0.13932739513E+01  0.14302720823E+02  0.14395731245E+02  0.00000000000E+00 0.  1.
</event>
<event>
 7    1  0.6073302E-013  0.5052886E+02  0.7816164E-02  0.1300439E+00
        -11   -1    0    0    0    0  0.00000000000E+00  0.00000000000E+00  0.45593999997E+02  0.45594000000E+02  0.51100000000E-03 0.  1.
         11   -1    0    0    0    0 -0.00000000000E+00 -0.00000000000E+00 -0.45593999997E+02  0.45594000000E+02  0.51100000000E-03 0. -1.
    9900012    2    1    2    0    0  0.10593701590E+02 -0.17882116627E+02  0.34945226108E+02  0.50528862820E+02  0.30000009029E+02 0.  0.
         12    1    1    2    0    0 -0.10593701590E+02  0.17882116627E+02 -0.34945226108E+02  0.40659137180E+02  0.00000000000E+00 0. -1.
         11    1    3    3    0    0 -0.41210016959E+01 -0.20432433409E+02  0.18841791032E+02  0.28097688153E+02  0.51100000000E-03 0. -1.
        -11    1    3    3    0    0  0.93604405349E+01  0.29879480117E+01  0.12755599091E+02  0.16101272893E+02  0.51100000000E-03 0.  1.
         12    1    3    3    0    0  0.53542627506E+01 -0.43763123049E+00  0.33478359849E+01  0.63299017748E+01  0.00000000000E+00 0. -1.
</event>
<event>
 7    1  0.6073302E-013  0.5052886E+02  0.7816164E-02  0.1300439E+00
        -11   -1    0    0    0    0  0.00000000000E+00  0.00000000000E+00  0.45593999997E+02  0.45594000000E+02  0.51100000000E-03 0.  1.
         11   -1    0    0    0    0 -0.00000000000E+00 -0.00000000000E+00 -0.45593999997E+02  0.45594000000E+02  0.51100000000E-03 0. -1.
    9900012    2    1    2    0    0 -0.13636570629E+02  0.10648190612E+02  0.36794370861E+02  0.50528858975E+02  0.29999997340E+02 0.  0.
         12    1    1    2    0    0  0.13636570629E+02 -0.10648190612E+02 -0.36794370861E+02  0.40659141025E+02  0.00000000000E+00 0. -1.
         11    1    3    3    0    0 -0.14213744138E+02  0.13170214627E+02  0.84705050054E+01  0.21147920254E+02  0.51100000000E-03 0. -1.
        -11    1    3    3    0    0  0.49927249301E+00  0.25445704424E+01  0.12478178176E+02  0.12744765302E+02  0.51100000000E-03 0.  1.
         12    1    3    3    0    0  0.77901015726E-01 -0.50665944583E+01  0.15845687680E+02  0.16636173419E+02  0.00000000000E+00 0. -1.
</event>
<event>
 7    1  0.6073302E-013  0.5052885E+02  0.7816164E-02  0.1300439E+00
        -11   -1    0    0    0    0  0.00000000000E+00  0.00000000000E+00  0.45593999997E+02  0.45594000000E+02  0.51100000000E-03 0.  1.
         11   -1    0    0    0    0 -0.00000000000E+00 -0.00000000000E+00 -0.45593999997E+02  0.45594000000E+02  0.51100000000E-03 0. -1.
    9900012    2    1    2    0    0  0.22066827138E+02  0.92027974315E+01  0.32886620730E+02  0.50528853876E+02  0.29999981841E+02 0.  0.
         12    1    1    2    0    0 -0.22066827138E+02 -0.92027974315E+01 -0.32886620730E+02  0.40659146124E+02  0.00000000000E+00 0. -1.
         11    1    3    3    0    0  0.78326482508E+01  0.70369207495E+00  0.26260281002E+01  0.82910545169E+01  0.51100000000E-03 0. -1.
        -11    1    3    3    0    0  0.92485798041E+01  0.17145064992E+02  0.19587299555E+02  0.27625202010E+02  0.51100000000E-03 0.  1.
        -12    1    3    3    0    0  0.49855990831E+01 -0.86459596351E+01  0.10673293075E+02  0.14612597349E+02  0.00000000000E+00 0.  1.
</event>
<event>
 7    1  0.6073302E-013  0.5052885E+02  0.7816164E-02  0.1300439E+00
        -11   -1    0    0    0    0  0.00000000000E+00  0.00000000000E+00  0.45593999997E+02  0.45594000000E+02  0.51100000000E-03 0.  1.
         11   -1    0    0    0    0 -0.00000000000E+00 -0.00000000000E+00 -0.45593999997E+02  0.45594000000E+02  0.51100000000E-03 0. -1.
    9900012    2    1    2    0    0 -0.12430222154E+01 -0.39761851954E+02  0.84033757499E+01  0.50528847291E+02  0.29999961826E+02 0.  0.
         12    1    1    2    0    0  0.12430222154E+01  0.39761851954E+02 -0.84033757499E+01  0.40659152709E+02  0.00000000000E+00 0. -1.
         11    1    3    3    0    0  0.19891182241E+01 -0.34929372138E+02  0.15244549754E+01  0.35019160363E+02  0.51100000000E-03 0. -1.
        -11    1    3    3    0    0 -0.56890508811E+01 -0.71568435222E+01  0.77852823979E+01  0.12008177689E+02  0.51100000000E-03 0.  1.
         12    1    3    3    0    0  0.24569104415E+01  0.23243637069E+01 -0.90636162338E+00  0.35015092392E+01  0.00000000000E+00 0. -1.
</event>
<event>
 7    1  0.6073302E-013  0.5052887E+02  0.7816164E-02  0.1300439E+00
        -11   -1    0    0    0    0  0.00000000000E+00  0.00000000000E+00  0.45593999997E+02  0.45594000000E+02  0.51100000000E-03 0. -1.
         11   -1    0    0    0    0 -0.00000000000E+00 -0.00000000000E+00 -0.45593999997E+02  0.45594000000E+02  0.51100000000E-03 0.  1.
    9900012    2    1    2    0    0  0.40311304914E+02 -0.38942009364E+01 -0.36054277861E+01  0.50528865549E+02  0.30000017322E+02 0.  0.
         12    1    1    2    0    0 -0.40311304914E+02  0.38942009364E+01  0.36054277861E+01  0.40659134451E+02  0.00000000000E+00 0. -1.
         11    1    3    3    0    0  0.15649746613E+01  0.55780056460E+01 -0.69415819402E+01  0.90415072179E+01  0.51100000000E-03 0.  1.
        -11    1    3    3    0    0  0.25294431720E+02 -0.20827057761E+01 -0.14190794600E+01  0.25419672031E+02  0.51100000000E-03 0. -1.
         12    1    3    3    0    0  0.13451898533E+02 -0.73895008063E+01  0.47552336141E+01  0.16067686300E+02  0.00000000000E+00 0. -1.
</event>
<event>
 7    1  0.6073302E-013  0.5052885E+02  0.7816164E-02  0.1300439E+00
        -11   -1    0    0    0    0  0.00000000000E+00  0.00000000000E+00  0.45593999997E+02  0.45594000000E+02  0.51100000000E-03 0.  1.
         11   -1    0    0    0    0 -0.00000000000E+00 -0.00000000000E+00 -0.45593999997E+02  0.45594000000E+02  0.51100000000E-03 0. -1.
    9900012    2    1    2    0    0  0.33339980746E+02  0.22547219349E+02 -0.57649853487E+01  0.50528850076E+02  0.29999970291E+02 0.  0.
         12    1    1    2    0    0 -0.33339980746E+02 -0.22547219349E+02  0.57649853487E+01  0.40659149924E+02  0.00000000000E+00 0. -1.
         11    1    3    3    0    0  0.12702070795E+02 -0.46555821028E+01  0.27603930677E+01  0.13807129221E+02  0.51100000000E-03 0. -1.
        -11    1    3    3    0    0  0.21257931270E+02  0.22422799262E+02 -0.73145419314E+01  0.31751914786E+02  0.51100000000E-03 0.  1.
         12    1    3    3    0    0 -0.62002131904E+00  0.47800021895E+01 -0.12108364850E+01  0.49698060688E+01  0.00000000000E+00 0. -1.
</event>
<event>
 7    1  0.6073302E-013  0.5052886E+02  0.7816164E-02  0.1300439E+00
        -11   -1    0    0    0    0  0.00000000000E+00  0.00000000000E+00  0.45593999997E+02  0.45594000000E+02  0.51100000000E-03 0. -1.
         11   -1    0    0    0    0 -0.00000000000E+00 -0.00000000000E+00 -0.45593999997E+02  0.45594000000E+02  0.51100000000E-03 0.  1.
    9900012    2    1    2    0    0  0.13624436116E+02 -0.68079416088E+01 -0.37698709095E+02  0.50528855938E+02  0.29999988109E+02 0.  0.
         12    1    1    2    0    0 -0.13624436116E+02  0.68079416088E+01  0.37698709095E+02  0.40659144062E+02  0.00000000000E+00 0. -1.
         11    1    3    3    0    0  0.17441341385E+02 -0.60029273898E+01 -0.14493901619E+02  0.23458659616E+02  0.51100000000E-03 0. -1.
        -11    1    3    3    0    0  0.20994994482E+01  0.27041494917E+01 -0.18310768171E+02  0.18628058237E+02  0.51100000000E-03 0.  1.
         12    1    3    3    0    0 -0.59164047177E+01 -0.35091637108E+01 -0.48940393050E+01  0.84421380853E+01  0.00000000000E+00 0. -1.
</event>
<event>
 7    1  0.6073302E-013  0.5052886E+02  0.7816164E-02  0.1300439E+00
        -11   -1    0    0    0    0  0.00000000000E+00  0.00000000000E+00  0.45593999997E+02  0.45594000000E+02  0.51100000000E-03 0.  1.
         11   -1    0    0    0    0 -0.00000000000E+00 -0.00000000000E+00 -0.45593999997E+02  0.45594000000E+02  0.51100000000E-03 0. -1.
    9900012    2    1    2    0    0 -0.23637491965E+02 -0.26025544141E+01  0.32979713620E+02  0.50528858022E+02  0.29999994445E+02 0.  0.
         12    1    1    2    0    0  0.23637491965E+02  0.26025544141E+01 -0.32979713620E+02  0.40659141978E+02  0.00000000000E+00 0. -1.
         11    1    3    3    0    0 -0.20993345517E+02 -0.12464350405E+02  0.23726715469E+02  0.34044641490E+02  0.51100000000E-03 0. -1.
        -11    1    3    3    0    0  0.14062635402E+01  0.56866087150E+01  0.37458152974E+00  0.58698728611E+01  0.51100000000E-03 0.  1.
         12    1    3    3    0    0 -0.40504099889E+01  0.41751872755E+01  0.88784166216E+01  0.10614343671E+02  0.00000000000E+00 0. -1.
</event>
<event>
 7    1  0.6073302E-013  0.5052886E+02  0.7816164E-02  0.1300439E+00
        -11   -1    0    0    0    0  0.00000000000E+00  0.00000000000E+00  0.45593999997E+02  0.45594000000E+02  0.51100000000E-03 0.  1.
         11   -1    0    0    0    0 -0.00000000000E+00 -0.00000000000E+00 -0.45593999997E+02  0.45594000000E+02  0.51100000000E-03 0. -1.
    9900012    2    1    2    0    0  0.13851111072E+02 -0.18235748122E+02  0.33597174823E+02  0.50528856581E+02  0.29999990064E+02 0.  0.
         12    1    1    2    0    0 -0.13851111072E+02  0.18235748122E+02 -0.33597174823E+02  0.40659143419E+02  0.00000000000E+00 0. -1.
         11    1    3    3    0    0  0.10734209576E+02  0.65098598186E+00 -0.62930087657E-01  0.10754115418E+02  0.51100000000E-03 0. -1.
        -11    1    3    3    0    0  0.60415543632E+01 -0.15902148984E+02  0.27125372701E+02  0.32018191171E+02  0.51100000000E-03 0.  1.
        -12    1    3    3    0    0 -0.29246528670E+01 -0.29845851196E+01  0.65347322091E+01  0.77565499916E+01  0.00000000000E+00 0.  1.
</event>
<event>
 7    1  0.6073302E-013  0.5052885E+02  0.7816164E-02  0.1300439E+00
        -11   -1    0    0    0    0  0.00000000000E+00  0.00000000000E+00  0.45593999997E+02  0.45594000000E+02  0.51100000000E-03 0.  1.
         11   -1    0    0    0    0 -0.00000000000E+00 -0.00000000000E+00 -0.45593999997E+02  0.45594000000E+02  0.51100000000E-03 0. -1.
    9900012    2    1    2    0    0  0.38784526917E+02 -0.99837686361E+01  0.70178992465E+01  0.50528854975E+02  0.29999985182E+02 0.  0.
         12    1    1    2    0    0 -0.38784526917E+02  0.99837686361E+01 -0.70178992465E+01  0.40659145025E+02  0.00000000000E+00 0. -1.
         11    1    3    3    0    0  0.32625725883E+02 -0.11567357761E+02  0.39835113444E+01  0.34844082968E+02  0.51100000000E-03 0.  1.
        -11    1    3    3    0    0 -0.26230475503E+01 -0.18893721575E+00 -0.36558289291E+01  0.45034610182E+01  0.51100000000E-03 0. -1.
         12    1    3    3    0    0  0.87818485841E+01  0.17725263407E+01  0.66902168313E+01  0.11181310989E+02  0.00000000000E+00 0. -1.
</event>
<event>
 7    1  0.6073302E-013  0.5052886E+02  0.7816164E-02  0.1300439E+00
        -11   -1    0    0    0    0  0.00000000000E+00  0.00000000000E+00  0.45593999997E+02  0.45594000000E+02  0.51100000000E-03 0. -1.
         11   -1    0    0    0    0 -0.00000000000E+00 -0.00000000000E+00 -0.45593999997E+02  0.45594000000E+02  0.51100000000E-03 0.  1.
    9900012    2    1    2    0    0  0.60386971118E+01  0.29941590146E+02  0.26836562714E+02  0.50528858573E+02  0.29999996120E+02 0.  0.
         12    1    1    2    0    0 -0.60386971118E+01 -0.29941590146E+02 -0.26836562714E+02  0.40659141427E+02  0.00000000000E+00 0. -1.
         11    1    3    3    0    0 -0.13951847659E+01 -0.36765329530E+01  0.76229098708E+01  0.85774232870E+01  0.51100000000E-03 0. -1.
        -11    1    3    3    0    0  0.24001655320E+01  0.26292601729E+02  0.78891682539E+01  0.27555411016E+02  0.51100000000E-03 0.  1.
         12    1    3    3    0    0  0.50337163456E+01  0.73255213700E+01  0.11324484589E+02  0.14396024270E+02  0.00000000000E+00 0. -1.
</event>
<event>
 7    1  0.6073302E-013  0.5052886E+02  0.7816164E-02  0.1300439E+00
        -11   -1    0    0    0    0  0.00000000000E+00  0.00000000000E+00  0.45593999997E+02  0.45594000000E+02  0.51100000000E-03 0.  1.
         11   -1    0    0    0    0 -0.00000000000E+00 -0.00000000000E+00 -0.45593999997E+02  0.45594000000E+02  0.51100000000E-03 0. -1.
    9900012    2    1    2    0    0  0.33247998056E+02  0.23145158020E+02 -0.34695855283E+01  0.50528859106E+02  0.29999997739E+02 0.  0.
         12    1    1    2    0    0 -0.33247998056E+02 -0.23145158020E+02  0.34695855283E+01  0.40659140894E+02  0.00000000000E+00 0. -1.
         11    1    3    3    0    0  0.30734358639E+02  0.20780045402E+02 -0.99280878040E+01  0.38405442525E+02  0.51100000000E-03 0.  1.
        -11    1    3    3    0    0  0.50864115736E+01 -0.14221455317E+01  0.17699450816E+01  0.55701693388E+01  0.51100000000E-03 0. -1.
         12    1    3    3    0    0 -0.25727721562E+01  0.37872581499E+01  0.46885571941E+01  0.65532472427E+01  0.00000000000E+00 0. -1.
</event>
<event>
 7    1  0.6073302E-013  0.5052886E+02  0.7816164E-02  0.1300439E+00
        -11   -1    0    0    0    0  0.00000000000E+00  0.00000000000E+00  0.45593999997E+02  0.45594000000E+02  0.51100000000E-03 0.  1.
         11   -1    0    0    0    0 -0.00000000000E+00 -0.00000000000E+00 -0.45593999997E+02  0.45594000000E+02  0.51100000000E-03 0. -1.
    9900012    2    1    2    0    0  0.54761569507E+01 -0.18976911890E+02  0.35539469772E+02  0.50528863370E+02  0.30000010698E+02 0.  0.
         12    1    1    2    0    0 -0.54761569507E+01  0.18976911890E+02 -0.35539469772E+02  0.40659136630E+02  0.00000000000E+00 0. -1.
         11    1    3    3    0    0 -0.96279841943E+01 -0.71290791197E+00  0.46729114770E+01  0.10725782921E+02  0.51100000000E-03 0. -1.
        -11    1    3    3    0    0  0.11216408055E+02 -0.17004744667E+02  0.21681251405E+02  0.29749719555E+02  0.51100000000E-03 0.  1.
         12    1    3    3    0    0  0.38877330899E+01 -0.12592593118E+01  0.91853068899E+01  0.10053360894E+02  0.00000000000E+00 0. -1.
</event>
<event>
 7    1  0.6073302E-013  0.5052886E+02  0.7816164E-02  0.1300439E+00
        -11   -1    0    0    0    0  0.00000000000E+00  0.00000000000E+00  0.45593999997E+02  0.45594000000E+02  0.51100000000E-03 0. -1.
         11   -1    0    0    0    0 -0.00000000000E+00 -0.00000000000E+00 -0.45593999997E+02  0.45594000000E+02  0.51100000000E-03 0.  1.
    9900012    2    1    2    0    0 -0.19466734116E+02  0.32100897524E+02 -0.15612316276E+02  0.50528858611E+02  0.29999996235E+02 0.  0.
         12    1    1    2    0    0  0.19466734116E+02 -0.32100897524E+02  0.15612316276E+02  0.40659141389E+02  0.00000000000E+00 0. -1.
         11    1    3    3    0    0  0.57667800761E+01  0.55920700373E+01 -0.33523163568E+01  0.87043107116E+01  0.51100000000E-03 0. -1.
        -11    1    3    3    0    0 -0.17573697258E+02  0.15964174786E+02 -0.15551743017E+02  0.28382149726E+02  0.51100000000E-03 0.  1.
        -12    1    3    3    0    0 -0.76598169339E+01  0.10544652701E+02  0.32917430984E+01  0.13442398174E+02  0.00000000000E+00 0.  1.
</event>
<event>
 7    1  0.6073302E-013  0.5052886E+02  0.7816164E-02  0.1300439E+00
        -11   -1    0    0    0    0  0.00000000000E+00  0.00000000000E+00  0.45593999997E+02  0.45594000000E+02  0.51100000000E-03 0.  1.
         11   -1    0    0    0    0 -0.00000000000E+00 -0.00000000000E+00 -0.45593999997E+02  0.45594000000E+02  0.51100000000E-03 0. -1.
    9900012    2    1    2    0    0 -0.32259933517E+02 -0.99075202086E+01  0.22678260816E+02  0.50528858582E+02  0.29999996147E+02 0.  0.
         12    1    1    2    0    0  0.32259933517E+02  0.99075202086E+01 -0.22678260816E+02  0.40659141418E+02  0.00000000000E+00 0. -1.
         11    1    3    3    0    0 -0.10711908979E+02 -0.32425739602E+01 -0.48418998376E+01  0.12194395195E+02  0.51100000000E-03 0. -1.
        -11    1    3    3    0    0 -0.12264621854E+01 -0.42269782901E+01  0.11592585880E+02  0.12399983976E+02  0.51100000000E-03 0.  1.
        -12    1    3    3    0    0 -0.20321562352E+02 -0.24379679583E+01  0.15927574773E+02  0.25934479412E+02  0.00000000000E+00 0.  1.
</event>
<event>
 7    1  0.6073302E-013  0.5052886E+02  0.7816164E-02  0.1300439E+00
        -11   -1    0    0    0    0  0.00000000000E+00  0.00000000000E+00  0.45593999997E+02  0.45594000000E+02  0.51100000000E-03 0.  1.
         11   -1    0    0    0    0 -0.00000000000E+00 -0.00000000000E+00 -0.45593999997E+02  0.45594000000E+02  0.51100000000E-03 0. -1.
    9900012    2    1    2    0    0  0.21830437388E+02  0.59947047882E+01  0.33773680210E+02  0.50528856416E+02  0.29999989563E+02 0.  0.
         12    1    1    2    0    0 -0.21830437388E+02 -0.59947047882E+01 -0.33773680210E+02  0.40659143584E+02  0.00000000000E+00 0. -1.
         11    1    3    3    0    0  0.22946336588E+02 -0.50418727823E+01  0.13436996342E+02  0.27064879732E+02  0.51100000000E-03 0. -1.
        -11    1    3    3    0    0 -0.12687175847E+01  0.69203066968E+01  0.16022390975E+02  0.17499065744E+02  0.51100000000E-03 0.  1.
         12    1    3    3    0    0  0.15281838513E+00  0.41162708736E+01  0.43142928931E+01  0.59649109408E+01  0.00000000000E+00 0. -1.
</event>
<event>
 7    1  0.6073302E-013  0.5052887E+02  0.7816164E-02  0.1300439E+00
        -11   -1    0    0    0    0  0.00000000000E+00  0.00000000000E+00  0.45593999997E+02  0.45594000000E+02  0.51100000000E-03 0.  1.
         11   -1    0    0    0    0 -0.00000000000E+00 -0.00000000000E+00 -0.45593999997E+02  0.45594000000E+02  0.51100000000E-03 0. -1.
    9900012    2    1    2    0    0 -0.18866328223E+02  0.14648169127E+02  0.32903763188E+02  0.50528870258E+02  0.30000031637E+02 0.  0.
         12    1    1    2    0    0  0.18866328223E+02 -0.14648169127E+02 -0.32903763188E+02  0.40659129742E+02  0.00000000000E+00 0. -1.
         11    1    3    3    0    0 -0.14576395816E+02  0.11326590303E+02  0.87697169126E+01  0.20436998259E+02  0.51100000000E-03 0. -1.
        -11    1    3    3    0    0  0.64741155848E+01  0.17477228568E+01  0.12357544373E+02  0.14059787017E+02  0.51100000000E-03 0.  1.
         12    1    3    3    0    0 -0.10764047992E+02  0.15738559671E+01  0.11776501903E+02  0.16032084982E+02  0.00000000000E+00 0. -1.
</event>
<event>
 7    1  0.6073302E-013  0.5052886E+02  0.7816164E-02  0.1300439E+00
        -11   -1    0    0    0    0  0.00000000000E+00  0.00000000000E+00  0.45593999997E+02  0.45594000000E+02  0.51100000000E-03 0.  1.
         11   -1    0    0    0    0 -0.00000000000E+00 -0.00000000000E+00 -0.45593999997E+02  0.45594000000E+02  0.51100000000E-03 0. -1.
    9900012    2    1    2    0    0 -0.36657192873E+02  0.11541351019E+01  0.17552317629E+02  0.50528859929E+02  0.30000000241E+02 0.  0.
         12    1    1    2    0    0  0.36657192873E+02 -0.11541351019E+01 -0.17552317629E+02  0.40659140071E+02  0.00000000000E+00 0. -1.
         11    1    3    3    0    0 -0.25163083842E+02 -0.70032204324E+01  0.18050663337E+02  0.31749839874E+02  0.51100000000E-03 0.  1.
        -11    1    3    3    0    0 -0.34475760969E+01  0.85548360442E+01  0.33986603411E+01  0.98296435877E+01  0.51100000000E-03 0. -1.
        -12    1    3    3    0    0 -0.80465329335E+01 -0.39748050990E+00 -0.38970060492E+01  0.89493764672E+01  0.00000000000E+00 0.  1.
</event>
<event>
 7    1  0.6073302E-013  0.5052887E+02  0.7816164E-02  0.1300439E+00
        -11   -1    0    0    0    0  0.00000000000E+00  0.00000000000E+00  0.45593999997E+02  0.45594000000E+02  0.51100000000E-03 0.  1.
         11   -1    0    0    0    0 -0.00000000000E+00 -0.00000000000E+00 -0.45593999997E+02  0.45594000000E+02  0.51100000000E-03 0. -1.
    9900012    2    1    2    0    0 -0.31079571574E+02 -0.20504145033E+02  0.16334178104E+02  0.50528866867E+02  0.30000021329E+02 0.  0.
         12    1    1    2    0    0  0.31079571574E+02  0.20504145033E+02 -0.16334178104E+02  0.40659133133E+02  0.00000000000E+00 0. -1.
         11    1    3    3    0    0 -0.16518877303E+01  0.15133434836E+01  0.82213937173E+01  0.85211652072E+01  0.51100000000E-03 0.  1.
        -11    1    3    3    0    0 -0.12181653379E+02 -0.20574835994E+02  0.47128146560E+01  0.24370621196E+02  0.51100000000E-03 0. -1.
         12    1    3    3    0    0 -0.17246030466E+02 -0.14426525225E+01  0.33999697308E+01  0.17637080464E+02  0.00000000000E+00 0. -1.
</event>
<event>
 7    1  0.6073302E-013  0.5052886E+02  0.7816164E-02  0.1300439E+00
        -11   -1    0    0    0    0  0.00000000000E+00  0.00000000000E+00  0.45593999997E+02  0.45594000000E+02  0.51100000000E-03 0.  1.
         11   -1    0    0    0    0 -0.00000000000E+00 -0.00000000000E+00 -0.45593999997E+02  0.45594000000E+02  0.51100000000E-03 0. -1.
    9900012    2    1    2    0    0  0.26129192361E+02  0.14705390868E+02  0.27462379234E+02  0.50528862193E+02  0.30000007123E+02 0.  0.
         12    1    1    2    0    0 -0.26129192361E+02 -0.14705390868E+02 -0.27462379234E+02  0.40659137807E+02  0.00000000000E+00 0. -1.
         11    1    3    3    0    0  0.95770022306E+01 -0.80755195030E+01  0.50404092997E+01  0.13503285272E+02  0.51100000000E-03 0. -1.
        -11    1    3    3    0    0  0.39019249594E+01  0.11589842863E+02  0.66675793623E+01  0.13928606922E+02  0.51100000000E-03 0.  1.
         12    1    3    3    0    0  0.12650265171E+02  0.11191067508E+02  0.15754390572E+02  0.23096969999E+02  0.00000000000E+00 0. -1.
</event>
<event>
 7    1  0.6073302E-013  0.5052886E+02  0.7816164E-02  0.1300439E+00
        -11   -1    0    0    0    0  0.00000000000E+00  0.00000000000E+00  0.45593999997E+02  0.45594000000E+02  0.51100000000E-03 0. -1.
         11   -1    0    0    0    0 -0.00000000000E+00 -0.00000000000E+00 -0.45593999997E+02  0.45594000000E+02  0.51100000000E-03 0.  1.
    9900012    2    1    2    0    0  0.32480542436E+02 -0.72549162179E+01 -0.23356930070E+02  0.50528860454E+02  0.30000001837E+02 0.  0.
         12    1    1    2    0    0 -0.32480542436E+02  0.72549162179E+01  0.23356930070E+02  0.40659139546E+02  0.00000000000E+00 0. -1.
         11    1    3    3    0    0  0.89102698745E+01 -0.73161898576E+01  0.22455379920E+01  0.11745721962E+02  0.51100000000E-03 0. -1.
        -11    1    3    3    0    0  0.15890675768E+02  0.75146150992E+01 -0.11210983846E+02  0.20848721196E+02  0.51100000000E-03 0.  1.
        -12    1    3    3    0    0  0.76795967942E+01 -0.74533414596E+01 -0.14391484216E+02  0.17934417297E+02  0.00000000000E+00 0.  1.
</event>
<event>
 7    1  0.6073302E-013  0.5052887E+02  0.7816164E-02  0.1300439E+00
        -11   -1    0    0    0    0  0.00000000000E+00  0.00000000000E+00  0.45593999997E+02  0.45594000000E+02  0.51100000000E-03 0.  1.
         11   -1    0    0    0    0 -0.00000000000E+00 -0.00000000000E+00 -0.45593999997E+02  0.45594000000E+02  0.51100000000E-03 0. -1.
    9900012    2    1    2    0    0  0.79385828958E+01 -0.39772562375E+02 -0.28787841624E+01  0.50528865546E+02  0.30000017315E+02 0.  0.
         12    1    1    2    0    0 -0.79385828958E+01  0.39772562375E+02  0.28787841624E+01  0.40659134454E+02  0.00000000000E+00 0. -1.
         11    1    3    3    0    0  0.57020167215E+01  0.29629974133E+01  0.27951696438E+01  0.70075189591E+01  0.51100000000E-03 0. -1.
        -11    1    3    3    0    0  0.35436752870E+01 -0.39174052455E+02 -0.55673604627E+01  0.39726055972E+02  0.51100000000E-03 0.  1.
         12    1    3    3    0    0 -0.13071091127E+01 -0.35615073331E+01 -0.10659334354E+00  0.37952906156E+01  0.00000000000E+00 0. -1.
</event>
<event>
 7    1  0.6073302E-013  0.5052886E+02  0.7816164E-02  0.1300439E+00
        -11   -1    0    0    0    0  0.00000000000E+00  0.00000000000E+00  0.45593999997E+02  0.45594000000E+02  0.51100000000E-03 0.  1.
         11   -1    0    0    0    0 -0.00000000000E+00 -0.00000000000E+00 -0.45593999997E+02  0.45594000000E+02  0.51100000000E-03 0. -1.
    9900012    2    1    2    0    0  0.27561186747E+02  0.25761530567E+02  0.15162120642E+02  0.50528863580E+02  0.30000011338E+02 0.  0.
         12    1    1    2    0    0 -0.27561186747E+02 -0.25761530567E+02 -0.15162120642E+02  0.40659136420E+02  0.00000000000E+00 0. -1.
         11    1    3    3    0    0  0.11378890043E+02 -0.91547925289E+00  0.13313124989E+02  0.17537289931E+02  0.51100000000E-03 0. -1.
        -11    1    3    3    0    0  0.15115512387E+02  0.19019997900E+02 -0.19589160551E+01  0.24373682266E+02  0.51100000000E-03 0.  1.
         12    1    3    3    0    0  0.10667843167E+01  0.76570119194E+01  0.38079117079E+01  0.86178913829E+01  0.00000000000E+00 0. -1.
</event>
<event>
 7    1  0.6073302E-013  0.5052886E+02  0.7816164E-02  0.1300439E+00
        -11   -1    0    0    0    0  0.00000000000E+00  0.00000000000E+00  0.45593999997E+02  0.45594000000E+02  0.51100000000E-03 0.  1.
         11   -1    0    0    0    0 -0.00000000000E+00 -0.00000000000E+00 -0.45593999997E+02  0.45594000000E+02  0.51100000000E-03 0. -1.
    9900012    2    1    2    0    0 -0.17189993324E+02  0.30712155168E+02  0.20357635672E+02  0.50528859875E+02  0.30000000077E+02 0.  0.
         12    1    1    2    0    0  0.17189993324E+02 -0.30712155168E+02 -0.20357635672E+02  0.40659140125E+02  0.00000000000E+00 0. -1.
         11    1    3    3    0    0  0.20271503432E+01  0.14018954293E+02  0.12429309648E+01  0.14219187587E+02  0.51100000000E-03 0. -1.
        -11    1    3    3    0    0 -0.15342587587E+02  0.10613266032E+02  0.21730696191E+02  0.28640174003E+02  0.51100000000E-03 0.  1.
         12    1    3    3    0    0 -0.38745560806E+01  0.60799348423E+01 -0.26159914832E+01  0.76694982853E+01  0.00000000000E+00 0. -1.
</event>
<event>
 7    1  0.6073302E-013  0.5052886E+02  0.7816164E-02  0.1300439E+00
        -11   -1    0    0    0    0  0.00000000000E+00  0.00000000000E+00  0.45593999997E+02  0.45594000000E+02  0.51100000000E-03 0.  1.
         11   -1    0    0    0    0 -0.00000000000E+00 -0.00000000000E+00 -0.45593999997E+02  0.45594000000E+02  0.51100000000E-03 0. -1.
    9900012    2    1    2    0    0  0.11777916150E+01 -0.20990926099E+02  0.34801721854E+02  0.50528855696E+02  0.29999987372E+02 0.  0.
         12    1    1    2    0    0 -0.11777916150E+01  0.20990926099E+02 -0.34801721854E+02  0.40659144304E+02  0.00000000000E+00 0. -1.
         11    1    3    3    0    0 -0.70042436751E+01  0.13761178945E+01  0.50194493730E+01  0.87262822662E+01  0.51100000000E-03 0. -1.
        -11    1    3    3    0    0  0.83734707806E+01 -0.16405829263E+01  0.73687999641E+01  0.11274118077E+02  0.51100000000E-03 0.  1.
        -12    1    3    3    0    0 -0.19143549051E+00 -0.20726461067E+02  0.22413472517E+02  0.30528455352E+02  0.00000000000E+00 0.  1.
</event>
<event>
 7    1  0.6073302E-013  0.5052886E+02  0.7816164E-02  0.1300439E+00
        -11   -1    0    0    0    0  0.00000000000E+00  0.00000000000E+00  0.45593999997E+02  0.45594000000E+02  0.51100000000E-03 0. -1.
         11   -1    0    0    0    0 -0.00000000000E+00 -0.00000000000E+00 -0.45593999997E+02  0.45594000000E+02  0.51100000000E-03 0.  1.
    9900012    2    1    2    0    0  0.18487524116E+02  0.14750851809E+02 -0.33072490184E+02  0.50528858543E+02  0.29999996028E+02 0.  0.
         12    1    1    2    0    0 -0.18487524116E+02 -0.14750851809E+02  0.33072490184E+02  0.40659141457E+02  0.00000000000E+00 0. -1.
         11    1    3    3    0    0 -0.39810694965E+01  0.35174757963E+01  0.48369230493E+00  0.53343705177E+01  0.51100000000E-03 0. -1.
        -11    1    3    3    0    0  0.20917439629E+02  0.87916651288E+01 -0.16908051629E+02  0.28296905600E+02  0.51100000000E-03 0.  1.
         12    1    3    3    0    0  0.15511539842E+01  0.24417108843E+01 -0.16648130859E+02  0.16897582426E+02  0.00000000000E+00 0. -1.
</event>
<event>
 7    1  0.6073302E-013  0.5052886E+02  0.7816164E-02  0.1300439E+00
        -11   -1    0    0    0    0  0.00000000000E+00  0.00000000000E+00  0.45593999997E+02  0.45594000000E+02  0.51100000000E-03 0.  1.
         11   -1    0    0    0    0 -0.00000000000E+00 -0.00000000000E+00 -0.45593999997E+02  0.45594000000E+02  0.51100000000E-03 0. -1.
    9900012    2    1    2    0    0  0.14012363989E+02 -0.34210515599E+02  0.16925127529E+02  0.50528860020E+02  0.30000000516E+02 0.  0.
         12    1    1    2    0    0 -0.14012363989E+02  0.34210515599E+02 -0.16925127529E+02  0.40659139980E+02  0.00000000000E+00 0. -1.
         11    1    3    3    0    0 -0.47257643711E+00  0.14315522612E+01 -0.13038009569E+01  0.19931300916E+01  0.51100000000E-03 0. -1.
        -11    1    3    3    0    0  0.20850860313E+01 -0.19165303673E+02  0.20073962203E+02  0.27832003295E+02  0.51100000000E-03 0.  1.
        -12    1    3    3    0    0  0.12399854395E+02 -0.16476764187E+02 -0.18450337171E+01  0.20703726633E+02  0.00000000000E+00 0.  1.
</event>
<event>
 7    1  0.6073302E-013  0.5052887E+02  0.7816164E-02  0.1300439E+00
        -11   -1    0    0    0    0  0.00000000000E+00  0.00000000000E+00  0.45593999997E+02  0.45594000000E+02  0.51100000000E-03 0. -1.
         11   -1    0    0    0    0 -0.00000000000E+00 -0.00000000000E+00 -0.45593999997E+02  0.45594000000E+02  0.51100000000E-03 0.  1.
    9900012    2    1    2    0    0 -0.39194331949E+02 -0.96379047809E+01 -0.49071712336E+01  0.50528865786E+02  0.30000018043E+02 0.  0.
         12    1    1    2    0    0  0.39194331949E+02  0.96379047809E+01  0.49071712336E+01  0.40659134214E+02  0.00000000000E+00 0. -1.
         11    1    3    3    0    0 -0.11422788029E+02 -0.91783186794E+01 -0.13490667483E+02  0.19917824418E+02  0.51100000000E-03 0. -1.
        -11    1    3    3    0    0 -0.94400629249E+01 -0.39371052941E+01  0.57648943859E+01  0.11740936660E+02  0.51100000000E-03 0.  1.
         12    1    3    3    0    0 -0.18331480995E+02  0.34775191927E+01  0.28186018634E+01  0.18870104708E+02  0.00000000000E+00 0. -1.
</event>
<event>
 7    1  0.6073302E-013  0.5052886E+02  0.7816164E-02  0.1300439E+00
        -11   -1    0    0    0    0  0.00000000000E+00  0.00000000000E+00  0.45593999997E+02  0.45594000000E+02  0.51100000000E-03 0.  1.
         11   -1    0    0    0    0 -0.00000000000E+00 -0.00000000000E+00 -0.45593999997E+02  0.45594000000E+02  0.51100000000E-03 0. -1.
    9900012    2    1    2    0    0  0.76101511953E+01 -0.21931943842E+02  0.33380254857E+02  0.50528856179E+02  0.29999988843E+02 0.  0.
         12    1    1    2    0    0 -0.76101511953E+01  0.21931943842E+02 -0.33380254857E+02  0.40659143821E+02  0.00000000000E+00 0. -1.
         11    1    3    3    0    0 -0.26755432708E+01 -0.27268041579E+01  0.89205567549E+01  0.97041396212E+01  0.51100000000E-03 0. -1.
        -11    1    3    3    0    0  0.13357184302E+02 -0.10389307327E+01  0.57907059919E+01  0.14595411118E+02  0.51100000000E-03 0.  1.
        -12    1    3    3    0    0 -0.30714898360E+01 -0.18166208951E+02  0.18668992110E+02  0.26229305440E+02  0.00000000000E+00 0.  1.
</event>
<event>
 7    1  0.6073302E-013  0.5052883E+02  0.7816164E-02  0.1300439E+00
        -11   -1    0    0    0    0  0.00000000000E+00  0.00000000000E+00  0.45593999997E+02  0.45594000000E+02  0.51100000000E-03 0. -1.
         11   -1    0    0    0    0 -0.00000000000E+00 -0.00000000000E+00 -0.45593999997E+02  0.45594000000E+02  0.51100000000E-03 0.  1.
    9900012    2    1    2    0    0  0.75590484078E+01  0.30164938548E+02 -0.26193616407E+02  0.50528827961E+02  0.29999903070E+02 0.  0.
         12    1    1    2    0    0 -0.75590484078E+01 -0.30164938548E+02  0.26193616407E+02  0.40659172039E+02  0.00000000000E+00 0. -1.
         11    1    3    3    0    0  0.96353922040E+01  0.77517111132E+01 -0.23348715868E+02  0.26421437150E+02  0.51100000000E-03 0. -1.
        -11    1    3    3    0    0 -0.84508392080E+00  0.15359099645E+00 -0.15549880116E+01  0.17764416694E+01  0.51100000000E-03 0.  1.
         12    1    3    3    0    0 -0.12312598754E+01  0.22259636438E+02 -0.12899125274E+01  0.22330949142E+02  0.00000000000E+00 0. -1.
</event>
<event>
 7    1  0.6073302E-013  0.5052886E+02  0.7816164E-02  0.1300439E+00
        -11   -1    0    0    0    0  0.00000000000E+00  0.00000000000E+00  0.45593999997E+02  0.45594000000E+02  0.51100000000E-03 0.  1.
         11   -1    0    0    0    0 -0.00000000000E+00 -0.00000000000E+00 -0.45593999997E+02  0.45594000000E+02  0.51100000000E-03 0. -1.
    9900012    2    1    2    0    0  0.17590739539E+01 -0.16663715875E+02  0.37045808900E+02  0.50528859269E+02  0.29999998233E+02 0.  0.
         12    1    1    2    0    0 -0.17590739539E+01  0.16663715875E+02 -0.37045808900E+02  0.40659140731E+02  0.00000000000E+00 0. -1.
         11    1    3    3    0    0  0.15207306189E+01 -0.12866409447E+02  0.72349775157E+00  0.12976153626E+02  0.51100000000E-03 0. -1.
        -11    1    3    3    0    0 -0.22251704349E+01 -0.53627921730E+01  0.15980865922E+02  0.17002911493E+02  0.51100000000E-03 0.  1.
         12    1    3    3    0    0  0.24635137699E+01  0.15654857443E+01  0.20341445227E+02  0.20549794150E+02  0.00000000000E+00 0. -1.
</event>
<event>
 7    1  0.6073302E-013  0.5052886E+02  0.7816164E-02  0.1300439E+00
        -11   -1    0    0    0    0  0.00000000000E+00  0.00000000000E+00  0.45593999997E+02  0.45594000000E+02  0.51100000000E-03 0. -1.
         11   -1    0    0    0    0 -0.00000000000E+00 -0.00000000000E+00 -0.45593999997E+02  0.45594000000E+02  0.51100000000E-03 0.  1.
    9900012    2    1    2    0    0 -0.38776782007E+02  0.18243861377E+01  0.12091268956E+02  0.50528855978E+02  0.29999988232E+02 0.  0.
         12    1    1    2    0    0  0.38776782007E+02 -0.18243861377E+01 -0.12091268956E+02  0.40659144022E+02  0.00000000000E+00 0. -1.
         11    1    3    3    0    0 -0.79663171156E+01 -0.10101746100E+02  0.64074773917E+01  0.14372308424E+02  0.51100000000E-03 0. -1.
        -11    1    3    3    0    0 -0.31110511520E+02  0.11307307961E+02  0.77347836153E+01  0.33993323141E+02  0.51100000000E-03 0.  1.
        -12    1    3    3    0    0  0.30004662820E+00  0.61882427649E+00 -0.20509920515E+01  0.21632244127E+01  0.00000000000E+00 0.  1.
</event>
<event>
 7    1  0.6073302E-013  0.5052883E+02  0.7816164E-02  0.1300439E+00
        -11   -1    0    0    0    0  0.00000000000E+00  0.00000000000E+00  0.45593999997E+02  0.45594000000E+02  0.51100000000E-03 0. -1.
         11   -1    0    0    0    0 -0.00000000000E+00 -0.00000000000E+00 -0.45593999997E+02  0.45594000000E+02  0.51100000000E-03 0.  1.
    9900012    2    1    2    0    0 -0.79559517670E+01 -0.24707022249E+02 -0.31295912589E+02  0.50528828074E+02  0.29999903414E+02 0.  0.
         12    1    1    2    0    0  0.79559517670E+01  0.24707022249E+02  0.31295912589E+02  0.40659171926E+02  0.00000000000E+00 0. -1.
         11    1    3    3    0    0 -0.18913420096E+01 -0.10995134122E+02  0.35326927186E+01  0.11702566687E+02  0.51100000000E-03 0. -1.
        -11    1    3    3    0    0 -0.32792132423E+01 -0.13550202086E+02 -0.25173919686E+02  0.28776508625E+02  0.51100000000E-03 0.  1.
         12    1    3    3    0    0 -0.27853965151E+01 -0.16168604138E+00 -0.96546856215E+01  0.10049752762E+02  0.00000000000E+00 0. -1.
</event>
<event>
 7    1  0.6073302E-013  0.5052886E+02  0.7816164E-02  0.1300439E+00
        -11   -1    0    0    0    0  0.00000000000E+00  0.00000000000E+00  0.45593999997E+02  0.45594000000E+02  0.51100000000E-03 0.  1.
         11   -1    0    0    0    0 -0.00000000000E+00 -0.00000000000E+00 -0.45593999997E+02  0.45594000000E+02  0.51100000000E-03 0. -1.
    9900012    2    1    2    0    0  0.32662911835E+02  0.24073104722E+02 -0.26049188190E+01  0.50528858561E+02  0.29999996081E+02 0.  0.
         12    1    1    2    0    0 -0.32662911835E+02 -0.24073104722E+02  0.26049188190E+01  0.40659141439E+02  0.00000000000E+00 0. -1.
         11    1    3    3    0    0  0.78379858608E-01 -0.33655840885E+01  0.44819290743E+01  0.56054427253E+01  0.51100000000E-03 0. -1.
        -11    1    3    3    0    0  0.28855735490E+02  0.18105132299E+02 -0.74320055212E+01  0.34866660186E+02  0.51100000000E-03 0.  1.
         12    1    3    3    0    0  0.37287964868E+01  0.93335565116E+01  0.34515762792E+00  0.10056755649E+02  0.00000000000E+00 0. -1.
</event>
<event>
 7    1  0.6073302E-013  0.5052886E+02  0.7816164E-02  0.1300439E+00
        -11   -1    0    0    0    0  0.00000000000E+00  0.00000000000E+00  0.45593999997E+02  0.45594000000E+02  0.51100000000E-03 0.  1.
         11   -1    0    0    0    0 -0.00000000000E+00 -0.00000000000E+00 -0.45593999997E+02  0.45594000000E+02  0.51100000000E-03 0. -1.
    9900012    2    1    2    0    0 -0.36754174225E+02 -0.14718613192E+01 -0.17324259621E+02  0.50528859943E+02  0.30000000284E+02 0.  0.
         12    1    1    2    0    0  0.36754174225E+02  0.14718613192E+01  0.17324259621E+02  0.40659140057E+02  0.00000000000E+00 0. -1.
         11    1    3    3    0    0 -0.19106669462E+02 -0.40494043782E+01  0.30953404642E+01  0.19774823048E+02  0.51100000000E-03 0. -1.
        -11    1    3    3    0    0 -0.60038299051E+01  0.55215649466E+01 -0.14240376511E+01  0.82801893990E+01  0.51100000000E-03 0.  1.
         12    1    3    3    0    0 -0.11643674858E+02 -0.29440218877E+01 -0.18995562434E+02  0.22473847496E+02  0.00000000000E+00 0. -1.
</event>
<event>
 7    1  0.6073302E-013  0.5052886E+02  0.7816164E-02  0.1300439E+00
        -11   -1    0    0    0    0  0.00000000000E+00  0.00000000000E+00  0.45593999997E+02  0.45594000000E+02  0.51100000000E-03 0. -1.
         11   -1    0    0    0    0 -0.00000000000E+00 -0.00000000000E+00 -0.45593999997E+02  0.45594000000E+02  0.51100000000E-03 0.  1.
    9900012    2    1    2    0    0 -0.23434512542E+02 -0.29811379485E+02 -0.14672113977E+02  0.50528860149E+02  0.30000000908E+02 0.  0.
         12    1    1    2    0    0  0.23434512542E+02  0.29811379485E+02  0.14672113977E+02  0.40659139851E+02  0.00000000000E+00 0. -1.
         11    1    3    3    0    0 -0.57058671917E+01 -0.99206023335E+01  0.54754614678E+01  0.12686841593E+02  0.51100000000E-03 0. -1.
        -11    1    3    3    0    0 -0.16051317514E+02 -0.21118622514E+02 -0.22441991443E+02  0.34745992446E+02  0.51100000000E-03 0.  1.
        -12    1    3    3    0    0 -0.16773278355E+01  0.12278453624E+01  0.22944159976E+01  0.30960261097E+01  0.00000000000E+00 0.  1.
</event>
<event>
 7    1  0.6073302E-013  0.5052886E+02  0.7816164E-02  0.1300439E+00
        -11   -1    0    0    0    0  0.00000000000E+00  0.00000000000E+00  0.45593999997E+02  0.45594000000E+02  0.51100000000E-03 0.  1.
         11   -1    0    0    0    0 -0.00000000000E+00 -0.00000000000E+00 -0.45593999997E+02  0.45594000000E+02  0.51100000000E-03 0. -1.
    9900012    2    1    2    0    0  0.25276684281E+02 -0.15963970720E+02  0.27557333869E+02  0.50528858600E+02  0.29999996200E+02 0.  0.
         12    1    1    2    0    0 -0.25276684281E+02  0.15963970720E+02 -0.27557333869E+02  0.40659141400E+02  0.00000000000E+00 0. -1.
         11    1    3    3    0    0 -0.40369493934E+01  0.15757552432E+01  0.50379021395E+01  0.66453309338E+01  0.51100000000E-03 0. -1.
        -11    1    3    3    0    0  0.18261264280E+02 -0.14133573326E+02  0.22609989652E+02  0.32317848016E+02  0.51100000000E-03 0.  1.
         12    1    3    3    0    0  0.11052369395E+02 -0.34061526378E+01 -0.90557922724E-01  0.11565679650E+02  0.00000000000E+00 0. -1.
</event>
<event>
 7    1  0.6073302E-013  0.5052885E+02  0.7816164E-02  0.1300439E+00
        -11   -1    0    0    0    0  0.00000000000E+00  0.00000000000E+00  0.45593999997E+02  0.45594000000E+02  0.51100000000E-03 0. -1.
         11   -1    0    0    0    0 -0.00000000000E+00 -0.00000000000E+00 -0.45593999997E+02  0.45594000000E+02  0.51100000000E-03 0.  1.
    9900012    2    1    2    0    0 -0.38980019578E+02 -0.11538633559E+02  0.76454937106E+00  0.50528849413E+02  0.29999968277E+02 0.  0.
         12    1    1    2    0    0  0.38980019578E+02  0.11538633559E+02 -0.76454937106E+00  0.40659150587E+02  0.00000000000E+00 0. -1.
         11    1    3    3    0    0 -0.72417845630E+01 -0.43043974304E+01  0.84475761821E+01  0.11930332121E+02  0.51100000000E-03 0. -1.
        -11    1    3    3    0    0 -0.32806194199E+02 -0.25869450297E+01 -0.78341935365E+01  0.33827699464E+02  0.51100000000E-03 0.  1.
        -12    1    3    3    0    0  0.10679591841E+01 -0.46472910986E+01  0.15116672553E+00  0.47708178285E+01  0.00000000000E+00 0.  1.
</event>
<event>
 7    1  0.6073302E-013  0.5052886E+02  0.7816164E-02  0.1300439E+00
        -11   -1    0    0    0    0  0.00000000000E+00  0.00000000000E+00  0.45593999997E+02  0.45594000000E+02  0.51100000000E-03 0.  1.
         11   -1    0    0    0    0 -0.00000000000E+00 -0.00000000000E+00 -0.45593999997E+02  0.45594000000E+02  0.51100000000E-03 0. -1.
    9900012    2    1    2    0    0  0.15872941672E+02  0.13866354223E+02  0.34769806590E+02  0.50528861949E+02  0.30000006380E+02 0.  0.
         12    1    1    2    0    0 -0.15872941672E+02 -0.13866354223E+02 -0.34769806590E+02  0.40659138051E+02  0.00000000000E+00 0. -1.
         11    1    3    3    0    0  0.44941559601E+01  0.14970295548E+02  0.16835468328E+02  0.22972596297E+02  0.51100000000E-03 0. -1.
        -11    1    3    3    0    0  0.11501366319E+02 -0.36562723271E+01  0.20592933609E+02  0.23868780225E+02  0.51100000000E-03 0.  1.
         12    1    3    3    0    0 -0.12258060771E+00  0.25523310028E+01 -0.26585953466E+01  0.36874854264E+01  0.00000000000E+00 0. -1.
</event>
<event>
 7    1  0.6073302E-013  0.5052887E+02  0.7816164E-02  0.1300439E+00
        -11   -1    0    0    0    0  0.00000000000E+00  0.00000000000E+00  0.45593999997E+02  0.45594000000E+02  0.51100000000E-03 0.  1.
         11   -1    0    0    0    0 -0.00000000000E+00 -0.00000000000E+00 -0.45593999997E+02  0.45594000000E+02  0.51100000000E-03 0. -1.
    9900012    2    1    2    0    0  0.23530255422E+02  0.24592764019E+00  0.33157679683E+02  0.50528866677E+02  0.30000020751E+02 0.  0.
         12    1    1    2    0    0 -0.23530255422E+02 -0.24592764019E+00 -0.33157679683E+02  0.40659133323E+02  0.00000000000E+00 0. -1.
         11    1    3    3    0    0 -0.43250813648E+01  0.16797562653E+00 -0.12022365574E+01  0.44922063203E+01  0.51100000000E-03 0. -1.
        -11    1    3    3    0    0  0.17817205202E+02 -0.56093067701E+01  0.24834919652E+02  0.31075558853E+02  0.51100000000E-03 0.  1.
         12    1    3    3    0    0  0.10038131586E+02  0.56872587838E+01  0.95249965879E+01  0.14961101504E+02  0.00000000000E+00 0. -1.
</event>
<event>
 7    1  0.6073302E-013  0.5052886E+02  0.7816164E-02  0.1300439E+00
        -11   -1    0    0    0    0  0.00000000000E+00  0.00000000000E+00  0.45593999997E+02  0.45594000000E+02  0.51100000000E-03 0.  1.
         11   -1    0    0    0    0 -0.00000000000E+00 -0.00000000000E+00 -0.45593999997E+02  0.45594000000E+02  0.51100000000E-03 0. -1.
    9900012    2    1    2    0    0  0.28451347302E+02  0.16550653104E+02 -0.23869690633E+02  0.50528863113E+02  0.30000009918E+02 0.  0.
         12    1    1    2    0    0 -0.28451347302E+02 -0.16550653104E+02  0.23869690633E+02  0.40659136887E+02  0.00000000000E+00 0. -1.
         11    1    3    3    0    0  0.10698936381E+02  0.10740566078E+02 -0.20477471911E+02  0.25478497905E+02  0.51100000000E-03 0. -1.
        -11    1    3    3    0    0  0.18847689349E+02  0.52266772681E+00 -0.36171685577E+00  0.18858404352E+02  0.51100000000E-03 0.  1.
         12    1    3    3    0    0 -0.10952784282E+01  0.52874192995E+01 -0.30305018662E+01  0.61919608562E+01  0.00000000000E+00 0. -1.
</event>
<event>
 7    1  0.6073302E-013  0.5052885E+02  0.7816164E-02  0.1300439E+00
        -11   -1    0    0    0    0  0.00000000000E+00  0.00000000000E+00  0.45593999997E+02  0.45594000000E+02  0.51100000000E-03 0.  1.
         11   -1    0    0    0    0 -0.00000000000E+00 -0.00000000000E+00 -0.45593999997E+02  0.45594000000E+02  0.51100000000E-03 0. -1.
    9900012    2    1    2    0    0  0.31995515603E+01  0.36810966136E+02  0.16967079661E+02  0.50528854039E+02  0.29999982337E+02 0.  0.
         12    1    1    2    0    0 -0.31995515603E+01 -0.36810966136E+02 -0.16967079661E+02  0.40659145961E+02  0.00000000000E+00 0. -1.
         11    1    3    3    0    0 -0.73604375556E+01  0.20845098944E+01 -0.40804240966E+00  0.76607911718E+01  0.51100000000E-03 0. -1.
        -11    1    3    3    0    0  0.74176194691E+01  0.22142046279E+02  0.18580053222E+02  0.29841408647E+02  0.51100000000E-03 0.  1.
        -12    1    3    3    0    0  0.31423696468E+01  0.12584409962E+02 -0.12049311515E+01  0.13026654220E+02  0.00000000000E+00 0.  1.
</event>
<event>
 7    1  0.6073302E-013  0.5052886E+02  0.7816164E-02  0.1300439E+00
        -11   -1    0    0    0    0  0.00000000000E+00  0.00000000000E+00  0.45593999997E+02  0.45594000000E+02  0.51100000000E-03 0. -1.
         11   -1    0    0    0    0 -0.00000000000E+00 -0.00000000000E+00 -0.45593999997E+02  0.45594000000E+02  0.51100000000E-03 0.  1.
    9900012    2    1    2    0    0  0.10775987908E+02  0.17777407244E+02 -0.34942914889E+02  0.50528862962E+02  0.30000009460E+02 0.  0.
         12    1    1    2    0    0 -0.10775987908E+02 -0.17777407244E+02  0.34942914889E+02  0.40659137038E+02  0.00000000000E+00 0. -1.
         11    1    3    3    0    0  0.92698269391E+01 -0.12367404036E+01 -0.10911995172E+02  0.14371181482E+02  0.51100000000E-03 0. -1.
        -11    1    3    3    0    0  0.38684114712E+01  0.19893133829E+02 -0.11347874154E+02  0.23226614668E+02  0.51100000000E-03 0.  1.
        -12    1    3    3    0    0 -0.23622505019E+01 -0.87898618151E+00 -0.12683045563E+02  0.12931066812E+02  0.00000000000E+00 0.  1.
</event>
<event>
 7    1  0.6073302E-013  0.5052886E+02  0.7816164E-02  0.1300439E+00
        -11   -1    0    0    0    0  0.00000000000E+00  0.00000000000E+00  0.45593999997E+02  0.45594000000E+02  0.51100000000E-03 0.  1.
         11   -1    0    0    0    0 -0.00000000000E+00 -0.00000000000E+00 -0.45593999997E+02  0.45594000000E+02  0.51100000000E-03 0. -1.
    9900012    2    1    2    0    0  0.20457656216E+01 -0.15248775008E+01  0.40578996871E+02  0.50528863322E+02  0.30000010553E+02 0.  0.
         12    1    1    2    0    0 -0.20457656216E+01  0.15248775008E+01 -0.40578996871E+02  0.40659136678E+02  0.00000000000E+00 0. -1.
         11    1    3    3    0    0  0.66421813641E+00  0.84034060999E+01  0.20281809346E+02  0.21963838699E+02  0.51100000000E-03 0. -1.
        -11    1    3    3    0    0  0.87780616689E+01 -0.61894291368E+01  0.67558349935E+01  0.12688762998E+02  0.51100000000E-03 0.  1.
         12    1    3    3    0    0 -0.73965141837E+01 -0.37388544639E+01  0.13541352532E+02  0.15876261624E+02  0.00000000000E+00 0. -1.
</event>
<event>
 7    1  0.6073302E-013  0.5052884E+02  0.7816164E-02  0.1300439E+00
        -11   -1    0    0    0    0  0.00000000000E+00  0.00000000000E+00  0.45593999997E+02  0.45594000000E+02  0.51100000000E-03 0.  1.
         11   -1    0    0    0    0 -0.00000000000E+00 -0.00000000000E+00 -0.45593999997E+02  0.45594000000E+02  0.51100000000E-03 0. -1.
    9900012    2    1    2    0    0 -0.79492038641E+01 -0.39836305729E+02  0.17452756998E+01  0.50528842563E+02  0.29999947456E+02 0.  0.
         12    1    1    2    0    0  0.79492038641E+01  0.39836305729E+02 -0.17452756998E+01  0.40659157437E+02  0.00000000000E+00 0. -1.
         11    1    3    3    0    0 -0.84994833540E+01 -0.16602629254E+02 -0.98231233131E+01  0.21080376356E+02  0.51100000000E-03 0. -1.
        -11    1    3    3    0    0  0.58866465791E+01 -0.72627878854E+01  0.78417236595E+01  0.12202185297E+02  0.51100000000E-03 0.  1.
        -12    1    3    3    0    0 -0.53363670893E+01 -0.15970888589E+02  0.37266753533E+01  0.17246280910E+02  0.00000000000E+00 0.  1.
</event>
<event>
 7    1  0.6073302E-013  0.5052886E+02  0.7816164E-02  0.1300439E+00
        -11   -1    0    0    0    0  0.00000000000E+00  0.00000000000E+00  0.45593999997E+02  0.45594000000E+02  0.51100000000E-03 0.  1.
         11   -1    0    0    0    0 -0.00000000000E+00 -0.00000000000E+00 -0.45593999997E+02  0.45594000000E+02  0.51100000000E-03 0. -1.
    9900012    2    1    2    0    0 -0.37886598815E+02 -0.14585929838E+02  0.22409619618E+01  0.50528860443E+02  0.30000001803E+02 0.  0.
         12    1    1    2    0    0  0.37886598815E+02  0.14585929838E+02 -0.22409619618E+01  0.40659139557E+02  0.00000000000E+00 0. -1.
         11    1    3    3    0    0 -0.22387772754E+02  0.37473514732E+01 -0.42825187555E-01  0.22699269728E+02  0.51100000000E-03 0. -1.
        -11    1    3    3    0    0 -0.15080191412E+02 -0.18897758951E+02 -0.12665546171E+01  0.24210361981E+02  0.51100000000E-03 0.  1.
         12    1    3    3    0    0 -0.41863464928E+00  0.56447763945E+00  0.35503417665E+01  0.36192287347E+01  0.00000000000E+00 0. -1.
</event>
<event>
 7    1  0.6073302E-013  0.5052886E+02  0.7816164E-02  0.1300439E+00
        -11   -1    0    0    0    0  0.00000000000E+00  0.00000000000E+00  0.45593999997E+02  0.45594000000E+02  0.51100000000E-03 0.  1.
         11   -1    0    0    0    0 -0.00000000000E+00 -0.00000000000E+00 -0.45593999997E+02  0.45594000000E+02  0.51100000000E-03 0. -1.
    9900012    2    1    2    0    0  0.73394019927E+01 -0.63519733006E+01  0.39483559857E+02  0.50528857296E+02  0.29999992237E+02 0.  0.
         12    1    1    2    0    0 -0.73394019927E+01  0.63519733006E+01 -0.39483559857E+02  0.40659142704E+02  0.00000000000E+00 0. -1.
         11    1    3    3    0    0  0.54174140593E+01  0.44348494246E+01 -0.23848544139E+00  0.70052223431E+01  0.51100000000E-03 0. -1.
        -11    1    3    3    0    0 -0.20650678201E+00 -0.89489777515E+01  0.39715208998E+02  0.40711480861E+02  0.51100000000E-03 0.  1.
        -12    1    3    3    0    0  0.21284947154E+01 -0.18378449737E+01  0.68363003657E-02  0.28121540918E+01  0.00000000000E+00 0.  1.
</event>
<event>
 7    1  0.6073302E-013  0.5052885E+02  0.7816164E-02  0.1300439E+00
        -11   -1    0    0    0    0  0.00000000000E+00  0.00000000000E+00  0.45593999997E+02  0.45594000000E+02  0.51100000000E-03 0.  1.
         11   -1    0    0    0    0 -0.00000000000E+00 -0.00000000000E+00 -0.45593999997E+02  0.45594000000E+02  0.51100000000E-03 0. -1.
    9900012    2    1    2    0    0  0.42220968629E+01  0.19708092479E+02  0.35311911743E+02  0.50528854386E+02  0.29999983392E+02 0.  0.
         12    1    1    2    0    0 -0.42220968629E+01 -0.19708092479E+02 -0.35311911743E+02  0.40659145614E+02  0.00000000000E+00 0. -1.
         11    1    3    3    0    0  0.47658987216E+01 -0.28274499174E+01  0.16977670422E+02  0.17859158907E+02  0.51100000000E-03 0. -1.
        -11    1    3    3    0    0  0.16058865160E+01  0.14222464092E+02  0.23212851887E+01  0.14499852466E+02  0.51100000000E-03 0.  1.
        -12    1    3    3    0    0 -0.21496883746E+01  0.83130783038E+01  0.16012956133E+02  0.18169843013E+02  0.00000000000E+00 0.  1.
</event>
<event>
 7    1  0.6073302E-013  0.5052887E+02  0.7816164E-02  0.1300439E+00
        -11   -1    0    0    0    0  0.00000000000E+00  0.00000000000E+00  0.45593999997E+02  0.45594000000E+02  0.51100000000E-03 0. -1.
         11   -1    0    0    0    0 -0.00000000000E+00 -0.00000000000E+00 -0.45593999997E+02  0.45594000000E+02  0.51100000000E-03 0.  1.
    9900012    2    1    2    0    0 -0.41668756717E+01  0.59918328068E+01 -0.39998749844E+02  0.50528869385E+02  0.30000028984E+02 0.  0.
         12    1    1    2    0    0  0.41668756717E+01 -0.59918328068E+01  0.39998749844E+02  0.40659130615E+02  0.00000000000E+00 0. -1.
         11    1    3    3    0    0 -0.81119257784E+01  0.13182219238E+02 -0.18893279876E+02  0.24423969141E+02  0.51100000000E-03 0. -1.
        -11    1    3    3    0    0  0.80716006683E+01 -0.71825237622E+01 -0.17778619089E+02  0.20804294795E+02  0.51100000000E-03 0.  1.
        -12    1    3    3    0    0 -0.41265505615E+01 -0.78626688194E-02 -0.33268508786E+01  0.53006054491E+01  0.00000000000E+00 0.  1.
</event>
<event>
 7    1  0.6073302E-013  0.5052886E+02  0.7816164E-02  0.1300439E+00
        -11   -1    0    0    0    0  0.00000000000E+00  0.00000000000E+00  0.45593999997E+02  0.45594000000E+02  0.51100000000E-03 0.  1.
         11   -1    0    0    0    0 -0.00000000000E+00 -0.00000000000E+00 -0.45593999997E+02  0.45594000000E+02  0.51100000000E-03 0. -1.
    9900012    2    1    2    0    0 -0.55985275858E+01 -0.14370936208E+02  0.37620445804E+02  0.50528864973E+02  0.30000015573E+02 0.  0.
         12    1    1    2    0    0  0.55985275858E+01  0.14370936208E+02 -0.37620445804E+02  0.40659135027E+02  0.00000000000E+00 0. -1.
         11    1    3    3    0    0 -0.22967801458E+01 -0.19055919639E+02  0.13335949325E+02  0.23372009263E+02  0.51100000000E-03 0. -1.
        -11    1    3    3    0    0  0.19406013824E+01  0.20146284899E+01  0.74708415205E+00  0.28953059715E+01  0.51100000000E-03 0.  1.
         12    1    3    3    0    0 -0.52423488223E+01  0.26703549413E+01  0.23537412327E+02  0.24261549739E+02  0.00000000000E+00 0. -1.
</event>
<event>
 7    1  0.6073302E-013  0.5052882E+02  0.7816164E-02  0.1300439E+00
        -11   -1    0    0    0    0  0.00000000000E+00  0.00000000000E+00  0.45593999997E+02  0.45594000000E+02  0.51100000000E-03 0. -1.
         11   -1    0    0    0    0 -0.00000000000E+00 -0.00000000000E+00 -0.45593999997E+02  0.45594000000E+02  0.51100000000E-03 0.  1.
    9900012    2    1    2    0    0  0.31517327021E+02 -0.20069278297E+02  0.16032810234E+02  0.50528820988E+02  0.29999881875E+02 0.  0.
         12    1    1    2    0    0 -0.31517327021E+02  0.20069278297E+02 -0.16032810234E+02  0.40659179012E+02  0.00000000000E+00 0. -1.
         11    1    3    3    0    0  0.16647467778E+02 -0.10013220159E+02  0.20437505759E+02  0.28197418380E+02  0.51100000000E-03 0. -1.
        -11    1    3    3    0    0  0.69049430741E+01  0.17946380958E+01  0.69798559898E+00  0.71684132770E+01  0.51100000000E-03 0.  1.
         12    1    3    3    0    0  0.79649161685E+01 -0.11850696234E+02 -0.51026811237E+01  0.15162989331E+02  0.00000000000E+00 0. -1.
</event>
<event>
 7    1  0.6073302E-013  0.5052886E+02  0.7816164E-02  0.1300439E+00
        -11   -1    0    0    0    0  0.00000000000E+00  0.00000000000E+00  0.45593999997E+02  0.45594000000E+02  0.51100000000E-03 0.  1.
         11   -1    0    0    0    0 -0.00000000000E+00 -0.00000000000E+00 -0.45593999997E+02  0.45594000000E+02  0.51100000000E-03 0. -1.
    9900012    2    1    2    0    0 -0.15381295084E+02 -0.87229786587E+00  0.37627391670E+02  0.50528859012E+02  0.29999997451E+02 0.  0.
         12    1    1    2    0    0  0.15381295084E+02  0.87229786587E+00 -0.37627391670E+02  0.40659140988E+02  0.00000000000E+00 0. -1.
         11    1    3    3    0    0 -0.53540011637E+01  0.36442831204E+01 -0.11814081059E+00  0.64776604908E+01  0.51100000000E-03 0. -1.
        -11    1    3    3    0    0 -0.12552697242E+02 -0.27228444265E+01  0.38727237663E+02  0.40801752745E+02  0.51100000000E-03 0.  1.
        -12    1    3    3    0    0  0.25254033222E+01 -0.17937365597E+01 -0.98170518181E+00  0.32494457757E+01  0.00000000000E+00 0.  1.
</event>
<event>
 7    1  0.6073302E-013  0.5052886E+02  0.7816164E-02  0.1300439E+00
        -11   -1    0    0    0    0  0.00000000000E+00  0.00000000000E+00  0.45593999997E+02  0.45594000000E+02  0.51100000000E-03 0. -1.
         11   -1    0    0    0    0 -0.00000000000E+00 -0.00000000000E+00 -0.45593999997E+02  0.45594000000E+02  0.51100000000E-03 0.  1.
    9900012    2    1    2    0    0  0.37145267292E+02  0.16267980300E+02 -0.29576129513E+01  0.50528861549E+02  0.30000005164E+02 0.  0.
         12    1    1    2    0    0 -0.37145267292E+02 -0.16267980300E+02  0.29576129513E+01  0.40659138451E+02  0.00000000000E+00 0. -1.
         11    1    3    3    0    0 -0.22218935759E+01  0.56560405311E+00 -0.69294430799E+01  0.72988972226E+01  0.51100000000E-03 0. -1.
        -11    1    3    3    0    0  0.17596001667E+02  0.59426611357E+01 -0.18706245015E+01  0.18666379733E+02  0.51100000000E-03 0.  1.
         12    1    3    3    0    0  0.21771159201E+02  0.97597151108E+01  0.58424546301E+01  0.24563584594E+02  0.00000000000E+00 0. -1.
</event>
<event>
 7    1  0.6073302E-013  0.5052885E+02  0.7816164E-02  0.1300439E+00
        -11   -1    0    0    0    0  0.00000000000E+00  0.00000000000E+00  0.45593999997E+02  0.45594000000E+02  0.51100000000E-03 0. -1.
         11   -1    0    0    0    0 -0.00000000000E+00 -0.00000000000E+00 -0.45593999997E+02  0.45594000000E+02  0.51100000000E-03 0.  1.
    9900012    2    1    2    0    0  0.18334117389E+01  0.39455013776E+02 -0.96491745971E+01  0.50528854890E+02  0.29999984924E+02 0.  0.
         12    1    1    2    0    0 -0.18334117389E+01 -0.39455013776E+02  0.96491745971E+01  0.40659145110E+02  0.00000000000E+00 0. -1.
         11    1    3    3    0    0  0.35628632932E+01  0.44148088135E+02 -0.85875310228E+01  0.45116442348E+02  0.51100000000E-03 0. -1.
        -11    1    3    3    0    0 -0.75944475747E+00 -0.36243234585E+01 -0.13483940553E+01  0.39408937642E+01  0.51100000000E-03 0.  1.
         12    1    3    3    0    0 -0.97000679676E+00 -0.10687509010E+01  0.28675048110E+00  0.14715187775E+01  0.00000000000E+00 0. -1.
</event>
<event>
 7    1  0.6073302E-013  0.5052888E+02  0.7816164E-02  0.1300439E+00
        -11   -1    0    0    0    0  0.00000000000E+00  0.00000000000E+00  0.45593999997E+02  0.45594000000E+02  0.51100000000E-03 0.  1.
         11   -1    0    0    0    0 -0.00000000000E+00 -0.00000000000E+00 -0.45593999997E+02  0.45594000000E+02  0.51100000000E-03 0. -1.
    9900012    2    1    2    0    0  0.28059298205E+02 -0.18067623780E+02  0.23225004181E+02  0.50528879694E+02  0.30000060319E+02 0.  0.
         12    1    1    2    0    0 -0.28059298205E+02  0.18067623780E+02 -0.23225004181E+02  0.40659120306E+02  0.00000000000E+00 0. -1.
         11    1    3    3    0    0 -0.18672607940E+01 -0.73906577442E+01  0.95530553404E+01  0.12221675473E+02  0.51100000000E-03 0. -1.
        -11    1    3    3    0    0  0.11964569149E+02  0.32311415071E+01  0.84435645319E+01  0.14996165264E+02  0.51100000000E-03 0.  1.
         12    1    3    3    0    0  0.17961989850E+02 -0.13908107543E+02  0.52283843088E+01  0.23311038958E+02  0.00000000000E+00 0. -1.
</event>
<event>
 7    1  0.6073302E-013  0.5052886E+02  0.7816164E-02  0.1300439E+00
        -11   -1    0    0    0    0  0.00000000000E+00  0.00000000000E+00  0.45593999997E+02  0.45594000000E+02  0.51100000000E-03 0.  1.
         11   -1    0    0    0    0 -0.00000000000E+00 -0.00000000000E+00 -0.45593999997E+02  0.45594000000E+02  0.51100000000E-03 0. -1.
    9900012    2    1    2    0    0 -0.39515245364E+01  0.14347485026E+01  0.40441222387E+02  0.50528861820E+02  0.30000005988E+02 0.  0.
         12    1    1    2    0    0  0.39515245364E+01 -0.14347485026E+01 -0.40441222387E+02  0.40659138180E+02  0.00000000000E+00 0. -1.
         11    1    3    3    0    0  0.93235449222E+01  0.29500108459E+01  0.24339880251E+01  0.10077467533E+02  0.51100000000E-03 0. -1.
        -11    1    3    3    0    0 -0.58373147690E+01 -0.17136209292E+00  0.11647922846E+02  0.13029877804E+02  0.51100000000E-03 0.  1.
         12    1    3    3    0    0 -0.74377546895E+01 -0.13439002504E+01  0.26359311515E+02  0.27421516484E+02  0.00000000000E+00 0. -1.
</event>
<event>
 7    1  0.6073302E-013  0.5052887E+02  0.7816164E-02  0.1300439E+00
        -11   -1    0    0    0    0  0.00000000000E+00  0.00000000000E+00  0.45593999997E+02  0.45594000000E+02  0.51100000000E-03 0. -1.
         11   -1    0    0    0    0 -0.00000000000E+00 -0.00000000000E+00 -0.45593999997E+02  0.45594000000E+02  0.51100000000E-03 0.  1.
    9900012    2    1    2    0    0  0.16026207239E+02 -0.36059065163E+02 -0.98015053744E+01  0.50528868104E+02  0.30000025090E+02 0.  0.
         12    1    1    2    0    0 -0.16026207239E+02  0.36059065163E+02  0.98015053744E+01  0.40659131896E+02  0.00000000000E+00 0. -1.
         11    1    3    3    0    0  0.15908568569E+02 -0.92577182991E+01 -0.17806982048E+01  0.18492127741E+02  0.51100000000E-03 0. -1.
        -11    1    3    3    0    0 -0.25934924386E+01 -0.60793538198E+01 -0.89400147716E+01  0.11117940919E+02  0.51100000000E-03 0.  1.
         12    1    3    3    0    0  0.27111311084E+01 -0.20721993044E+02  0.91920760203E+00  0.20918799445E+02  0.00000000000E+00 0. -1.
</event>
<event>
 7    1  0.6073302E-013  0.5052885E+02  0.7816164E-02  0.1300439E+00
        -11   -1    0    0    0    0  0.00000000000E+00  0.00000000000E+00  0.45593999997E+02  0.45594000000E+02  0.51100000000E-03 0.  1.
         11   -1    0    0    0    0 -0.00000000000E+00 -0.00000000000E+00 -0.45593999997E+02  0.45594000000E+02  0.51100000000E-03 0. -1.
    9900012    2    1    2    0    0  0.10821767554E+02 -0.80985714053E+00  0.39184176085E+02  0.50528853710E+02  0.29999981336E+02 0.  0.
         12    1    1    2    0    0 -0.10821767554E+02  0.80985714053E+00 -0.39184176085E+02  0.40659146290E+02  0.00000000000E+00 0. -1.
         11    1    3    3    0    0 -0.16448401255E+01 -0.54476272226E+01 -0.27021969390E+01  0.62995245815E+01  0.51100000000E-03 0. -1.
        -11    1    3    3    0    0  0.24399392598E+01  0.32581535976E+01  0.12878820786E+02  0.13506772136E+02  0.51100000000E-03 0.  1.
         12    1    3    3    0    0  0.10026668419E+02  0.13796164845E+01  0.29007552239E+02  0.30722556992E+02  0.00000000000E+00 0. -1.
</event>
<event>
 7    1  0.6073302E-013  0.5052886E+02  0.7816164E-02  0.1300439E+00
        -11   -1    0    0    0    0  0.00000000000E+00  0.00000000000E+00  0.45593999997E+02  0.45594000000E+02  0.51100000000E-03 0. -1.
         11   -1    0    0    0    0 -0.00000000000E+00 -0.00000000000E+00 -0.45593999997E+02  0.45594000000E+02  0.51100000000E-03 0.  1.
    9900012    2    1    2    0    0  0.18112469607E+02 -0.16511055440E+02 -0.32442083459E+02  0.50528864665E+02  0.30000014637E+02 0.  0.
         12    1    1    2    0    0 -0.18112469607E+02  0.16511055440E+02  0.32442083459E+02  0.40659135335E+02  0.00000000000E+00 0. -1.
         11    1    3    3    0    0  0.18040427959E+02 -0.60370241788E+01 -0.16033780814E+02  0.24879405727E+02  0.51100000000E-03 0. -1.
        -11    1    3    3    0    0 -0.25238652603E+01 -0.13985964429E+02 -0.83485964679E+01  0.16482601739E+02  0.51100000000E-03 0.  1.
         12    1    3    3    0    0  0.25959069087E+01  0.35119331679E+01 -0.80597061767E+01  0.91668571991E+01  0.00000000000E+00 0. -1.
</event>
<event>
 7    1  0.6073302E-013  0.5052886E+02  0.7816164E-02  0.1300439E+00
        -11   -1    0    0    0    0  0.00000000000E+00  0.00000000000E+00  0.45593999997E+02  0.45594000000E+02  0.51100000000E-03 0. -1.
         11   -1    0    0    0    0 -0.00000000000E+00 -0.00000000000E+00 -0.45593999997E+02  0.45594000000E+02  0.51100000000E-03 0.  1.
    9900012    2    1    2    0    0  0.39249004406E+02 -0.10219507470E+02 -0.28710007001E+01  0.50528864190E+02  0.30000013192E+02 0.  0.
         12    1    1    2    0    0 -0.39249004406E+02  0.10219507470E+02  0.28710007001E+01  0.40659135810E+02  0.00000000000E+00 0. -1.
         11    1    3    3    0    0  0.66848010256E+01  0.61571210815E+01  0.45673659090E+01  0.10171407787E+02  0.51100000000E-03 0. -1.
        -11    1    3    3    0    0  0.30077333915E+02 -0.18065965255E+02 -0.32978756659E+01  0.35240617194E+02  0.51100000000E-03 0.  1.
         12    1    3    3    0    0  0.24868694650E+01  0.16893367041E+01 -0.41404909432E+01  0.51168392086E+01  0.00000000000E+00 0. -1.
</event>
<event>
 7    1  0.6073302E-013  0.5052886E+02  0.7816164E-02  0.1300439E+00
        -11   -1    0    0    0    0  0.00000000000E+00  0.00000000000E+00  0.45593999997E+02  0.45594000000E+02  0.51100000000E-03 0.  1.
         11   -1    0    0    0    0 -0.00000000000E+00 -0.00000000000E+00 -0.45593999997E+02  0.45594000000E+02  0.51100000000E-03 0. -1.
    9900012    2    1    2    0    0  0.18314079580E+02 -0.24252765483E+02  0.27010434457E+02  0.50528859404E+02  0.29999998644E+02 0.  0.
         12    1    1    2    0    0 -0.18314079580E+02  0.24252765483E+02 -0.27010434457E+02  0.40659140596E+02  0.00000000000E+00 0. -1.
         11    1    3    3    0    0  0.13540614744E+01 -0.67326878707E+01 -0.27557768873E+01  0.73997888453E+01  0.51100000000E-03 0. -1.
        -11    1    3    3    0    0  0.81685056287E+01 -0.29099358026E+01  0.23354132032E+02  0.24911998993E+02  0.51100000000E-03 0.  1.
        -12    1    3    3    0    0  0.87915124768E+01 -0.14610141810E+02  0.64120793127E+01  0.18217071566E+02  0.00000000000E+00 0.  1.
</event>
<event>
 7    1  0.6073302E-013  0.5052886E+02  0.7816164E-02  0.1300439E+00
        -11   -1    0    0    0    0  0.00000000000E+00  0.00000000000E+00  0.45593999997E+02  0.45594000000E+02  0.51100000000E-03 0.  1.
         11   -1    0    0    0    0 -0.00000000000E+00 -0.00000000000E+00 -0.45593999997E+02  0.45594000000E+02  0.51100000000E-03 0. -1.
    9900012    2    1    2    0    0 -0.13677234809E+02 -0.37212528980E+02  0.90181219212E+01  0.50528860952E+02  0.30000003351E+02 0.  0.
         12    1    1    2    0    0  0.13677234809E+02  0.37212528980E+02 -0.90181219212E+01  0.40659139048E+02  0.00000000000E+00 0. -1.
         11    1    3    3    0    0 -0.99974204061E+01 -0.18780469274E+02 -0.95956165243E+01  0.23339457956E+02  0.51100000000E-03 0. -1.
        -11    1    3    3    0    0 -0.50626822933E+01 -0.10887433435E+02  0.97452176782E+01  0.15464030091E+02  0.51100000000E-03 0.  1.
         12    1    3    3    0    0  0.13828678904E+01 -0.75446262709E+01  0.88685207673E+01  0.11725372905E+02  0.00000000000E+00 0. -1.
</event>
<event>
 7    1  0.6073302E-013  0.5052887E+02  0.7816164E-02  0.1300439E+00
        -11   -1    0    0    0    0  0.00000000000E+00  0.00000000000E+00  0.45593999997E+02  0.45594000000E+02  0.51100000000E-03 0.  1.
         11   -1    0    0    0    0 -0.00000000000E+00 -0.00000000000E+00 -0.45593999997E+02  0.45594000000E+02  0.51100000000E-03 0. -1.
    9900012    2    1    2    0    0 -0.26675540692E+02  0.15600343962E+02  0.26423659119E+02  0.50528868624E+02  0.30000026670E+02 0.  0.
         12    1    1    2    0    0  0.26675540692E+02 -0.15600343962E+02 -0.26423659119E+02  0.40659131376E+02  0.00000000000E+00 0. -1.
         11    1    3    3    0    0 -0.33977934916E+01  0.12211040578E+02  0.57728729749E+01  0.13927690952E+02  0.51100000000E-03 0. -1.
        -11    1    3    3    0    0 -0.58895480428E+01 -0.46314564076E+01  0.14783122334E+02  0.16573408545E+02  0.51100000000E-03 0.  1.
        -12    1    3    3    0    0 -0.17388199158E+02  0.80207597915E+01  0.58676638104E+01  0.20027769126E+02  0.00000000000E+00 0.  1.
</event>
<event>
 7    1  0.6073302E-013  0.5052886E+02  0.7816164E-02  0.1300439E+00
        -11   -1    0    0    0    0  0.00000000000E+00  0.00000000000E+00  0.45593999997E+02  0.45594000000E+02  0.51100000000E-03 0.  1.
         11   -1    0    0    0    0 -0.00000000000E+00 -0.00000000000E+00 -0.45593999997E+02  0.45594000000E+02  0.51100000000E-03 0. -1.
    9900012    2    1    2    0    0 -0.51218039476E+01  0.35728796235E+02  0.18718594469E+02  0.50528861605E+02  0.30000005336E+02 0.  0.
         12    1    1    2    0    0  0.51218039476E+01 -0.35728796235E+02 -0.18718594469E+02  0.40659138395E+02  0.00000000000E+00 0. -1.
         11    1    3    3    0    0 -0.10726471424E+02  0.30983408545E+02  0.85954682728E+01  0.33895587756E+02  0.51100000000E-03 0. -1.
        -11    1    3    3    0    0  0.62302840430E+00  0.70083663400E+01  0.82662257555E+01  0.10855222322E+02  0.51100000000E-03 0.  1.
         12    1    3    3    0    0  0.49816390721E+01 -0.22629786492E+01  0.18569004403E+01  0.57780515277E+01  0.00000000000E+00 0. -1.
</event>
<event>
 7    1  0.6073302E-013  0.5052886E+02  0.7816164E-02  0.1300439E+00
        -11   -1    0    0    0    0  0.00000000000E+00  0.00000000000E+00  0.45593999997E+02  0.45594000000E+02  0.51100000000E-03 0.  1.
         11   -1    0    0    0    0 -0.00000000000E+00 -0.00000000000E+00 -0.45593999997E+02  0.45594000000E+02  0.51100000000E-03 0. -1.
    9900012    2    1    2    0    0 -0.13043923853E+02 -0.31721607766E+02  0.21834868139E+02  0.50528858157E+02  0.29999994854E+02 0.  0.
         12    1    1    2    0    0  0.13043923853E+02  0.31721607766E+02 -0.21834868139E+02  0.40659141843E+02  0.00000000000E+00 0. -1.
         11    1    3    3    0    0  0.24425638225E+01 -0.18238550937E+02  0.44585702322E+01  0.18933824418E+02  0.51100000000E-03 0. -1.
        -11    1    3    3    0    0 -0.16376619794E+02 -0.63961801088E+01  0.68380949758E+01  0.18864366912E+02  0.51100000000E-03 0.  1.
         12    1    3    3    0    0  0.89013211843E+00 -0.70868767208E+01  0.10538202931E+02  0.12730666827E+02  0.00000000000E+00 0. -1.
</event>
<event>
 7    1  0.6073302E-013  0.5052887E+02  0.7816164E-02  0.1300439E+00
        -11   -1    0    0    0    0  0.00000000000E+00  0.00000000000E+00  0.45593999997E+02  0.45594000000E+02  0.51100000000E-03 0.  1.
         11   -1    0    0    0    0 -0.00000000000E+00 -0.00000000000E+00 -0.45593999997E+02  0.45594000000E+02  0.51100000000E-03 0. -1.
    9900012    2    1    2    0    0  0.15241902646E+02  0.10955235080E+02  0.36067054244E+02  0.50528866048E+02  0.30000018838E+02 0.  0.
         12    1    1    2    0    0 -0.15241902646E+02 -0.10955235080E+02 -0.36067054244E+02  0.40659133952E+02  0.00000000000E+00 0. -1.
         11    1    3    3    0    0  0.25047945905E+01 -0.36049595447E+01  0.73129725259E+01  0.85293198255E+01  0.51100000000E-03 0. -1.
        -11    1    3    3    0    0  0.12464596242E+02  0.16514811997E+02  0.32055566702E+02  0.38153171973E+02  0.51100000000E-03 0.  1.
        -12    1    3    3    0    0  0.27251181329E+00 -0.19546173720E+01 -0.33014849843E+01  0.38463742487E+01  0.00000000000E+00 0.  1.
</event>
<event>
 7    1  0.6073302E-013  0.5052887E+02  0.7816164E-02  0.1300439E+00
        -11   -1    0    0    0    0  0.00000000000E+00  0.00000000000E+00  0.45593999997E+02  0.45594000000E+02  0.51100000000E-03 0.  1.
         11   -1    0    0    0    0 -0.00000000000E+00 -0.00000000000E+00 -0.45593999997E+02  0.45594000000E+02  0.51100000000E-03 0. -1.
    9900012    2    1    2    0    0 -0.66420110242E+01 -0.30973598855E+02  0.25488917281E+02  0.50528867685E+02  0.30000023816E+02 0.  0.
         12    1    1    2    0    0  0.66420110242E+01  0.30973598855E+02 -0.25488917281E+02  0.40659132315E+02  0.00000000000E+00 0. -1.
         11    1    3    3    0    0  0.51021832926E+01  0.85659282887E+00 -0.15595717314E+01  0.54035441955E+01  0.51100000000E-03 0. -1.
        -11    1    3    3    0    0 -0.16710366311E+01 -0.16815173360E+02  0.18719397952E+02  0.25218213230E+02  0.51100000000E-03 0.  1.
        -12    1    3    3    0    0 -0.10073157686E+02 -0.15015018323E+02  0.83290910601E+01  0.19907110260E+02  0.00000000000E+00 0.  1.
</event>
<event>
 7    1  0.6073302E-013  0.5052886E+02  0.7816164E-02  0.1300439E+00
        -11   -1    0    0    0    0  0.00000000000E+00  0.00000000000E+00  0.45593999997E+02  0.45594000000E+02  0.51100000000E-03 0.  1.
         11   -1    0    0    0    0 -0.00000000000E+00 -0.00000000000E+00 -0.45593999997E+02  0.45594000000E+02  0.51100000000E-03 0. -1.
    9900012    2    1    2    0    0 -0.15641742961E+02  0.43572862933E+01  0.37276212166E+02  0.50528855147E+02  0.29999985705E+02 0.  0.
         12    1    1    2    0    0  0.15641742961E+02 -0.43572862933E+01 -0.37276212166E+02  0.40659144853E+02  0.00000000000E+00 0. -1.
         11    1    3    3    0    0 -0.16478350497E+02  0.30876140041E+01  0.56908030287E+01  0.17704650088E+02  0.51100000000E-03 0. -1.
        -11    1    3    3    0    0  0.22162512565E+01  0.43353113141E+01  0.24533356347E+02  0.25011842550E+02  0.51100000000E-03 0.  1.
         12    1    3    3    0    0 -0.13796437204E+01 -0.30656390249E+01  0.70520527901E+01  0.78123625095E+01  0.00000000000E+00 0. -1.
</event>
<event>
 7    1  0.6073302E-013  0.5052886E+02  0.7816164E-02  0.1300439E+00
        -11   -1    0    0    0    0  0.00000000000E+00  0.00000000000E+00  0.45593999997E+02  0.45594000000E+02  0.51100000000E-03 0.  1.
         11   -1    0    0    0    0 -0.00000000000E+00 -0.00000000000E+00 -0.45593999997E+02  0.45594000000E+02  0.51100000000E-03 0. -1.
    9900012    2    1    2    0    0  0.71726685781E+01 -0.79175746583E+01  0.39230475143E+02  0.50528863967E+02  0.30000012514E+02 0.  0.
         12    1    1    2    0    0 -0.71726685781E+01  0.79175746583E+01 -0.39230475143E+02  0.40659136033E+02  0.00000000000E+00 0. -1.
         11    1    3    3    0    0  0.63184810927E+00 -0.17369081568E+02  0.16474203555E+02  0.23947517817E+02  0.51100000000E-03 0. -1.
        -11    1    3    3    0    0  0.53781503392E+01  0.48887778288E+01  0.19622571870E+02  0.20925342931E+02  0.51100000000E-03 0.  1.
        -12    1    3    3    0    0  0.11626701297E+01  0.45627290808E+01  0.31336997180E+01  0.56560032194E+01  0.00000000000E+00 0.  1.
</event>
<event>
 7    1  0.6073302E-013  0.5052886E+02  0.7816164E-02  0.1300439E+00
        -11   -1    0    0    0    0  0.00000000000E+00  0.00000000000E+00  0.45593999997E+02  0.45594000000E+02  0.51100000000E-03 0. -1.
         11   -1    0    0    0    0 -0.00000000000E+00 -0.00000000000E+00 -0.45593999997E+02  0.45594000000E+02  0.51100000000E-03 0.  1.
    9900012    2    1    2    0    0 -0.36340536789E+02 -0.77560297544E+01 -0.16503790384E+02  0.50528859469E+02  0.29999998842E+02 0.  0.
         12    1    1    2    0    0  0.36340536789E+02  0.77560297544E+01  0.16503790384E+02  0.40659140531E+02  0.00000000000E+00 0. -1.
         11    1    3    3    0    0 -0.29810507446E+02 -0.63573973233E+01 -0.51029184165E+01  0.30905058349E+02  0.51100000000E-03 0. -1.
        -11    1    3    3    0    0  0.20899551049E+01  0.29910986214E+01 -0.89198559394E+01  0.96373447352E+01  0.51100000000E-03 0.  1.
        -12    1    3    3    0    0 -0.86199844478E+01 -0.43897310525E+01 -0.24810160277E+01  0.99864563847E+01  0.00000000000E+00 0.  1.
</event>
<event>
 7    1  0.6073302E-013  0.5052886E+02  0.7816164E-02  0.1300439E+00
        -11   -1    0    0    0    0  0.00000000000E+00  0.00000000000E+00  0.45593999997E+02  0.45594000000E+02  0.51100000000E-03 0.  1.
         11   -1    0    0    0    0 -0.00000000000E+00 -0.00000000000E+00 -0.45593999997E+02  0.45594000000E+02  0.51100000000E-03 0. -1.
    9900012    2    1    2    0    0 -0.39434489160E+02 -0.88813950492E+01  0.43826392072E+01  0.50528860317E+02  0.30000001419E+02 0.  0.
         12    1    1    2    0    0  0.39434489160E+02  0.88813950492E+01 -0.43826392072E+01  0.40659139683E+02  0.00000000000E+00 0. -1.
         11    1    3    3    0    0 -0.66706395722E+01 -0.14060762357E+02  0.12263325413E+01  0.15611097403E+02  0.51100000000E-03 0. -1.
        -11    1    3    3    0    0 -0.81653969269E+01  0.57554084491E+01  0.25267727049E+01  0.10304514251E+02  0.51100000000E-03 0.  1.
         12    1    3    3    0    0 -0.24598452661E+02 -0.57604114131E+00  0.62953396096E+00  0.24613248663E+02  0.00000000000E+00 0. -1.
</event>
<event>
 7    1  0.6073302E-013  0.5052887E+02  0.7816164E-02  0.1300439E+00
        -11   -1    0    0    0    0  0.00000000000E+00  0.00000000000E+00  0.45593999997E+02  0.45594000000E+02  0.51100000000E-03 0. -1.
         11   -1    0    0    0    0 -0.00000000000E+00 -0.00000000000E+00 -0.45593999997E+02  0.45594000000E+02  0.51100000000E-03 0.  1.
    9900012    2    1    2    0    0 -0.19651539797E+02  0.20322574753E+02 -0.29222851385E+02  0.50528866905E+02  0.30000021444E+02 0.  0.
         12    1    1    2    0    0  0.19651539797E+02 -0.20322574753E+02  0.29222851385E+02  0.40659133095E+02  0.00000000000E+00 0. -1.
         11    1    3    3    0    0 -0.24907827882E+01 -0.41877148569E+01 -0.14579795178E+02  0.15372422786E+02  0.51100000000E-03 0. -1.
        -11    1    3    3    0    0 -0.14506779230E+02  0.12753987802E+02 -0.12238331394E+02  0.22866735754E+02  0.51100000000E-03 0.  1.
         12    1    3    3    0    0 -0.26539777789E+01  0.11756301808E+02 -0.24047248125E+01  0.12289708364E+02  0.00000000000E+00 0. -1.
</event>
<event>
 7    1  0.6073302E-013  0.5052887E+02  0.7816164E-02  0.1300439E+00
        -11   -1    0    0    0    0  0.00000000000E+00  0.00000000000E+00  0.45593999997E+02  0.45594000000E+02  0.51100000000E-03 0. -1.
         11   -1    0    0    0    0 -0.00000000000E+00 -0.00000000000E+00 -0.45593999997E+02  0.45594000000E+02  0.51100000000E-03 0.  1.
    9900012    2    1    2    0    0  0.37173093454E+02 -0.94550251375E+01 -0.13488096876E+02  0.50528866529E+02  0.30000020301E+02 0.  0.
         12    1    1    2    0    0 -0.37173093454E+02  0.94550251375E+01  0.13488096876E+02  0.40659133471E+02  0.00000000000E+00 0. -1.
         11    1    3    3    0    0  0.21880375809E+02 -0.15381807451E+02 -0.76695863131E+01  0.27823971688E+02  0.51100000000E-03 0. -1.
        -11    1    3    3    0    0  0.14465136910E+02  0.95122966436E+01 -0.20428225773E+01  0.17432644595E+02  0.51100000000E-03 0.  1.
         12    1    3    3    0    0  0.82758073511E+00 -0.35855143302E+01 -0.37756879860E+01  0.52722502457E+01  0.00000000000E+00 0. -1.
</event>
<event>
 7    1  0.6073302E-013  0.5052879E+02  0.7816164E-02  0.1300439E+00
        -11   -1    0    0    0    0  0.00000000000E+00  0.00000000000E+00  0.45593999997E+02  0.45594000000E+02  0.51100000000E-03 0.  1.
         11   -1    0    0    0    0 -0.00000000000E+00 -0.00000000000E+00 -0.45593999997E+02  0.45594000000E+02  0.51100000000E-03 0. -1.
    9900012    2    1    2    0    0  0.19664590735E+02 -0.34382855120E+02 -0.91812026487E+01  0.50528790255E+02  0.29999788459E+02 0.  0.
         12    1    1    2    0    0 -0.19664590735E+02  0.34382855120E+02  0.91812026487E+01  0.40659209745E+02  0.00000000000E+00 0. -1.
         11    1    3    3    0    0  0.34711046893E+01  0.49062271417E+01 -0.29904195406E-01  0.60100355284E+01  0.51100000000E-03 0. -1.
        -11    1    3    3    0    0  0.14466613922E+02 -0.27158795422E+02 -0.96702425696E+01  0.32255180650E+02  0.51100000000E-03 0.  1.
         12    1    3    3    0    0  0.17268721238E+01 -0.12130286840E+02  0.51894411635E+00  0.12263574077E+02  0.00000000000E+00 0. -1.
</event>
<event>
 7    1  0.6073302E-013  0.5052886E+02  0.7816164E-02  0.1300439E+00
        -11   -1    0    0    0    0  0.00000000000E+00  0.00000000000E+00  0.45593999997E+02  0.45594000000E+02  0.51100000000E-03 0. -1.
         11   -1    0    0    0    0 -0.00000000000E+00 -0.00000000000E+00 -0.45593999997E+02  0.45594000000E+02  0.51100000000E-03 0.  1.
    9900012    2    1    2    0    0  0.32688643316E+02  0.24007568196E+02 -0.28731296662E+01  0.50528860725E+02  0.30000002660E+02 0.  0.
         12    1    1    2    0    0 -0.32688643316E+02 -0.24007568196E+02  0.28731296662E+01  0.40659139275E+02  0.00000000000E+00 0. -1.
         11    1    3    3    0    0  0.86276985798E+01 -0.42399834357E+01 -0.56948394469E+01  0.11173443467E+02  0.51100000000E-03 0. -1.
        -11    1    3    3    0    0  0.13922781290E+02  0.24724710378E+02  0.35577185704E+01  0.28597421279E+02  0.51100000000E-03 0.  1.
        -12    1    3    3    0    0  0.10138163446E+02  0.35228412539E+01 -0.73600878968E+00  0.10757995979E+02  0.00000000000E+00 0.  1.
</event>
<event>
 7    1  0.6073302E-013  0.5052890E+02  0.7816164E-02  0.1300439E+00
        -11   -1    0    0    0    0  0.00000000000E+00  0.00000000000E+00  0.45593999997E+02  0.45594000000E+02  0.51100000000E-03 0.  1.
         11   -1    0    0    0    0 -0.00000000000E+00 -0.00000000000E+00 -0.45593999997E+02  0.45594000000E+02  0.51100000000E-03 0. -1.
    9900012    2    1    2    0    0  0.22042918760E+02  0.30402239702E+02 -0.15587695287E+02  0.50528896583E+02  0.30000111653E+02 0.  0.
         12    1    1    2    0    0 -0.22042918760E+02 -0.30402239702E+02  0.15587695287E+02  0.40659103417E+02  0.00000000000E+00 0. -1.
         11    1    3    3    0    0  0.70960848717E+01  0.10019010929E+02  0.80488536048E+01  0.14680566921E+02  0.51100000000E-03 0. -1.
        -11    1    3    3    0    0  0.12959013383E+02  0.16083001828E+02 -0.13543322807E+02  0.24698594466E+02  0.51100000000E-03 0.  1.
         12    1    3    3    0    0  0.19878205046E+01  0.43002269439E+01 -0.10093226085E+02  0.11149735196E+02  0.00000000000E+00 0. -1.
</event>
<event>
 7    1  0.6073302E-013  0.5052885E+02  0.7816164E-02  0.1300439E+00
        -11   -1    0    0    0    0  0.00000000000E+00  0.00000000000E+00  0.45593999997E+02  0.45594000000E+02  0.51100000000E-03 0.  1.
         11   -1    0    0    0    0 -0.00000000000E+00 -0.00000000000E+00 -0.45593999997E+02  0.45594000000E+02  0.51100000000E-03 0. -1.
    9900012    2    1    2    0    0  0.33614982755E+02  0.22470272443E+02  0.42762070605E+01  0.50528853968E+02  0.29999982120E+02 0.  0.
         12    1    1    2    0    0 -0.33614982755E+02 -0.22470272443E+02 -0.42762070605E+01  0.40659146032E+02  0.00000000000E+00 0. -1.
         11    1    3    3    0    0  0.59284157709E+01  0.97167480687E+01 -0.10630666133E+02  0.15574734966E+02  0.51100000000E-03 0. -1.
        -11    1    3    3    0    0  0.10947926036E+02  0.94886718544E+01  0.56559465039E+01  0.15552546710E+02  0.51100000000E-03 0.  1.
         12    1    3    3    0    0  0.16738640948E+02  0.32648525195E+01  0.92509266894E+01  0.19401572291E+02  0.00000000000E+00 0. -1.
</event>
<event>
 7    1  0.6073302E-013  0.5052886E+02  0.7816164E-02  0.1300439E+00
        -11   -1    0    0    0    0  0.00000000000E+00  0.00000000000E+00  0.45593999997E+02  0.45594000000E+02  0.51100000000E-03 0.  1.
         11   -1    0    0    0    0 -0.00000000000E+00 -0.00000000000E+00 -0.45593999997E+02  0.45594000000E+02  0.51100000000E-03 0. -1.
    9900012    2    1    2    0    0  0.22643137790E+02 -0.17674896617E+02  0.28775891051E+02  0.50528861234E+02  0.30000004206E+02 0.  0.
         12    1    1    2    0    0 -0.22643137790E+02  0.17674896617E+02 -0.28775891051E+02  0.40659138766E+02  0.00000000000E+00 0. -1.
         11    1    3    3    0    0  0.38640071761E+01  0.15526535135E+01  0.90355066994E+01  0.99489530086E+01  0.51100000000E-03 0. -1.
        -11    1    3    3    0    0  0.19191476053E+01 -0.15984924782E+02  0.16602219868E+02  0.23126492441E+02  0.51100000000E-03 0.  1.
        -12    1    3    3    0    0  0.16859983009E+02 -0.32426253485E+01  0.31381644842E+01  0.17453415784E+02  0.00000000000E+00 0.  1.
</event>
<event>
 7    1  0.6073302E-013  0.5052885E+02  0.7816164E-02  0.1300439E+00
        -11   -1    0    0    0    0  0.00000000000E+00  0.00000000000E+00  0.45593999997E+02  0.45594000000E+02  0.51100000000E-03 0.  1.
         11   -1    0    0    0    0 -0.00000000000E+00 -0.00000000000E+00 -0.45593999997E+02  0.45594000000E+02  0.51100000000E-03 0. -1.
    9900012    2    1    2    0    0  0.71198891928E+01  0.18539913058E+02  0.35478799176E+02  0.50528851100E+02  0.29999973403E+02 0.  0.
         12    1    1    2    0    0 -0.71198891928E+01 -0.18539913058E+02 -0.35478799176E+02  0.40659148900E+02  0.00000000000E+00 0. -1.
         11    1    3    3    0    0 -0.49504145918E+00  0.18763682433E+02  0.15130534121E+02  0.24109207941E+02  0.51100000000E-03 0. -1.
        -11    1    3    3    0    0  0.90536151956E+01  0.36050053521E+01  0.20081166654E+02  0.22320781038E+02  0.51100000000E-03 0.  1.
        -12    1    3    3    0    0 -0.14386845436E+01 -0.38287747271E+01  0.26709840049E+00  0.40988621204E+01  0.00000000000E+00 0.  1.
</event>
<event>
 7    1  0.6073302E-013  0.5052887E+02  0.7816164E-02  0.1300439E+00
        -11   -1    0    0    0    0  0.00000000000E+00  0.00000000000E+00  0.45593999997E+02  0.45594000000E+02  0.51100000000E-03 0. -1.
         11   -1    0    0    0    0 -0.00000000000E+00 -0.00000000000E+00 -0.45593999997E+02  0.45594000000E+02  0.51100000000E-03 0.  1.
    9900012    2    1    2    0    0  0.24849492142E+02  0.16991870352E+02 -0.27330274581E+02  0.50528870318E+02  0.30000031820E+02 0.  0.
         12    1    1    2    0    0 -0.24849492142E+02 -0.16991870352E+02  0.27330274581E+02  0.40659129682E+02  0.00000000000E+00 0. -1.
         11    1    3    3    0    0  0.60516934812E+00  0.84427425039E+01  0.24525295125E+01  0.88125496991E+01  0.51100000000E-03 0. -1.
        -11    1    3    3    0    0  0.20027312107E+02  0.43268614297E+01 -0.13926388111E+02  0.24774164893E+02  0.51100000000E-03 0.  1.
        -12    1    3    3    0    0  0.42170106869E+01  0.42222664182E+01 -0.15856415983E+02  0.16942155726E+02  0.00000000000E+00 0.  1.
</event>
<event>
 7    1  0.6073302E-013  0.5052887E+02  0.7816164E-02  0.1300439E+00
        -11   -1    0    0    0    0  0.00000000000E+00  0.00000000000E+00  0.45593999997E+02  0.45594000000E+02  0.51100000000E-03 0. -1.
         11   -1    0    0    0    0 -0.00000000000E+00 -0.00000000000E+00 -0.45593999997E+02  0.45594000000E+02  0.51100000000E-03 0.  1.
    9900012    2    1    2    0    0  0.14360238750E+02 -0.28657536351E+02 -0.25013881154E+02  0.50528866991E+02  0.30000021705E+02 0.  0.
         12    1    1    2    0    0 -0.14360238750E+02  0.28657536351E+02  0.25013881154E+02  0.40659133009E+02  0.00000000000E+00 0. -1.
         11    1    3    3    0    0 -0.61884096243E+01 -0.23941133985E+01  0.12532698759E+01  0.67526941502E+01  0.51100000000E-03 0. -1.
        -11    1    3    3    0    0  0.16505015424E+02 -0.20536514818E+02 -0.25596739246E+02  0.36733595458E+02  0.51100000000E-03 0.  1.
        -12    1    3    3    0    0  0.40436329508E+01 -0.57269081347E+01 -0.67041178393E+00  0.70425773822E+01  0.00000000000E+00 0.  1.
</event>
<event>
 7    1  0.6073302E-013  0.5052888E+02  0.7816164E-02  0.1300439E+00
        -11   -1    0    0    0    0  0.00000000000E+00  0.00000000000E+00  0.45593999997E+02  0.45594000000E+02  0.51100000000E-03 0.  1.
         11   -1    0    0    0    0 -0.00000000000E+00 -0.00000000000E+00 -0.45593999997E+02  0.45594000000E+02  0.51100000000E-03 0. -1.
    9900012    2    1    2    0    0 -0.46545178232E+01  0.22837514501E+02  0.33315879240E+02  0.50528875387E+02  0.30000047226E+02 0.  0.
         12    1    1    2    0    0  0.46545178232E+01 -0.22837514501E+02 -0.33315879240E+02  0.40659124613E+02  0.00000000000E+00 0. -1.
         11    1    3    3    0    0  0.87702583615E+01  0.23654992682E+01  0.80257227791E+01  0.12121272413E+02  0.51100000000E-03 0. -1.
        -11    1    3    3    0    0 -0.15968295905E+02  0.15070474802E+02  0.23529519731E+02  0.32182976617E+02  0.51100000000E-03 0.  1.
        -12    1    3    3    0    0  0.25435197200E+01  0.54015404311E+01  0.17606367299E+01  0.62246263574E+01  0.00000000000E+00 0.  1.
</event>
<event>
 7    1  0.6073302E-013  0.5052886E+02  0.7816164E-02  0.1300439E+00
        -11   -1    0    0    0    0  0.00000000000E+00  0.00000000000E+00  0.45593999997E+02  0.45594000000E+02  0.51100000000E-03 0. -1.
         11   -1    0    0    0    0 -0.00000000000E+00 -0.00000000000E+00 -0.45593999997E+02  0.45594000000E+02  0.51100000000E-03 0.  1.
    9900012    2    1    2    0    0 -0.56194447894E+01  0.34185269954E+02 -0.21282737189E+02  0.50528859037E+02  0.29999997529E+02 0.  0.
         12    1    1    2    0    0  0.56194447894E+01 -0.34185269954E+02  0.21282737189E+02  0.40659140963E+02  0.00000000000E+00 0. -1.
         11    1    3    3    0    0  0.56731859883E+00 -0.49366102360E+00 -0.49445168031E-01  0.75365554769E+00  0.51100000000E-03 0. -1.
        -11    1    3    3    0    0  0.73095511181E+01  0.10133030916E+02  0.28713698040E+01  0.12820008498E+02  0.51100000000E-03 0.  1.
        -12    1    3    3    0    0 -0.13496314506E+02  0.24545900062E+02 -0.24104661825E+02  0.36955194991E+02  0.00000000000E+00 0.  1.
</event>
<event>
 7    1  0.6073302E-013  0.5052887E+02  0.7816164E-02  0.1300439E+00
        -11   -1    0    0    0    0  0.00000000000E+00  0.00000000000E+00  0.45593999997E+02  0.45594000000E+02  0.51100000000E-03 0. -1.
         11   -1    0    0    0    0 -0.00000000000E+00 -0.00000000000E+00 -0.45593999997E+02  0.45594000000E+02  0.51100000000E-03 0.  1.
    9900012    2    1    2    0    0  0.37253699445E+02  0.11923733738E+02 -0.11097353706E+02  0.50528870547E+02  0.30000032515E+02 0.  0.
         12    1    1    2    0    0 -0.37253699445E+02 -0.11923733738E+02  0.11097353706E+02  0.40659129453E+02  0.00000000000E+00 0. -1.
         11    1    3    3    0    0  0.22643555352E+02 -0.29887703716E+01 -0.15863073011E+01  0.22894971466E+02  0.51100000000E-03 0. -1.
        -11    1    3    3    0    0  0.12839530603E+02  0.43585939068E+01 -0.10113590630E+02  0.16915543226E+02  0.51100000000E-03 0.  1.
         12    1    3    3    0    0  0.17706134896E+01  0.10553910202E+02  0.60254422465E+00  0.10718355855E+02  0.00000000000E+00 0. -1.
</event>
<event>
 7    1  0.6073302E-013  0.5052886E+02  0.7816164E-02  0.1300439E+00
        -11   -1    0    0    0    0  0.00000000000E+00  0.00000000000E+00  0.45593999997E+02  0.45594000000E+02  0.51100000000E-03 0.  1.
         11   -1    0    0    0    0 -0.00000000000E+00 -0.00000000000E+00 -0.45593999997E+02  0.45594000000E+02  0.51100000000E-03 0. -1.
    9900012    2    1    2    0    0  0.18398684218E+02 -0.14904466496E+02  0.33053151953E+02  0.50528861341E+02  0.30000004532E+02 0.  0.
         12    1    1    2    0    0 -0.18398684218E+02  0.14904466496E+02 -0.33053151953E+02  0.40659138659E+02  0.00000000000E+00 0. -1.
         11    1    3    3    0    0  0.20331107013E+02 -0.92671903774E+01  0.29107729004E+02  0.36694612927E+02  0.51100000000E-03 0.  1.
        -11    1    3    3    0    0 -0.58808928540E+01 -0.25758066176E+01 -0.13426791768E+01  0.65591514790E+01  0.51100000000E-03 0. -1.
        -12    1    3    3    0    0  0.39484700597E+01 -0.30614695012E+01  0.52881021253E+01  0.72750969346E+01  0.00000000000E+00 0.  1.
</event>
<event>
 7    1  0.6073302E-013  0.5052886E+02  0.7816164E-02  0.1300439E+00
        -11   -1    0    0    0    0  0.00000000000E+00  0.00000000000E+00  0.45593999997E+02  0.45594000000E+02  0.51100000000E-03 0.  1.
         11   -1    0    0    0    0 -0.00000000000E+00 -0.00000000000E+00 -0.45593999997E+02  0.45594000000E+02  0.51100000000E-03 0. -1.
    9900012    2    1    2    0    0  0.37617315475E+02 -0.14029643740E+02 -0.64243463847E+01  0.50528861378E+02  0.30000004643E+02 0.  0.
         12    1    1    2    0    0 -0.37617315475E+02  0.14029643740E+02  0.64243463847E+01  0.40659138622E+02  0.00000000000E+00 0. -1.
         11    1    3    3    0    0  0.27870968021E+02 -0.10725903457E+01 -0.10376758834E+02  0.29759341939E+02  0.51100000000E-03 0. -1.
        -11    1    3    3    0    0 -0.15201767188E+01 -0.37228024774E+01  0.46970104353E+01  0.61832113689E+01  0.51100000000E-03 0.  1.
        -12    1    3    3    0    0  0.11266524173E+02 -0.92342509171E+01 -0.74459798630E+00  0.14586308070E+02  0.00000000000E+00 0.  1.
</event>
<event>
 7    1  0.6073302E-013  0.5052892E+02  0.7816164E-02  0.1300439E+00
        -11   -1    0    0    0    0  0.00000000000E+00  0.00000000000E+00  0.45593999997E+02  0.45594000000E+02  0.51100000000E-03 0. -1.
         11   -1    0    0    0    0 -0.00000000000E+00 -0.00000000000E+00 -0.45593999997E+02  0.45594000000E+02  0.51100000000E-03 0.  1.
    9900012    2    1    2    0    0  0.23229290127E+02 -0.53177514857E+01 -0.32943626730E+02  0.50528918077E+02  0.30000176987E+02 0.  0.
         12    1    1    2    0    0 -0.23229290127E+02  0.53177514857E+01  0.32943626730E+02  0.40659081923E+02  0.00000000000E+00 0. -1.
         11    1    3    3    0    0  0.28638066892E+02 -0.91260332411E+01 -0.22783449159E+02  0.37716162502E+02  0.51100000000E-03 0. -1.
        -11    1    3    3    0    0 -0.31399969916E+01  0.51767469483E-01 -0.59674508272E+01  0.67433471373E+01  0.51100000000E-03 0.  1.
         12    1    3    3    0    0 -0.22687797730E+01  0.37565142859E+01 -0.41927267441E+01  0.60694084382E+01  0.00000000000E+00 0. -1.
</event>
<event>
 7    1  0.6073302E-013  0.5052886E+02  0.7816164E-02  0.1300439E+00
        -11   -1    0    0    0    0  0.00000000000E+00  0.00000000000E+00  0.45593999997E+02  0.45594000000E+02  0.51100000000E-03 0. -1.
         11   -1    0    0    0    0 -0.00000000000E+00 -0.00000000000E+00 -0.45593999997E+02  0.45594000000E+02  0.51100000000E-03 0.  1.
    9900012    2    1    2    0    0 -0.20608852287E+02  0.14157849992E+02 -0.32062384306E+02  0.50528855932E+02  0.29999988090E+02 0.  0.
         12    1    1    2    0    0  0.20608852287E+02 -0.14157849992E+02  0.32062384306E+02  0.40659144068E+02  0.00000000000E+00 0. -1.
         11    1    3    3    0    0 -0.15508430911E+01 -0.61746826915E+01 -0.96044726230E+00  0.64384998127E+01  0.51100000000E-03 0. -1.
        -11    1    3    3    0    0 -0.10022652825E+02  0.14259728236E+02 -0.93807852412E+01  0.19793750302E+02  0.51100000000E-03 0.  1.
        -12    1    3    3    0    0 -0.90353563712E+01  0.60728044473E+01 -0.21721151803E+02  0.24296605817E+02  0.00000000000E+00 0.  1.
</event>
<event>
 7    1  0.6073302E-013  0.5052884E+02  0.7816164E-02  0.1300439E+00
        -11   -1    0    0    0    0  0.00000000000E+00  0.00000000000E+00  0.45593999997E+02  0.45594000000E+02  0.51100000000E-03 0. -1.
         11   -1    0    0    0    0 -0.00000000000E+00 -0.00000000000E+00 -0.45593999997E+02  0.45594000000E+02  0.51100000000E-03 0.  1.
    9900012    2    1    2    0    0 -0.18867890391E+02  0.26527099537E+02 -0.24361504602E+02  0.50528841080E+02  0.29999942945E+02 0.  0.
         12    1    1    2    0    0  0.18867890391E+02 -0.26527099537E+02  0.24361504602E+02  0.40659158920E+02  0.00000000000E+00 0. -1.
         11    1    3    3    0    0  0.23457564978E+01  0.16128737853E+01 -0.90448146416E+01  0.94822258756E+01  0.51100000000E-03 0. -1.
        -11    1    3    3    0    0 -0.59701381280E+01  0.21519693088E+02 -0.10687427746E+02  0.24758046206E+02  0.51100000000E-03 0.  1.
        -12    1    3    3    0    0 -0.15243508761E+02  0.33945326637E+01 -0.46292622141E+01  0.16288568998E+02  0.00000000000E+00 0.  1.
</event>
<event>
 7    1  0.6073302E-013  0.5052887E+02  0.7816164E-02  0.1300439E+00
        -11   -1    0    0    0    0  0.00000000000E+00  0.00000000000E+00  0.45593999997E+02  0.45594000000E+02  0.51100000000E-03 0.  1.
         11   -1    0    0    0    0 -0.00000000000E+00 -0.00000000000E+00 -0.45593999997E+02  0.45594000000E+02  0.51100000000E-03 0. -1.
    9900012    2    1    2    0    0  0.16006420352E+01 -0.17745067816E+02  0.36547445132E+02  0.50528865326E+02  0.30000016646E+02 0.  0.
         12    1    1    2    0    0 -0.16006420352E+01  0.17745067816E+02 -0.36547445132E+02  0.40659134674E+02  0.00000000000E+00 0. -1.
         11    1    3    3    0    0 -0.36799319153E+01 -0.10826596225E+02  0.75284224195E+01  0.13690662114E+02  0.51100000000E-03 0. -1.
        -11    1    3    3    0    0  0.11033099700E+02  0.28108920855E+01  0.14207293157E+02  0.18206525820E+02  0.51100000000E-03 0.  1.
        -12    1    3    3    0    0 -0.57525257498E+01 -0.97293636766E+01  0.14811729555E+02  0.18631677393E+02  0.00000000000E+00 0.  1.
</event>
<event>
 7    1  0.6073302E-013  0.5052885E+02  0.7816164E-02  0.1300439E+00
        -11   -1    0    0    0    0  0.00000000000E+00  0.00000000000E+00  0.45593999997E+02  0.45594000000E+02  0.51100000000E-03 0.  1.
         11   -1    0    0    0    0 -0.00000000000E+00 -0.00000000000E+00 -0.45593999997E+02  0.45594000000E+02  0.51100000000E-03 0. -1.
    9900012    2    1    2    0    0 -0.23925759830E+02  0.23901910047E+01  0.32787373225E+02  0.50528845563E+02  0.29999956574E+02 0.  0.
         12    1    1    2    0    0  0.23925759830E+02 -0.23901910047E+01 -0.32787373225E+02  0.40659154437E+02  0.00000000000E+00 0. -1.
         11    1    3    3    0    0 -0.20327501025E+02 -0.33863341336E+01  0.18768195733E+02  0.27873279823E+02  0.51100000000E-03 0. -1.
        -11    1    3    3    0    0  0.26206549014E+01  0.38450102697E+01  0.15323365958E+02  0.16014289889E+02  0.51100000000E-03 0.  1.
         12    1    3    3    0    0 -0.62189137072E+01  0.19315148686E+01 -0.13041884657E+01  0.66412758517E+01  0.00000000000E+00 0. -1.
</event>
<event>
 7    1  0.6073302E-013  0.5052885E+02  0.7816164E-02  0.1300439E+00
        -11   -1    0    0    0    0  0.00000000000E+00  0.00000000000E+00  0.45593999997E+02  0.45594000000E+02  0.51100000000E-03 0. -1.
         11   -1    0    0    0    0 -0.00000000000E+00 -0.00000000000E+00 -0.45593999997E+02  0.45594000000E+02  0.51100000000E-03 0.  1.
    9900012    2    1    2    0    0 -0.94691832146E+01 -0.25069640794E+02 -0.30578005013E+02  0.50528847146E+02  0.29999961384E+02 0.  0.
         12    1    1    2    0    0  0.94691832146E+01  0.25069640794E+02  0.30578005013E+02  0.40659152854E+02  0.00000000000E+00 0. -1.
         11    1    3    3    0    0 -0.69975149365E+01 -0.11493091725E+02 -0.86854561841E+01  0.16015415139E+02  0.51100000000E-03 0. -1.
        -11    1    3    3    0    0 -0.31689999427E+01  0.10788378103E+01 -0.19332007035E+02  0.19619708151E+02  0.51100000000E-03 0.  1.
        -12    1    3    3    0    0  0.69733166470E+00 -0.14655386879E+02 -0.25605417934E+01  0.14893723856E+02  0.00000000000E+00 0.  1.
</event>
<event>
 7    1  0.6073302E-013  0.5052884E+02  0.7816164E-02  0.1300439E+00
        -11   -1    0    0    0    0  0.00000000000E+00  0.00000000000E+00  0.45593999997E+02  0.45594000000E+02  0.51100000000E-03 0.  1.
         11   -1    0    0    0    0 -0.00000000000E+00 -0.00000000000E+00 -0.45593999997E+02  0.45594000000E+02  0.51100000000E-03 0. -1.
    9900012    2    1    2    0    0 -0.17111655711E+02  0.35240090296E+02  0.10885528061E+02  0.50528838100E+02  0.29999933887E+02 0.  0.
         12    1    1    2    0    0  0.17111655711E+02 -0.35240090296E+02 -0.10885528061E+02  0.40659161900E+02  0.00000000000E+00 0. -1.
         11    1    3    3    0    0  0.39675840191E+01  0.42993305243E+01 -0.40697624015E+01  0.71266354033E+01  0.51100000000E-03 0. -1.
        -11    1    3    3    0    0 -0.15948487329E+02  0.29341419692E+02  0.75266235887E+01  0.34233364142E+02  0.51100000000E-03 0.  1.
         12    1    3    3    0    0 -0.51307524017E+01  0.15993400802E+01  0.74286668742E+01  0.91688385539E+01  0.00000000000E+00 0. -1.
</event>
<event>
 7    1  0.6073302E-013  0.5052886E+02  0.7816164E-02  0.1300439E+00
        -11   -1    0    0    0    0  0.00000000000E+00  0.00000000000E+00  0.45593999997E+02  0.45594000000E+02  0.51100000000E-03 0.  1.
         11   -1    0    0    0    0 -0.00000000000E+00 -0.00000000000E+00 -0.45593999997E+02  0.45594000000E+02  0.51100000000E-03 0. -1.
    9900012    2    1    2    0    0 -0.37971797366E+02 -0.80259604205E+01 -0.12119907591E+02  0.50528860857E+02  0.30000003060E+02 0.  0.
         12    1    1    2    0    0  0.37971797366E+02  0.80259604205E+01  0.12119907591E+02  0.40659139143E+02  0.00000000000E+00 0. -1.
         11    1    3    3    0    0 -0.20825887154E+01 -0.52859768241E+01  0.11660917365E+01  0.57998704245E+01  0.51100000000E-03 0. -1.
        -11    1    3    3    0    0 -0.35894520732E+02  0.17943894109E+01 -0.64312733324E+01  0.36510241424E+02  0.51100000000E-03 0.  1.
        -12    1    3    3    0    0  0.53120814243E-02 -0.45343730073E+01 -0.68547259948E+01  0.82187490076E+01  0.00000000000E+00 0.  1.
</event>
<event>
 7    1  0.6073302E-013  0.5052886E+02  0.7816164E-02  0.1300439E+00
        -11   -1    0    0    0    0  0.00000000000E+00  0.00000000000E+00  0.45593999997E+02  0.45594000000E+02  0.51100000000E-03 0. -1.
         11   -1    0    0    0    0 -0.00000000000E+00 -0.00000000000E+00 -0.45593999997E+02  0.45594000000E+02  0.51100000000E-03 0.  1.
    9900012    2    1    2    0    0  0.34764047517E+02  0.77769320737E+01  0.19599650302E+02  0.50528856327E+02  0.29999989291E+02 0.  0.
         12    1    1    2    0    0 -0.34764047517E+02 -0.77769320737E+01 -0.19599650302E+02  0.40659143673E+02  0.00000000000E+00 0. -1.
         11    1    3    3    0    0  0.24397712382E+02 -0.28281313417E+01  0.18174685034E+02  0.30554310215E+02  0.51100000000E-03 0. -1.
        -11    1    3    3    0    0  0.11707465499E+02  0.10825832787E+02  0.45370954709E+01  0.16578559633E+02  0.51100000000E-03 0.  1.
         12    1    3    3    0    0 -0.13411303638E+01 -0.22076937120E+00 -0.31121302027E+01  0.33959864791E+01  0.00000000000E+00 0. -1.
</event>
<event>
 7    1  0.6073302E-013  0.5052886E+02  0.7816164E-02  0.1300439E+00
        -11   -1    0    0    0    0  0.00000000000E+00  0.00000000000E+00  0.45593999997E+02  0.45594000000E+02  0.51100000000E-03 0. -1.
         11   -1    0    0    0    0 -0.00000000000E+00 -0.00000000000E+00 -0.45593999997E+02  0.45594000000E+02  0.51100000000E-03 0.  1.
    9900012    2    1    2    0    0 -0.36885300872E+02  0.77560634379E+01  0.15247427411E+02  0.50528856094E+02  0.29999988584E+02 0.  0.
         12    1    1    2    0    0  0.36885300872E+02 -0.77560634379E+01 -0.15247427411E+02  0.40659143906E+02  0.00000000000E+00 0. -1.
         11    1    3    3    0    0 -0.10674422554E+01 -0.80364973783E+01  0.32577844785E+01  0.87371553179E+01  0.51100000000E-03 0. -1.
        -11    1    3    3    0    0 -0.10865182702E+02  0.73890179434E+01  0.73520865824E+01  0.15056658284E+02  0.51100000000E-03 0.  1.
         12    1    3    3    0    0 -0.24952675915E+02  0.84035428729E+01  0.46375563505E+01  0.26735042492E+02  0.00000000000E+00 0. -1.
</event>
<event>
 7    1  0.6073302E-013  0.5052886E+02  0.7816164E-02  0.1300439E+00
        -11   -1    0    0    0    0  0.00000000000E+00  0.00000000000E+00  0.45593999997E+02  0.45594000000E+02  0.51100000000E-03 0.  1.
         11   -1    0    0    0    0 -0.00000000000E+00 -0.00000000000E+00 -0.45593999997E+02  0.45594000000E+02  0.51100000000E-03 0. -1.
    9900012    2    1    2    0    0 -0.35290599553E+02 -0.85681700490E+01  0.18284585712E+02  0.50528855525E+02  0.29999986853E+02 0.  0.
         12    1    1    2    0    0  0.35290599553E+02  0.85681700490E+01 -0.18284585712E+02  0.40659144475E+02  0.00000000000E+00 0. -1.
         11    1    3    3    0    0 -0.22568230656E+02 -0.47268398021E+00 -0.19489560088E+01  0.22657159903E+02  0.51100000000E-03 0. -1.
        -11    1    3    3    0    0 -0.67063864237E-01 -0.93584142274E+00  0.10112203480E+02  0.10155636672E+02  0.51100000000E-03 0.  1.
         12    1    3    3    0    0 -0.12655305033E+02 -0.71596446461E+01  0.10121338242E+02  0.17716058950E+02  0.00000000000E+00 0. -1.
</event>
<event>
 7    1  0.6073302E-013  0.5052883E+02  0.7816164E-02  0.1300439E+00
        -11   -1    0    0    0    0  0.00000000000E+00  0.00000000000E+00  0.45593999997E+02  0.45594000000E+02  0.51100000000E-03 0.  1.
         11   -1    0    0    0    0 -0.00000000000E+00 -0.00000000000E+00 -0.45593999997E+02  0.45594000000E+02  0.51100000000E-03 0. -1.
    9900012    2    1    2    0    0 -0.35381647576E+02  0.59963207792E+01  0.19114171073E+02  0.50528826572E+02  0.29999898847E+02 0.  0.
         12    1    1    2    0    0  0.35381647576E+02 -0.59963207792E+01 -0.19114171073E+02  0.40659173428E+02  0.00000000000E+00 0. -1.
         11    1    3    3    0    0 -0.18443972499E+02 -0.47403412796E+01 -0.43429162797E+01  0.19532329075E+02  0.51100000000E-03 0. -1.
        -11    1    3    3    0    0 -0.81141672818E+01  0.35569885350E+01  0.11066563625E+02  0.14176061119E+02  0.51100000000E-03 0.  1.
         12    1    3    3    0    0 -0.88235077951E+01  0.71796735238E+01  0.12390523727E+02  0.16820436378E+02  0.00000000000E+00 0. -1.
</event>
<event>
 7    1  0.6073302E-013  0.5052887E+02  0.7816164E-02  0.1300439E+00
        -11   -1    0    0    0    0  0.00000000000E+00  0.00000000000E+00  0.45593999997E+02  0.45594000000E+02  0.51100000000E-03 0.  1.
         11   -1    0    0    0    0 -0.00000000000E+00 -0.00000000000E+00 -0.45593999997E+02  0.45594000000E+02  0.51100000000E-03 0. -1.
    9900012    2    1    2    0    0  0.31677696658E+02 -0.51190065953E+01  0.24969657678E+02  0.50528874349E+02  0.30000044072E+02 0.  0.
         12    1    1    2    0    0 -0.31677696658E+02  0.51190065953E+01 -0.24969657678E+02  0.40659125651E+02  0.00000000000E+00 0. -1.
         11    1    3    3    0    0  0.20659651956E+01 -0.49008414927E+01  0.86227468244E+00  0.53879474214E+01  0.51100000000E-03 0. -1.
        -11    1    3    3    0    0  0.92769716747E+01  0.13770812844E+01  0.22855965240E+02  0.24705337554E+02  0.51100000000E-03 0.  1.
        -12    1    3    3    0    0  0.20334759788E+02 -0.15952463869E+01  0.12514177557E+01  0.20435589374E+02  0.00000000000E+00 0.  1.
</event>
<event>
 7    1  0.6073302E-013  0.5052886E+02  0.7816164E-02  0.1300439E+00
        -11   -1    0    0    0    0  0.00000000000E+00  0.00000000000E+00  0.45593999997E+02  0.45594000000E+02  0.51100000000E-03 0. -1.
         11   -1    0    0    0    0 -0.00000000000E+00 -0.00000000000E+00 -0.45593999997E+02  0.45594000000E+02  0.51100000000E-03 0.  1.
    9900012    2    1    2    0    0 -0.37153902075E+02  0.13735793318E+02  0.91695990235E+01  0.50528855841E+02  0.29999987814E+02 0.  0.
         12    1    1    2    0    0  0.37153902075E+02 -0.13735793318E+02 -0.91695990235E+01  0.40659144159E+02  0.00000000000E+00 0. -1.
         11    1    3    3    0    0 -0.41113723392E+00 -0.62296143726E+00  0.97616002442E+01  0.97900947067E+01  0.51100000000E-03 0. -1.
        -11    1    3    3    0    0 -0.28458275407E+02  0.15304132811E+02  0.58607044626E+00  0.32317694829E+02  0.51100000000E-03 0.  1.
        -12    1    3    3    0    0 -0.82844894347E+01 -0.94537805566E+00 -0.11780716669E+01  0.84210663051E+01  0.00000000000E+00 0.  1.
</event>
<event>
 7    1  0.6073302E-013  0.5052886E+02  0.7816164E-02  0.1300439E+00
        -11   -1    0    0    0    0  0.00000000000E+00  0.00000000000E+00  0.45593999997E+02  0.45594000000E+02  0.51100000000E-03 0.  1.
         11   -1    0    0    0    0 -0.00000000000E+00 -0.00000000000E+00 -0.45593999997E+02  0.45594000000E+02  0.51100000000E-03 0. -1.
    9900012    2    1    2    0    0 -0.11833498744E+02  0.15088636032E+02  0.35853405334E+02  0.50528864448E+02  0.30000013975E+02 0.  0.
         12    1    1    2    0    0  0.11833498744E+02 -0.15088636032E+02 -0.35853405334E+02  0.40659135552E+02  0.00000000000E+00 0. -1.
         11    1    3    3    0    0 -0.11437040541E+02  0.37148134290E+01  0.94686647992E+01  0.15305598599E+02  0.51100000000E-03 0. -1.
        -11    1    3    3    0    0 -0.43499842817E+01  0.78543275888E+01  0.28225566427E+02  0.29619173275E+02  0.51100000000E-03 0.  1.
         12    1    3    3    0    0  0.39535260783E+01  0.35194950146E+01 -0.18408258919E+01  0.56040925737E+01  0.00000000000E+00 0. -1.
</event>
<event>
 7    1  0.6073302E-013  0.5052884E+02  0.7816164E-02  0.1300439E+00
        -11   -1    0    0    0    0  0.00000000000E+00  0.00000000000E+00  0.45593999997E+02  0.45594000000E+02  0.51100000000E-03 0. -1.
         11   -1    0    0    0    0 -0.00000000000E+00 -0.00000000000E+00 -0.45593999997E+02  0.45594000000E+02  0.51100000000E-03 0.  1.
    9900012    2    1    2    0    0 -0.32677666632E+02  0.15262251968E+02 -0.18772339007E+02  0.50528844285E+02  0.29999952688E+02 0.  0.
         12    1    1    2    0    0  0.32677666632E+02 -0.15262251968E+02  0.18772339007E+02  0.40659155715E+02  0.00000000000E+00 0. -1.
         11    1    3    3    0    0  0.41169483591E+01  0.56819503279E+01 -0.87179860408E+01  0.11190938486E+02  0.51100000000E-03 0. -1.
        -11    1    3    3    0    0 -0.15331098872E+02  0.35573714503E+01 -0.42434855372E+01  0.16300449503E+02  0.51100000000E-03 0.  1.
         12    1    3    3    0    0 -0.21463516120E+02  0.60229301898E+01 -0.58108674293E+01  0.23037456296E+02  0.00000000000E+00 0. -1.
</event>
<event>
 7    1  0.6073302E-013  0.5052886E+02  0.7816164E-02  0.1300439E+00
        -11   -1    0    0    0    0  0.00000000000E+00  0.00000000000E+00  0.45593999997E+02  0.45594000000E+02  0.51100000000E-03 0. -1.
         11   -1    0    0    0    0 -0.00000000000E+00 -0.00000000000E+00 -0.45593999997E+02  0.45594000000E+02  0.51100000000E-03 0.  1.
    9900012    2    1    2    0    0  0.59878715630E+01 -0.24387271544E+02 -0.31977677919E+02  0.50528861983E+02  0.30000006484E+02 0.  0.
         12    1    1    2    0    0 -0.59878715630E+01  0.24387271544E+02  0.31977677919E+02  0.40659138017E+02  0.00000000000E+00 0. -1.
         11    1    3    3    0    0  0.13762769630E+01 -0.60798924012E+01  0.43533734380E+01  0.76033604703E+01  0.51100000000E-03 0. -1.
        -11    1    3    3    0    0 -0.12948666027E+01 -0.15976623964E+02 -0.21718774468E+02  0.26993227993E+02  0.51100000000E-03 0.  1.
        -12    1    3    3    0    0  0.59064612027E+01 -0.23307551783E+01 -0.14612276889E+02  0.15932273520E+02  0.00000000000E+00 0.  1.
</event>
<event>
 7    1  0.6073302E-013  0.5052887E+02  0.7816164E-02  0.1300439E+00
        -11   -1    0    0    0    0  0.00000000000E+00  0.00000000000E+00  0.45593999997E+02  0.45594000000E+02  0.51100000000E-03 0.  1.
         11   -1    0    0    0    0 -0.00000000000E+00 -0.00000000000E+00 -0.45593999997E+02  0.45594000000E+02  0.51100000000E-03 0. -1.
    9900012    2    1    2    0    0 -0.68638036520E+01 -0.19204137131E+02  0.35174628350E+02  0.50528866179E+02  0.30000019238E+02 0.  0.
         12    1    1    2    0    0  0.68638036520E+01  0.19204137131E+02 -0.35174628350E+02  0.40659133821E+02  0.00000000000E+00 0. -1.
         11    1    3    3    0    0 -0.85093844129E+01 -0.92376213167E+00  0.96963808969E+01  0.12933783759E+02  0.51100000000E-03 0. -1.
        -11    1    3    3    0    0 -0.18734272830E+00 -0.20514765664E+02  0.11909262800E+02  0.23721746315E+02  0.51100000000E-03 0.  1.
        -12    1    3    3    0    0  0.18329234892E+01  0.22343906651E+01  0.13568984653E+02  0.13873336105E+02  0.00000000000E+00 0.  1.
</event>
<event>
 7    1  0.6073302E-013  0.5052886E+02  0.7816164E-02  0.1300439E+00
        -11   -1    0    0    0    0  0.00000000000E+00  0.00000000000E+00  0.45593999997E+02  0.45594000000E+02  0.51100000000E-03 0. -1.
         11   -1    0    0    0    0 -0.00000000000E+00 -0.00000000000E+00 -0.45593999997E+02  0.45594000000E+02  0.51100000000E-03 0.  1.
    9900012    2    1    2    0    0  0.16155557369E+02 -0.30886865408E+02 -0.20932394176E+02  0.50528860627E+02  0.30000002361E+02 0.  0.
         12    1    1    2    0    0 -0.16155557369E+02  0.30886865408E+02  0.20932394176E+02  0.40659139373E+02  0.00000000000E+00 0. -1.
         11    1    3    3    0    0  0.13692071576E+02 -0.89448684219E+01  0.21142169639E+01  0.16491009938E+02  0.51100000000E-03 0. -1.
        -11    1    3    3    0    0  0.68300793062E+01 -0.13003937926E+02 -0.10648592688E+02  0.18142351319E+02  0.51100000000E-03 0.  1.
         12    1    3    3    0    0 -0.43665935133E+01 -0.89380590608E+01 -0.12398018452E+02  0.15895499370E+02  0.00000000000E+00 0. -1.
</event>
<event>
 7    1  0.6073302E-013  0.5052886E+02  0.7816164E-02  0.1300439E+00
        -11   -1    0    0    0    0  0.00000000000E+00  0.00000000000E+00  0.45593999997E+02  0.45594000000E+02  0.51100000000E-03 0.  1.
         11   -1    0    0    0    0 -0.00000000000E+00 -0.00000000000E+00 -0.45593999997E+02  0.45594000000E+02  0.51100000000E-03 0. -1.
    9900012    2    1    2    0    0  0.30794560232E+02  0.24299784062E+02  0.10694906364E+02  0.50528862435E+02  0.30000007857E+02 0.  0.
         12    1    1    2    0    0 -0.30794560232E+02 -0.24299784062E+02 -0.10694906364E+02  0.40659137565E+02  0.00000000000E+00 0. -1.
         11    1    3    3    0    0 -0.12644949610E+01  0.11909781989E+02 -0.33625150465E+01  0.12439789477E+02  0.51100000000E-03 0. -1.
        -11    1    3    3    0    0  0.27131346847E+02  0.11766347290E+02  0.14795423982E+02  0.33067529109E+02  0.51100000000E-03 0.  1.
        -12    1    3    3    0    0  0.49277083467E+01  0.62365478348E+00 -0.73800257160E+00  0.50215438497E+01  0.00000000000E+00 0.  1.
</event>
<event>
 7    1  0.6073302E-013  0.5052886E+02  0.7816164E-02  0.1300439E+00
        -11   -1    0    0    0    0  0.00000000000E+00  0.00000000000E+00  0.45593999997E+02  0.45594000000E+02  0.51100000000E-03 0.  1.
         11   -1    0    0    0    0 -0.00000000000E+00 -0.00000000000E+00 -0.45593999997E+02  0.45594000000E+02  0.51100000000E-03 0. -1.
    9900012    2    1    2    0    0  0.29570230849E+02 -0.27903646723E+02  0.39205150033E+00  0.50528858871E+02  0.29999997026E+02 0.  0.
         12    1    1    2    0    0 -0.29570230849E+02  0.27903646723E+02 -0.39205150033E+00  0.40659141129E+02  0.00000000000E+00 0. -1.
         11    1    3    3    0    0  0.27057692082E+02 -0.19104149583E+02 -0.85363669839E+00  0.33133305419E+02  0.51100000000E-03 0. -1.
        -11    1    3    3    0    0  0.81366426474E+01 -0.83397445465E+01  0.14962460705E+01  0.11747129234E+02  0.51100000000E-03 0.  1.
         12    1    3    3    0    0 -0.56241038806E+01 -0.45975259389E+00 -0.25055787178E+00  0.56484242187E+01  0.00000000000E+00 0. -1.
</event>
<event>
 7    1  0.6073302E-013  0.5052885E+02  0.7816164E-02  0.1300439E+00
        -11   -1    0    0    0    0  0.00000000000E+00  0.00000000000E+00  0.45593999997E+02  0.45594000000E+02  0.51100000000E-03 0. -1.
         11   -1    0    0    0    0 -0.00000000000E+00 -0.00000000000E+00 -0.45593999997E+02  0.45594000000E+02  0.51100000000E-03 0.  1.
    9900012    2    1    2    0    0  0.10712242084E+02  0.36077287064E+02  0.15389716692E+02  0.50528854015E+02  0.29999982265E+02 0.  0.
         12    1    1    2    0    0 -0.10712242084E+02 -0.36077287064E+02 -0.15389716692E+02  0.40659145985E+02  0.00000000000E+00 0. -1.
         11    1    3    3    0    0 -0.82353212440E+00 -0.97661292514E+00  0.88714465976E+01  0.89629539194E+01  0.51100000000E-03 0. -1.
        -11    1    3    3    0    0  0.17263018968E+01  0.26750364531E+02  0.36510568328E+01  0.27053508775E+02  0.51100000000E-03 0.  1.
         12    1    3    3    0    0  0.98094723118E+01  0.10303535458E+02  0.28672132617E+01  0.14512391321E+02  0.00000000000E+00 0. -1.
</event>
<event>
 7    1  0.6073302E-013  0.5052886E+02  0.7816164E-02  0.1300439E+00
        -11   -1    0    0    0    0  0.00000000000E+00  0.00000000000E+00  0.45593999997E+02  0.45594000000E+02  0.51100000000E-03 0.  1.
         11   -1    0    0    0    0 -0.00000000000E+00 -0.00000000000E+00 -0.45593999997E+02  0.45594000000E+02  0.51100000000E-03 0. -1.
    9900012    2    1    2    0    0 -0.13468557378E+02  0.24428757054E+02  0.29580394345E+02  0.50528856641E+02  0.29999990247E+02 0.  0.
         12    1    1    2    0    0  0.13468557378E+02 -0.24428757054E+02 -0.29580394345E+02  0.40659143359E+02  0.00000000000E+00 0. -1.
         11    1    3    3    0    0 -0.14038384883E+01 -0.29172452484E+01  0.60845447780E+01  0.68922251673E+01  0.51100000000E-03 0. -1.
        -11    1    3    3    0    0 -0.17630399842E+02  0.23457713593E+02  0.22022989684E+02  0.36689336332E+02  0.51100000000E-03 0.  1.
        -12    1    3    3    0    0  0.55656809528E+01  0.38882887098E+01  0.14728598833E+01  0.69472951424E+01  0.00000000000E+00 0.  1.
</event>
<event>
 7    1  0.6073302E-013  0.5052872E+02  0.7816164E-02  0.1300439E+00
        -11   -1    0    0    0    0  0.00000000000E+00  0.00000000000E+00  0.45593999997E+02  0.45594000000E+02  0.51100000000E-03 0.  1.
         11   -1    0    0    0    0 -0.00000000000E+00 -0.00000000000E+00 -0.45593999997E+02  0.45594000000E+02  0.51100000000E-03 0. -1.
    9900012    2    1    2    0    0 -0.27369809169E+02 -0.27451068147E+02 -0.12268225113E+02  0.50528721308E+02  0.29999578883E+02 0.  0.
         12    1    1    2    0    0  0.27369809169E+02  0.27451068147E+02  0.12268225113E+02  0.40659278692E+02  0.00000000000E+00 0. -1.
         11    1    3    3    0    0 -0.13700746703E+02 -0.20760475400E+01 -0.31583536279E+01  0.14212516719E+02  0.51100000000E-03 0. -1.
        -11    1    3    3    0    0  0.33296041870E+01 -0.13341182649E+02 -0.68638865590E+01  0.15368355718E+02  0.51100000000E-03 0.  1.
        -12    1    3    3    0    0 -0.16998666654E+02 -0.12033837958E+02 -0.22459849260E+01  0.20947848870E+02  0.00000000000E+00 0.  1.
</event>
<event>
 7    1  0.6073302E-013  0.5052886E+02  0.7816164E-02  0.1300439E+00
        -11   -1    0    0    0    0  0.00000000000E+00  0.00000000000E+00  0.45593999997E+02  0.45594000000E+02  0.51100000000E-03 0.  1.
         11   -1    0    0    0    0 -0.00000000000E+00 -0.00000000000E+00 -0.45593999997E+02  0.45594000000E+02  0.51100000000E-03 0. -1.
    9900012    2    1    2    0    0  0.13022725991E+02  0.38512358206E+02 -0.61034922719E+00  0.50528860154E+02  0.30000000925E+02 0.  0.
         12    1    1    2    0    0 -0.13022725991E+02 -0.38512358206E+02  0.61034922719E+00  0.40659139846E+02  0.00000000000E+00 0. -1.
         11    1    3    3    0    0  0.10934215321E+02  0.12942572037E+02 -0.10191644858E+02  0.19772123325E+02  0.51100000000E-03 0. -1.
        -11    1    3    3    0    0  0.69777202672E+01  0.20496833524E+02  0.46192462453E+01  0.22139245714E+02  0.51100000000E-03 0.  1.
         12    1    3    3    0    0 -0.48892095971E+01  0.50729526449E+01  0.49620493853E+01  0.86174911154E+01  0.00000000000E+00 0. -1.
</event>
<event>
 7    1  0.6073302E-013  0.5052891E+02  0.7816164E-02  0.1300439E+00
        -11   -1    0    0    0    0  0.00000000000E+00  0.00000000000E+00  0.45593999997E+02  0.45594000000E+02  0.51100000000E-03 0. -1.
         11   -1    0    0    0    0 -0.00000000000E+00 -0.00000000000E+00 -0.45593999997E+02  0.45594000000E+02  0.51100000000E-03 0.  1.
    9900012    2    1    2    0    0 -0.24597046686E+02  0.18620112194E+02 -0.26484682331E+02  0.50528908987E+02  0.30000149357E+02 0.  0.
         12    1    1    2    0    0  0.24597046686E+02 -0.18620112194E+02  0.26484682331E+02  0.40659091013E+02  0.00000000000E+00 0. -1.
         11    1    3    3    0    0 -0.51344724665E+01 -0.46445729802E+01  0.76870563338E+00  0.69660443790E+01  0.51100000000E-03 0. -1.
        -11    1    3    3    0    0 -0.95144937751E+01  0.15846725158E+02 -0.69092812996E+01  0.19732776246E+02  0.51100000000E-03 0.  1.
         12    1    3    3    0    0 -0.99480804448E+01  0.74179600158E+01 -0.20344106665E+02  0.23830088362E+02  0.00000000000E+00 0. -1.
</event>
<event>
 7    1  0.6073302E-013  0.5052887E+02  0.7816164E-02  0.1300439E+00
        -11   -1    0    0    0    0  0.00000000000E+00  0.00000000000E+00  0.45593999997E+02  0.45594000000E+02  0.51100000000E-03 0. -1.
         11   -1    0    0    0    0 -0.00000000000E+00 -0.00000000000E+00 -0.45593999997E+02  0.45594000000E+02  0.51100000000E-03 0.  1.
    9900012    2    1    2    0    0 -0.20025876935E+02 -0.26142116008E+02 -0.23847832991E+02  0.50528866773E+02  0.30000021044E+02 0.  0.
         12    1    1    2    0    0  0.20025876935E+02  0.26142116008E+02  0.23847832991E+02  0.40659133227E+02  0.00000000000E+00 0. -1.
         11    1    3    3    0    0 -0.35958537619E+01 -0.24574210999E+01  0.38450479303E+01  0.58097742286E+01  0.51100000000E-03 0. -1.
        -11    1    3    3    0    0 -0.19832874103E+02 -0.13822702136E+02 -0.22666555824E+02  0.33138840395E+02  0.51100000000E-03 0.  1.
         12    1    3    3    0    0  0.34028509291E+01 -0.98619927712E+01 -0.50263250972E+01  0.11580252150E+02  0.00000000000E+00 0. -1.
</event>
<event>
 7    1  0.6626349E-013  0.5052884E+02  0.7816164E-02  0.1300439E+00
        -11   -1    0    0    0    0  0.00000000000E+00  0.00000000000E+00  0.45593999997E+02  0.45594000000E+02  0.51100000000E-03 0. -1.
         11   -1    0    0    0    0 -0.00000000000E+00 -0.00000000000E+00 -0.45593999997E+02  0.45594000000E+02  0.51100000000E-03 0.  1.
    9900012    2    1    2    0    0 -0.12412997204E+01  0.28240832593E+02 -0.29224684508E+02  0.50528835779E+02  0.29999926833E+02 0.  0.
         12    1    1    2    0    0  0.12412997204E+01 -0.28240832593E+02  0.29224684508E+02  0.40659164221E+02  0.00000000000E+00 0. -1.
         11    1    3    3    0    0  0.96858482597E+01  0.69108877190E+01 -0.33009706200E+01  0.12347972824E+02  0.51100000000E-03 0. -1.
        -11    1    3    3    0    0 -0.37459100144E+01  0.11680109992E+02 -0.22579206570E+02  0.25695863107E+02  0.51100000000E-03 0.  1.
         12    1    3    3    0    0 -0.71812379657E+01  0.96498348827E+01 -0.33445073186E+01  0.12484999847E+02  0.00000000000E+00 0. -1.
</event>
<event>
 7    1  0.6073302E-013  0.5052882E+02  0.7816164E-02  0.1300439E+00
        -11   -1    0    0    0    0  0.00000000000E+00  0.00000000000E+00  0.45593999997E+02  0.45594000000E+02  0.51100000000E-03 0.  1.
         11   -1    0    0    0    0 -0.00000000000E+00 -0.00000000000E+00 -0.45593999997E+02  0.45594000000E+02  0.51100000000E-03 0. -1.
    9900012    2    1    2    0    0  0.39501776490E+02  0.25686568673E+01  0.92833650870E+01  0.50528816396E+02  0.29999867918E+02 0.  0.
         12    1    1    2    0    0 -0.39501776490E+02 -0.25686568673E+01 -0.92833650870E+01  0.40659183604E+02  0.00000000000E+00 0. -1.
         11    1    3    3    0    0  0.23744253439E+02 -0.28915576181E+01 -0.56682188862E+01  0.24582094753E+02  0.51100000000E-03 0. -1.
        -11    1    3    3    0    0  0.74898828891E+01  0.81351142536E+01  0.12951417558E+02  0.17029904481E+02  0.51100000000E-03 0.  1.
        -12    1    3    3    0    0  0.82676401619E+01 -0.26748997682E+01  0.20001664153E+01  0.89168171623E+01  0.00000000000E+00 0.  1.
</event>
<event>
 7    1  0.6073302E-013  0.5052886E+02  0.7816164E-02  0.1300439E+00
        -11   -1    0    0    0    0  0.00000000000E+00  0.00000000000E+00  0.45593999997E+02  0.45594000000E+02  0.51100000000E-03 0.  1.
         11   -1    0    0    0    0 -0.00000000000E+00 -0.00000000000E+00 -0.45593999997E+02  0.45594000000E+02  0.51100000000E-03 0. -1.
    9900012    2    1    2    0    0  0.18663452528E+02 -0.31032081249E+02  0.18489209824E+02  0.50528863182E+02  0.30000010127E+02 0.  0.
         12    1    1    2    0    0 -0.18663452528E+02  0.31032081249E+02 -0.18489209824E+02  0.40659136818E+02  0.00000000000E+00 0. -1.
         11    1    3    3    0    0 -0.57275220664E+01 -0.85239059201E+01  0.18989873791E+01  0.10443545111E+02  0.51100000000E-03 0. -1.
        -11    1    3    3    0    0  0.26023615421E+02 -0.22225253585E+02  0.13925414349E+02  0.36947362849E+02  0.51100000000E-03 0.  1.
        -12    1    3    3    0    0 -0.16326408266E+01 -0.28292174383E+00  0.26648080963E+01  0.31379552214E+01  0.00000000000E+00 0.  1.
</event>
<event>
 7    1  0.6073302E-013  0.5052887E+02  0.7816164E-02  0.1300439E+00
        -11   -1    0    0    0    0  0.00000000000E+00  0.00000000000E+00  0.45593999997E+02  0.45594000000E+02  0.51100000000E-03 0.  1.
         11   -1    0    0    0    0 -0.00000000000E+00 -0.00000000000E+00 -0.45593999997E+02  0.45594000000E+02  0.51100000000E-03 0. -1.
    9900012    2    1    2    0    0  0.38704919105E+02 -0.89296512157E+01  0.86807590864E+01  0.50528868036E+02  0.30000024883E+02 0.  0.
         12    1    1    2    0    0 -0.38704919105E+02  0.89296512157E+01 -0.86807590864E+01  0.40659131964E+02  0.00000000000E+00 0. -1.
         11    1    3    3    0    0  0.35207486666E+02 -0.86651209963E+01  0.74330878160E+01  0.37012190343E+02  0.51100000000E-03 0.  1.
        -11    1    3    3    0    0  0.18349124523E+01 -0.26908044925E+01 -0.53668146760E+01  0.62777410390E+01  0.51100000000E-03 0. -1.
         12    1    3    3    0    0  0.16625199862E+01  0.24262742731E+01  0.66144859465E+01  0.72389366546E+01  0.00000000000E+00 0. -1.
</event>
<event>
 7    1  0.6073302E-013  0.5052886E+02  0.7816164E-02  0.1300439E+00
        -11   -1    0    0    0    0  0.00000000000E+00  0.00000000000E+00  0.45593999997E+02  0.45594000000E+02  0.51100000000E-03 0. -1.
         11   -1    0    0    0    0 -0.00000000000E+00 -0.00000000000E+00 -0.45593999997E+02  0.45594000000E+02  0.51100000000E-03 0.  1.
    9900012    2    1    2    0    0  0.14802469721E+02  0.36542892330E+02  0.99332598939E+01  0.50528859062E+02  0.29999997606E+02 0.  0.
         12    1    1    2    0    0 -0.14802469721E+02 -0.36542892330E+02 -0.99332598939E+01  0.40659140938E+02  0.00000000000E+00 0. -1.
         11    1    3    3    0    0 -0.85283636372E+01  0.55788028330E+01  0.30775130639E+01  0.10645520856E+02  0.51100000000E-03 0. -1.
        -11    1    3    3    0    0  0.23026004209E+02  0.31172876931E+02  0.71525143971E+01  0.39409435271E+02  0.51100000000E-03 0.  1.
        -12    1    3    3    0    0  0.30482914920E+00 -0.20878743360E+00 -0.29676756714E+00  0.47390293472E+00  0.00000000000E+00 0.  1.
</event>
<event>
 7    1  0.6073302E-013  0.5052885E+02  0.7816164E-02  0.1300439E+00
        -11   -1    0    0    0    0  0.00000000000E+00  0.00000000000E+00  0.45593999997E+02  0.45594000000E+02  0.51100000000E-03 0.  1.
         11   -1    0    0    0    0 -0.00000000000E+00 -0.00000000000E+00 -0.45593999997E+02  0.45594000000E+02  0.51100000000E-03 0. -1.
    9900012    2    1    2    0    0  0.35307370009E+02  0.18471963108E+02 -0.80834609271E+01  0.50528854183E+02  0.29999982776E+02 0.  0.
         12    1    1    2    0    0 -0.35307370009E+02 -0.18471963108E+02  0.80834609271E+01  0.40659145817E+02  0.00000000000E+00 0. -1.
         11    1    3    3    0    0  0.28713418634E+01  0.76951168811E+01 -0.11750076292E+02  0.14336098530E+02  0.51100000000E-03 0. -1.
        -11    1    3    3    0    0  0.28755981805E+02  0.11026238406E+02 -0.26929878488E+00  0.30798651676E+02  0.51100000000E-03 0.  1.
         12    1    3    3    0    0  0.36800463398E+01 -0.24939217926E+00  0.39359141503E+01  0.53941039775E+01  0.00000000000E+00 0. -1.
</event>
<event>
 7    1  0.6073302E-013  0.5052887E+02  0.7816164E-02  0.1300439E+00
        -11   -1    0    0    0    0  0.00000000000E+00  0.00000000000E+00  0.45593999997E+02  0.45594000000E+02  0.51100000000E-03 0.  1.
         11   -1    0    0    0    0 -0.00000000000E+00 -0.00000000000E+00 -0.45593999997E+02  0.45594000000E+02  0.51100000000E-03 0. -1.
    9900012    2    1    2    0    0  0.24812102451E+02  0.31958046910E+02  0.40258370455E+01  0.50528873666E+02  0.30000041995E+02 0.  0.
         12    1    1    2    0    0 -0.24812102451E+02 -0.31958046910E+02 -0.40258370455E+01  0.40659126334E+02  0.00000000000E+00 0. -1.
         11    1    3    3    0    0  0.47310442079E+01  0.92409335715E+00 -0.27920355202E+01  0.55706543994E+01  0.51100000000E-03 0. -1.
        -11    1    3    3    0    0  0.12392729700E+02  0.33058589240E+02  0.95114425706E+01  0.36563883984E+02  0.51100000000E-03 0.  1.
        -12    1    3    3    0    0  0.76883285439E+01 -0.20246356878E+01 -0.26935700048E+01  0.83943352826E+01  0.00000000000E+00 0.  1.
</event>
<event>
 7    1  0.6073302E-013  0.5052886E+02  0.7816164E-02  0.1300439E+00
        -11   -1    0    0    0    0  0.00000000000E+00  0.00000000000E+00  0.45593999997E+02  0.45594000000E+02  0.51100000000E-03 0.  1.
         11   -1    0    0    0    0 -0.00000000000E+00 -0.00000000000E+00 -0.45593999997E+02  0.45594000000E+02  0.51100000000E-03 0. -1.
    9900012    2    1    2    0    0  0.24592611575E+02 -0.32038040956E+02  0.46832311020E+01  0.50528864914E+02  0.30000015392E+02 0.  0.
         12    1    1    2    0    0 -0.24592611575E+02  0.32038040956E+02 -0.46832311020E+01  0.40659135086E+02  0.00000000000E+00 0. -1.
         11    1    3    3    0    0  0.26310741854E+02 -0.28224063092E+02  0.89444239695E+01  0.39608781789E+02  0.51100000000E-03 0. -1.
        -11    1    3    3    0    0 -0.50424883864E+01 -0.26572425976E+01 -0.46805824523E+01  0.73753291250E+01  0.51100000000E-03 0.  1.
        -12    1    3    3    0    0  0.33243581068E+01 -0.11567352665E+01  0.41938958478E+00  0.35447540003E+01  0.00000000000E+00 0.  1.
</event>
<event>
 7    1  0.6073302E-013  0.5052886E+02  0.7816164E-02  0.1300439E+00
        -11   -1    0    0    0    0  0.00000000000E+00  0.00000000000E+00  0.45593999997E+02  0.45594000000E+02  0.51100000000E-03 0. -1.
         11   -1    0    0    0    0 -0.00000000000E+00 -0.00000000000E+00 -0.45593999997E+02  0.45594000000E+02  0.51100000000E-03 0.  1.
    9900012    2    1    2    0    0 -0.33353823012E+02  0.23066570720E+02 -0.29362233463E+01  0.50528860783E+02  0.30000002837E+02 0.  0.
         12    1    1    2    0    0  0.33353823012E+02 -0.23066570720E+02  0.29362233463E+01  0.40659139217E+02  0.00000000000E+00 0. -1.
         11    1    3    3    0    0 -0.13869967043E+02 -0.22961705419E+00  0.93543428656E+01  0.16731181682E+02  0.51100000000E-03 0. -1.
        -11    1    3    3    0    0 -0.63629522676E+01  0.27592230782E+01 -0.42542303804E+01  0.81362737138E+01  0.51100000000E-03 0.  1.
         12    1    3    3    0    0 -0.13120903701E+02  0.20536964696E+02 -0.80363358316E+01  0.25661405387E+02  0.00000000000E+00 0. -1.
</event>
<event>
 7    1  0.6073302E-013  0.5052885E+02  0.7816164E-02  0.1300439E+00
        -11   -1    0    0    0    0  0.00000000000E+00  0.00000000000E+00  0.45593999997E+02  0.45594000000E+02  0.51100000000E-03 0.  1.
         11   -1    0    0    0    0 -0.00000000000E+00 -0.00000000000E+00 -0.45593999997E+02  0.45594000000E+02  0.51100000000E-03 0. -1.
    9900012    2    1    2    0    0  0.12950884139E+02 -0.13873588818E+02  0.35957815077E+02  0.50528851807E+02  0.29999975551E+02 0.  0.
         12    1    1    2    0    0 -0.12950884139E+02  0.13873588818E+02 -0.35957815077E+02  0.40659148193E+02  0.00000000000E+00 0. -1.
         11    1    3    3    0    0  0.33093506301E+01  0.37073616546E+01  0.11385296832E+02  0.12422613100E+02  0.51100000000E-03 0. -1.
        -11    1    3    3    0    0  0.15329741487E+02 -0.14008129285E+02  0.12353872464E+02  0.24162922531E+02  0.51100000000E-03 0.  1.
        -12    1    3    3    0    0 -0.56882079775E+01 -0.35728211872E+01  0.12218645781E+02  0.13943316175E+02  0.00000000000E+00 0.  1.
</event>
<event>
 7    1  0.6073302E-013  0.5052885E+02  0.7816164E-02  0.1300439E+00
        -11   -1    0    0    0    0  0.00000000000E+00  0.00000000000E+00  0.45593999997E+02  0.45594000000E+02  0.51100000000E-03 0.  1.
         11   -1    0    0    0    0 -0.00000000000E+00 -0.00000000000E+00 -0.45593999997E+02  0.45594000000E+02  0.51100000000E-03 0. -1.
    9900012    2    1    2    0    0  0.26115615936E+01 -0.38895784506E+02  0.11552663889E+02  0.50528851592E+02  0.29999974900E+02 0.  0.
         12    1    1    2    0    0 -0.26115615936E+01  0.38895784506E+02 -0.11552663889E+02  0.40659148408E+02  0.00000000000E+00 0. -1.
         11    1    3    3    0    0 -0.66518720490E+00  0.47226576456E+01 -0.60440636298E+00  0.48074189091E+01  0.51100000000E-03 0. -1.
        -11    1    3    3    0    0  0.86332884920E+00 -0.34134106030E+02  0.10965469213E+02  0.35862571666E+02  0.51100000000E-03 0.  1.
         12    1    3    3    0    0  0.24134199493E+01 -0.94843361218E+01  0.11916010391E+01  0.98588610174E+01  0.00000000000E+00 0. -1.
</event>
<event>
 7    1  0.6073302E-013  0.5052887E+02  0.7816164E-02  0.1300439E+00
        -11   -1    0    0    0    0  0.00000000000E+00  0.00000000000E+00  0.45593999997E+02  0.45594000000E+02  0.51100000000E-03 0. -1.
         11   -1    0    0    0    0 -0.00000000000E+00 -0.00000000000E+00 -0.45593999997E+02  0.45594000000E+02  0.51100000000E-03 0.  1.
    9900012    2    1    2    0    0  0.33156680811E+02 -0.22688003132E+02 -0.62493354624E+01  0.50528866189E+02  0.30000019268E+02 0.  0.
         12    1    1    2    0    0 -0.33156680811E+02  0.22688003132E+02  0.62493354624E+01  0.40659133811E+02  0.00000000000E+00 0. -1.
         11    1    3    3    0    0  0.14838390282E+02  0.27827834766E+01 -0.17905086043E+00  0.15098137949E+02  0.51100000000E-03 0. -1.
        -11    1    3    3    0    0  0.72853748255E+01 -0.99888075356E+01 -0.10139133731E+02  0.15989214972E+02  0.51100000000E-03 0.  1.
         12    1    3    3    0    0  0.11032915704E+02 -0.15481979073E+02  0.40688491293E+01  0.19441513269E+02  0.00000000000E+00 0. -1.
</event>
<event>
 7    1  0.6073302E-013  0.5052886E+02  0.7816164E-02  0.1300439E+00
        -11   -1    0    0    0    0  0.00000000000E+00  0.00000000000E+00  0.45593999997E+02  0.45594000000E+02  0.51100000000E-03 0. -1.
         11   -1    0    0    0    0 -0.00000000000E+00 -0.00000000000E+00 -0.45593999997E+02  0.45594000000E+02  0.51100000000E-03 0.  1.
    9900012    2    1    2    0    0 -0.24908668159E+02  0.19303663562E+02 -0.25692270182E+02  0.50528856828E+02  0.29999990814E+02 0.  0.
         12    1    1    2    0    0  0.24908668159E+02 -0.19303663562E+02  0.25692270182E+02  0.40659143172E+02  0.00000000000E+00 0. -1.
         11    1    3    3    0    0  0.51193862406E+01  0.12745288651E+01 -0.67291286762E+01  0.85506556655E+01  0.51100000000E-03 0. -1.
        -11    1    3    3    0    0 -0.20142646288E+02  0.17931575161E+02 -0.17059426739E+02  0.31910682039E+02  0.51100000000E-03 0.  1.
         12    1    3    3    0    0 -0.98854081115E+01  0.97559535823E-01 -0.19037147669E+01  0.10067519124E+02  0.00000000000E+00 0. -1.
</event>
<event>
 7    1  0.6073302E-013  0.5052895E+02  0.7816164E-02  0.1300438E+00
        -11   -1    0    0    0    0  0.00000000000E+00  0.00000000000E+00  0.45593999997E+02  0.45594000000E+02  0.51100000000E-03 0. -1.
         11   -1    0    0    0    0 -0.00000000000E+00 -0.00000000000E+00 -0.45593999997E+02  0.45594000000E+02  0.51100000000E-03 0.  1.
    9900012    2    1    2    0    0  0.10656975714E+02 -0.12693833690E+02 -0.37127532030E+02  0.50528952055E+02  0.30000280266E+02 0.  0.
         12    1    1    2    0    0 -0.10656975714E+02  0.12693833690E+02  0.37127532030E+02  0.40659047945E+02  0.00000000000E+00 0. -1.
         11    1    3    3    0    0  0.99873760237E+00 -0.19063025503E+01 -0.31138364268E+02  0.31212644805E+02  0.51100000000E-03 0. -1.
        -11    1    3    3    0    0  0.10000849010E+02 -0.96874277735E+01 -0.86673406445E+01  0.16400793636E+02  0.51100000000E-03 0.  1.
         12    1    3    3    0    0 -0.34261089816E+00 -0.11001033666E+01  0.26781728823E+01  0.29155136138E+01  0.00000000000E+00 0. -1.
</event>
<event>
 7    1  0.6073302E-013  0.5052888E+02  0.7816164E-02  0.1300439E+00
        -11   -1    0    0    0    0  0.00000000000E+00  0.00000000000E+00  0.45593999997E+02  0.45594000000E+02  0.51100000000E-03 0.  1.
         11   -1    0    0    0    0 -0.00000000000E+00 -0.00000000000E+00 -0.45593999997E+02  0.45594000000E+02  0.51100000000E-03 0. -1.
    9900012    2    1    2    0    0  0.35003715018E+01 -0.62630176326E+00  0.40503324634E+02  0.50528878502E+02  0.30000056696E+02 0.  0.
         12    1    1    2    0    0 -0.35003715018E+01  0.62630176326E+00 -0.40503324634E+02  0.40659121498E+02  0.00000000000E+00 0. -1.
         11    1    3    3    0    0  0.49967928497E+01 -0.12083767255E+02  0.11594819334E+02  0.17476418555E+02  0.51100000000E-03 0. -1.
        -11    1    3    3    0    0  0.92850220525E+00  0.12506093651E+02  0.27070215658E+02  0.29833891311E+02  0.51100000000E-03 0.  1.
        -12    1    3    3    0    0 -0.24249235532E+01 -0.10486281598E+01  0.18382896421E+01  0.32185686360E+01  0.00000000000E+00 0.  1.
</event>
<event>
 7    1  0.6073302E-013  0.5052886E+02  0.7816164E-02  0.1300439E+00
        -11   -1    0    0    0    0  0.00000000000E+00  0.00000000000E+00  0.45593999997E+02  0.45594000000E+02  0.51100000000E-03 0. -1.
         11   -1    0    0    0    0 -0.00000000000E+00 -0.00000000000E+00 -0.45593999997E+02  0.45594000000E+02  0.51100000000E-03 0.  1.
    9900012    2    1    2    0    0  0.33786897933E+02 -0.51352580529E+01 -0.22028178901E+02  0.50528855729E+02  0.29999987472E+02 0.  0.
         12    1    1    2    0    0 -0.33786897933E+02  0.51352580529E+01  0.22028178901E+02  0.40659144271E+02  0.00000000000E+00 0. -1.
         11    1    3    3    0    0  0.15139918301E+02  0.63358203868E+01 -0.17400230879E+01  0.16504163921E+02  0.51100000000E-03 0. -1.
        -11    1    3    3    0    0  0.81642104839E+01 -0.14242291205E+02 -0.13266537331E+02  0.21106828389E+02  0.51100000000E-03 0.  1.
        -12    1    3    3    0    0  0.10482769148E+02  0.27712127654E+01 -0.70216184816E+01  0.12917863419E+02  0.00000000000E+00 0.  1.
</event>
<event>
 7    1  0.6073302E-013  0.5052885E+02  0.7816164E-02  0.1300439E+00
        -11   -1    0    0    0    0  0.00000000000E+00  0.00000000000E+00  0.45593999997E+02  0.45594000000E+02  0.51100000000E-03 0.  1.
         11   -1    0    0    0    0 -0.00000000000E+00 -0.00000000000E+00 -0.45593999997E+02  0.45594000000E+02  0.51100000000E-03 0. -1.
    9900012    2    1    2    0    0  0.11251651457E+02  0.23525741019E+02  0.31194649980E+02  0.50528851726E+02  0.29999975306E+02 0.  0.
         12    1    1    2    0    0 -0.11251651457E+02 -0.23525741019E+02 -0.31194649980E+02  0.40659148274E+02  0.00000000000E+00 0. -1.
         11    1    3    3    0    0  0.12196671279E+01 -0.17945666266E+01 -0.86168557321E+00  0.23346433493E+01  0.51100000000E-03 0. -1.
        -11    1    3    3    0    0  0.17623333256E+02  0.19917022840E+02  0.22346232257E+02  0.34736490471E+02  0.51100000000E-03 0.  1.
        -12    1    3    3    0    0 -0.75913489269E+01  0.54032848059E+01  0.97101032957E+01  0.13457717906E+02  0.00000000000E+00 0.  1.
</event>
<event>
 7    1  0.6073302E-013  0.5052885E+02  0.7816164E-02  0.1300439E+00
        -11   -1    0    0    0    0  0.00000000000E+00  0.00000000000E+00  0.45593999997E+02  0.45594000000E+02  0.51100000000E-03 0.  1.
         11   -1    0    0    0    0 -0.00000000000E+00 -0.00000000000E+00 -0.45593999997E+02  0.45594000000E+02  0.51100000000E-03 0. -1.
    9900012    2    1    2    0    0  0.12841469011E+02  0.37032685485E+02  0.10809403099E+02  0.50528852002E+02  0.29999976145E+02 0.  0.
         12    1    1    2    0    0 -0.12841469011E+02 -0.37032685485E+02 -0.10809403099E+02  0.40659147998E+02  0.00000000000E+00 0. -1.
         11    1    3    3    0    0  0.10552525224E+02  0.20773016194E+01  0.38264205344E+01  0.11415448523E+02  0.51100000000E-03 0. -1.
        -11    1    3    3    0    0 -0.48243633356E+01  0.27425528300E+02  0.29691767415E+01  0.28004465624E+02  0.51100000000E-03 0.  1.
        -12    1    3    3    0    0  0.71133071226E+01  0.75298555659E+01  0.40138058232E+01  0.11108937854E+02  0.00000000000E+00 0.  1.
</event>
<event>
 7    1  0.6073302E-013  0.5052885E+02  0.7816164E-02  0.1300439E+00
        -11   -1    0    0    0    0  0.00000000000E+00  0.00000000000E+00  0.45593999997E+02  0.45594000000E+02  0.51100000000E-03 0. -1.
         11   -1    0    0    0    0 -0.00000000000E+00 -0.00000000000E+00 -0.45593999997E+02  0.45594000000E+02  0.51100000000E-03 0.  1.
    9900012    2    1    2    0    0 -0.24062071119E+02 -0.30629173955E+02  0.11663484760E+02  0.50528850471E+02  0.29999971491E+02 0.  0.
         12    1    1    2    0    0  0.24062071119E+02  0.30629173955E+02 -0.11663484760E+02  0.40659149529E+02  0.00000000000E+00 0. -1.
         11    1    3    3    0    0 -0.19776006084E+02 -0.69440348699E+01  0.12962749569E+02  0.24644328223E+02  0.51100000000E-03 0. -1.
        -11    1    3    3    0    0 -0.66255579761E+01 -0.19868429596E+02 -0.28711441822E+01  0.21139914434E+02  0.51100000000E-03 0.  1.
        -12    1    3    3    0    0  0.23394929408E+01 -0.38167094894E+01  0.15718793723E+01  0.47446078139E+01  0.00000000000E+00 0.  1.
</event>
<event>
 7    1  0.6073302E-013  0.5052886E+02  0.7816164E-02  0.1300439E+00
        -11   -1    0    0    0    0  0.00000000000E+00  0.00000000000E+00  0.45593999997E+02  0.45594000000E+02  0.51100000000E-03 0.  1.
         11   -1    0    0    0    0 -0.00000000000E+00 -0.00000000000E+00 -0.45593999997E+02  0.45594000000E+02  0.51100000000E-03 0. -1.
    9900012    2    1    2    0    0  0.35121345117E+02  0.15706816969E+01  0.20425224018E+02  0.50528859576E+02  0.29999999166E+02 0.  0.
         12    1    1    2    0    0 -0.35121345117E+02 -0.15706816969E+01 -0.20425224018E+02  0.40659140424E+02  0.00000000000E+00 0. -1.
         11    1    3    3    0    0  0.17800845232E+02 -0.46399262600E+01  0.49390256753E+01  0.19047125283E+02  0.51100000000E-03 0. -1.
        -11    1    3    3    0    0  0.54085520683E+01  0.22795205340E+00  0.17209557067E+02  0.18040877261E+02  0.51100000000E-03 0.  1.
        -12    1    3    3    0    0  0.11911947817E+02  0.59826559035E+01 -0.17233587243E+01  0.13440857032E+02  0.00000000000E+00 0.  1.
</event>
<event>
 7    1  0.6073302E-013  0.5052877E+02  0.7816164E-02  0.1300439E+00
        -11   -1    0    0    0    0  0.00000000000E+00  0.00000000000E+00  0.45593999997E+02  0.45594000000E+02  0.51100000000E-03 0. -1.
         11   -1    0    0    0    0 -0.00000000000E+00 -0.00000000000E+00 -0.45593999997E+02  0.45594000000E+02  0.51100000000E-03 0.  1.
    9900012    2    1    2    0    0  0.35773032349E+01 -0.13565258288E+02 -0.38162281731E+02  0.50528768849E+02  0.29999723393E+02 0.  0.
         12    1    1    2    0    0 -0.35773032349E+01  0.13565258288E+02  0.38162281731E+02  0.40659231151E+02  0.00000000000E+00 0. -1.
         11    1    3    3    0    0  0.23988945840E+01  0.67472165147E+01 -0.63165847317E+01  0.95487626871E+01  0.51100000000E-03 0. -1.
        -11    1    3    3    0    0  0.68864696150E+01 -0.18593405089E+02 -0.24232767015E+02  0.31310783670E+02  0.51100000000E-03 0.  1.
         12    1    3    3    0    0 -0.57080609641E+01 -0.17190697136E+01 -0.76129299842E+01  0.96692224917E+01  0.00000000000E+00 0. -1.
</event>
<event>
 7    1  0.6073302E-013  0.5052886E+02  0.7816164E-02  0.1300439E+00
        -11   -1    0    0    0    0  0.00000000000E+00  0.00000000000E+00  0.45593999997E+02  0.45594000000E+02  0.51100000000E-03 0. -1.
         11   -1    0    0    0    0 -0.00000000000E+00 -0.00000000000E+00 -0.45593999997E+02  0.45594000000E+02  0.51100000000E-03 0.  1.
    9900012    2    1    2    0    0 -0.27826899163E+02  0.48417571585E+01 -0.29246996653E+02  0.50528859052E+02  0.29999997574E+02 0.  0.
         12    1    1    2    0    0  0.27826899163E+02 -0.48417571585E+01  0.29246996653E+02  0.40659140948E+02  0.00000000000E+00 0. -1.
         11    1    3    3    0    0  0.51184491293E+01 -0.17886897753E+01 -0.40850541274E+01  0.67886375722E+01  0.51100000000E-03 0.  1.
        -11    1    3    3    0    0 -0.29003460888E+02  0.34451598660E+01 -0.25342136499E+02  0.38669028337E+02  0.51100000000E-03 0. -1.
        -12    1    3    3    0    0 -0.39418874047E+01  0.31852870679E+01  0.18019397315E+00  0.50711931421E+01  0.00000000000E+00 0.  1.
</event>
<event>
 7    1  0.6073302E-013  0.5052885E+02  0.7816164E-02  0.1300439E+00
        -11   -1    0    0    0    0  0.00000000000E+00  0.00000000000E+00  0.45593999997E+02  0.45594000000E+02  0.51100000000E-03 0.  1.
         11   -1    0    0    0    0 -0.00000000000E+00 -0.00000000000E+00 -0.45593999997E+02  0.45594000000E+02  0.51100000000E-03 0. -1.
    9900012    2    1    2    0    0  0.14483084743E+01  0.22265135638E+02  0.33990190021E+02  0.50528845064E+02  0.29999955057E+02 0.  0.
         12    1    1    2    0    0 -0.14483084743E+01 -0.22265135638E+02 -0.33990190021E+02  0.40659154936E+02  0.00000000000E+00 0. -1.
         11    1    3    3    0    0 -0.66402307042E+01  0.68632430657E+01  0.24309300314E+02  0.26117788022E+02  0.51100000000E-03 0. -1.
        -11    1    3    3    0    0  0.97103445325E+00  0.13664024407E+02  0.10180788891E+02  0.17067423168E+02  0.51100000000E-03 0.  1.
         12    1    3    3    0    0  0.71175047252E+01  0.17378681660E+01 -0.49989918393E+00  0.73436338737E+01  0.00000000000E+00 0. -1.
</event>
<event>
 7    1  0.6073302E-013  0.5052886E+02  0.7816164E-02  0.1300439E+00
        -11   -1    0    0    0    0  0.00000000000E+00  0.00000000000E+00  0.45593999997E+02  0.45594000000E+02  0.51100000000E-03 0.  1.
         11   -1    0    0    0    0 -0.00000000000E+00 -0.00000000000E+00 -0.45593999997E+02  0.45594000000E+02  0.51100000000E-03 0. -1.
    9900012    2    1    2    0    0  0.31094194736E+02 -0.24623302439E+02  0.89448033359E+01  0.50528862331E+02  0.30000007541E+02 0.  0.
         12    1    1    2    0    0 -0.31094194736E+02  0.24623302439E+02 -0.89448033359E+01  0.40659137669E+02  0.00000000000E+00 0. -1.
         11    1    3    3    0    0  0.24724183094E+02 -0.13567187390E+02  0.14444835756E+02  0.31686070814E+02  0.51100000000E-03 0.  1.
        -11    1    3    3    0    0  0.73393235052E+01 -0.13457295629E+02 -0.53983179249E+01  0.16251348001E+02  0.51100000000E-03 0. -1.
        -12    1    3    3    0    0 -0.96931186344E+00  0.24011805790E+01 -0.10171449507E+00  0.25914435166E+01  0.00000000000E+00 0.  1.
</event>
<event>
 7    1  0.6073302E-013  0.5052887E+02  0.7816164E-02  0.1300439E+00
        -11   -1    0    0    0    0  0.00000000000E+00  0.00000000000E+00  0.45593999997E+02  0.45594000000E+02  0.51100000000E-03 0.  1.
         11   -1    0    0    0    0 -0.00000000000E+00 -0.00000000000E+00 -0.45593999997E+02  0.45594000000E+02  0.51100000000E-03 0. -1.
    9900012    2    1    2    0    0  0.25491881018E+02  0.15743007737E+01  0.31636218134E+02  0.50528871645E+02  0.30000035852E+02 0.  0.
         12    1    1    2    0    0 -0.25491881018E+02 -0.15743007737E+01 -0.31636218134E+02  0.40659128355E+02  0.00000000000E+00 0. -1.
         11    1    3    3    0    0  0.21956710951E+02 -0.61842041791E+01  0.66291087114E+01  0.23754717841E+02  0.51100000000E-03 0. -1.
        -11    1    3    3    0    0  0.44907229782E+01  0.55696588908E+01  0.17920433174E+02  0.19295844590E+02  0.51100000000E-03 0.  1.
         12    1    3    3    0    0 -0.95555291180E+00  0.21888460620E+01  0.70866762490E+01  0.74783092146E+01  0.00000000000E+00 0. -1.
</event>
<event>
 7    1  0.6073302E-013  0.5052886E+02  0.7816164E-02  0.1300439E+00
        -11   -1    0    0    0    0  0.00000000000E+00  0.00000000000E+00  0.45593999997E+02  0.45594000000E+02  0.51100000000E-03 0.  1.
         11   -1    0    0    0    0 -0.00000000000E+00 -0.00000000000E+00 -0.45593999997E+02  0.45594000000E+02  0.51100000000E-03 0. -1.
    9900012    2    1    2    0    0  0.15151592887E+02  0.22195176078E+02  0.30511785917E+02  0.50528859724E+02  0.29999999616E+02 0.  0.
         12    1    1    2    0    0 -0.15151592887E+02 -0.22195176078E+02 -0.30511785917E+02  0.40659140276E+02  0.00000000000E+00 0. -1.
         11    1    3    3    0    0  0.16007266587E+02 -0.74138899092E+00  0.18584684384E+02  0.24539208120E+02  0.51100000000E-03 0.  1.
        -11    1    3    3    0    0 -0.13377965370E+01  0.90565279812E+01  0.55636726444E+01  0.10712835862E+02  0.51100000000E-03 0. -1.
        -12    1    3    3    0    0  0.48212283695E+00  0.13880037088E+02  0.63634288880E+01  0.15276815742E+02  0.00000000000E+00 0.  1.
</event>
<event>
 7    1  0.6073302E-013  0.5052887E+02  0.7816164E-02  0.1300439E+00
        -11   -1    0    0    0    0  0.00000000000E+00  0.00000000000E+00  0.45593999997E+02  0.45594000000E+02  0.51100000000E-03 0.  1.
         11   -1    0    0    0    0 -0.00000000000E+00 -0.00000000000E+00 -0.45593999997E+02  0.45594000000E+02  0.51100000000E-03 0. -1.
    9900012    2    1    2    0    0 -0.84076628296E+01  0.16621937489E+02  0.36141211808E+02  0.50528870753E+02  0.30000033141E+02 0.  0.
         12    1    1    2    0    0  0.84076628296E+01 -0.16621937489E+02 -0.36141211808E+02  0.40659129247E+02  0.00000000000E+00 0. -1.
         11    1    3    3    0    0  0.82457631021E+00  0.41446532318E+00  0.34907633877E+00  0.98669252906E+00  0.51100000000E-03 0. -1.
        -11    1    3    3    0    0  0.43683914203E+01  0.10356267347E+02  0.32480726738E+02  0.34370521187E+02  0.51100000000E-03 0.  1.
        -12    1    3    3    0    0 -0.13600630560E+02  0.58512048186E+01  0.33114087311E+01  0.15171657037E+02  0.00000000000E+00 0.  1.
</event>
<event>
 7    1  0.6073302E-013  0.5052885E+02  0.7816164E-02  0.1300439E+00
        -11   -1    0    0    0    0  0.00000000000E+00  0.00000000000E+00  0.45593999997E+02  0.45594000000E+02  0.51100000000E-03 0.  1.
         11   -1    0    0    0    0 -0.00000000000E+00 -0.00000000000E+00 -0.45593999997E+02  0.45594000000E+02  0.51100000000E-03 0. -1.
    9900012    2    1    2    0    0  0.17426882479E+02  0.34779977580E+02  0.11824681939E+02  0.50528853718E+02  0.29999981362E+02 0.  0.
         12    1    1    2    0    0 -0.17426882479E+02 -0.34779977580E+02 -0.11824681939E+02  0.40659146282E+02  0.00000000000E+00 0. -1.
         11    1    3    3    0    0  0.58738986520E+00  0.99726127524E+01 -0.24929940853E+01  0.10296263970E+02  0.51100000000E-03 0. -1.
        -11    1    3    3    0    0  0.11617437058E+02  0.21522962894E+02  0.20190381451E+02  0.31715205800E+02  0.51100000000E-03 0.  1.
        -12    1    3    3    0    0  0.52220555555E+01  0.32844019336E+01 -0.58727054271E+01  0.85173839481E+01  0.00000000000E+00 0.  1.
</event>
<event>
 7    1  0.6073302E-013  0.5052884E+02  0.7816164E-02  0.1300439E+00
        -11   -1    0    0    0    0  0.00000000000E+00  0.00000000000E+00  0.45593999997E+02  0.45594000000E+02  0.51100000000E-03 0.  1.
         11   -1    0    0    0    0 -0.00000000000E+00 -0.00000000000E+00 -0.45593999997E+02  0.45594000000E+02  0.51100000000E-03 0. -1.
    9900012    2    1    2    0    0  0.56007885215E+01 -0.16215752189E+02  0.36862552167E+02  0.50528841089E+02  0.29999942973E+02 0.  0.
         12    1    1    2    0    0 -0.56007885215E+01  0.16215752189E+02 -0.36862552167E+02  0.40659158911E+02  0.00000000000E+00 0. -1.
         11    1    3    3    0    0 -0.12409990412E+01 -0.92841079341E+00 -0.35048304165E+01  0.38322136855E+01  0.51100000000E-03 0. -1.
        -11    1    3    3    0    0 -0.29864508225E+01 -0.13044906869E+02  0.22305980396E+02  0.26012405606E+02  0.51100000000E-03 0.  1.
        -12    1    3    3    0    0  0.98282383852E+01 -0.22424345268E+01  0.18061402188E+02  0.20684221797E+02  0.00000000000E+00 0.  1.
</event>
<event>
 7    1  0.6073302E-013  0.5052882E+02  0.7816164E-02  0.1300439E+00
        -11   -1    0    0    0    0  0.00000000000E+00  0.00000000000E+00  0.45593999997E+02  0.45594000000E+02  0.51100000000E-03 0. -1.
         11   -1    0    0    0    0 -0.00000000000E+00 -0.00000000000E+00 -0.45593999997E+02  0.45594000000E+02  0.51100000000E-03 0.  1.
    9900012    2    1    2    0    0  0.95535493112E+01 -0.27840062777E+02 -0.28050477447E+02  0.50528822870E+02  0.29999887594E+02 0.  0.
         12    1    1    2    0    0 -0.95535493112E+01  0.27840062777E+02  0.28050477447E+02  0.40659177130E+02  0.00000000000E+00 0. -1.
         11    1    3    3    0    0  0.36286925241E+01  0.45166084743E+01 -0.32063232035E+00  0.58025827776E+01  0.51100000000E-03 0. -1.
        -11    1    3    3    0    0  0.86806870887E+01 -0.21603801266E+02 -0.22777039685E+02  0.32571031524E+02  0.51100000000E-03 0.  1.
         12    1    3    3    0    0 -0.27558303016E+01 -0.10752869986E+02 -0.49528054421E+01  0.12155208568E+02  0.00000000000E+00 0. -1.
</event>
<event>
 7    1  0.6073302E-013  0.5052886E+02  0.7816164E-02  0.1300439E+00
        -11   -1    0    0    0    0  0.00000000000E+00  0.00000000000E+00  0.45593999997E+02  0.45594000000E+02  0.51100000000E-03 0.  1.
         11   -1    0    0    0    0 -0.00000000000E+00 -0.00000000000E+00 -0.45593999997E+02  0.45594000000E+02  0.51100000000E-03 0. -1.
    9900012    2    1    2    0    0 -0.33264575098E+02 -0.22056040947E+02  0.77565922897E+01  0.50528860528E+02  0.30000002060E+02 0.  0.
         12    1    1    2    0    0  0.33264575098E+02  0.22056040947E+02 -0.77565922897E+01  0.40659139472E+02  0.00000000000E+00 0. -1.
         11    1    3    3    0    0 -0.35336698220E+01 -0.36191573513E+01 -0.65524725141E+01  0.82776819614E+01  0.51100000000E-03 0. -1.
        -11    1    3    3    0    0 -0.31977879589E+02 -0.15566017971E+02  0.10745299914E+02  0.37153023686E+02  0.51100000000E-03 0.  1.
        -12    1    3    3    0    0  0.22469743133E+01 -0.28708656247E+01  0.35637648894E+01  0.50981548806E+01  0.00000000000E+00 0.  1.
</event>
<event>
 7    1  0.6073302E-013  0.5052884E+02  0.7816164E-02  0.1300439E+00
        -11   -1    0    0    0    0  0.00000000000E+00  0.00000000000E+00  0.45593999997E+02  0.45594000000E+02  0.51100000000E-03 0. -1.
         11   -1    0    0    0    0 -0.00000000000E+00 -0.00000000000E+00 -0.45593999997E+02  0.45594000000E+02  0.51100000000E-03 0.  1.
    9900012    2    1    2    0    0  0.39894565348E+02 -0.63070295871E+01  0.46703482003E+01  0.50528842128E+02  0.29999946132E+02 0.  0.
         12    1    1    2    0    0 -0.39894565348E+02  0.63070295871E+01 -0.46703482003E+01  0.40659157872E+02  0.00000000000E+00 0. -1.
         11    1    3    3    0    0  0.10699037565E+02  0.10955767851E+01 -0.47527184685E+01  0.11758317329E+02  0.51100000000E-03 0. -1.
        -11    1    3    3    0    0  0.78505749403E+01  0.14096016131E+01  0.13149362764E+02  0.15379344751E+02  0.51100000000E-03 0.  1.
        -12    1    3    3    0    0  0.21344952843E+02 -0.88122079852E+01 -0.37262960953E+01  0.23391180048E+02  0.00000000000E+00 0.  1.
</event>
<event>
 7    1  0.6073302E-013  0.5052886E+02  0.7816164E-02  0.1300439E+00
        -11   -1    0    0    0    0  0.00000000000E+00  0.00000000000E+00  0.45593999997E+02  0.45594000000E+02  0.51100000000E-03 0. -1.
         11   -1    0    0    0    0 -0.00000000000E+00 -0.00000000000E+00 -0.45593999997E+02  0.45594000000E+02  0.51100000000E-03 0.  1.
    9900012    2    1    2    0    0  0.30576000747E+02 -0.51812471938E+01 -0.26295022400E+02  0.50528863915E+02  0.30000012357E+02 0.  0.
         12    1    1    2    0    0 -0.30576000747E+02  0.51812471938E+01  0.26295022400E+02  0.40659136085E+02  0.00000000000E+00 0. -1.
         11    1    3    3    0    0  0.52308142028E+00 -0.22879219927E+01 -0.15150997882E+01  0.27935154996E+01  0.51100000000E-03 0. -1.
        -11    1    3    3    0    0  0.24251362024E+02 -0.90457251738E+01 -0.28497806952E+02  0.38497775329E+02  0.51100000000E-03 0.  1.
        -12    1    3    3    0    0  0.58015573025E+01  0.61523999727E+01  0.37178843407E+01  0.92375730865E+01  0.00000000000E+00 0.  1.
</event>
<event>
 7    1  0.6073302E-013  0.5052885E+02  0.7816164E-02  0.1300439E+00
        -11   -1    0    0    0    0  0.00000000000E+00  0.00000000000E+00  0.45593999997E+02  0.45594000000E+02  0.51100000000E-03 0.  1.
         11   -1    0    0    0    0 -0.00000000000E+00 -0.00000000000E+00 -0.45593999997E+02  0.45594000000E+02  0.51100000000E-03 0. -1.
    9900012    2    1    2    0    0  0.39520589541E+02 -0.76637956537E+01  0.57057388687E+01  0.50528853212E+02  0.29999979823E+02 0.  0.
         12    1    1    2    0    0 -0.39520589541E+02  0.76637956537E+01 -0.57057388687E+01  0.40659146788E+02  0.00000000000E+00 0. -1.
         11    1    3    3    0    0 -0.19145894720E+01  0.11069385897E+01 -0.22669964628E+01  0.31670552744E+01  0.51100000000E-03 0. -1.
        -11    1    3    3    0    0  0.28915310979E+02 -0.10378358187E+02  0.13531402784E+02  0.33569396618E+02  0.51100000000E-03 0.  1.
        -12    1    3    3    0    0  0.12519868034E+02  0.16076239435E+01 -0.55586674530E+01  0.13792401320E+02  0.00000000000E+00 0.  1.
</event>
<event>
 7    1  0.6073302E-013  0.5052886E+02  0.7816164E-02  0.1300439E+00
        -11   -1    0    0    0    0  0.00000000000E+00  0.00000000000E+00  0.45593999997E+02  0.45594000000E+02  0.51100000000E-03 0.  1.
         11   -1    0    0    0    0 -0.00000000000E+00 -0.00000000000E+00 -0.45593999997E+02  0.45594000000E+02  0.51100000000E-03 0. -1.
    9900012    2    1    2    0    0 -0.34741303547E+02  0.16935875389E+02  0.12624722140E+02  0.50528860111E+02  0.30000000795E+02 0.  0.
         12    1    1    2    0    0  0.34741303547E+02 -0.16935875389E+02 -0.12624722140E+02  0.40659139889E+02  0.00000000000E+00 0. -1.
         11    1    3    3    0    0 -0.46546968157E+00 -0.13894760917E+01  0.97141045664E+01  0.98240080223E+01  0.51100000000E-03 0. -1.
        -11    1    3    3    0    0 -0.26962496669E+02  0.88202715619E+01  0.20418673642E-01  0.28368535990E+02  0.51100000000E-03 0.  1.
         12    1    3    3    0    0 -0.73133371971E+01  0.95050799184E+01  0.28901989004E+01  0.12336316099E+02  0.00000000000E+00 0. -1.
</event>
<event>
 7    1  0.6073302E-013  0.5052885E+02  0.7816164E-02  0.1300439E+00
        -11   -1    0    0    0    0  0.00000000000E+00  0.00000000000E+00  0.45593999997E+02  0.45594000000E+02  0.51100000000E-03 0.  1.
         11   -1    0    0    0    0 -0.00000000000E+00 -0.00000000000E+00 -0.45593999997E+02  0.45594000000E+02  0.51100000000E-03 0. -1.
    9900012    2    1    2    0    0 -0.26518594506E+02 -0.12727598398E+02  0.28070251190E+02  0.50528848294E+02  0.29999964876E+02 0.  0.
         12    1    1    2    0    0  0.26518594506E+02  0.12727598398E+02 -0.28070251190E+02  0.40659151706E+02  0.00000000000E+00 0. -1.
         11    1    3    3    0    0 -0.10820964025E+02 -0.20400152716E+02  0.17003192497E+02  0.28676960240E+02  0.51100000000E-03 0. -1.
        -11    1    3    3    0    0 -0.15807379243E+02  0.83353258226E+01  0.11297105514E+02  0.21141794823E+02  0.51100000000E-03 0.  1.
        -12    1    3    3    0    0  0.10974876152E+00 -0.66277150464E+00 -0.23004682035E+00  0.71009323160E+00  0.00000000000E+00 0.  1.
</event>
<event>
 7    1  0.6073302E-013  0.5052886E+02  0.7816164E-02  0.1300439E+00
        -11   -1    0    0    0    0  0.00000000000E+00  0.00000000000E+00  0.45593999997E+02  0.45594000000E+02  0.51100000000E-03 0.  1.
         11   -1    0    0    0    0 -0.00000000000E+00 -0.00000000000E+00 -0.45593999997E+02  0.45594000000E+02  0.51100000000E-03 0. -1.
    9900012    2    1    2    0    0 -0.24104915835E+02  0.50058074969E+01  0.32358311337E+02  0.50528863405E+02  0.30000010804E+02 0.  0.
         12    1    1    2    0    0  0.24104915835E+02 -0.50058074969E+01 -0.32358311337E+02  0.40659136595E+02  0.00000000000E+00 0. -1.
         11    1    3    3    0    0 -0.12960082904E+02  0.93907651275E+01  0.32748622180E+02  0.36450273984E+02  0.51100000000E-03 0. -1.
        -11    1    3    3    0    0 -0.55977158487E+01 -0.49539917948E+01  0.23897680376E+01  0.78477671322E+01  0.51100000000E-03 0.  1.
         12    1    3    3    0    0 -0.55471170822E+01  0.56903416432E+00 -0.27800788808E+01  0.62308222882E+01  0.00000000000E+00 0. -1.
</event>
<event>
 7    1  0.6073302E-013  0.5052885E+02  0.7816164E-02  0.1300439E+00
        -11   -1    0    0    0    0  0.00000000000E+00  0.00000000000E+00  0.45593999997E+02  0.45594000000E+02  0.51100000000E-03 0. -1.
         11   -1    0    0    0    0 -0.00000000000E+00 -0.00000000000E+00 -0.45593999997E+02  0.45594000000E+02  0.51100000000E-03 0.  1.
    9900012    2    1    2    0    0 -0.15838773511E+02 -0.36896345891E+02 -0.63999597970E+01  0.50528848855E+02  0.29999966579E+02 0.  0.
         12    1    1    2    0    0  0.15838773511E+02  0.36896345891E+02  0.63999597970E+01  0.40659151145E+02  0.00000000000E+00 0. -1.
         11    1    3    3    0    0 -0.16210116660E+02 -0.29705302086E+02  0.68866916489E+01  0.34534032146E+02  0.51100000000E-03 0.  1.
        -11    1    3    3    0    0 -0.16604064198E+01 -0.29563923693E+01 -0.90692768321E+01  0.96824060975E+01  0.51100000000E-03 0. -1.
        -12    1    3    3    0    0  0.20317495686E+01 -0.42346514358E+01 -0.42173746139E+01  0.63124106113E+01  0.00000000000E+00 0.  1.
</event>
<event>
 7    1  0.6073302E-013  0.5052887E+02  0.7816164E-02  0.1300439E+00
        -11   -1    0    0    0    0  0.00000000000E+00  0.00000000000E+00  0.45593999997E+02  0.45594000000E+02  0.51100000000E-03 0.  1.
         11   -1    0    0    0    0 -0.00000000000E+00 -0.00000000000E+00 -0.45593999997E+02  0.45594000000E+02  0.51100000000E-03 0. -1.
    9900012    2    1    2    0    0 -0.12586642526E+02 -0.24822074129E+02  0.29641285019E+02  0.50528871730E+02  0.30000036110E+02 0.  0.
         12    1    1    2    0    0  0.12586642526E+02  0.24822074129E+02 -0.29641285019E+02  0.40659128270E+02  0.00000000000E+00 0. -1.
         11    1    3    3    0    0  0.51186512085E+01 -0.79323720987E+00 -0.30021174345E+01  0.59868626857E+01  0.51100000000E-03 0. -1.
        -11    1    3    3    0    0 -0.89259128081E+01 -0.15640469592E+02  0.21666756576E+02  0.28173472440E+02  0.51100000000E-03 0.  1.
         12    1    3    3    0    0 -0.87793809260E+01 -0.83883673268E+01  0.10976645877E+02  0.16368536604E+02  0.00000000000E+00 0. -1.
</event>
<event>
 7    1  0.6073302E-013  0.5052886E+02  0.7816164E-02  0.1300439E+00
        -11   -1    0    0    0    0  0.00000000000E+00  0.00000000000E+00  0.45593999997E+02  0.45594000000E+02  0.51100000000E-03 0. -1.
         11   -1    0    0    0    0 -0.00000000000E+00 -0.00000000000E+00 -0.45593999997E+02  0.45594000000E+02  0.51100000000E-03 0.  1.
    9900012    2    1    2    0    0  0.16479955033E+02 -0.35482297128E+02  0.11071725980E+02  0.50528862730E+02  0.30000008754E+02 0.  0.
         12    1    1    2    0    0 -0.16479955033E+02  0.35482297128E+02 -0.11071725980E+02  0.40659137270E+02  0.00000000000E+00 0. -1.
         11    1    3    3    0    0  0.22202103545E+02 -0.15211813154E+02  0.85666128584E+00  0.26927059440E+02  0.51100000000E-03 0. -1.
        -11    1    3    3    0    0 -0.25306997590E+01 -0.85519374726E+01  0.59863020456E+01  0.10741316877E+02  0.51100000000E-03 0.  1.
         12    1    3    3    0    0 -0.31914487533E+01 -0.11718546501E+02  0.42287626483E+01  0.12860486413E+02  0.00000000000E+00 0. -1.
</event>
<event>
 7    1  0.6073302E-013  0.5052884E+02  0.7816164E-02  0.1300439E+00
        -11   -1    0    0    0    0  0.00000000000E+00  0.00000000000E+00  0.45593999997E+02  0.45594000000E+02  0.51100000000E-03 0.  1.
         11   -1    0    0    0    0 -0.00000000000E+00 -0.00000000000E+00 -0.45593999997E+02  0.45594000000E+02  0.51100000000E-03 0. -1.
    9900012    2    1    2    0    0 -0.26628966658E+01 -0.34538820400E+02  0.21287223889E+02  0.50528843169E+02  0.29999949297E+02 0.  0.
         12    1    1    2    0    0  0.26628966658E+01  0.34538820400E+02 -0.21287223889E+02  0.40659156831E+02  0.00000000000E+00 0. -1.
         11    1    3    3    0    0 -0.75050410092E+01 -0.16184325217E+02 -0.38184214266E+01  0.18243858302E+02  0.51100000000E-03 0. -1.
        -11    1    3    3    0    0  0.34749669729E+01 -0.14422561288E+02  0.23565561603E+02  0.27846388698E+02  0.51100000000E-03 0.  1.
         12    1    3    3    0    0  0.13671773705E+01 -0.39319338945E+01  0.15400837129E+01  0.44385961695E+01  0.00000000000E+00 0. -1.
</event>
<event>
 7    1  0.6073302E-013  0.5052885E+02  0.7816164E-02  0.1300439E+00
        -11   -1    0    0    0    0  0.00000000000E+00  0.00000000000E+00  0.45593999997E+02  0.45594000000E+02  0.51100000000E-03 0.  1.
         11   -1    0    0    0    0 -0.00000000000E+00 -0.00000000000E+00 -0.45593999997E+02  0.45594000000E+02  0.51100000000E-03 0. -1.
    9900012    2    1    2    0    0 -0.36513790194E+01  0.33862484707E+02 -0.22207338334E+02  0.50528852011E+02  0.29999976173E+02 0.  0.
         12    1    1    2    0    0  0.36513790194E+01 -0.33862484707E+02  0.22207338334E+02  0.40659147989E+02  0.00000000000E+00 0. -1.
         11    1    3    3    0    0 -0.13427524961E+02  0.11446191545E+02 -0.37283476118E+01  0.18033699112E+02  0.51100000000E-03 0. -1.
        -11    1    3    3    0    0  0.25761165359E+01  0.34755889058E+01  0.94245488951E+00  0.44276761544E+01  0.51100000000E-03 0.  1.
         12    1    3    3    0    0  0.72000294061E+01  0.18940704256E+02 -0.19421445612E+02  0.28067476745E+02  0.00000000000E+00 0. -1.
</event>
<event>
 7    1  0.6073302E-013  0.5052888E+02  0.7816164E-02  0.1300439E+00
        -11   -1    0    0    0    0  0.00000000000E+00  0.00000000000E+00  0.45593999997E+02  0.45594000000E+02  0.51100000000E-03 0. -1.
         11   -1    0    0    0    0 -0.00000000000E+00 -0.00000000000E+00 -0.45593999997E+02  0.45594000000E+02  0.51100000000E-03 0.  1.
    9900012    2    1    2    0    0  0.12491086019E+02 -0.20485429307E+02 -0.32825046881E+02  0.50528883598E+02  0.30000072185E+02 0.  0.
         12    1    1    2    0    0 -0.12491086019E+02  0.20485429307E+02  0.32825046881E+02  0.40659116402E+02  0.00000000000E+00 0. -1.
         11    1    3    3    0    0  0.18364116715E+02 -0.17048078805E+02 -0.15811378960E+02  0.29628997259E+02  0.51100000000E-03 0. -1.
        -11    1    3    3    0    0  0.46085613691E-01 -0.36997465522E+01 -0.13529772590E+02  0.14026581730E+02  0.51100000000E-03 0.  1.
         12    1    3    3    0    0 -0.59191163101E+01  0.26239605026E+00 -0.34838953317E+01  0.68733046100E+01  0.00000000000E+00 0. -1.
</event>
<event>
 7    1  0.6073302E-013  0.5052886E+02  0.7816164E-02  0.1300439E+00
        -11   -1    0    0    0    0  0.00000000000E+00  0.00000000000E+00  0.45593999997E+02  0.45594000000E+02  0.51100000000E-03 0. -1.
         11   -1    0    0    0    0 -0.00000000000E+00 -0.00000000000E+00 -0.45593999997E+02  0.45594000000E+02  0.51100000000E-03 0.  1.
    9900012    2    1    2    0    0 -0.35457004485E+02 -0.19898526044E+02  0.12230868949E+00  0.50528862464E+02  0.30000007945E+02 0.  0.
         12    1    1    2    0    0  0.35457004485E+02  0.19898526044E+02 -0.12230868949E+00  0.40659137536E+02  0.00000000000E+00 0. -1.
         11    1    3    3    0    0  0.35400885265E+01  0.18921694748E+01  0.32288659911E+01  0.51515151117E+01  0.51100000000E-03 0. -1.
        -11    1    3    3    0    0 -0.87309013731E+01 -0.17088535916E+01  0.25025706310E+00  0.89000813616E+01  0.51100000000E-03 0.  1.
         12    1    3    3    0    0 -0.30266191638E+02 -0.20081841928E+02 -0.33568143647E+01  0.36477265991E+02  0.00000000000E+00 0. -1.
</event>
<event>
 7    1  0.6073302E-013  0.5052885E+02  0.7816164E-02  0.1300439E+00
        -11   -1    0    0    0    0  0.00000000000E+00  0.00000000000E+00  0.45593999997E+02  0.45594000000E+02  0.51100000000E-03 0. -1.
         11   -1    0    0    0    0 -0.00000000000E+00 -0.00000000000E+00 -0.45593999997E+02  0.45594000000E+02  0.51100000000E-03 0.  1.
    9900012    2    1    2    0    0 -0.22458289513E+02  0.24574218184E+02 -0.23343086297E+02  0.50528847954E+02  0.29999963841E+02 0.  0.
         12    1    1    2    0    0  0.22458289513E+02 -0.24574218184E+02  0.23343086297E+02  0.40659152046E+02  0.00000000000E+00 0. -1.
         11    1    3    3    0    0  0.14967130501E+01 -0.12019644077E+01 -0.77353757014E+00  0.20695963435E+01  0.51100000000E-03 0. -1.
        -11    1    3    3    0    0 -0.24941738853E+02  0.20610870338E+02 -0.26557610250E+02  0.41859347529E+02  0.51100000000E-03 0.  1.
        -12    1    3    3    0    0  0.98673628926E+00  0.51653122537E+01  0.39880615226E+01  0.65999040819E+01  0.00000000000E+00 0.  1.
</event>
<event>
 7    1  0.6073302E-013  0.5052886E+02  0.7816164E-02  0.1300439E+00
        -11   -1    0    0    0    0  0.00000000000E+00  0.00000000000E+00  0.45593999997E+02  0.45594000000E+02  0.51100000000E-03 0. -1.
         11   -1    0    0    0    0 -0.00000000000E+00 -0.00000000000E+00 -0.45593999997E+02  0.45594000000E+02  0.51100000000E-03 0.  1.
    9900012    2    1    2    0    0  0.17783756217E+02 -0.31207100751E+02 -0.19053103112E+02  0.50528857601E+02  0.29999993162E+02 0.  0.
         12    1    1    2    0    0 -0.17783756217E+02  0.31207100751E+02  0.19053103112E+02  0.40659142399E+02  0.00000000000E+00 0. -1.
         11    1    3    3    0    0  0.22946868941E+00 -0.30557253327E+01 -0.97611579687E+01  0.10230851301E+02  0.51100000000E-03 0.  1.
        -11    1    3    3    0    0  0.18201737211E+02 -0.15247175351E+02  0.10216044201E+01  0.23766010804E+02  0.51100000000E-03 0. -1.
         12    1    3    3    0    0 -0.64744968346E+00 -0.12904200067E+02 -0.10313549564E+02  0.16531995496E+02  0.00000000000E+00 0. -1.
</event>
<event>
 7    1  0.6073302E-013  0.5052885E+02  0.7816164E-02  0.1300439E+00
        -11   -1    0    0    0    0  0.00000000000E+00  0.00000000000E+00  0.45593999997E+02  0.45594000000E+02  0.51100000000E-03 0.  1.
         11   -1    0    0    0    0 -0.00000000000E+00 -0.00000000000E+00 -0.45593999997E+02  0.45594000000E+02  0.51100000000E-03 0. -1.
    9900012    2    1    2    0    0  0.88072669279E+01 -0.35170121434E+02  0.18402736636E+02  0.50528854558E+02  0.29999983914E+02 0.  0.
         12    1    1    2    0    0 -0.88072669279E+01  0.35170121434E+02 -0.18402736636E+02  0.40659145442E+02  0.00000000000E+00 0. -1.
         11    1    3    3    0    0  0.79434874832E+01  0.26633978738E+01  0.10304584743E+01  0.84412396340E+01  0.51100000000E-03 0. -1.
        -11    1    3    3    0    0  0.29034186333E+01 -0.31773607322E+02  0.13790022462E+02  0.34758548326E+02  0.51100000000E-03 0.  1.
         12    1    3    3    0    0 -0.20396391886E+01 -0.60599119854E+01  0.35822557000E+01  0.73290665975E+01  0.00000000000E+00 0. -1.
</event>
<event>
 7    1  0.6073302E-013  0.5052885E+02  0.7816164E-02  0.1300439E+00
        -11   -1    0    0    0    0  0.00000000000E+00  0.00000000000E+00  0.45593999997E+02  0.45594000000E+02  0.51100000000E-03 0.  1.
         11   -1    0    0    0    0 -0.00000000000E+00 -0.00000000000E+00 -0.45593999997E+02  0.45594000000E+02  0.51100000000E-03 0. -1.
    9900012    2    1    2    0    0  0.29127552861E+02 -0.22786320198E+02  0.16897799833E+02  0.50528851423E+02  0.29999974385E+02 0.  0.
         12    1    1    2    0    0 -0.29127552861E+02  0.22786320198E+02 -0.16897799833E+02  0.40659148577E+02  0.00000000000E+00 0. -1.
         11    1    3    3    0    0  0.67451687254E+01 -0.12410440456E+02 -0.35051720902E+01  0.14553438256E+02  0.51100000000E-03 0. -1.
        -11    1    3    3    0    0  0.19857266931E+02 -0.13412985729E+01  0.16347062307E+02  0.25755321356E+02  0.51100000000E-03 0.  1.
        -12    1    3    3    0    0  0.25251172044E+01 -0.90345811691E+01  0.40559096159E+01  0.10220091810E+02  0.00000000000E+00 0.  1.
</event>
<event>
 7    1  0.6073302E-013  0.5052885E+02  0.7816164E-02  0.1300439E+00
        -11   -1    0    0    0    0  0.00000000000E+00  0.00000000000E+00  0.45593999997E+02  0.45594000000E+02  0.51100000000E-03 0.  1.
         11   -1    0    0    0    0 -0.00000000000E+00 -0.00000000000E+00 -0.45593999997E+02  0.45594000000E+02  0.51100000000E-03 0. -1.
    9900012    2    1    2    0    0 -0.34339243008E+02 -0.17927551644E+02  0.12352574896E+02  0.50528845743E+02  0.29999957121E+02 0.  0.
         12    1    1    2    0    0  0.34339243008E+02  0.17927551644E+02 -0.12352574896E+02  0.40659154257E+02  0.00000000000E+00 0. -1.
         11    1    3    3    0    0 -0.73967887712E+01 -0.46477859529E+01 -0.50358089482E+01  0.10083341233E+02  0.51100000000E-03 0. -1.
        -11    1    3    3    0    0 -0.24684839938E+02 -0.11256064688E+02  0.21998255979E+02  0.34927977059E+02  0.51100000000E-03 0.  1.
        -12    1    3    3    0    0 -0.22576142996E+01 -0.20237010026E+01 -0.46098721356E+01  0.55175274517E+01  0.00000000000E+00 0.  1.
</event>
<event>
 7    1  0.6073302E-013  0.5052885E+02  0.7816164E-02  0.1300439E+00
        -11   -1    0    0    0    0  0.00000000000E+00  0.00000000000E+00  0.45593999997E+02  0.45594000000E+02  0.51100000000E-03 0. -1.
         11   -1    0    0    0    0 -0.00000000000E+00 -0.00000000000E+00 -0.45593999997E+02  0.45594000000E+02  0.51100000000E-03 0.  1.
    9900012    2    1    2    0    0 -0.11032708394E+02  0.24466985469E+02 -0.30541982303E+02  0.50528847089E+02  0.29999961212E+02 0.  0.
         12    1    1    2    0    0  0.11032708394E+02 -0.24466985469E+02  0.30541982303E+02  0.40659152911E+02  0.00000000000E+00 0. -1.
         11    1    3    3    0    0  0.14499852381E+01 -0.61917049307E+01 -0.41841890881E+01  0.76122996345E+01  0.51100000000E-03 0. -1.
        -11    1    3    3    0    0 -0.12851751687E+02  0.26183323702E+02 -0.21083512077E+02  0.35989560198E+02  0.51100000000E-03 0.  1.
         12    1    3    3    0    0  0.36905805542E+00  0.44753666985E+01 -0.52742811372E+01  0.69269872563E+01  0.00000000000E+00 0. -1.
</event>
<event>
 7    1  0.6073302E-013  0.5052877E+02  0.7816164E-02  0.1300439E+00
        -11   -1    0    0    0    0  0.00000000000E+00  0.00000000000E+00  0.45593999997E+02  0.45594000000E+02  0.51100000000E-03 0. -1.
         11   -1    0    0    0    0 -0.00000000000E+00 -0.00000000000E+00 -0.45593999997E+02  0.45594000000E+02  0.51100000000E-03 0.  1.
    9900012    2    1    2    0    0  0.26108202240E+02 -0.30708903386E+02  0.53383627073E+01  0.50528768726E+02  0.29999723018E+02 0.  0.
         12    1    1    2    0    0 -0.26108202240E+02  0.30708903386E+02 -0.53383627073E+01  0.40659231274E+02  0.00000000000E+00 0. -1.
         11    1    3    3    0    0  0.16110345666E+02 -0.55777136742E+00  0.13368022055E+01  0.16175332663E+02  0.51100000000E-03 0. -1.
        -11    1    3    3    0    0  0.10124630147E+02 -0.26850808294E+02 -0.58412013213E+00  0.28702181768E+02  0.51100000000E-03 0.  1.
         12    1    3    3    0    0 -0.12677357247E+00 -0.33003237253E+01  0.45856806339E+01  0.56512542950E+01  0.00000000000E+00 0. -1.
</event>
<event>
 7    1  0.6073302E-013  0.5052890E+02  0.7816164E-02  0.1300439E+00
        -11   -1    0    0    0    0  0.00000000000E+00  0.00000000000E+00  0.45593999997E+02  0.45594000000E+02  0.51100000000E-03 0.  1.
         11   -1    0    0    0    0 -0.00000000000E+00 -0.00000000000E+00 -0.45593999997E+02  0.45594000000E+02  0.51100000000E-03 0. -1.
    9900012    2    1    2    0    0  0.20535967320E+02  0.16183725255E+02  0.31137166809E+02  0.50528904169E+02  0.30000134712E+02 0.  0.
         12    1    1    2    0    0 -0.20535967320E+02 -0.16183725255E+02 -0.31137166809E+02  0.40659095831E+02  0.00000000000E+00 0. -1.
         11    1    3    3    0    0 -0.59325488159E+01  0.83997162120E+01  0.13935930942E+02  0.17319368908E+02  0.51100000000E-03 0. -1.
        -11    1    3    3    0    0  0.22462036509E+02  0.53498517445E+01  0.11400897489E+02  0.25751591439E+02  0.51100000000E-03 0.  1.
         12    1    3    3    0    0  0.40064796262E+01  0.24341572988E+01  0.58003383777E+01  0.74579438216E+01  0.00000000000E+00 0. -1.
</event>
<event>
 7    1  0.6073302E-013  0.5052884E+02  0.7816164E-02  0.1300439E+00
        -11   -1    0    0    0    0  0.00000000000E+00  0.00000000000E+00  0.45593999997E+02  0.45594000000E+02  0.51100000000E-03 0.  1.
         11   -1    0    0    0    0 -0.00000000000E+00 -0.00000000000E+00 -0.45593999997E+02  0.45594000000E+02  0.51100000000E-03 0. -1.
    9900012    2    1    2    0    0 -0.15213001332E-01  0.28834539948E+02  0.28665939031E+02  0.50528843762E+02  0.29999951098E+02 0.  0.
         12    1    1    2    0    0  0.15213001332E-01 -0.28834539948E+02 -0.28665939031E+02  0.40659156238E+02  0.00000000000E+00 0. -1.
         11    1    3    3    0    0 -0.12487299493E+00  0.93760075547E+01 -0.27022988202E+01  0.97584594125E+01  0.51100000000E-03 0. -1.
        -11    1    3    3    0    0  0.51247756138E+01  0.20043158535E+02  0.27484410641E+02  0.34400354035E+02  0.51100000000E-03 0.  1.
        -12    1    3    3    0    0 -0.50151156202E+01 -0.58462614169E+00  0.38838272102E+01  0.63700303145E+01  0.00000000000E+00 0.  1.
</event>
<event>
 7    1  0.6073302E-013  0.5052890E+02  0.7816164E-02  0.1300439E+00
        -11   -1    0    0    0    0  0.00000000000E+00  0.00000000000E+00  0.45593999997E+02  0.45594000000E+02  0.51100000000E-03 0.  1.
         11   -1    0    0    0    0 -0.00000000000E+00 -0.00000000000E+00 -0.45593999997E+02  0.45594000000E+02  0.51100000000E-03 0. -1.
    9900012    2    1    2    0    0  0.30548036241E+01 -0.22169108331E+02  0.33946450480E+02  0.50528896597E+02  0.30000111695E+02 0.  0.
         12    1    1    2    0    0 -0.30548036241E+01  0.22169108331E+02 -0.33946450480E+02  0.40659103403E+02  0.00000000000E+00 0. -1.
         11    1    3    3    0    0  0.91418347752E+01 -0.25641880649E+02  0.17517797306E+02  0.32372093058E+02  0.51100000000E-03 0. -1.
        -11    1    3    3    0    0 -0.55255412420E+01  0.17183092890E+01  0.13616188211E+02  0.14794754965E+02  0.51100000000E-03 0.  1.
         12    1    3    3    0    0 -0.56148990912E+00  0.17544630289E+01  0.28124649633E+01  0.33620485730E+01  0.00000000000E+00 0. -1.
</event>
<event>
 7    1  0.6073302E-013  0.5052886E+02  0.7816164E-02  0.1300439E+00
        -11   -1    0    0    0    0  0.00000000000E+00  0.00000000000E+00  0.45593999997E+02  0.45594000000E+02  0.51100000000E-03 0. -1.
         11   -1    0    0    0    0 -0.00000000000E+00 -0.00000000000E+00 -0.45593999997E+02  0.45594000000E+02  0.51100000000E-03 0.  1.
    9900012    2    1    2    0    0  0.35030450892E+02 -0.76034848874E+01 -0.19189057972E+02  0.50528863044E+02  0.30000009709E+02 0.  0.
         12    1    1    2    0    0 -0.35030450892E+02  0.76034848874E+01  0.19189057972E+02  0.40659136956E+02  0.00000000000E+00 0. -1.
         11    1    3    3    0    0  0.16872261691E+01 -0.51924848075E+01 -0.25808863982E+01  0.60390069948E+01  0.51100000000E-03 0. -1.
        -11    1    3    3    0    0  0.23275281232E+02  0.99546533765E+01 -0.96439272441E+01  0.27089466093E+02  0.51100000000E-03 0.  1.
        -12    1    3    3    0    0  0.10067943491E+02 -0.12365653456E+02 -0.69642443295E+01  0.17400389956E+02  0.00000000000E+00 0.  1.
</event>
<event>
 7    1  0.6073302E-013  0.5052886E+02  0.7816164E-02  0.1300439E+00
        -11   -1    0    0    0    0  0.00000000000E+00  0.00000000000E+00  0.45593999997E+02  0.45594000000E+02  0.51100000000E-03 0. -1.
         11   -1    0    0    0    0 -0.00000000000E+00 -0.00000000000E+00 -0.45593999997E+02  0.45594000000E+02  0.51100000000E-03 0.  1.
    9900012    2    1    2    0    0  0.33439386519E+02  0.14964705042E+02 -0.17636052493E+02  0.50528864307E+02  0.30000013547E+02 0.  0.
         12    1    1    2    0    0 -0.33439386519E+02 -0.14964705042E+02  0.17636052493E+02  0.40659135693E+02  0.00000000000E+00 0. -1.
         11    1    3    3    0    0  0.27987259732E+02  0.15829357434E+02 -0.11995255656E+02  0.34318237463E+02  0.51100000000E-03 0. -1.
        -11    1    3    3    0    0  0.65562275125E+01 -0.39407963562E+01  0.19945424809E+01  0.79052005089E+01  0.51100000000E-03 0.  1.
         12    1    3    3    0    0 -0.11041007251E+01  0.30761439640E+01 -0.76353393178E+01  0.83054263345E+01  0.00000000000E+00 0. -1.
</event>
<event>
 7    1  0.6073302E-013  0.5052887E+02  0.7816164E-02  0.1300439E+00
        -11   -1    0    0    0    0  0.00000000000E+00  0.00000000000E+00  0.45593999997E+02  0.45594000000E+02  0.51100000000E-03 0. -1.
         11   -1    0    0    0    0 -0.00000000000E+00 -0.00000000000E+00 -0.45593999997E+02  0.45594000000E+02  0.51100000000E-03 0.  1.
    9900012    2    1    2    0    0 -0.30235167240E+02 -0.17525137975E+02 -0.20781457869E+02  0.50528870764E+02  0.30000033173E+02 0.  0.
         12    1    1    2    0    0  0.30235167240E+02  0.17525137975E+02  0.20781457869E+02  0.40659129236E+02  0.00000000000E+00 0. -1.
         11    1    3    3    0    0 -0.34784285341E+02 -0.19190687951E+02 -0.15472028231E+02  0.42633468878E+02  0.51100000000E-03 0. -1.
        -11    1    3    3    0    0  0.59895352891E+00 -0.67450196256E-01 -0.28847642589E+01  0.29470595429E+01  0.51100000000E-03 0.  1.
         12    1    3    3    0    0  0.39501645720E+01  0.17330001721E+01 -0.24246653788E+01  0.49483423428E+01  0.00000000000E+00 0. -1.
</event>
<event>
 7    1  0.6073302E-013  0.5052886E+02  0.7816164E-02  0.1300439E+00
        -11   -1    0    0    0    0  0.00000000000E+00  0.00000000000E+00  0.45593999997E+02  0.45594000000E+02  0.51100000000E-03 0. -1.
         11   -1    0    0    0    0 -0.00000000000E+00 -0.00000000000E+00 -0.45593999997E+02  0.45594000000E+02  0.51100000000E-03 0.  1.
    9900012    2    1    2    0    0 -0.22032955633E+02  0.55702423794E+01 -0.33714790380E+02  0.50528858046E+02  0.29999994516E+02 0.  0.
         12    1    1    2    0    0  0.22032955633E+02 -0.55702423794E+01  0.33714790380E+02  0.40659141954E+02  0.00000000000E+00 0. -1.
         11    1    3    3    0    0 -0.14665924142E+02  0.47379893709E+01 -0.43771491980E+00  0.15418478162E+02  0.51100000000E-03 0. -1.
        -11    1    3    3    0    0 -0.83689566377E+01  0.27198331093E+01 -0.29333437309E+02  0.30624948522E+02  0.51100000000E-03 0.  1.
         12    1    3    3    0    0  0.10019251463E+01 -0.18875801008E+01 -0.39436381510E+01  0.44854313618E+01  0.00000000000E+00 0. -1.
</event>
<event>
 7    1  0.6073302E-013  0.5052887E+02  0.7816164E-02  0.1300439E+00
        -11   -1    0    0    0    0  0.00000000000E+00  0.00000000000E+00  0.45593999997E+02  0.45594000000E+02  0.51100000000E-03 0. -1.
         11   -1    0    0    0    0 -0.00000000000E+00 -0.00000000000E+00 -0.45593999997E+02  0.45594000000E+02  0.51100000000E-03 0.  1.
    9900012    2    1    2    0    0 -0.39937239003E+02  0.27829227990E+01  0.71019215010E+01  0.50528868092E+02  0.30000025054E+02 0.  0.
         12    1    1    2    0    0  0.39937239003E+02 -0.27829227990E+01 -0.71019215010E+01  0.40659131908E+02  0.00000000000E+00 0. -1.
         11    1    3    3    0    0 -0.38169606363E+02  0.24759225222E+01  0.16623191757E+01  0.38285928846E+02  0.51100000000E-03 0.  1.
        -11    1    3    3    0    0  0.27542360513E+01 -0.38686025208E+01  0.30298598840E+01  0.56331121831E+01  0.51100000000E-03 0. -1.
        -12    1    3    3    0    0 -0.45218686908E+01  0.41756027976E+01  0.24097424414E+01  0.66098270638E+01  0.00000000000E+00 0.  1.
</event>
<event>
 7    1  0.6073302E-013  0.5052886E+02  0.7816164E-02  0.1300439E+00
        -11   -1    0    0    0    0  0.00000000000E+00  0.00000000000E+00  0.45593999997E+02  0.45594000000E+02  0.51100000000E-03 0. -1.
         11   -1    0    0    0    0 -0.00000000000E+00 -0.00000000000E+00 -0.45593999997E+02  0.45594000000E+02  0.51100000000E-03 0.  1.
    9900012    2    1    2    0    0 -0.18718914174E+02 -0.29836813569E+02 -0.20310892378E+02  0.50528861532E+02  0.30000005112E+02 0.  0.
         12    1    1    2    0    0  0.18718914174E+02  0.29836813569E+02  0.20310892378E+02  0.40659138468E+02  0.00000000000E+00 0. -1.
         11    1    3    3    0    0 -0.49823552558E+01 -0.27580779868E+02 -0.11480343949E+02  0.30287317139E+02  0.51100000000E-03 0. -1.
        -11    1    3    3    0    0 -0.14422802191E+02  0.91623062640E+00 -0.51687182195E+01  0.15348366359E+02  0.51100000000E-03 0.  1.
         12    1    3    3    0    0  0.68624327243E+00 -0.31722643272E+01 -0.36618302093E+01  0.48931780339E+01  0.00000000000E+00 0. -1.
</event>
<event>
 7    1  0.6073302E-013  0.5052887E+02  0.7816164E-02  0.1300439E+00
        -11   -1    0    0    0    0  0.00000000000E+00  0.00000000000E+00  0.45593999997E+02  0.45594000000E+02  0.51100000000E-03 0.  1.
         11   -1    0    0    0    0 -0.00000000000E+00 -0.00000000000E+00 -0.45593999997E+02  0.45594000000E+02  0.51100000000E-03 0. -1.
    9900012    2    1    2    0    0 -0.24889122616E+01  0.40481359653E+02 -0.28686797999E+01  0.50528874488E+02  0.30000044493E+02 0.  0.
         12    1    1    2    0    0  0.24889122616E+01 -0.40481359653E+02  0.28686797999E+01  0.40659125512E+02  0.00000000000E+00 0. -1.
         11    1    3    3    0    0  0.29551304359E+01 -0.36298980238E+01 -0.37107588806E+01  0.59731639261E+01  0.51100000000E-03 0. -1.
        -11    1    3    3    0    0 -0.23482707600E+01  0.10412656291E+02  0.93549765892E+00  0.10715080155E+02  0.51100000000E-03 0.  1.
         12    1    3    3    0    0 -0.30957719376E+01  0.33698601386E+02 -0.93418578139E-01  0.33840630407E+02  0.00000000000E+00 0. -1.
</event>
<event>
 7    1  0.6073302E-013  0.5052886E+02  0.7816164E-02  0.1300439E+00
        -11   -1    0    0    0    0  0.00000000000E+00  0.00000000000E+00  0.45593999997E+02  0.45594000000E+02  0.51100000000E-03 0. -1.
         11   -1    0    0    0    0 -0.00000000000E+00 -0.00000000000E+00 -0.45593999997E+02  0.45594000000E+02  0.51100000000E-03 0.  1.
    9900012    2    1    2    0    0 -0.38041901891E+02 -0.12926654598E+02 -0.62354555825E+01  0.50528860745E+02  0.30000002721E+02 0.  0.
         12    1    1    2    0    0  0.38041901891E+02  0.12926654598E+02  0.62354555825E+01  0.40659139255E+02  0.00000000000E+00 0. -1.
         11    1    3    3    0    0  0.91498694211E+00 -0.35731719470E+01  0.30083352283E+01  0.47597100725E+01  0.51100000000E-03 0. -1.
        -11    1    3    3    0    0 -0.37680131101E+02 -0.12233277406E+02 -0.12196865585E+02  0.41451283288E+02  0.51100000000E-03 0.  1.
        -12    1    3    3    0    0 -0.12767577331E+01  0.28797947542E+01  0.29530747738E+01  0.43178673851E+01  0.00000000000E+00 0.  1.
</event>
<event>
 7    1  0.6073302E-013  0.5052885E+02  0.7816164E-02  0.1300439E+00
        -11   -1    0    0    0    0  0.00000000000E+00  0.00000000000E+00  0.45593999997E+02  0.45594000000E+02  0.51100000000E-03 0.  1.
         11   -1    0    0    0    0 -0.00000000000E+00 -0.00000000000E+00 -0.45593999997E+02  0.45594000000E+02  0.51100000000E-03 0. -1.
    9900012    2    1    2    0    0 -0.31910463890E+01  0.40112630128E+02  0.58275390717E+01  0.50528854848E+02  0.29999984796E+02 0.  0.
         12    1    1    2    0    0  0.31910463890E+01 -0.40112630128E+02 -0.58275390717E+01  0.40659145152E+02  0.00000000000E+00 0. -1.
         11    1    3    3    0    0  0.72951733299E+01  0.12158885546E+02 -0.38358956690E+01  0.14689184711E+02  0.51100000000E-03 0. -1.
        -11    1    3    3    0    0 -0.12121936943E+02  0.11566288180E+02  0.97212581133E+01  0.19370679830E+02  0.51100000000E-03 0.  1.
        -12    1    3    3    0    0  0.16357172245E+01  0.16387456402E+02 -0.57823372612E-01  0.16468990306E+02  0.00000000000E+00 0.  1.
</event>
<event>
 7    1  0.6073302E-013  0.5052885E+02  0.7816164E-02  0.1300439E+00
        -11   -1    0    0    0    0  0.00000000000E+00  0.00000000000E+00  0.45593999997E+02  0.45594000000E+02  0.51100000000E-03 0.  1.
         11   -1    0    0    0    0 -0.00000000000E+00 -0.00000000000E+00 -0.45593999997E+02  0.45594000000E+02  0.51100000000E-03 0. -1.
    9900012    2    1    2    0    0  0.16115538439E+02  0.11378503829E+02  0.35552568839E+02  0.50528854908E+02  0.29999984978E+02 0.  0.
         12    1    1    2    0    0 -0.16115538439E+02 -0.11378503829E+02 -0.35552568839E+02  0.40659145092E+02  0.00000000000E+00 0. -1.
         11    1    3    3    0    0  0.12295425849E+02 -0.54532061349E+01  0.11810644507E+02  0.17899896030E+02  0.51100000000E-03 0. -1.
        -11    1    3    3    0    0 -0.77984242414E+00  0.90848120984E+01  0.21486619265E+02  0.23341310434E+02  0.51100000000E-03 0.  1.
         12    1    3    3    0    0  0.45999550143E+01  0.77468978657E+01  0.22553050672E+01  0.92876484441E+01  0.00000000000E+00 0. -1.
</event>
<event>
 7    1  0.6073302E-013  0.5052890E+02  0.7816164E-02  0.1300439E+00
        -11   -1    0    0    0    0  0.00000000000E+00  0.00000000000E+00  0.45593999997E+02  0.45594000000E+02  0.51100000000E-03 0. -1.
         11   -1    0    0    0    0 -0.00000000000E+00 -0.00000000000E+00 -0.45593999997E+02  0.45594000000E+02  0.51100000000E-03 0.  1.
    9900012    2    1    2    0    0  0.75004830305E+01 -0.26608132770E+02 -0.29814632531E+02  0.50528901533E+02  0.30000126700E+02 0.  0.
         12    1    1    2    0    0 -0.75004830305E+01  0.26608132770E+02  0.29814632531E+02  0.40659098467E+02  0.00000000000E+00 0. -1.
         11    1    3    3    0    0  0.90934341275E+01  0.16771747670E+01 -0.10018401307E+02  0.13633481743E+02  0.51100000000E-03 0. -1.
        -11    1    3    3    0    0  0.48367371283E+01 -0.19880839704E+02 -0.11683475110E+02  0.23561523811E+02  0.51100000000E-03 0.  1.
         12    1    3    3    0    0 -0.64296882252E+01 -0.84044678327E+01 -0.81127561136E+01  0.13333895979E+02  0.00000000000E+00 0. -1.
</event>
<event>
 7    1  0.6073302E-013  0.5052886E+02  0.7816164E-02  0.1300439E+00
        -11   -1    0    0    0    0  0.00000000000E+00  0.00000000000E+00  0.45593999997E+02  0.45594000000E+02  0.51100000000E-03 0.  1.
         11   -1    0    0    0    0 -0.00000000000E+00 -0.00000000000E+00 -0.45593999997E+02  0.45594000000E+02  0.51100000000E-03 0. -1.
    9900012    2    1    2    0    0 -0.20194128306E+01  0.67360701550E+01  0.40046385047E+02  0.50528860502E+02  0.30000001983E+02 0.  0.
         12    1    1    2    0    0  0.20194128306E+01 -0.67360701550E+01 -0.40046385047E+02  0.40659139498E+02  0.00000000000E+00 0. -1.
         11    1    3    3    0    0  0.46661466540E+01 -0.77176470525E+01  0.23598126315E+01  0.93222162891E+01  0.51100000000E-03 0. -1.
        -11    1    3    3    0    0 -0.42266051795E+01  0.69776843935E+01  0.13516848786E+02  0.15787890049E+02  0.51100000000E-03 0.  1.
         12    1    3    3    0    0 -0.24589543050E+01  0.74760328140E+01  0.24169723630E+02  0.25418754165E+02  0.00000000000E+00 0. -1.
</event>
<event>
 7    1  0.6073302E-013  0.5052887E+02  0.7816164E-02  0.1300439E+00
        -11   -1    0    0    0    0  0.00000000000E+00  0.00000000000E+00  0.45593999997E+02  0.45594000000E+02  0.51100000000E-03 0. -1.
         11   -1    0    0    0    0 -0.00000000000E+00 -0.00000000000E+00 -0.45593999997E+02  0.45594000000E+02  0.51100000000E-03 0.  1.
    9900012    2    1    2    0    0  0.26953018870E+02 -0.15612155198E+02 -0.26133511233E+02  0.50528867871E+02  0.30000024379E+02 0.  0.
         12    1    1    2    0    0 -0.26953018870E+02  0.15612155198E+02  0.26133511233E+02  0.40659132129E+02  0.00000000000E+00 0. -1.
         11    1    3    3    0    0  0.11634112244E+01  0.31779978790E+01  0.34218172093E+01  0.48126946164E+01  0.51100000000E-03 0. -1.
        -11    1    3    3    0    0  0.43117434368E+01 -0.87292598147E+01 -0.15018423398E+02  0.17898160520E+02  0.51100000000E-03 0.  1.
         12    1    3    3    0    0  0.21477864209E+02 -0.10060893262E+02 -0.14536905045E+02  0.27818012735E+02  0.00000000000E+00 0. -1.
</event>
<event>
 7    1  0.6073302E-013  0.5052884E+02  0.7816164E-02  0.1300439E+00
        -11   -1    0    0    0    0  0.00000000000E+00  0.00000000000E+00  0.45593999997E+02  0.45594000000E+02  0.51100000000E-03 0.  1.
         11   -1    0    0    0    0 -0.00000000000E+00 -0.00000000000E+00 -0.45593999997E+02  0.45594000000E+02  0.51100000000E-03 0. -1.
    9900012    2    1    2    0    0  0.15123704295E+02  0.13543054751E+02  0.35228204484E+02  0.50528841687E+02  0.29999944791E+02 0.  0.
         12    1    1    2    0    0 -0.15123704295E+02 -0.13543054751E+02 -0.35228204484E+02  0.40659158313E+02  0.00000000000E+00 0. -1.
         11    1    3    3    0    0 -0.43345858642E+01  0.66282966332E+01  0.12205200714E+01  0.80132777550E+01  0.51100000000E-03 0. -1.
        -11    1    3    3    0    0  0.17975197003E+02  0.64439014569E+01  0.17396213638E+02  0.25831372834E+02  0.51100000000E-03 0.  1.
         12    1    3    3    0    0  0.14830931562E+01  0.47085666136E+00  0.16611470774E+02  0.16684191098E+02  0.00000000000E+00 0. -1.
</event>
<event>
 7    1  0.6073302E-013  0.5052886E+02  0.7816164E-02  0.1300439E+00
        -11   -1    0    0    0    0  0.00000000000E+00  0.00000000000E+00  0.45593999997E+02  0.45594000000E+02  0.51100000000E-03 0.  1.
         11   -1    0    0    0    0 -0.00000000000E+00 -0.00000000000E+00 -0.45593999997E+02  0.45594000000E+02  0.51100000000E-03 0. -1.
    9900012    2    1    2    0    0 -0.23862735806E+02 -0.11814196293E-01  0.32920141556E+02  0.50528855643E+02  0.29999987213E+02 0.  0.
         12    1    1    2    0    0  0.23862735806E+02  0.11814196293E-01 -0.32920141556E+02  0.40659144357E+02  0.00000000000E+00 0. -1.
         11    1    3    3    0    0 -0.58033544113E+01  0.84645314613E+01  0.18468348623E+02  0.21128348643E+02  0.51100000000E-03 0. -1.
        -11    1    3    3    0    0 -0.90448078480E+01 -0.89831202854E+01  0.15767790697E+02  0.20276297068E+02  0.51100000000E-03 0.  1.
         12    1    3    3    0    0 -0.90145735472E+01  0.50677462785E+00 -0.13159977634E+01  0.91242099315E+01  0.00000000000E+00 0. -1.
</event>
<event>
 7    1  0.6073302E-013  0.5052887E+02  0.7816164E-02  0.1300439E+00
        -11   -1    0    0    0    0  0.00000000000E+00  0.00000000000E+00  0.45593999997E+02  0.45594000000E+02  0.51100000000E-03 0. -1.
         11   -1    0    0    0    0 -0.00000000000E+00 -0.00000000000E+00 -0.45593999997E+02  0.45594000000E+02  0.51100000000E-03 0.  1.
    9900012    2    1    2    0    0 -0.36329243278E+02  0.14784211690E+00 -0.18257310101E+02  0.50528866382E+02  0.30000019855E+02 0.  0.
         12    1    1    2    0    0  0.36329243278E+02 -0.14784211690E+00  0.18257310101E+02  0.40659133618E+02  0.00000000000E+00 0. -1.
         11    1    3    3    0    0 -0.26011347867E+02 -0.74089687277E+01 -0.11798730967E+01  0.27071666670E+02  0.51100000000E-03 0. -1.
        -11    1    3    3    0    0 -0.53166982424E+01  0.16871659671E+01 -0.14148518076E+02  0.15208365238E+02  0.51100000000E-03 0.  1.
        -12    1    3    3    0    0 -0.50011971678E+01  0.58696448775E+01 -0.29289189288E+01  0.82488344747E+01  0.00000000000E+00 0.  1.
</event>
<event>
 7    1  0.6073302E-013  0.5052887E+02  0.7816164E-02  0.1300439E+00
        -11   -1    0    0    0    0  0.00000000000E+00  0.00000000000E+00  0.45593999997E+02  0.45594000000E+02  0.51100000000E-03 0.  1.
         11   -1    0    0    0    0 -0.00000000000E+00 -0.00000000000E+00 -0.45593999997E+02  0.45594000000E+02  0.51100000000E-03 0. -1.
    9900012    2    1    2    0    0 -0.34495371630E+02  0.20570875603E+02 -0.63303571395E+01  0.50528868081E+02  0.30000025018E+02 0.  0.
         12    1    1    2    0    0  0.34495371630E+02 -0.20570875603E+02  0.63303571395E+01  0.40659131919E+02  0.00000000000E+00 0. -1.
         11    1    3    3    0    0 -0.19355322568E+02 -0.19734799156E+01 -0.78803107544E+01  0.20991008373E+02  0.51100000000E-03 0. -1.
        -11    1    3    3    0    0 -0.98964438129E+01  0.20389056727E+02 -0.21537065048E+01  0.22766020432E+02  0.51100000000E-03 0.  1.
        -12    1    3    3    0    0 -0.52436052489E+01  0.21552987910E+01  0.37036601197E+01  0.67718392750E+01  0.00000000000E+00 0.  1.
</event>
<event>
 7    1  0.6073302E-013  0.5052886E+02  0.7816164E-02  0.1300439E+00
        -11   -1    0    0    0    0  0.00000000000E+00  0.00000000000E+00  0.45593999997E+02  0.45594000000E+02  0.51100000000E-03 0. -1.
         11   -1    0    0    0    0 -0.00000000000E+00 -0.00000000000E+00 -0.45593999997E+02  0.45594000000E+02  0.51100000000E-03 0.  1.
    9900012    2    1    2    0    0  0.19249652964E+02 -0.35163629030E+01 -0.35640593127E+02  0.50528858030E+02  0.29999994469E+02 0.  0.
         12    1    1    2    0    0 -0.19249652964E+02  0.35163629030E+01  0.35640593127E+02  0.40659141970E+02  0.00000000000E+00 0. -1.
         11    1    3    3    0    0  0.95116418928E+01 -0.11082971061E+02 -0.11287627854E+02  0.18458443105E+02  0.51100000000E-03 0.  1.
        -11    1    3    3    0    0  0.22899642809E+01  0.90537933817E+01 -0.36649668482E+01  0.10032302491E+02  0.51100000000E-03 0. -1.
        -12    1    3    3    0    0  0.74480467901E+01 -0.14871852240E+01 -0.20687998424E+02  0.22038112435E+02  0.00000000000E+00 0.  1.
</event>
<event>
 7    1  0.6073302E-013  0.5052887E+02  0.7816164E-02  0.1300439E+00
        -11   -1    0    0    0    0  0.00000000000E+00  0.00000000000E+00  0.45593999997E+02  0.45594000000E+02  0.51100000000E-03 0. -1.
         11   -1    0    0    0    0 -0.00000000000E+00 -0.00000000000E+00 -0.45593999997E+02  0.45594000000E+02  0.51100000000E-03 0.  1.
    9900012    2    1    2    0    0 -0.19160800084E+02  0.88712212924E+01 -0.34746655968E+02  0.50528869070E+02  0.30000028024E+02 0.  0.
         12    1    1    2    0    0  0.19160800084E+02 -0.88712212924E+01  0.34746655968E+02  0.40659130930E+02  0.00000000000E+00 0. -1.
         11    1    3    3    0    0  0.52578833980E+01 -0.47443709237E+01 -0.79838803205E+01  0.10672241495E+02  0.51100000000E-03 0. -1.
        -11    1    3    3    0    0 -0.75137537927E+01  0.94056831927E+01 -0.12345605619E+02  0.17243472699E+02  0.51100000000E-03 0.  1.
         12    1    3    3    0    0 -0.16904929689E+02  0.42099090234E+01 -0.14417170029E+02  0.22613154875E+02  0.00000000000E+00 0. -1.
</event>
<event>
 7    1  0.6073302E-013  0.5052886E+02  0.7816164E-02  0.1300439E+00
        -11   -1    0    0    0    0  0.00000000000E+00  0.00000000000E+00  0.45593999997E+02  0.45594000000E+02  0.51100000000E-03 0.  1.
         11   -1    0    0    0    0 -0.00000000000E+00 -0.00000000000E+00 -0.45593999997E+02  0.45594000000E+02  0.51100000000E-03 0. -1.
    9900012    2    1    2    0    0  0.28075890232E+02 -0.29142335716E+02  0.39540351851E+01  0.50528859114E+02  0.29999997764E+02 0.  0.
         12    1    1    2    0    0 -0.28075890232E+02  0.29142335716E+02 -0.39540351851E+01  0.40659140886E+02  0.00000000000E+00 0. -1.
         11    1    3    3    0    0  0.29899293692E+01 -0.15528419389E+02  0.11660203192E+02  0.19647692615E+02  0.51100000000E-03 0. -1.
        -11    1    3    3    0    0  0.18129981689E+02 -0.55005586084E+01 -0.29136854162E+01  0.19168775235E+02  0.51100000000E-03 0.  1.
         12    1    3    3    0    0  0.69559791740E+01 -0.81133577185E+01 -0.47924825910E+01  0.11712391264E+02  0.00000000000E+00 0. -1.
</event>
<event>
 7    1  0.6073302E-013  0.5052886E+02  0.7816164E-02  0.1300439E+00
        -11   -1    0    0    0    0  0.00000000000E+00  0.00000000000E+00  0.45593999997E+02  0.45594000000E+02  0.51100000000E-03 0. -1.
         11   -1    0    0    0    0 -0.00000000000E+00 -0.00000000000E+00 -0.45593999997E+02  0.45594000000E+02  0.51100000000E-03 0.  1.
    9900012    2    1    2    0    0 -0.33235647373E+02 -0.16557352550E+02 -0.16565372322E+02  0.50528859085E+02  0.29999997674E+02 0.  0.
         12    1    1    2    0    0  0.33235647373E+02  0.16557352550E+02  0.16565372322E+02  0.40659140915E+02  0.00000000000E+00 0. -1.
         11    1    3    3    0    0  0.32496720490E+00 -0.10167045154E+02 -0.94721334204E+01  0.13899486416E+02  0.51100000000E-03 0. -1.
        -11    1    3    3    0    0 -0.33009273535E+02 -0.70317081019E+01 -0.86649901765E+01  0.34844499037E+02  0.51100000000E-03 0.  1.
        -12    1    3    3    0    0 -0.55134104342E+00  0.64140070518E+00  0.15717512749E+01  0.17848736317E+01  0.00000000000E+00 0.  1.
</event>
<event>
 7    1  0.6073302E-013  0.5052886E+02  0.7816164E-02  0.1300439E+00
        -11   -1    0    0    0    0  0.00000000000E+00  0.00000000000E+00  0.45593999997E+02  0.45594000000E+02  0.51100000000E-03 0.  1.
         11   -1    0    0    0    0 -0.00000000000E+00 -0.00000000000E+00 -0.45593999997E+02  0.45594000000E+02  0.51100000000E-03 0. -1.
    9900012    2    1    2    0    0  0.11318962848E+02  0.20195869040E+02  0.33424145992E+02  0.50528861033E+02  0.30000003596E+02 0.  0.
         12    1    1    2    0    0 -0.11318962848E+02 -0.20195869040E+02 -0.33424145992E+02  0.40659138967E+02  0.00000000000E+00 0. -1.
         11    1    3    3    0    0  0.22917875930E+01 -0.44346540255E+01  0.43389735978E+01  0.66140107983E+01  0.51100000000E-03 0. -1.
        -11    1    3    3    0    0  0.54074333330E+01  0.27623683209E+02  0.25799320334E+02  0.38182628763E+02  0.51100000000E-03 0.  1.
        -12    1    3    3    0    0  0.36197419224E+01 -0.29931601444E+01  0.32858520608E+01  0.57322214717E+01  0.00000000000E+00 0.  1.
</event>
<event>
 7    1  0.6073302E-013  0.5052885E+02  0.7816164E-02  0.1300439E+00
        -11   -1    0    0    0    0  0.00000000000E+00  0.00000000000E+00  0.45593999997E+02  0.45594000000E+02  0.51100000000E-03 0.  1.
         11   -1    0    0    0    0 -0.00000000000E+00 -0.00000000000E+00 -0.45593999997E+02  0.45594000000E+02  0.51100000000E-03 0. -1.
    9900012    2    1    2    0    0 -0.11283654028E+02 -0.99583810408E+01  0.37771366286E+02  0.50528852046E+02  0.29999976280E+02 0.  0.
         12    1    1    2    0    0  0.11283654028E+02  0.99583810408E+01 -0.37771366286E+02  0.40659147954E+02  0.00000000000E+00 0. -1.
         11    1    3    3    0    0 -0.14492089789E+02  0.25962810134E+01  0.22207076008E+02  0.26644240778E+02  0.51100000000E-03 0.  1.
        -11    1    3    3    0    0 -0.20655709911E+01 -0.11760797173E+02  0.71361512919E+01  0.13910700528E+02  0.51100000000E-03 0. -1.
         12    1    3    3    0    0  0.52740067522E+01 -0.79386488093E+00  0.84281389864E+01  0.99739107399E+01  0.00000000000E+00 0. -1.
</event>
<event>
 7    1  0.6073302E-013  0.5052888E+02  0.7816164E-02  0.1300439E+00
        -11   -1    0    0    0    0  0.00000000000E+00  0.00000000000E+00  0.45593999997E+02  0.45594000000E+02  0.51100000000E-03 0. -1.
         11   -1    0    0    0    0 -0.00000000000E+00 -0.00000000000E+00 -0.45593999997E+02  0.45594000000E+02  0.51100000000E-03 0.  1.
    9900012    2    1    2    0    0  0.29226119935E+02  0.22493094390E+02  0.17118963259E+02  0.50528876981E+02  0.30000052070E+02 0.  0.
         12    1    1    2    0    0 -0.29226119935E+02 -0.22493094390E+02 -0.17118963259E+02  0.40659123019E+02  0.00000000000E+00 0. -1.
         11    1    3    3    0    0  0.14974596550E+02  0.22856024259E+02  0.19423888826E+02  0.33524973439E+02  0.51100000000E-03 0.  1.
        -11    1    3    3    0    0  0.52906423909E+01  0.17033872892E+01 -0.49417583689E+01  0.74372979773E+01  0.51100000000E-03 0. -1.
        -12    1    3    3    0    0  0.89608809940E+01 -0.20663171585E+01  0.26368328019E+01  0.95666055638E+01  0.00000000000E+00 0.  1.
</event>
<event>
 7    1  0.6073302E-013  0.5052885E+02  0.7816164E-02  0.1300439E+00
        -11   -1    0    0    0    0  0.00000000000E+00  0.00000000000E+00  0.45593999997E+02  0.45594000000E+02  0.51100000000E-03 0. -1.
         11   -1    0    0    0    0 -0.00000000000E+00 -0.00000000000E+00 -0.45593999997E+02  0.45594000000E+02  0.51100000000E-03 0.  1.
    9900012    2    1    2    0    0  0.23411995523E+02 -0.15937297868E+02  0.29172722100E+02  0.50528847126E+02  0.29999961324E+02 0.  0.
         12    1    1    2    0    0 -0.23411995523E+02  0.15937297868E+02 -0.29172722100E+02  0.40659152874E+02  0.00000000000E+00 0. -1.
         11    1    3    3    0    0  0.45722698421E+00  0.45942013929E+01  0.22075768240E+00  0.46221723431E+01  0.51100000000E-03 0. -1.
        -11    1    3    3    0    0  0.21350590517E+02 -0.23716484204E+02  0.24676529684E+02  0.40339192554E+02  0.51100000000E-03 0.  1.
        -12    1    3    3    0    0  0.16041780216E+01  0.31849849425E+01  0.42754347335E+01  0.55674822289E+01  0.00000000000E+00 0.  1.
</event>
<event>
 7    1  0.6073302E-013  0.5052886E+02  0.7816164E-02  0.1300439E+00
        -11   -1    0    0    0    0  0.00000000000E+00  0.00000000000E+00  0.45593999997E+02  0.45594000000E+02  0.51100000000E-03 0.  1.
         11   -1    0    0    0    0 -0.00000000000E+00 -0.00000000000E+00 -0.45593999997E+02  0.45594000000E+02  0.51100000000E-03 0. -1.
    9900012    2    1    2    0    0  0.35979058207E+02 -0.37922622177E+01  0.18555110779E+02  0.50528855663E+02  0.29999987272E+02 0.  0.
         12    1    1    2    0    0 -0.35979058207E+02  0.37922622177E+01 -0.18555110779E+02  0.40659144337E+02  0.00000000000E+00 0. -1.
         11    1    3    3    0    0  0.62235840272E+01  0.64276000677E+00  0.17869372540E+01  0.65068643432E+01  0.51100000000E-03 0. -1.
        -11    1    3    3    0    0  0.27096214190E+02 -0.13234946193E+02  0.17385401653E+02  0.34808344044E+02  0.51100000000E-03 0.  1.
        -12    1    3    3    0    0  0.26592599897E+01  0.87999239689E+01 -0.61722812753E+00  0.92136472753E+01  0.00000000000E+00 0.  1.
</event>
<event>
 7    1  0.6073302E-013  0.5052885E+02  0.7816164E-02  0.1300439E+00
        -11   -1    0    0    0    0  0.00000000000E+00  0.00000000000E+00  0.45593999997E+02  0.45594000000E+02  0.51100000000E-03 0.  1.
         11   -1    0    0    0    0 -0.00000000000E+00 -0.00000000000E+00 -0.45593999997E+02  0.45594000000E+02  0.51100000000E-03 0. -1.
    9900012    2    1    2    0    0 -0.38622127000E+02 -0.27591378401E+01 -0.12405029899E+02  0.50528852168E+02  0.29999976650E+02 0.  0.
         12    1    1    2    0    0  0.38622127000E+02  0.27591378401E+01  0.12405029899E+02  0.40659147832E+02  0.00000000000E+00 0. -1.
         11    1    3    3    0    0 -0.50931879642E+01  0.49323711533E+01 -0.52575457414E+01  0.88267001941E+01  0.51100000000E-03 0. -1.
        -11    1    3    3    0    0 -0.21959327332E+02 -0.14843047102E+02 -0.37512520280E+00  0.26507901149E+02  0.51100000000E-03 0.  1.
        -12    1    3    3    0    0 -0.11569611704E+02  0.71515381092E+01 -0.67723589546E+01  0.15194250825E+02  0.00000000000E+00 0.  1.
</event>
<event>
 7    1  0.6073302E-013  0.5052885E+02  0.7816164E-02  0.1300439E+00
        -11   -1    0    0    0    0  0.00000000000E+00  0.00000000000E+00  0.45593999997E+02  0.45594000000E+02  0.51100000000E-03 0.  1.
         11   -1    0    0    0    0 -0.00000000000E+00 -0.00000000000E+00 -0.45593999997E+02  0.45594000000E+02  0.51100000000E-03 0. -1.
    9900012    2    1    2    0    0  0.37996773456E+02  0.94981036584E+01  0.10917761458E+02  0.50528852426E+02  0.29999977434E+02 0.  0.
         12    1    1    2    0    0 -0.37996773456E+02 -0.94981036584E+01 -0.10917761458E+02  0.40659147574E+02  0.00000000000E+00 0. -1.
         11    1    3    3    0    0  0.13586581145E+02 -0.41196973533E+01 -0.16239158936E+01  0.14290003379E+02  0.51100000000E-03 0. -1.
        -11    1    3    3    0    0  0.15180831193E+02  0.94643587750E+01  0.17449899132E+02  0.24990612291E+02  0.51100000000E-03 0.  1.
        -12    1    3    3    0    0  0.92293611188E+01  0.41534422367E+01 -0.49082217800E+01  0.11248236756E+02  0.00000000000E+00 0.  1.
</event>
<event>
 7    1  0.6073302E-013  0.5052891E+02  0.7816164E-02  0.1300439E+00
        -11   -1    0    0    0    0  0.00000000000E+00  0.00000000000E+00  0.45593999997E+02  0.45594000000E+02  0.51100000000E-03 0.  1.
         11   -1    0    0    0    0 -0.00000000000E+00 -0.00000000000E+00 -0.45593999997E+02  0.45594000000E+02  0.51100000000E-03 0. -1.
    9900012    2    1    2    0    0 -0.98072264272E+01  0.36991800579E+02  0.13732683731E+02  0.50528909962E+02  0.30000152320E+02 0.  0.
         12    1    1    2    0    0  0.98072264272E+01 -0.36991800579E+02 -0.13732683731E+02  0.40659090038E+02  0.00000000000E+00 0. -1.
         11    1    3    3    0    0  0.48477728576E+01  0.15967820902E+01 -0.12248212466E+01  0.52488857932E+01  0.51100000000E-03 0. -1.
        -11    1    3    3    0    0 -0.18907514865E+02  0.26821842451E+02  0.90796738948E+01  0.34049167818E+02  0.51100000000E-03 0.  1.
        -12    1    3    3    0    0  0.42525155798E+01  0.85731760378E+01  0.58778310827E+01  0.11230856351E+02  0.00000000000E+00 0.  1.
</event>
<event>
 7    1  0.6073302E-013  0.5052885E+02  0.7816164E-02  0.1300439E+00
        -11   -1    0    0    0    0  0.00000000000E+00  0.00000000000E+00  0.45593999997E+02  0.45594000000E+02  0.51100000000E-03 0.  1.
         11   -1    0    0    0    0 -0.00000000000E+00 -0.00000000000E+00 -0.45593999997E+02  0.45594000000E+02  0.51100000000E-03 0. -1.
    9900012    2    1    2    0    0 -0.83056557260E+01  0.30145299872E+02  0.25989289483E+02  0.50528853560E+02  0.29999980881E+02 0.  0.
         12    1    1    2    0    0  0.83056557260E+01 -0.30145299872E+02 -0.25989289483E+02  0.40659146440E+02  0.00000000000E+00 0. -1.
         11    1    3    3    0    0  0.49208932494E+01  0.15033364124E+01  0.11000693950E+02  0.12144565797E+02  0.51100000000E-03 0. -1.
        -11    1    3    3    0    0 -0.12552835676E+02  0.22266533902E+02  0.42997217256E+01  0.25920258924E+02  0.51100000000E-03 0.  1.
         12    1    3    3    0    0 -0.67371329970E+00  0.63754295572E+01  0.10688873807E+02  0.12464028839E+02  0.00000000000E+00 0. -1.
</event>
<event>
 7    1  0.6073302E-013  0.5052885E+02  0.7816164E-02  0.1300439E+00
        -11   -1    0    0    0    0  0.00000000000E+00  0.00000000000E+00  0.45593999997E+02  0.45594000000E+02  0.51100000000E-03 0.  1.
         11   -1    0    0    0    0 -0.00000000000E+00 -0.00000000000E+00 -0.45593999997E+02  0.45594000000E+02  0.51100000000E-03 0. -1.
    9900012    2    1    2    0    0 -0.33531191753E+02  0.10953235359E+02  0.20220104793E+02  0.50528845766E+02  0.29999957190E+02 0.  0.
         12    1    1    2    0    0  0.33531191753E+02 -0.10953235359E+02 -0.20220104793E+02  0.40659154234E+02  0.00000000000E+00 0. -1.
         11    1    3    3    0    0 -0.12787561075E+02 -0.46201736736E+01 -0.34697405046E+01  0.14032349142E+02  0.51100000000E-03 0. -1.
        -11    1    3    3    0    0 -0.47849684378E+01  0.94697859379E+01  0.78571106473E+01  0.13202535993E+02  0.51100000000E-03 0.  1.
         12    1    3    3    0    0 -0.15958662240E+02  0.61036230949E+01  0.15832734650E+02  0.23293960631E+02  0.00000000000E+00 0. -1.
</event>
<event>
 7    1  0.6073302E-013  0.5052886E+02  0.7816164E-02  0.1300439E+00
        -11   -1    0    0    0    0  0.00000000000E+00  0.00000000000E+00  0.45593999997E+02  0.45594000000E+02  0.51100000000E-03 0.  1.
         11   -1    0    0    0    0 -0.00000000000E+00 -0.00000000000E+00 -0.45593999997E+02  0.45594000000E+02  0.51100000000E-03 0. -1.
    9900012    2    1    2    0    0 -0.91741704962E+00  0.39686494237E+02 -0.87923871921E+01  0.50528861403E+02  0.30000004721E+02 0.  0.
         12    1    1    2    0    0  0.91741704962E+00 -0.39686494237E+02  0.87923871921E+01  0.40659138597E+02  0.00000000000E+00 0. -1.
         11    1    3    3    0    0 -0.63214332750E+01  0.42129337900E+01 -0.66108486697E+01  0.10070384807E+02  0.51100000000E-03 0. -1.
        -11    1    3    3    0    0  0.18643869369E+01  0.31698448192E+02  0.44318475166E+01  0.32061017281E+02  0.51100000000E-03 0.  1.
        -12    1    3    3    0    0  0.35396292885E+01  0.37751122552E+01 -0.66133860390E+01  0.83974593146E+01  0.00000000000E+00 0.  1.
</event>
<event>
 7    1  0.6073302E-013  0.5052879E+02  0.7816164E-02  0.1300439E+00
        -11   -1    0    0    0    0  0.00000000000E+00  0.00000000000E+00  0.45593999997E+02  0.45594000000E+02  0.51100000000E-03 0. -1.
         11   -1    0    0    0    0 -0.00000000000E+00 -0.00000000000E+00 -0.45593999997E+02  0.45594000000E+02  0.51100000000E-03 0.  1.
    9900012    2    1    2    0    0 -0.18619274047E+02  0.36121529040E+02  0.13149322125E+01  0.50528791044E+02  0.29999790856E+02 0.  0.
         12    1    1    2    0    0  0.18619274047E+02 -0.36121529040E+02 -0.13149322125E+01  0.40659208956E+02  0.00000000000E+00 0. -1.
         11    1    3    3    0    0 -0.19717523335E+02  0.25941962832E+02  0.96723240750E+01  0.33989998754E+02  0.51100000000E-03 0. -1.
        -11    1    3    3    0    0  0.44761650620E+00  0.21041142541E+01 -0.81557266722E+01  0.84346627167E+01  0.51100000000E-03 0.  1.
         12    1    3    3    0    0  0.65063278198E+00  0.80754519543E+01 -0.20166519030E+00  0.81041295727E+01  0.00000000000E+00 0. -1.
</event>
<event>
 7    1  0.6073302E-013  0.5052887E+02  0.7816164E-02  0.1300439E+00
        -11   -1    0    0    0    0  0.00000000000E+00  0.00000000000E+00  0.45593999997E+02  0.45594000000E+02  0.51100000000E-03 0.  1.
         11   -1    0    0    0    0 -0.00000000000E+00 -0.00000000000E+00 -0.45593999997E+02  0.45594000000E+02  0.51100000000E-03 0. -1.
    9900012    2    1    2    0    0  0.38751357237E+02 -0.89766573650E+01  0.84212091148E+01  0.50528870298E+02  0.30000031758E+02 0.  0.
         12    1    1    2    0    0 -0.38751357237E+02  0.89766573650E+01 -0.84212091148E+01  0.40659129702E+02  0.00000000000E+00 0. -1.
         11    1    3    3    0    0  0.12280809505E+02  0.22318291640E+01  0.16296560613E+02  0.20527475042E+02  0.51100000000E-03 0. -1.
        -11    1    3    3    0    0  0.14704080888E+02 -0.57288965025E+01 -0.60185502938E+01  0.16889440423E+02  0.51100000000E-03 0.  1.
         12    1    3    3    0    0  0.11766466843E+02 -0.54795900265E+01 -0.18568012042E+01  0.13111954833E+02  0.00000000000E+00 0. -1.
</event>
<event>
 7    1  0.6073302E-013  0.5052886E+02  0.7816164E-02  0.1300439E+00
        -11   -1    0    0    0    0  0.00000000000E+00  0.00000000000E+00  0.45593999997E+02  0.45594000000E+02  0.51100000000E-03 0.  1.
         11   -1    0    0    0    0 -0.00000000000E+00 -0.00000000000E+00 -0.45593999997E+02  0.45594000000E+02  0.51100000000E-03 0. -1.
    9900012    2    1    2    0    0 -0.27746643006E+02  0.14161077699E+02  0.26129552588E+02  0.50528857878E+02  0.29999994006E+02 0.  0.
         12    1    1    2    0    0  0.27746643006E+02 -0.14161077699E+02 -0.26129552588E+02  0.40659142122E+02  0.00000000000E+00 0. -1.
         11    1    3    3    0    0 -0.44852961597E+01  0.10854326448E+02  0.37621040539E+00  0.11750566744E+02  0.51100000000E-03 0. -1.
        -11    1    3    3    0    0 -0.10762810598E+02 -0.65137787995E+01  0.15049098849E+02  0.19614861270E+02  0.51100000000E-03 0.  1.
        -12    1    3    3    0    0 -0.12498536248E+02  0.98205300503E+01  0.10704243334E+02  0.19163429864E+02  0.00000000000E+00 0.  1.
</event>
<event>
 7    1  0.6073302E-013  0.5052888E+02  0.7816164E-02  0.1300439E+00
        -11   -1    0    0    0    0  0.00000000000E+00  0.00000000000E+00  0.45593999997E+02  0.45594000000E+02  0.51100000000E-03 0.  1.
         11   -1    0    0    0    0 -0.00000000000E+00 -0.00000000000E+00 -0.45593999997E+02  0.45594000000E+02  0.51100000000E-03 0. -1.
    9900012    2    1    2    0    0 -0.22142063756E+02  0.33425504525E+02  0.67548904876E+01  0.50528881888E+02  0.30000066987E+02 0.  0.
         12    1    1    2    0    0  0.22142063756E+02 -0.33425504525E+02 -0.67548904876E+01  0.40659118112E+02  0.00000000000E+00 0. -1.
         11    1    3    3    0    0 -0.19390587755E+01  0.23682484299E+02 -0.22436252122E+01  0.23867422690E+02  0.51100000000E-03 0.  1.
        -11    1    3    3    0    0 -0.79551246035E+01 -0.23583783336E+00  0.72515054142E+01  0.10766798873E+02  0.51100000000E-03 0. -1.
        -12    1    3    3    0    0 -0.12247880377E+02  0.99788580588E+01  0.17470102856E+01  0.15894660325E+02  0.00000000000E+00 0.  1.
</event>
<event>
 7    1  0.6073302E-013  0.5052874E+02  0.7816164E-02  0.1300439E+00
        -11   -1    0    0    0    0  0.00000000000E+00  0.00000000000E+00  0.45593999997E+02  0.45594000000E+02  0.51100000000E-03 0.  1.
         11   -1    0    0    0    0 -0.00000000000E+00 -0.00000000000E+00 -0.45593999997E+02  0.45594000000E+02  0.51100000000E-03 0. -1.
    9900012    2    1    2    0    0 -0.52997409441E+01  0.40245085895E+02 -0.23284059274E+01  0.50528737009E+02  0.29999626611E+02 0.  0.
         12    1    1    2    0    0  0.52997409441E+01 -0.40245085895E+02  0.23284059274E+01  0.40659262991E+02  0.00000000000E+00 0. -1.
         11    1    3    3    0    0  0.41480112455E+01  0.37680723404E+01  0.23090317336E+01  0.60610225427E+01  0.51100000000E-03 0. -1.
        -11    1    3    3    0    0 -0.16804546814E+02  0.20665436808E+02 -0.10071740608E+01  0.26654595701E+02  0.51100000000E-03 0.  1.
        -12    1    3    3    0    0  0.73567946247E+01  0.15811576747E+02 -0.36302636002E+01  0.17813118766E+02  0.00000000000E+00 0.  1.
</event>
<event>
 7    1  0.6073302E-013  0.5052888E+02  0.7816164E-02  0.1300439E+00
        -11   -1    0    0    0    0  0.00000000000E+00  0.00000000000E+00  0.45593999997E+02  0.45594000000E+02  0.51100000000E-03 0. -1.
         11   -1    0    0    0    0 -0.00000000000E+00 -0.00000000000E+00 -0.45593999997E+02  0.45594000000E+02  0.51100000000E-03 0.  1.
    9900012    2    1    2    0    0 -0.85792917805E+01 -0.27158377563E+02 -0.29016930760E+02  0.50528880604E+02  0.30000063084E+02 0.  0.
         12    1    1    2    0    0  0.85792917805E+01  0.27158377563E+02  0.29016930760E+02  0.40659119396E+02  0.00000000000E+00 0. -1.
         11    1    3    3    0    0 -0.83380274009E+01 -0.15020552686E+02 -0.98823008424E+00  0.17208030187E+02  0.51100000000E-03 0. -1.
        -11    1    3    3    0    0  0.58262350687E+01 -0.50904448188E+01 -0.74596365373E+01  0.10747270400E+02  0.51100000000E-03 0.  1.
         12    1    3    3    0    0 -0.60674994483E+01 -0.70473800579E+01 -0.20569064139E+02  0.22573580017E+02  0.00000000000E+00 0. -1.
</event>
<event>
 7    1  0.6073302E-013  0.5052886E+02  0.7816164E-02  0.1300439E+00
        -11   -1    0    0    0    0  0.00000000000E+00  0.00000000000E+00  0.45593999997E+02  0.45594000000E+02  0.51100000000E-03 0. -1.
         11   -1    0    0    0    0 -0.00000000000E+00 -0.00000000000E+00 -0.45593999997E+02  0.45594000000E+02  0.51100000000E-03 0.  1.
    9900012    2    1    2    0    0  0.27635187490E+02 -0.28229204733E+02 -0.96215462652E+01  0.50528859084E+02  0.29999997673E+02 0.  0.
         12    1    1    2    0    0 -0.27635187490E+02  0.28229204733E+02  0.96215462652E+01  0.40659140916E+02  0.00000000000E+00 0. -1.
         11    1    3    3    0    0  0.67816420337E+01 -0.51111033674E+01 -0.77487594536E+01  0.11495969713E+02  0.51100000000E-03 0. -1.
        -11    1    3    3    0    0  0.64748281275E+01 -0.23255139022E+02  0.17535554629E+01  0.24203302403E+02  0.51100000000E-03 0.  1.
        -12    1    3    3    0    0  0.14378717329E+02  0.13703765674E+00 -0.36263422745E+01  0.14829586968E+02  0.00000000000E+00 0.  1.
</event>
<event>
 7    1  0.6073302E-013  0.5052886E+02  0.7816164E-02  0.1300439E+00
        -11   -1    0    0    0    0  0.00000000000E+00  0.00000000000E+00  0.45593999997E+02  0.45594000000E+02  0.51100000000E-03 0.  1.
         11   -1    0    0    0    0 -0.00000000000E+00 -0.00000000000E+00 -0.45593999997E+02  0.45594000000E+02  0.51100000000E-03 0. -1.
    9900012    2    1    2    0    0 -0.17291827436E+02 -0.10904717764E+02  0.35146061706E+02  0.50528858113E+02  0.29999994719E+02 0.  0.
         12    1    1    2    0    0  0.17291827436E+02  0.10904717764E+02 -0.35146061706E+02  0.40659141887E+02  0.00000000000E+00 0. -1.
         11    1    3    3    0    0 -0.16995071307E+02  0.23166637530E+01  0.16218040074E+02  0.23605596874E+02  0.51100000000E-03 0. -1.
        -11    1    3    3    0    0 -0.57220217023E+01 -0.12100954675E+02  0.15158621503E+02  0.20222720948E+02  0.51100000000E-03 0.  1.
         12    1    3    3    0    0  0.54252655736E+01 -0.11204268416E+01  0.37694001290E+01  0.67005402904E+01  0.00000000000E+00 0. -1.
</event>
<event>
 7    1  0.6073302E-013  0.5052887E+02  0.7816164E-02  0.1300439E+00
        -11   -1    0    0    0    0  0.00000000000E+00  0.00000000000E+00  0.45593999997E+02  0.45594000000E+02  0.51100000000E-03 0. -1.
         11   -1    0    0    0    0 -0.00000000000E+00 -0.00000000000E+00 -0.45593999997E+02  0.45594000000E+02  0.51100000000E-03 0.  1.
    9900012    2    1    2    0    0  0.31864553614E+02 -0.21136260203E+02  0.13822937847E+02  0.50528869622E+02  0.30000029703E+02 0.  0.
         12    1    1    2    0    0 -0.31864553614E+02  0.21136260203E+02 -0.13822937847E+02  0.40659130378E+02  0.00000000000E+00 0. -1.
         11    1    3    3    0    0  0.11059862501E+01 -0.36686701236E+01 -0.53087351750E+01  0.65471379610E+01  0.51100000000E-03 0. -1.
        -11    1    3    3    0    0  0.22749385380E+02 -0.84848395941E+01  0.20620908290E+02  0.31855123560E+02  0.51100000000E-03 0.  1.
        -12    1    3    3    0    0  0.80091819838E+01 -0.89827504857E+01 -0.14892352678E+01  0.12126608100E+02  0.00000000000E+00 0.  1.
</event>
<event>
 7    1  0.6073302E-013  0.5052886E+02  0.7816164E-02  0.1300439E+00
        -11   -1    0    0    0    0  0.00000000000E+00  0.00000000000E+00  0.45593999997E+02  0.45594000000E+02  0.51100000000E-03 0.  1.
         11   -1    0    0    0    0 -0.00000000000E+00 -0.00000000000E+00 -0.45593999997E+02  0.45594000000E+02  0.51100000000E-03 0. -1.
    9900012    2    1    2    0    0 -0.20876987968E+02  0.32520986753E+02  0.12637336730E+02  0.50528862212E+02  0.30000007181E+02 0.  0.
         12    1    1    2    0    0  0.20876987968E+02 -0.32520986753E+02 -0.12637336730E+02  0.40659137788E+02  0.00000000000E+00 0. -1.
         11    1    3    3    0    0 -0.83005779397E+01  0.10995307153E+01 -0.16084725494E+01  0.85261800433E+01  0.51100000000E-03 0. -1.
        -11    1    3    3    0    0 -0.17091054704E+02  0.29075342771E+02  0.14903165341E+02  0.36872537824E+02  0.51100000000E-03 0.  1.
        -12    1    3    3    0    0  0.45146446758E+01  0.23461132674E+01 -0.65735606206E+00  0.51301443454E+01  0.00000000000E+00 0.  1.
</event>
<event>
 7    1  0.6073302E-013  0.5052887E+02  0.7816164E-02  0.1300439E+00
        -11   -1    0    0    0    0  0.00000000000E+00  0.00000000000E+00  0.45593999997E+02  0.45594000000E+02  0.51100000000E-03 0. -1.
         11   -1    0    0    0    0 -0.00000000000E+00 -0.00000000000E+00 -0.45593999997E+02  0.45594000000E+02  0.51100000000E-03 0.  1.
    9900012    2    1    2    0    0 -0.12864609444E+02 -0.36746824357E+02 -0.11719126454E+02  0.50528865709E+02  0.30000017808E+02 0.  0.
         12    1    1    2    0    0  0.12864609444E+02  0.36746824357E+02  0.11719126454E+02  0.40659134291E+02  0.00000000000E+00 0. -1.
         11    1    3    3    0    0  0.28342222537E+01 -0.33499423778E+01  0.28305423366E+01  0.52217717202E+01  0.51100000000E-03 0. -1.
        -11    1    3    3    0    0 -0.20419637072E+02 -0.19770102755E+02 -0.10812873734E+02  0.30409485029E+02  0.51100000000E-03 0.  1.
        -12    1    3    3    0    0  0.47208053738E+01 -0.13626779225E+02 -0.37367950569E+01  0.14897608959E+02  0.00000000000E+00 0.  1.
</event>
<event>
 7    1  0.6073302E-013  0.5052889E+02  0.7816164E-02  0.1300439E+00
        -11   -1    0    0    0    0  0.00000000000E+00  0.00000000000E+00  0.45593999997E+02  0.45594000000E+02  0.51100000000E-03 0.  1.
         11   -1    0    0    0    0 -0.00000000000E+00 -0.00000000000E+00 -0.45593999997E+02  0.45594000000E+02  0.51100000000E-03 0. -1.
    9900012    2    1    2    0    0  0.16934583164E+02 -0.19681891621E+02  0.31289080460E+02  0.50528886375E+02  0.30000080624E+02 0.  0.
         12    1    1    2    0    0 -0.16934583164E+02  0.19681891621E+02 -0.31289080460E+02  0.40659113625E+02  0.00000000000E+00 0. -1.
         11    1    3    3    0    0 -0.47612400564E+01 -0.14612385376E+02  0.17946057669E+02  0.23627361244E+02  0.51100000000E-03 0. -1.
        -11    1    3    3    0    0  0.70733311739E+01 -0.47961622060E+01  0.33041833762E+01  0.91625768126E+01  0.51100000000E-03 0.  1.
         12    1    3    3    0    0  0.14622492047E+02 -0.27334403936E+00  0.10038839415E+02  0.17738948318E+02  0.00000000000E+00 0. -1.
</event>
<event>
 7    1  0.6073302E-013  0.5052887E+02  0.7816164E-02  0.1300439E+00
        -11   -1    0    0    0    0  0.00000000000E+00  0.00000000000E+00  0.45593999997E+02  0.45594000000E+02  0.51100000000E-03 0.  1.
         11   -1    0    0    0    0 -0.00000000000E+00 -0.00000000000E+00 -0.45593999997E+02  0.45594000000E+02  0.51100000000E-03 0. -1.
    9900012    2    1    2    0    0  0.12550875697E+02 -0.20733227371E+02  0.32646189356E+02  0.50528869692E+02  0.30000029914E+02 0.  0.
         12    1    1    2    0    0 -0.12550875697E+02  0.20733227371E+02 -0.32646189356E+02  0.40659130308E+02  0.00000000000E+00 0. -1.
         11    1    3    3    0    0  0.76974027882E+01  0.38294729381E+01  0.18854522915E+02  0.20722159812E+02  0.51100000000E-03 0. -1.
        -11    1    3    3    0    0  0.45125855529E+01 -0.14335118273E+02  0.37935564903E+01  0.15500003721E+02  0.51100000000E-03 0.  1.
         12    1    3    3    0    0  0.34088735610E+00 -0.10227582037E+02  0.99981099503E+01  0.14306706158E+02  0.00000000000E+00 0. -1.
</event>
<event>
 7    1  0.6073302E-013  0.5052887E+02  0.7816164E-02  0.1300439E+00
        -11   -1    0    0    0    0  0.00000000000E+00  0.00000000000E+00  0.45593999997E+02  0.45594000000E+02  0.51100000000E-03 0. -1.
         11   -1    0    0    0    0 -0.00000000000E+00 -0.00000000000E+00 -0.45593999997E+02  0.45594000000E+02  0.51100000000E-03 0.  1.
    9900012    2    1    2    0    0  0.95288272240E+01  0.28660016842E+02 -0.27220764983E+02  0.50528866218E+02  0.30000019356E+02 0.  0.
         12    1    1    2    0    0 -0.95288272240E+01 -0.28660016842E+02  0.27220764983E+02  0.40659133782E+02  0.00000000000E+00 0. -1.
         11    1    3    3    0    0  0.15647169521E+02  0.26613990408E+02 -0.16182364045E+02  0.34856954913E+02  0.51100000000E-03 0. -1.
        -11    1    3    3    0    0 -0.40377279942E+00 -0.14309239289E+01 -0.83194042220E+01  0.84512166363E+01  0.51100000000E-03 0.  1.
         12    1    3    3    0    0 -0.57145694972E+01  0.34769503629E+01 -0.27189967161E+01  0.72206946693E+01  0.00000000000E+00 0. -1.
</event>
<event>
 7    1  0.6073302E-013  0.5052886E+02  0.7816164E-02  0.1300439E+00
        -11   -1    0    0    0    0  0.00000000000E+00  0.00000000000E+00  0.45593999997E+02  0.45594000000E+02  0.51100000000E-03 0.  1.
         11   -1    0    0    0    0 -0.00000000000E+00 -0.00000000000E+00 -0.45593999997E+02  0.45594000000E+02  0.51100000000E-03 0. -1.
    9900012    2    1    2    0    0  0.28599656516E+02 -0.28250396209E+02  0.60943038357E+01  0.50528858616E+02  0.29999996250E+02 0.  0.
         12    1    1    2    0    0 -0.28599656516E+02  0.28250396209E+02 -0.60943038357E+01  0.40659141384E+02  0.00000000000E+00 0. -1.
         11    1    3    3    0    0  0.16196470419E+01 -0.82199926054E+01 -0.62520713355E+01  0.10453704186E+02  0.51100000000E-03 0. -1.
        -11    1    3    3    0    0  0.26159642304E+02 -0.21469560972E+02  0.71068566121E+01  0.34579999204E+02  0.51100000000E-03 0.  1.
        -12    1    3    3    0    0  0.82036717047E+00  0.14391573679E+01  0.52395185590E+01  0.54951552256E+01  0.00000000000E+00 0.  1.
</event>
<event>
 7    1  0.6073302E-013  0.5052887E+02  0.7816164E-02  0.1300439E+00
        -11   -1    0    0    0    0  0.00000000000E+00  0.00000000000E+00  0.45593999997E+02  0.45594000000E+02  0.51100000000E-03 0.  1.
         11   -1    0    0    0    0 -0.00000000000E+00 -0.00000000000E+00 -0.45593999997E+02  0.45594000000E+02  0.51100000000E-03 0. -1.
    9900012    2    1    2    0    0  0.16968882388E+02 -0.38361590443E+01  0.36749226407E+02  0.50528871538E+02  0.30000035528E+02 0.  0.
         12    1    1    2    0    0 -0.16968882388E+02  0.38361590443E+01 -0.36749226407E+02  0.40659128462E+02  0.00000000000E+00 0. -1.
         11    1    3    3    0    0  0.81818526653E+00 -0.66265827103E+01 -0.85606412899E+00  0.67315578881E+01  0.51100000000E-03 0. -1.
        -11    1    3    3    0    0  0.61947124766E+01 -0.83499744486E+00  0.30274338834E+02  0.30912898206E+02  0.51100000000E-03 0.  1.
        -12    1    3    3    0    0  0.99559846447E+01  0.36254211109E+01  0.73309517024E+01  0.12884415444E+02  0.00000000000E+00 0.  1.
</event>
<event>
 7    1  0.6073302E-013  0.5052886E+02  0.7816164E-02  0.1300439E+00
        -11   -1    0    0    0    0  0.00000000000E+00  0.00000000000E+00  0.45593999997E+02  0.45594000000E+02  0.51100000000E-03 0.  1.
         11   -1    0    0    0    0 -0.00000000000E+00 -0.00000000000E+00 -0.45593999997E+02  0.45594000000E+02  0.51100000000E-03 0. -1.
    9900012    2    1    2    0    0  0.60388895596E+00  0.15247699826E+02  0.37686978858E+02  0.50528863176E+02  0.30000010109E+02 0.  0.
         12    1    1    2    0    0 -0.60388895596E+00 -0.15247699826E+02 -0.37686978858E+02  0.40659136824E+02  0.00000000000E+00 0. -1.
         11    1    3    3    0    0 -0.21733256562E+01  0.87557608665E+01  0.33119248618E+01  0.96101789427E+01  0.51100000000E-03 0. -1.
        -11    1    3    3    0    0 -0.72643433949E+01 -0.26501832172E+01  0.18355496327E+02  0.19917791085E+02  0.51100000000E-03 0.  1.
        -12    1    3    3    0    0  0.10041558007E+02  0.91421221768E+01  0.16019557669E+02  0.21000893148E+02  0.00000000000E+00 0.  1.
</event>
<event>
 7    1  0.6073302E-013  0.5052886E+02  0.7816164E-02  0.1300439E+00
        -11   -1    0    0    0    0  0.00000000000E+00  0.00000000000E+00  0.45593999997E+02  0.45594000000E+02  0.51100000000E-03 0.  1.
         11   -1    0    0    0    0 -0.00000000000E+00 -0.00000000000E+00 -0.45593999997E+02  0.45594000000E+02  0.51100000000E-03 0. -1.
    9900012    2    1    2    0    0  0.80807721362E+01 -0.42763201438E+01  0.39617925314E+02  0.50528858365E+02  0.29999995486E+02 0.  0.
         12    1    1    2    0    0 -0.80807721362E+01  0.42763201438E+01 -0.39617925314E+02  0.40659141635E+02  0.00000000000E+00 0. -1.
         11    1    3    3    0    0  0.15653153299E+02 -0.18449943200E+01  0.12297779626E+02  0.19991513106E+02  0.51100000000E-03 0. -1.
        -11    1    3    3    0    0 -0.30330747873E+01 -0.50979860171E+01  0.22922515794E+02  0.23677642084E+02  0.51100000000E-03 0.  1.
         12    1    3    3    0    0 -0.45393063759E+01  0.26666601933E+01  0.43976298948E+01  0.68597031752E+01  0.00000000000E+00 0. -1.
</event>
<event>
 7    1  0.6073302E-013  0.5052885E+02  0.7816164E-02  0.1300439E+00
        -11   -1    0    0    0    0  0.00000000000E+00  0.00000000000E+00  0.45593999997E+02  0.45594000000E+02  0.51100000000E-03 0.  1.
         11   -1    0    0    0    0 -0.00000000000E+00 -0.00000000000E+00 -0.45593999997E+02  0.45594000000E+02  0.51100000000E-03 0. -1.
    9900012    2    1    2    0    0 -0.44727510763E+01  0.32603258069E+02  0.23878625072E+02  0.50528847596E+02  0.29999962753E+02 0.  0.
         12    1    1    2    0    0  0.44727510763E+01 -0.32603258069E+02 -0.23878625072E+02  0.40659152404E+02  0.00000000000E+00 0. -1.
         11    1    3    3    0    0  0.15138970644E+01  0.81833360783E+01  0.78164055007E+01  0.11417314435E+02  0.51100000000E-03 0. -1.
        -11    1    3    3    0    0 -0.68886317808E+00 -0.43760087557E+01  0.73182063589E+01  0.85545385428E+01  0.51100000000E-03 0.  1.
        -12    1    3    3    0    0 -0.52977849626E+01  0.28795930746E+02  0.87440132122E+01  0.30556994618E+02  0.00000000000E+00 0.  1.
</event>
<event>
 7    1  0.6073302E-013  0.5052888E+02  0.7816164E-02  0.1300439E+00
        -11   -1    0    0    0    0  0.00000000000E+00  0.00000000000E+00  0.45593999997E+02  0.45594000000E+02  0.51100000000E-03 0. -1.
         11   -1    0    0    0    0 -0.00000000000E+00 -0.00000000000E+00 -0.45593999997E+02  0.45594000000E+02  0.51100000000E-03 0.  1.
    9900012    2    1    2    0    0  0.21145905145E+02  0.53913419505E+01 -0.34306682990E+02  0.50528875929E+02  0.30000048874E+02 0.  0.
         12    1    1    2    0    0 -0.21145905145E+02 -0.53913419505E+01  0.34306682990E+02  0.40659124071E+02  0.00000000000E+00 0. -1.
         11    1    3    3    0    0  0.81510673135E+01 -0.44592107992E+01 -0.29464339256E+00  0.92957664714E+01  0.51100000000E-03 0. -1.
        -11    1    3    3    0    0  0.12941507164E+02  0.17323392117E+01 -0.28702026873E+02  0.31532363592E+02  0.51100000000E-03 0.  1.
         12    1    3    3    0    0  0.53330667422E-01  0.81182135380E+01 -0.53100127244E+01  0.97007458653E+01  0.00000000000E+00 0. -1.
</event>
<event>
 7    1  0.6073302E-013  0.5052888E+02  0.7816164E-02  0.1300439E+00
        -11   -1    0    0    0    0  0.00000000000E+00  0.00000000000E+00  0.45593999997E+02  0.45594000000E+02  0.51100000000E-03 0.  1.
         11   -1    0    0    0    0 -0.00000000000E+00 -0.00000000000E+00 -0.45593999997E+02  0.45594000000E+02  0.51100000000E-03 0. -1.
    9900012    2    1    2    0    0  0.40490005805E+02 -0.36729438845E+01  0.48260218134E+00  0.50528880583E+02  0.30000063021E+02 0.  0.
         12    1    1    2    0    0 -0.40490005805E+02  0.36729438845E+01 -0.48260218134E+00  0.40659119417E+02  0.00000000000E+00 0. -1.
         11    1    3    3    0    0 -0.31126338668E+01  0.95152941525E+00  0.19390080113E+01  0.37886211405E+01  0.51100000000E-03 0. -1.
        -11    1    3    3    0    0  0.36899754511E+02 -0.82854459659E+01  0.29315879543E+01  0.37931974718E+02  0.51100000000E-03 0.  1.
         12    1    3    3    0    0  0.67028851610E+01  0.36609726662E+01 -0.43879937842E+01  0.88082847249E+01  0.00000000000E+00 0. -1.
</event>
<event>
 7    1  0.6073302E-013  0.5052886E+02  0.7816164E-02  0.1300439E+00
        -11   -1    0    0    0    0  0.00000000000E+00  0.00000000000E+00  0.45593999997E+02  0.45594000000E+02  0.51100000000E-03 0. -1.
         11   -1    0    0    0    0 -0.00000000000E+00 -0.00000000000E+00 -0.45593999997E+02  0.45594000000E+02  0.51100000000E-03 0.  1.
    9900012    2    1    2    0    0 -0.16434846559E+02 -0.37082371510E+02  0.28212381931E+01  0.50528857816E+02  0.29999993817E+02 0.  0.
         12    1    1    2    0    0  0.16434846559E+02  0.37082371510E+02 -0.28212381931E+01  0.40659142184E+02  0.00000000000E+00 0. -1.
         11    1    3    3    0    0  0.46048815657E+00 -0.73812960389E+01  0.71093447086E+01  0.10258575096E+02  0.51100000000E-03 0. -1.
        -11    1    3    3    0    0 -0.68164437480E+01  0.41539714116E+00 -0.50652358384E+01  0.85025334174E+01  0.51100000000E-03 0.  1.
        -12    1    3    3    0    0 -0.10078890968E+02 -0.30116472612E+02  0.77712932294E+00  0.31767749302E+02  0.00000000000E+00 0.  1.
</event>
<event>
 7    1  0.6073302E-013  0.5052885E+02  0.7816164E-02  0.1300439E+00
        -11   -1    0    0    0    0  0.00000000000E+00  0.00000000000E+00  0.45593999997E+02  0.45594000000E+02  0.51100000000E-03 0.  1.
         11   -1    0    0    0    0 -0.00000000000E+00 -0.00000000000E+00 -0.45593999997E+02  0.45594000000E+02  0.51100000000E-03 0. -1.
    9900012    2    1    2    0    0  0.16620874089E+01  0.28154004147E+02  0.29287471653E+02  0.50528849985E+02  0.29999970015E+02 0.  0.
         12    1    1    2    0    0 -0.16620874089E+01 -0.28154004147E+02 -0.29287471653E+02  0.40659150015E+02  0.00000000000E+00 0. -1.
         11    1    3    3    0    0  0.94978180849E+01  0.17831075789E+02  0.16185897425E+02  0.25887044789E+02  0.51100000000E-03 0. -1.
        -11    1    3    3    0    0 -0.12642192326E+02  0.85359590233E+01  0.11971570976E+02  0.19390877627E+02  0.51100000000E-03 0.  1.
        -12    1    3    3    0    0  0.48064616496E+01  0.17869693349E+01  0.11300032521E+01  0.52509275698E+01  0.00000000000E+00 0.  1.
</event>
<event>
 7    1  0.6073302E-013  0.5052886E+02  0.7816164E-02  0.1300439E+00
        -11   -1    0    0    0    0  0.00000000000E+00  0.00000000000E+00  0.45593999997E+02  0.45594000000E+02  0.51100000000E-03 0. -1.
         11   -1    0    0    0    0 -0.00000000000E+00 -0.00000000000E+00 -0.45593999997E+02  0.45594000000E+02  0.51100000000E-03 0.  1.
    9900012    2    1    2    0    0 -0.18555379808E+02  0.10240646249E+02 -0.34698596947E+02  0.50528860985E+02  0.30000003449E+02 0.  0.
         12    1    1    2    0    0  0.18555379808E+02 -0.10240646249E+02  0.34698596947E+02  0.40659139015E+02  0.00000000000E+00 0. -1.
         11    1    3    3    0    0 -0.15569749899E+02 -0.23732734754E+01 -0.12637468683E+02  0.20192948123E+02  0.51100000000E-03 0. -1.
        -11    1    3    3    0    0 -0.13152723927E+01  0.16112633591E+02 -0.20615423832E+02  0.26198141208E+02  0.51100000000E-03 0.  1.
        -12    1    3    3    0    0 -0.16703575160E+01 -0.34987138674E+01 -0.14457044326E+01  0.41377716544E+01  0.00000000000E+00 0.  1.
</event>
<event>
 7    1  0.6073302E-013  0.5052887E+02  0.7816164E-02  0.1300439E+00
        -11   -1    0    0    0    0  0.00000000000E+00  0.00000000000E+00  0.45593999997E+02  0.45594000000E+02  0.51100000000E-03 0.  1.
         11   -1    0    0    0    0 -0.00000000000E+00 -0.00000000000E+00 -0.45593999997E+02  0.45594000000E+02  0.51100000000E-03 0. -1.
    9900012    2    1    2    0    0  0.35002596119E+02  0.29415378248E+01  0.20477569403E+02  0.50528865374E+02  0.30000016792E+02 0.  0.
         12    1    1    2    0    0 -0.35002596119E+02 -0.29415378248E+01 -0.20477569403E+02  0.40659134626E+02  0.00000000000E+00 0. -1.
         11    1    3    3    0    0  0.89466188115E+01 -0.85706169284E+01  0.16000489064E+02  0.20236430349E+02  0.51100000000E-03 0. -1.
        -11    1    3    3    0    0  0.11555630750E+02  0.62499991293E+01 -0.24815819356E+01  0.13369866877E+02  0.51100000000E-03 0.  1.
        -12    1    3    3    0    0  0.14500346557E+02  0.52621556239E+01  0.69586622746E+01  0.16922568148E+02  0.00000000000E+00 0.  1.
</event>
<event>
 7    1  0.6073302E-013  0.5052887E+02  0.7816164E-02  0.1300439E+00
        -11   -1    0    0    0    0  0.00000000000E+00  0.00000000000E+00  0.45593999997E+02  0.45594000000E+02  0.51100000000E-03 0. -1.
         11   -1    0    0    0    0 -0.00000000000E+00 -0.00000000000E+00 -0.45593999997E+02  0.45594000000E+02  0.51100000000E-03 0.  1.
    9900012    2    1    2    0    0 -0.53495551835E+01 -0.40122560966E+02  0.38376242254E+01  0.50528868199E+02  0.30000025377E+02 0.  0.
         12    1    1    2    0    0  0.53495551835E+01  0.40122560966E+02 -0.38376242254E+01  0.40659131801E+02  0.00000000000E+00 0. -1.
         11    1    3    3    0    0 -0.99529836951E+01 -0.15107679006E+02 -0.58950763944E+01  0.19027763278E+02  0.51100000000E-03 0. -1.
        -11    1    3    3    0    0  0.30232661945E+01 -0.24578845237E+02  0.12909027170E+02  0.27926739058E+02  0.51100000000E-03 0.  1.
        -12    1    3    3    0    0  0.15801623171E+01 -0.43603672303E+00 -0.31763265503E+01  0.35743658635E+01  0.00000000000E+00 0.  1.
</event>
<event>
 7    1  0.6073302E-013  0.5052884E+02  0.7816164E-02  0.1300439E+00
        -11   -1    0    0    0    0  0.00000000000E+00  0.00000000000E+00  0.45593999997E+02  0.45594000000E+02  0.51100000000E-03 0.  1.
         11   -1    0    0    0    0 -0.00000000000E+00 -0.00000000000E+00 -0.45593999997E+02  0.45594000000E+02  0.51100000000E-03 0. -1.
    9900012    2    1    2    0    0  0.37422895742E+02 -0.15182928253E+02  0.47087732584E+01  0.50528843815E+02  0.29999951260E+02 0.  0.
         12    1    1    2    0    0 -0.37422895742E+02  0.15182928253E+02 -0.47087732584E+01  0.40659156185E+02  0.00000000000E+00 0. -1.
         11    1    3    3    0    0 -0.52336053680E+01 -0.92484036724E+00  0.63913628635E+00  0.53529851771E+01  0.51100000000E-03 0. -1.
        -11    1    3    3    0    0  0.19001756645E+02 -0.66495095916E+01  0.23458718353E+01  0.20267852583E+02  0.51100000000E-03 0.  1.
         12    1    3    3    0    0  0.23654744465E+02 -0.76085782946E+01  0.17237651367E+01  0.24908006055E+02  0.00000000000E+00 0. -1.
</event>
<event>
 7    1  0.6073302E-013  0.5052886E+02  0.7816164E-02  0.1300439E+00
        -11   -1    0    0    0    0  0.00000000000E+00  0.00000000000E+00  0.45593999997E+02  0.45594000000E+02  0.51100000000E-03 0. -1.
         11   -1    0    0    0    0 -0.00000000000E+00 -0.00000000000E+00 -0.45593999997E+02  0.45594000000E+02  0.51100000000E-03 0.  1.
    9900012    2    1    2    0    0 -0.21880945048E+02 -0.50101146226E+00 -0.34265708206E+02  0.50528861698E+02  0.30000005616E+02 0.  0.
         12    1    1    2    0    0  0.21880945048E+02  0.50101146226E+00  0.34265708206E+02  0.40659138302E+02  0.00000000000E+00 0. -1.
         11    1    3    3    0    0 -0.11058210865E+02  0.12687274122E+02 -0.14910957010E+02  0.22485274991E+02  0.51100000000E-03 0. -1.
        -11    1    3    3    0    0 -0.20565628771E+00 -0.76214976661E+01 -0.41473871570E+01  0.86793053681E+01  0.51100000000E-03 0.  1.
        -12    1    3    3    0    0 -0.10617077896E+02 -0.55667879186E+01 -0.15207364038E+02  0.19364281339E+02  0.00000000000E+00 0.  1.
</event>
<event>
 7    1  0.6073302E-013  0.5052888E+02  0.7816164E-02  0.1300439E+00
        -11   -1    0    0    0    0  0.00000000000E+00  0.00000000000E+00  0.45593999997E+02  0.45594000000E+02  0.51100000000E-03 0.  1.
         11   -1    0    0    0    0 -0.00000000000E+00 -0.00000000000E+00 -0.45593999997E+02  0.45594000000E+02  0.51100000000E-03 0. -1.
    9900012    2    1    2    0    0 -0.19793294046E+02  0.34812075187E+02 -0.70362730744E+01  0.50528877939E+02  0.30000054982E+02 0.  0.
         12    1    1    2    0    0  0.19793294046E+02 -0.34812075187E+02  0.70362730744E+01  0.40659122061E+02  0.00000000000E+00 0. -1.
         11    1    3    3    0    0  0.19007628575E+01  0.19022488169E+02  0.23346552668E+01  0.19259246378E+02  0.51100000000E-03 0. -1.
        -11    1    3    3    0    0 -0.12681888594E+02  0.16110075653E+02 -0.43896557219E+01  0.20967448903E+02  0.51100000000E-03 0.  1.
         12    1    3    3    0    0 -0.90121683093E+01 -0.32048863527E+00 -0.49812726194E+01  0.10302182658E+02  0.00000000000E+00 0. -1.
</event>
<event>
 7    1  0.6073302E-013  0.5052882E+02  0.7816164E-02  0.1300439E+00
        -11   -1    0    0    0    0  0.00000000000E+00  0.00000000000E+00  0.45593999997E+02  0.45594000000E+02  0.51100000000E-03 0.  1.
         11   -1    0    0    0    0 -0.00000000000E+00 -0.00000000000E+00 -0.45593999997E+02  0.45594000000E+02  0.51100000000E-03 0. -1.
    9900012    2    1    2    0    0 -0.28110356353E+02 -0.13308941300E+02  0.26188715447E+02  0.50528820599E+02  0.29999880691E+02 0.  0.
         12    1    1    2    0    0  0.28110356353E+02  0.13308941300E+02 -0.26188715447E+02  0.40659179401E+02  0.00000000000E+00 0. -1.
         11    1    3    3    0    0  0.22272417769E+01  0.50580100098E+01 -0.78744884501E+00  0.55824857489E+01  0.51100000000E-03 0. -1.
        -11    1    3    3    0    0 -0.18973160392E+02 -0.14648054168E+02  0.18760023331E+02  0.30438212527E+02  0.51100000000E-03 0.  1.
         12    1    3    3    0    0 -0.11364437738E+02 -0.37188971415E+01  0.82161409606E+01  0.14508122323E+02  0.00000000000E+00 0. -1.
</event>
<event>
 7    1  0.6073302E-013  0.5052881E+02  0.7816164E-02  0.1300439E+00
        -11   -1    0    0    0    0  0.00000000000E+00  0.00000000000E+00  0.45593999997E+02  0.45594000000E+02  0.51100000000E-03 0.  1.
         11   -1    0    0    0    0 -0.00000000000E+00 -0.00000000000E+00 -0.45593999997E+02  0.45594000000E+02  0.51100000000E-03 0. -1.
    9900012    2    1    2    0    0 -0.84636332990E+01  0.34880972738E+02  0.19101158447E+02  0.50528811595E+02  0.29999853323E+02 0.  0.
         12    1    1    2    0    0  0.84636332990E+01 -0.34880972738E+02 -0.19101158447E+02  0.40659188405E+02  0.00000000000E+00 0. -1.
         11    1    3    3    0    0  0.63510680791E+01  0.16719846284E+02  0.35268542737E+01  0.18229866341E+02  0.51100000000E-03 0. -1.
        -11    1    3    3    0    0 -0.76350803400E+01  0.64492038637E+01  0.15640919983E+02  0.18561386275E+02  0.51100000000E-03 0.  1.
         12    1    3    3    0    0 -0.71796210381E+01  0.11711922591E+02 -0.66615809805E-01  0.13737558978E+02  0.00000000000E+00 0. -1.
</event>
<event>
 7    1  0.6073302E-013  0.5052886E+02  0.7816164E-02  0.1300439E+00
        -11   -1    0    0    0    0  0.00000000000E+00  0.00000000000E+00  0.45593999997E+02  0.45594000000E+02  0.51100000000E-03 0.  1.
         11   -1    0    0    0    0 -0.00000000000E+00 -0.00000000000E+00 -0.45593999997E+02  0.45594000000E+02  0.51100000000E-03 0. -1.
    9900012    2    1    2    0    0  0.48698739752E+01 -0.35398861923E+02  0.19400277880E+02  0.50528857365E+02  0.29999992446E+02 0.  0.
         12    1    1    2    0    0 -0.48698739752E+01  0.35398861923E+02 -0.19400277880E+02  0.40659142635E+02  0.00000000000E+00 0. -1.
         11    1    3    3    0    0 -0.35813939881E+01  0.11358946618E+01  0.18013562687E+01  0.41667162429E+01  0.51100000000E-03 0. -1.
        -11    1    3    3    0    0  0.31132344013E+01 -0.33992598085E+02  0.79541299704E+01  0.35049352873E+02  0.51100000000E-03 0.  1.
        -12    1    3    3    0    0  0.53380335620E+01 -0.25421585004E+01  0.96447916412E+01  0.11312788248E+02  0.00000000000E+00 0.  1.
</event>
<event>
 7    1  0.6073302E-013  0.5052886E+02  0.7816164E-02  0.1300439E+00
        -11   -1    0    0    0    0  0.00000000000E+00  0.00000000000E+00  0.45593999997E+02  0.45594000000E+02  0.51100000000E-03 0. -1.
         11   -1    0    0    0    0 -0.00000000000E+00 -0.00000000000E+00 -0.45593999997E+02  0.45594000000E+02  0.51100000000E-03 0.  1.
    9900012    2    1    2    0    0 -0.28451323553E+02 -0.24732646794E+02  0.15231009927E+02  0.50528864584E+02  0.30000014391E+02 0.  0.
         12    1    1    2    0    0  0.28451323553E+02  0.24732646794E+02 -0.15231009927E+02  0.40659135416E+02  0.00000000000E+00 0. -1.
         11    1    3    3    0    0  0.60500673812E+00  0.35763608950E+01 -0.28609779605E+00  0.36384395851E+01  0.51100000000E-03 0. -1.
        -11    1    3    3    0    0 -0.25477321363E+02 -0.28811974847E+02  0.90953753910E+01  0.39521508728E+02  0.51100000000E-03 0.  1.
        -12    1    3    3    0    0 -0.35790089279E+01  0.50296715758E+00  0.64217323318E+01  0.73689162710E+01  0.00000000000E+00 0.  1.
</event>
<event>
 7    1  0.6073302E-013  0.5052885E+02  0.7816164E-02  0.1300439E+00
        -11   -1    0    0    0    0  0.00000000000E+00  0.00000000000E+00  0.45593999997E+02  0.45594000000E+02  0.51100000000E-03 0. -1.
         11   -1    0    0    0    0 -0.00000000000E+00 -0.00000000000E+00 -0.45593999997E+02  0.45594000000E+02  0.51100000000E-03 0.  1.
    9900012    2    1    2    0    0 -0.25172037769E+02 -0.28255772017E+02 -0.14870985816E+02  0.50528851499E+02  0.29999974616E+02 0.  0.
         12    1    1    2    0    0  0.25172037769E+02  0.28255772017E+02  0.14870985816E+02  0.40659148501E+02  0.00000000000E+00 0. -1.
         11    1    3    3    0    0 -0.12765439474E+02 -0.27360010359E+01  0.15813037647E+01  0.13150766840E+02  0.51100000000E-03 0. -1.
        -11    1    3    3    0    0 -0.10591138118E+02 -0.27740131104E+02 -0.11881844312E+02  0.31982265474E+02  0.51100000000E-03 0.  1.
        -12    1    3    3    0    0 -0.18154601765E+01  0.22203601226E+01 -0.45704452679E+01  0.53958191847E+01  0.00000000000E+00 0.  1.
</event>
<event>
 7    1  0.6073302E-013  0.5052887E+02  0.7816164E-02  0.1300439E+00
        -11   -1    0    0    0    0  0.00000000000E+00  0.00000000000E+00  0.45593999997E+02  0.45594000000E+02  0.51100000000E-03 0.  1.
         11   -1    0    0    0    0 -0.00000000000E+00 -0.00000000000E+00 -0.45593999997E+02  0.45594000000E+02  0.51100000000E-03 0. -1.
    9900012    2    1    2    0    0 -0.37865147089E+02 -0.99519693698E+01  0.10970602355E+02  0.50528866039E+02  0.30000018812E+02 0.  0.
         12    1    1    2    0    0  0.37865147089E+02  0.99519693698E+01 -0.10970602355E+02  0.40659133961E+02  0.00000000000E+00 0. -1.
         11    1    3    3    0    0 -0.20104533983E+02 -0.19753498612E+02  0.45917011254E+01  0.28556552900E+02  0.51100000000E-03 0. -1.
        -11    1    3    3    0    0 -0.16127965148E+02  0.67236365210E+01  0.46429828929E+01  0.18079707915E+02  0.51100000000E-03 0.  1.
         12    1    3    3    0    0 -0.16326479586E+01  0.30778927208E+01  0.17359183362E+01  0.38926052237E+01  0.00000000000E+00 0. -1.
</event>
<event>
 7    1  0.6073302E-013  0.5052888E+02  0.7816164E-02  0.1300439E+00
        -11   -1    0    0    0    0  0.00000000000E+00  0.00000000000E+00  0.45593999997E+02  0.45594000000E+02  0.51100000000E-03 0. -1.
         11   -1    0    0    0    0 -0.00000000000E+00 -0.00000000000E+00 -0.45593999997E+02  0.45594000000E+02  0.51100000000E-03 0.  1.
    9900012    2    1    2    0    0 -0.28718425356E+02  0.25194816290E+02  0.13915351383E+02  0.50528883840E+02  0.30000072919E+02 0.  0.
         12    1    1    2    0    0  0.28718425356E+02 -0.25194816290E+02 -0.13915351383E+02  0.40659116160E+02  0.00000000000E+00 0. -1.
         11    1    3    3    0    0 -0.52727883213E+01 -0.42072474518E+01 -0.34257903736E+01  0.75656637347E+01  0.51100000000E-03 0. -1.
        -11    1    3    3    0    0 -0.13980586589E+02  0.91599787461E+01  0.50506079141E+01  0.17460545598E+02  0.51100000000E-03 0.  1.
         12    1    3    3    0    0 -0.94650504460E+01  0.20242084995E+02  0.12290533842E+02  0.25502674508E+02  0.00000000000E+00 0. -1.
</event>
<event>
 7    1  0.6073302E-013  0.5052887E+02  0.7816164E-02  0.1300439E+00
        -11   -1    0    0    0    0  0.00000000000E+00  0.00000000000E+00  0.45593999997E+02  0.45594000000E+02  0.51100000000E-03 0.  1.
         11   -1    0    0    0    0 -0.00000000000E+00 -0.00000000000E+00 -0.45593999997E+02  0.45594000000E+02  0.51100000000E-03 0. -1.
    9900012    2    1    2    0    0 -0.60883444524E+01 -0.35975016157E+02  0.17941426494E+02  0.50528874206E+02  0.30000043636E+02 0.  0.
         12    1    1    2    0    0  0.60883444524E+01  0.35975016157E+02 -0.17941426494E+02  0.40659125794E+02  0.00000000000E+00 0. -1.
         11    1    3    3    0    0 -0.84203221887E+01 -0.79513114685E+01  0.97533038114E-01  0.11581653284E+02  0.51100000000E-03 0. -1.
        -11    1    3    3    0    0  0.48550085759E+01  0.13166281607E+01  0.38950923475E+01  0.63621036334E+01  0.51100000000E-03 0.  1.
        -12    1    3    3    0    0 -0.25230308395E+01 -0.29340332850E+02  0.13948801109E+02  0.32585117289E+02  0.00000000000E+00 0.  1.
</event>
<event>
 7    1  0.6073302E-013  0.5052886E+02  0.7816164E-02  0.1300439E+00
        -11   -1    0    0    0    0  0.00000000000E+00  0.00000000000E+00  0.45593999997E+02  0.45594000000E+02  0.51100000000E-03 0.  1.
         11   -1    0    0    0    0 -0.00000000000E+00 -0.00000000000E+00 -0.45593999997E+02  0.45594000000E+02  0.51100000000E-03 0. -1.
    9900012    2    1    2    0    0 -0.98101958490E+01 -0.34766405274E+02  0.18660735467E+02  0.50528856792E+02  0.29999990704E+02 0.  0.
         12    1    1    2    0    0  0.98101958490E+01  0.34766405274E+02 -0.18660735467E+02  0.40659143208E+02  0.00000000000E+00 0. -1.
         11    1    3    3    0    0 -0.16222262668E+01 -0.11657452589E+01  0.55958651692E+01  0.59417411019E+01  0.51100000000E-03 0. -1.
        -11    1    3    3    0    0 -0.48605345086E+01 -0.33747785652E+02  0.32829410829E+01  0.34253693735E+02  0.51100000000E-03 0.  1.
        -12    1    3    3    0    0 -0.33274350736E+01  0.14712563672E+00  0.97819292150E+01  0.10333421955E+02  0.00000000000E+00 0.  1.
</event>
<event>
 7    1  0.6073302E-013  0.5052886E+02  0.7816164E-02  0.1300439E+00
        -11   -1    0    0    0    0  0.00000000000E+00  0.00000000000E+00  0.45593999997E+02  0.45594000000E+02  0.51100000000E-03 0. -1.
         11   -1    0    0    0    0 -0.00000000000E+00 -0.00000000000E+00 -0.45593999997E+02  0.45594000000E+02  0.51100000000E-03 0.  1.
    9900012    2    1    2    0    0  0.11657610958E+02 -0.10348286002E+02 -0.37552346961E+02  0.50528859838E+02  0.29999999963E+02 0.  0.
         12    1    1    2    0    0 -0.11657610958E+02  0.10348286002E+02  0.37552346961E+02  0.40659140162E+02  0.00000000000E+00 0. -1.
         11    1    3    3    0    0 -0.66856355112E+01  0.43830916774E+01 -0.17060829385E+02  0.18840942503E+02  0.51100000000E-03 0. -1.
        -11    1    3    3    0    0  0.12568749919E+02 -0.88149819386E+01 -0.16397934484E+02  0.22462627556E+02  0.51100000000E-03 0.  1.
         12    1    3    3    0    0  0.57744965500E+01 -0.59163957411E+01 -0.40935830918E+01  0.92252897787E+01  0.00000000000E+00 0. -1.
</event>
<event>
 7    1  0.6073302E-013  0.5052887E+02  0.7816164E-02  0.1300439E+00
        -11   -1    0    0    0    0  0.00000000000E+00  0.00000000000E+00  0.45593999997E+02  0.45594000000E+02  0.51100000000E-03 0. -1.
         11   -1    0    0    0    0 -0.00000000000E+00 -0.00000000000E+00 -0.45593999997E+02  0.45594000000E+02  0.51100000000E-03 0.  1.
    9900012    2    1    2    0    0  0.36981937967E+02  0.56299734781E+00 -0.16887394061E+02  0.50528870890E+02  0.30000033556E+02 0.  0.
         12    1    1    2    0    0 -0.36981937967E+02 -0.56299734781E+00  0.16887394061E+02  0.40659129110E+02  0.00000000000E+00 0. -1.
         11    1    3    3    0    0 -0.34261531377E+01 -0.17956078213E+00 -0.83734585575E+01  0.90490649170E+01  0.51100000000E-03 0. -1.
        -11    1    3    3    0    0  0.25457246558E+02 -0.67648258466E+00 -0.68396501862E+01  0.26368728561E+02  0.51100000000E-03 0.  1.
         12    1    3    3    0    0  0.14950844547E+02  0.14190407146E+01 -0.16742853177E+01  0.15111077411E+02  0.00000000000E+00 0. -1.
</event>
<event>
 7    1  0.6073302E-013  0.5052886E+02  0.7816164E-02  0.1300439E+00
        -11   -1    0    0    0    0  0.00000000000E+00  0.00000000000E+00  0.45593999997E+02  0.45594000000E+02  0.51100000000E-03 0.  1.
         11   -1    0    0    0    0 -0.00000000000E+00 -0.00000000000E+00 -0.45593999997E+02  0.45594000000E+02  0.51100000000E-03 0. -1.
    9900012    2    1    2    0    0  0.66237120102E+01  0.35580167245E+02  0.18529534869E+02  0.50528861735E+02  0.30000005731E+02 0.  0.
         12    1    1    2    0    0 -0.66237120102E+01 -0.35580167245E+02 -0.18529534869E+02  0.40659138265E+02  0.00000000000E+00 0. -1.
         11    1    3    3    0    0  0.13935379383E+02  0.82057065750E+01 -0.68778827163E+00  0.16186459524E+02  0.51100000000E-03 0. -1.
        -11    1    3    3    0    0 -0.40687771758E+01  0.16935908916E+02  0.13282787257E+02  0.21904620428E+02  0.51100000000E-03 0.  1.
         12    1    3    3    0    0 -0.32428901969E+01  0.10438551753E+02  0.59345358841E+01  0.12437781784E+02  0.00000000000E+00 0. -1.
</event>
<event>
 7    1  0.6073302E-013  0.5052886E+02  0.7816164E-02  0.1300439E+00
        -11   -1    0    0    0    0  0.00000000000E+00  0.00000000000E+00  0.45593999997E+02  0.45594000000E+02  0.51100000000E-03 0. -1.
         11   -1    0    0    0    0 -0.00000000000E+00 -0.00000000000E+00 -0.45593999997E+02  0.45594000000E+02  0.51100000000E-03 0.  1.
    9900012    2    1    2    0    0 -0.60916433216E+01  0.37700912417E+02 -0.13953452017E+02  0.50528859101E+02  0.29999997723E+02 0.  0.
         12    1    1    2    0    0  0.60916433216E+01 -0.37700912417E+02  0.13953452017E+02  0.40659140899E+02  0.00000000000E+00 0. -1.
         11    1    3    3    0    0 -0.21878572709E+01  0.68108292237E+01  0.75626632236E+01  0.10409994690E+02  0.51100000000E-03 0. -1.
        -11    1    3    3    0    0 -0.72642665009E+01  0.28248110373E+02 -0.16435278675E+02  0.33479003761E+02  0.51100000000E-03 0.  1.
        -12    1    3    3    0    0  0.33604804501E+01  0.26419728208E+01 -0.50808365659E+01  0.66398606500E+01  0.00000000000E+00 0.  1.
</event>
<event>
 7    1  0.6073302E-013  0.5052885E+02  0.7816164E-02  0.1300439E+00
        -11   -1    0    0    0    0  0.00000000000E+00  0.00000000000E+00  0.45593999997E+02  0.45594000000E+02  0.51100000000E-03 0. -1.
         11   -1    0    0    0    0 -0.00000000000E+00 -0.00000000000E+00 -0.45593999997E+02  0.45594000000E+02  0.51100000000E-03 0.  1.
    9900012    2    1    2    0    0 -0.16627789896E+01 -0.19351563518E+02 -0.35719998022E+02  0.50528854618E+02  0.29999984096E+02 0.  0.
         12    1    1    2    0    0  0.16627789896E+01  0.19351563518E+02  0.35719998022E+02  0.40659145382E+02  0.00000000000E+00 0. -1.
         11    1    3    3    0    0  0.11115388279E+02 -0.17452939300E+01 -0.17398323423E+02  0.20719545499E+02  0.51100000000E-03 0. -1.
        -11    1    3    3    0    0 -0.10293011030E+02 -0.97362540355E+01 -0.15704579316E+02  0.21151229999E+02  0.51100000000E-03 0.  1.
         12    1    3    3    0    0 -0.24851562386E+01 -0.78700155524E+01 -0.26170952828E+01  0.86580791197E+01  0.00000000000E+00 0. -1.
</event>
<event>
 7    1  0.6073302E-013  0.5052887E+02  0.7816164E-02  0.1300439E+00
        -11   -1    0    0    0    0  0.00000000000E+00  0.00000000000E+00  0.45593999997E+02  0.45594000000E+02  0.51100000000E-03 0. -1.
         11   -1    0    0    0    0 -0.00000000000E+00 -0.00000000000E+00 -0.45593999997E+02  0.45594000000E+02  0.51100000000E-03 0.  1.
    9900012    2    1    2    0    0 -0.10582731231E+01  0.29851178853E+02 -0.27585357204E+02  0.50528871222E+02  0.30000034566E+02 0.  0.
         12    1    1    2    0    0  0.10582731231E+01 -0.29851178853E+02  0.27585357204E+02  0.40659128778E+02  0.00000000000E+00 0. -1.
         11    1    3    3    0    0  0.32414172667E+01 -0.36106161241E+01 -0.33765362560E+01  0.59113731096E+01  0.51100000000E-03 0. -1.
        -11    1    3    3    0    0 -0.55213402739E+01  0.28907522893E+02 -0.12462394613E+02  0.31959996214E+02  0.51100000000E-03 0.  1.
        -12    1    3    3    0    0  0.12216498842E+01  0.45542720836E+01 -0.11746426335E+02  0.12657501898E+02  0.00000000000E+00 0.  1.
</event>
<event>
 7    1  0.6073302E-013  0.5052886E+02  0.7816164E-02  0.1300439E+00
        -11   -1    0    0    0    0  0.00000000000E+00  0.00000000000E+00  0.45593999997E+02  0.45594000000E+02  0.51100000000E-03 0.  1.
         11   -1    0    0    0    0 -0.00000000000E+00 -0.00000000000E+00 -0.45593999997E+02  0.45594000000E+02  0.51100000000E-03 0. -1.
    9900012    2    1    2    0    0 -0.31903750765E+02  0.23709237256E+02  0.85550047615E+01  0.50528863872E+02  0.30000012227E+02 0.  0.
         12    1    1    2    0    0  0.31903750765E+02 -0.23709237256E+02 -0.85550047615E+01  0.40659136128E+02  0.00000000000E+00 0. -1.
         11    1    3    3    0    0 -0.34465456006E+02  0.14084795871E+02  0.38471868291E+01  0.37430602175E+02  0.51100000000E-03 0. -1.
        -11    1    3    3    0    0 -0.65639515871E+00  0.84869794945E+01  0.20069532924E+01  0.87457153695E+01  0.51100000000E-03 0.  1.
        -12    1    3    3    0    0  0.32181003994E+01  0.11374618911E+01  0.27008646400E+01  0.43525463280E+01  0.00000000000E+00 0.  1.
</event>
<event>
 7    1  0.6073302E-013  0.5052886E+02  0.7816164E-02  0.1300439E+00
        -11   -1    0    0    0    0  0.00000000000E+00  0.00000000000E+00  0.45593999997E+02  0.45594000000E+02  0.51100000000E-03 0.  1.
         11   -1    0    0    0    0 -0.00000000000E+00 -0.00000000000E+00 -0.45593999997E+02  0.45594000000E+02  0.51100000000E-03 0. -1.
    9900012    2    1    2    0    0 -0.36972091720E+02 -0.11647791416E+02  0.12270244330E+02  0.50528861950E+02  0.30000006385E+02 0.  0.
         12    1    1    2    0    0  0.36972091720E+02  0.11647791416E+02 -0.12270244330E+02  0.40659138050E+02  0.00000000000E+00 0. -1.
         11    1    3    3    0    0 -0.15291000971E+02 -0.13928492715E+02 -0.46290257721E+01  0.21195412237E+02  0.51100000000E-03 0. -1.
        -11    1    3    3    0    0 -0.14527427512E+02  0.30865561504E+01  0.54720924757E+01  0.15827721734E+02  0.51100000000E-03 0.  1.
         12    1    3    3    0    0 -0.71536632370E+01 -0.80585485078E+00  0.11427177626E+02  0.13505727979E+02  0.00000000000E+00 0. -1.
</event>
<event>
 7    1  0.6073302E-013  0.5052886E+02  0.7816164E-02  0.1300439E+00
        -11   -1    0    0    0    0  0.00000000000E+00  0.00000000000E+00  0.45593999997E+02  0.45594000000E+02  0.51100000000E-03 0. -1.
         11   -1    0    0    0    0 -0.00000000000E+00 -0.00000000000E+00 -0.45593999997E+02  0.45594000000E+02  0.51100000000E-03 0.  1.
    9900012    2    1    2    0    0  0.15526777989E+02  0.32633275014E+02 -0.18632079390E+02  0.50528857667E+02  0.29999993366E+02 0.  0.
         12    1    1    2    0    0 -0.15526777989E+02 -0.32633275014E+02  0.18632079390E+02  0.40659142333E+02  0.00000000000E+00 0. -1.
         11    1    3    3    0    0  0.13480086336E+02  0.66425138630E+01  0.50827718138E+00  0.15036424575E+02  0.51100000000E-03 0. -1.
        -11    1    3    3    0    0 -0.42071900323E+01  0.20249698991E+02 -0.16909323753E+02  0.26714714808E+02  0.51100000000E-03 0.  1.
        -12    1    3    3    0    0  0.62538816844E+01  0.57410621596E+01 -0.22310328180E+01  0.87777182843E+01  0.00000000000E+00 0.  1.
</event>
<event>
 7    1  0.6073302E-013  0.5052886E+02  0.7816164E-02  0.1300439E+00
        -11   -1    0    0    0    0  0.00000000000E+00  0.00000000000E+00  0.45593999997E+02  0.45594000000E+02  0.51100000000E-03 0. -1.
         11   -1    0    0    0    0 -0.00000000000E+00 -0.00000000000E+00 -0.45593999997E+02  0.45594000000E+02  0.51100000000E-03 0.  1.
    9900012    2    1    2    0    0 -0.11408653326E+02 -0.37677378448E+02  0.10169740131E+02  0.50528857956E+02  0.29999994244E+02 0.  0.
         12    1    1    2    0    0  0.11408653326E+02  0.37677378448E+02 -0.10169740131E+02  0.40659142044E+02  0.00000000000E+00 0. -1.
         11    1    3    3    0    0 -0.13140727088E+02 -0.88374502874E+01  0.99146991773E+01  0.18683695994E+02  0.51100000000E-03 0. -1.
        -11    1    3    3    0    0  0.67986357671E+01 -0.10488055288E+02 -0.20566699623E+01  0.12666911368E+02  0.51100000000E-03 0.  1.
         12    1    3    3    0    0 -0.50665620055E+01 -0.18351872872E+02  0.23117109159E+01  0.19178250594E+02  0.00000000000E+00 0. -1.
</event>
<event>
 7    1  0.6073302E-013  0.5052885E+02  0.7816164E-02  0.1300439E+00
        -11   -1    0    0    0    0  0.00000000000E+00  0.00000000000E+00  0.45593999997E+02  0.45594000000E+02  0.51100000000E-03 0.  1.
         11   -1    0    0    0    0 -0.00000000000E+00 -0.00000000000E+00 -0.45593999997E+02  0.45594000000E+02  0.51100000000E-03 0. -1.
    9900012    2    1    2    0    0  0.17201707653E+02 -0.23990221277E+02  0.27959558390E+02  0.50528851356E+02  0.29999974183E+02 0.  0.
         12    1    1    2    0    0 -0.17201707653E+02  0.23990221277E+02 -0.27959558390E+02  0.40659148644E+02  0.00000000000E+00 0. -1.
         11    1    3    3    0    0  0.40296583361E+01 -0.24288884903E+02  0.10879901077E+02  0.26917658216E+02  0.51100000000E-03 0. -1.
        -11    1    3    3    0    0  0.56386676965E+01  0.14966357829E+01  0.11455308915E+01  0.59453118793E+01  0.51100000000E-03 0.  1.
         12    1    3    3    0    0  0.75333816199E+01 -0.11979721570E+01  0.15934126421E+02  0.17665881261E+02  0.00000000000E+00 0. -1.
</event>
<event>
 7    1  0.6073302E-013  0.5052886E+02  0.7816164E-02  0.1300439E+00
        -11   -1    0    0    0    0  0.00000000000E+00  0.00000000000E+00  0.45593999997E+02  0.45594000000E+02  0.51100000000E-03 0.  1.
         11   -1    0    0    0    0 -0.00000000000E+00 -0.00000000000E+00 -0.45593999997E+02  0.45594000000E+02  0.51100000000E-03 0. -1.
    9900012    2    1    2    0    0  0.29679187924E+02  0.42980496380E+01  0.27456120424E+02  0.50528856191E+02  0.29999988878E+02 0.  0.
         12    1    1    2    0    0 -0.29679187924E+02 -0.42980496380E+01 -0.27456120424E+02  0.40659143809E+02  0.00000000000E+00 0. -1.
         11    1    3    3    0    0  0.21508137207E+02  0.74079248353E+01  0.38159535712E+01  0.23065966670E+02  0.51100000000E-03 0. -1.
        -11    1    3    3    0    0  0.30375958912E+01 -0.51050791545E+01  0.19993841561E+02  0.20857672991E+02  0.51100000000E-03 0.  1.
        -12    1    3    3    0    0  0.51334548255E+01  0.19952039572E+01  0.36463252922E+01  0.66052165303E+01  0.00000000000E+00 0.  1.
</event>
<event>
 7    1  0.6073302E-013  0.5052885E+02  0.7816164E-02  0.1300439E+00
        -11   -1    0    0    0    0  0.00000000000E+00  0.00000000000E+00  0.45593999997E+02  0.45594000000E+02  0.51100000000E-03 0. -1.
         11   -1    0    0    0    0 -0.00000000000E+00 -0.00000000000E+00 -0.45593999997E+02  0.45594000000E+02  0.51100000000E-03 0.  1.
    9900012    2    1    2    0    0 -0.28340805871E+02 -0.24729191105E+02 -0.15441246666E+02  0.50528852582E+02  0.29999977909E+02 0.  0.
         12    1    1    2    0    0  0.28340805871E+02  0.24729191105E+02  0.15441246666E+02  0.40659147418E+02  0.00000000000E+00 0. -1.
         11    1    3    3    0    0 -0.47533196705E+01 -0.17930636891E+02 -0.11302958319E+01  0.18584384739E+02  0.51100000000E-03 0. -1.
        -11    1    3    3    0    0 -0.17879724501E+02 -0.92195271700E+01 -0.15786386064E+02  0.25571355355E+02  0.51100000000E-03 0.  1.
         12    1    3    3    0    0 -0.57077616999E+01  0.24209729556E+01  0.14754352300E+01  0.63731124886E+01  0.00000000000E+00 0. -1.
</event>
<event>
 7    1  0.6073302E-013  0.5052886E+02  0.7816164E-02  0.1300439E+00
        -11   -1    0    0    0    0  0.00000000000E+00  0.00000000000E+00  0.45593999997E+02  0.45594000000E+02  0.51100000000E-03 0.  1.
         11   -1    0    0    0    0 -0.00000000000E+00 -0.00000000000E+00 -0.45593999997E+02  0.45594000000E+02  0.51100000000E-03 0. -1.
    9900012    2    1    2    0    0  0.38064709774E-02  0.31447800168E+02  0.25772106517E+02  0.50528860508E+02  0.30000002001E+02 0.  0.
         12    1    1    2    0    0 -0.38064709774E-02 -0.31447800168E+02 -0.25772106517E+02  0.40659139492E+02  0.00000000000E+00 0. -1.
         11    1    3    3    0    0  0.73953407704E+01  0.96646930047E+01  0.33136612946E+00  0.12174036297E+02  0.51100000000E-03 0. -1.
        -11    1    3    3    0    0 -0.95108855880E+01  0.23055952007E+02  0.25767862250E+02  0.35861073503E+02  0.51100000000E-03 0.  1.
         12    1    3    3    0    0  0.21193512886E+01 -0.12728448439E+01 -0.32712186261E+00  0.24937507081E+01  0.00000000000E+00 0. -1.
</event>
<event>
 7    1  0.6073302E-013  0.5052886E+02  0.7816164E-02  0.1300439E+00
        -11   -1    0    0    0    0  0.00000000000E+00  0.00000000000E+00  0.45593999997E+02  0.45594000000E+02  0.51100000000E-03 0.  1.
         11   -1    0    0    0    0 -0.00000000000E+00 -0.00000000000E+00 -0.45593999997E+02  0.45594000000E+02  0.51100000000E-03 0. -1.
    9900012    2    1    2    0    0  0.43044454036E+00  0.43136797519E+01  0.40427372574E+02  0.50528861190E+02  0.30000004074E+02 0.  0.
         12    1    1    2    0    0 -0.43044454036E+00 -0.43136797519E+01 -0.40427372574E+02  0.40659138810E+02  0.00000000000E+00 0. -1.
         11    1    3    3    0    0  0.32990102997E+01 -0.30650941907E+01  0.41484623755E+02  0.41728315083E+02  0.51100000000E-03 0. -1.
        -11    1    3    3    0    0 -0.81695111283E+00  0.38252470914E+01  0.12332026712E+01  0.41013063188E+01  0.51100000000E-03 0.  1.
         12    1    3    3    0    0 -0.20516146465E+01  0.35535268512E+01 -0.22904538518E+01  0.46992397882E+01  0.00000000000E+00 0. -1.
</event>
<event>
 7    1  0.6073302E-013  0.5052886E+02  0.7816164E-02  0.1300439E+00
        -11   -1    0    0    0    0  0.00000000000E+00  0.00000000000E+00  0.45593999997E+02  0.45594000000E+02  0.51100000000E-03 0.  1.
         11   -1    0    0    0    0 -0.00000000000E+00 -0.00000000000E+00 -0.45593999997E+02  0.45594000000E+02  0.51100000000E-03 0. -1.
    9900012    2    1    2    0    0 -0.11222315755E+02  0.23919201331E+01  0.39006463345E+02  0.50528857910E+02  0.29999994103E+02 0.  0.
         12    1    1    2    0    0  0.11222315755E+02 -0.23919201331E+01 -0.39006463345E+02  0.40659142090E+02  0.00000000000E+00 0. -1.
         11    1    3    3    0    0  0.27305221896E+00  0.82674249806E+01  0.23509128737E+01  0.85995153890E+01  0.51100000000E-03 0. -1.
        -11    1    3    3    0    0 -0.13147901798E+02 -0.90136203581E+01  0.24198384818E+02  0.28977137569E+02  0.51100000000E-03 0.  1.
         12    1    3    3    0    0  0.16525338239E+01  0.31381155106E+01  0.12457165654E+02  0.12952204952E+02  0.00000000000E+00 0. -1.
</event>
<event>
 7    1  0.6073302E-013  0.5052884E+02  0.7816164E-02  0.1300439E+00
        -11   -1    0    0    0    0  0.00000000000E+00  0.00000000000E+00  0.45593999997E+02  0.45594000000E+02  0.51100000000E-03 0.  1.
         11   -1    0    0    0    0 -0.00000000000E+00 -0.00000000000E+00 -0.45593999997E+02  0.45594000000E+02  0.51100000000E-03 0. -1.
    9900012    2    1    2    0    0 -0.10458057278E+01 -0.40559354035E+02  0.26480547305E+01  0.50528842320E+02  0.29999946716E+02 0.  0.
         12    1    1    2    0    0  0.10458057278E+01  0.40559354035E+02 -0.26480547305E+01  0.40659157680E+02  0.00000000000E+00 0. -1.
         11    1    3    3    0    0  0.11162292329E+02 -0.26851405092E+02 -0.18051817047E+01  0.29135088925E+02  0.51100000000E-03 0. -1.
        -11    1    3    3    0    0 -0.49198749428E+01 -0.95691144331E+01 -0.18356963540E+01  0.10915260045E+02  0.51100000000E-03 0.  1.
         12    1    3    3    0    0 -0.72882231135E+01 -0.41388345103E+01  0.62889327892E+01  0.10478493350E+02  0.00000000000E+00 0. -1.
</event>
<event>
 7    1  0.6073302E-013  0.5052886E+02  0.7816164E-02  0.1300439E+00
        -11   -1    0    0    0    0  0.00000000000E+00  0.00000000000E+00  0.45593999997E+02  0.45594000000E+02  0.51100000000E-03 0.  1.
         11   -1    0    0    0    0 -0.00000000000E+00 -0.00000000000E+00 -0.45593999997E+02  0.45594000000E+02  0.51100000000E-03 0. -1.
    9900012    2    1    2    0    0 -0.37369225256E+01  0.11670152039E+02  0.38768659875E+02  0.50528855554E+02  0.29999986943E+02 0.  0.
         12    1    1    2    0    0  0.37369225256E+01 -0.11670152039E+02 -0.38768659875E+02  0.40659144446E+02  0.00000000000E+00 0. -1.
         11    1    3    3    0    0  0.75977862842E+01 -0.17814847497E+01  0.14956952831E+02  0.16870402561E+02  0.51100000000E-03 0. -1.
        -11    1    3    3    0    0 -0.14134332973E+02  0.84259088264E+01  0.22293200498E+02  0.27708520293E+02  0.51100000000E-03 0.  1.
        -12    1    3    3    0    0  0.27996241630E+01  0.50257279620E+01  0.15185065463E+01  0.59499326999E+01  0.00000000000E+00 0.  1.
</event>
<event>
 7    1  0.6073302E-013  0.5052887E+02  0.7816164E-02  0.1300439E+00
        -11   -1    0    0    0    0  0.00000000000E+00  0.00000000000E+00  0.45593999997E+02  0.45594000000E+02  0.51100000000E-03 0. -1.
         11   -1    0    0    0    0 -0.00000000000E+00 -0.00000000000E+00 -0.45593999997E+02  0.45594000000E+02  0.51100000000E-03 0.  1.
    9900012    2    1    2    0    0 -0.32253631686E+02  0.52748035157E+01 -0.24187695326E+02  0.50528869239E+02  0.30000028540E+02 0.  0.
         12    1    1    2    0    0  0.32253631686E+02 -0.52748035157E+01  0.24187695326E+02  0.40659130761E+02  0.00000000000E+00 0. -1.
         11    1    3    3    0    0 -0.16968744744E+02  0.26473751071E+01  0.24692628474E+01  0.17350623978E+02  0.51100000000E-03 0. -1.
        -11    1    3    3    0    0 -0.15237745728E+02 -0.17840365494E+01 -0.20705925200E+02  0.25770273959E+02  0.51100000000E-03 0.  1.
         12    1    3    3    0    0 -0.47141213711E-01  0.44114649581E+01 -0.59510329731E+01  0.74079713024E+01  0.00000000000E+00 0. -1.
</event>
<event>
 7    1  0.6073302E-013  0.5052886E+02  0.7816164E-02  0.1300439E+00
        -11   -1    0    0    0    0  0.00000000000E+00  0.00000000000E+00  0.45593999997E+02  0.45594000000E+02  0.51100000000E-03 0.  1.
         11   -1    0    0    0    0 -0.00000000000E+00 -0.00000000000E+00 -0.45593999997E+02  0.45594000000E+02  0.51100000000E-03 0. -1.
    9900012    2    1    2    0    0  0.68281660807E+01  0.15603585380E+02  0.36919778446E+02  0.50528858725E+02  0.29999996581E+02 0.  0.
         12    1    1    2    0    0 -0.68281660807E+01 -0.15603585380E+02 -0.36919778446E+02  0.40659141275E+02  0.00000000000E+00 0. -1.
         11    1    3    3    0    0  0.24435240772E+01  0.28907230231E+01  0.33064364932E+01  0.50258941550E+01  0.51100000000E-03 0. -1.
        -11    1    3    3    0    0 -0.52400524099E+01  0.17540547047E+02  0.27744489738E+02  0.33239820262E+02  0.51100000000E-03 0.  1.
        -12    1    3    3    0    0  0.96246944133E+01 -0.48276846897E+01  0.58688522142E+01  0.12263144308E+02  0.00000000000E+00 0.  1.
</event>
<event>
 7    1  0.6073302E-013  0.5052888E+02  0.7816164E-02  0.1300439E+00
        -11   -1    0    0    0    0  0.00000000000E+00  0.00000000000E+00  0.45593999997E+02  0.45594000000E+02  0.51100000000E-03 0.  1.
         11   -1    0    0    0    0 -0.00000000000E+00 -0.00000000000E+00 -0.45593999997E+02  0.45594000000E+02  0.51100000000E-03 0. -1.
    9900012    2    1    2    0    0 -0.61908930677E+01  0.37440563606E+01  0.40010232261E+02  0.50528882934E+02  0.30000070166E+02 0.  0.
         12    1    1    2    0    0  0.61908930677E+01 -0.37440563606E+01 -0.40010232261E+02  0.40659117066E+02  0.00000000000E+00 0. -1.
         11    1    3    3    0    0 -0.21587642507E+01  0.15497546608E+02  0.20323889813E+02  0.25649458305E+02  0.51100000000E-03 0. -1.
        -11    1    3    3    0    0  0.67093704110E+00 -0.18901421211E+01  0.10241668034E+02  0.10436213783E+02  0.51100000000E-03 0.  1.
         12    1    3    3    0    0 -0.47030658581E+01 -0.98633481265E+01  0.94446744140E+01  0.14443210845E+02  0.00000000000E+00 0. -1.
</event>
<event>
 7    1  0.6073302E-013  0.5052886E+02  0.7816164E-02  0.1300439E+00
        -11   -1    0    0    0    0  0.00000000000E+00  0.00000000000E+00  0.45593999997E+02  0.45594000000E+02  0.51100000000E-03 0.  1.
         11   -1    0    0    0    0 -0.00000000000E+00 -0.00000000000E+00 -0.45593999997E+02  0.45594000000E+02  0.51100000000E-03 0. -1.
    9900012    2    1    2    0    0 -0.16482756337E+01 -0.12189301559E+02  0.38753961847E+02  0.50528862725E+02  0.30000008739E+02 0.  0.
         12    1    1    2    0    0  0.16482756337E+01  0.12189301559E+02 -0.38753961847E+02  0.40659137275E+02  0.00000000000E+00 0. -1.
         11    1    3    3    0    0  0.21856001450E+01 -0.45744852010E+01 -0.24995053999E+01  0.56524587883E+01  0.51100000000E-03 0. -1.
        -11    1    3    3    0    0 -0.90986134603E+01 -0.14155966231E+01  0.26125780568E+02  0.27700994409E+02  0.51100000000E-03 0.  1.
         12    1    3    3    0    0  0.52647376816E+01 -0.61992197354E+01  0.15127686679E+02  0.17175409528E+02  0.00000000000E+00 0. -1.
</event>
<event>
 7    1  0.6073302E-013  0.5052887E+02  0.7816164E-02  0.1300439E+00
        -11   -1    0    0    0    0  0.00000000000E+00  0.00000000000E+00  0.45593999997E+02  0.45594000000E+02  0.51100000000E-03 0. -1.
         11   -1    0    0    0    0 -0.00000000000E+00 -0.00000000000E+00 -0.45593999997E+02  0.45594000000E+02  0.51100000000E-03 0.  1.
    9900012    2    1    2    0    0  0.22395185855E+01 -0.20793491621E+02 -0.34868037372E+02  0.50528871044E+02  0.30000034025E+02 0.  0.
         12    1    1    2    0    0 -0.22395185855E+01  0.20793491621E+02  0.34868037372E+02  0.40659128956E+02  0.00000000000E+00 0. -1.
         11    1    3    3    0    0  0.12487115713E+01 -0.12000657243E+02  0.93366055721E+00  0.12101519622E+02  0.51100000000E-03 0. -1.
        -11    1    3    3    0    0  0.16559206068E+01 -0.84889755171E+01 -0.13001904520E+02  0.15615834905E+02  0.51100000000E-03 0.  1.
         12    1    3    3    0    0 -0.66511359255E+00 -0.30385886072E+00 -0.22799793410E+02  0.22811516517E+02  0.00000000000E+00 0. -1.
</event>
<event>
 7    1  0.6073302E-013  0.5052886E+02  0.7816164E-02  0.1300439E+00
        -11   -1    0    0    0    0  0.00000000000E+00  0.00000000000E+00  0.45593999997E+02  0.45594000000E+02  0.51100000000E-03 0.  1.
         11   -1    0    0    0    0 -0.00000000000E+00 -0.00000000000E+00 -0.45593999997E+02  0.45594000000E+02  0.51100000000E-03 0. -1.
    9900012    2    1    2    0    0  0.10927966987E+01 -0.23617937140E+02  0.33078152567E+02  0.50528864045E+02  0.30000012750E+02 0.  0.
         12    1    1    2    0    0 -0.10927966987E+01  0.23617937140E+02 -0.33078152567E+02  0.40659135955E+02  0.00000000000E+00 0. -1.
         11    1    3    3    0    0  0.57795134556E+01 -0.23843434861E+02  0.21647706909E+02  0.32719036912E+02  0.51100000000E-03 0. -1.
        -11    1    3    3    0    0  0.18855595088E+01  0.31733472177E+01  0.97329570834E+01  0.10409415021E+02  0.51100000000E-03 0.  1.
         12    1    3    3    0    0 -0.65722762657E+01 -0.29478494964E+01  0.16974885752E+01  0.74004121121E+01  0.00000000000E+00 0. -1.
</event>
<event>
 7    1  0.6073302E-013  0.5052886E+02  0.7816164E-02  0.1300439E+00
        -11   -1    0    0    0    0  0.00000000000E+00  0.00000000000E+00  0.45593999997E+02  0.45594000000E+02  0.51100000000E-03 0. -1.
         11   -1    0    0    0    0 -0.00000000000E+00 -0.00000000000E+00 -0.45593999997E+02  0.45594000000E+02  0.51100000000E-03 0.  1.
    9900012    2    1    2    0    0  0.19121839173E+01 -0.29433653337E+02 -0.27985164199E+02  0.50528858207E+02  0.29999995005E+02 0.  0.
         12    1    1    2    0    0 -0.19121839173E+01  0.29433653337E+02  0.27985164199E+02  0.40659141793E+02  0.00000000000E+00 0. -1.
         11    1    3    3    0    0  0.90004310558E+00 -0.50003804548E+01  0.39378516993E+00  0.50959738329E+01  0.51100000000E-03 0. -1.
        -11    1    3    3    0    0  0.36310701178E+01 -0.53462919649E+00 -0.19439561578E+02  0.19782999095E+02  0.51100000000E-03 0.  1.
        -12    1    3    3    0    0 -0.26189293060E+01 -0.23898643686E+02 -0.89393877916E+01  0.25649885279E+02  0.00000000000E+00 0.  1.
</event>
<event>
 7    1  0.6073302E-013  0.5052895E+02  0.7816164E-02  0.1300438E+00
        -11   -1    0    0    0    0  0.00000000000E+00  0.00000000000E+00  0.45593999997E+02  0.45594000000E+02  0.51100000000E-03 0.  1.
         11   -1    0    0    0    0 -0.00000000000E+00 -0.00000000000E+00 -0.45593999997E+02  0.45594000000E+02  0.51100000000E-03 0. -1.
    9900012    2    1    2    0    0 -0.25235474799E+02 -0.21137009390E+02  0.23865370429E+02  0.50528951068E+02  0.30000277266E+02 0.  0.
         12    1    1    2    0    0  0.25235474799E+02  0.21137009390E+02 -0.23865370429E+02  0.40659048932E+02  0.00000000000E+00 0. -1.
         11    1    3    3    0    0 -0.11908733352E+02 -0.16057808292E+02 -0.21476528468E+01  0.20106803580E+02  0.51100000000E-03 0. -1.
        -11    1    3    3    0    0 -0.43827512662E+01 -0.52065950922E+01  0.12072305302E+02  0.13858488254E+02  0.51100000000E-03 0.  1.
         12    1    3    3    0    0 -0.89439901811E+01  0.12739399468E+00  0.13940717974E+02  0.16563659234E+02  0.00000000000E+00 0. -1.
</event>
<event>
 7    1  0.6073302E-013  0.5052886E+02  0.7816164E-02  0.1300439E+00
        -11   -1    0    0    0    0  0.00000000000E+00  0.00000000000E+00  0.45593999997E+02  0.45594000000E+02  0.51100000000E-03 0. -1.
         11   -1    0    0    0    0 -0.00000000000E+00 -0.00000000000E+00 -0.45593999997E+02  0.45594000000E+02  0.51100000000E-03 0.  1.
    9900012    2    1    2    0    0 -0.39144510302E+02  0.56854117932E+01 -0.94100596114E+01  0.50528858151E+02  0.29999994836E+02 0.  0.
         12    1    1    2    0    0  0.39144510302E+02 -0.56854117932E+01  0.94100596114E+01  0.40659141849E+02  0.00000000000E+00 0. -1.
         11    1    3    3    0    0 -0.28770032517E+02  0.34974648825E-01 -0.15837079571E+02  0.32840966549E+02  0.51100000000E-03 0.  1.
        -11    1    3    3    0    0 -0.38017652513E+01 -0.18802010930E+01  0.64174325426E+01  0.76923348780E+01  0.51100000000E-03 0. -1.
        -12    1    3    3    0    0 -0.65727125335E+01  0.75306382374E+01  0.95874172123E-02  0.99955567243E+01  0.00000000000E+00 0.  1.
</event>
<event>
 7    1  0.6073302E-013  0.5052887E+02  0.7816164E-02  0.1300439E+00
        -11   -1    0    0    0    0  0.00000000000E+00  0.00000000000E+00  0.45593999997E+02  0.45594000000E+02  0.51100000000E-03 0.  1.
         11   -1    0    0    0    0 -0.00000000000E+00 -0.00000000000E+00 -0.45593999997E+02  0.45594000000E+02  0.51100000000E-03 0. -1.
    9900012    2    1    2    0    0  0.12023325600E+02 -0.14955984939E+02  0.35845820737E+02  0.50528871772E+02  0.30000036238E+02 0.  0.
         12    1    1    2    0    0 -0.12023325600E+02  0.14955984939E+02 -0.35845820737E+02  0.40659128228E+02  0.00000000000E+00 0. -1.
         11    1    3    3    0    0 -0.33838927548E+01 -0.11752945369E+02  0.13151422021E+02  0.17959464259E+02  0.51100000000E-03 0. -1.
        -11    1    3    3    0    0  0.13064354679E+02 -0.63439580833E+01  0.65066208294E+01  0.15914122100E+02  0.51100000000E-03 0.  1.
         12    1    3    3    0    0  0.23428636757E+01  0.31409185132E+01  0.16187777886E+02  0.16655285413E+02  0.00000000000E+00 0. -1.
</event>
<event>
 7    1  0.6073302E-013  0.5052887E+02  0.7816164E-02  0.1300439E+00
        -11   -1    0    0    0    0  0.00000000000E+00  0.00000000000E+00  0.45593999997E+02  0.45594000000E+02  0.51100000000E-03 0. -1.
         11   -1    0    0    0    0 -0.00000000000E+00 -0.00000000000E+00 -0.45593999997E+02  0.45594000000E+02  0.51100000000E-03 0.  1.
    9900012    2    1    2    0    0  0.31497013890E+02 -0.14584334752E+02 -0.21175470057E+02  0.50528865278E+02  0.30000016500E+02 0.  0.
         12    1    1    2    0    0 -0.31497013890E+02  0.14584334752E+02  0.21175470057E+02  0.40659134722E+02  0.00000000000E+00 0. -1.
         11    1    3    3    0    0  0.40149939406E+01 -0.14363246815E+01  0.19831595878E+01  0.47027786622E+01  0.51100000000E-03 0. -1.
        -11    1    3    3    0    0  0.73050724289E+01  0.58293293356E+01 -0.13644612772E+02  0.16538458866E+02  0.51100000000E-03 0.  1.
        -12    1    3    3    0    0  0.20176947521E+02 -0.18977339406E+02 -0.95140168724E+01  0.29287627750E+02  0.00000000000E+00 0.  1.
</event>
<event>
 7    1  0.6073302E-013  0.5052886E+02  0.7816164E-02  0.1300439E+00
        -11   -1    0    0    0    0  0.00000000000E+00  0.00000000000E+00  0.45593999997E+02  0.45594000000E+02  0.51100000000E-03 0. -1.
         11   -1    0    0    0    0 -0.00000000000E+00 -0.00000000000E+00 -0.45593999997E+02  0.45594000000E+02  0.51100000000E-03 0.  1.
    9900012    2    1    2    0    0 -0.35428684459E+02 -0.42353216307E+01 -0.19494516268E+02  0.50528858392E+02  0.29999995568E+02 0.  0.
         12    1    1    2    0    0  0.35428684459E+02  0.42353216307E+01  0.19494516268E+02  0.40659141608E+02  0.00000000000E+00 0. -1.
         11    1    3    3    0    0  0.13072680897E+01  0.43480751091E-01  0.21215963512E+01  0.24923907745E+01  0.51100000000E-03 0. -1.
        -11    1    3    3    0    0 -0.26445645187E+02  0.39690139246E+01 -0.56571003082E+01  0.27333642367E+02  0.51100000000E-03 0.  1.
        -12    1    3    3    0    0 -0.10290307362E+02 -0.82478163065E+01 -0.15959012311E+02  0.20702825251E+02  0.00000000000E+00 0.  1.
</event>
<event>
 7    1  0.6073302E-013  0.5052886E+02  0.7816164E-02  0.1300439E+00
        -11   -1    0    0    0    0  0.00000000000E+00  0.00000000000E+00  0.45593999997E+02  0.45594000000E+02  0.51100000000E-03 0. -1.
         11   -1    0    0    0    0 -0.00000000000E+00 -0.00000000000E+00 -0.45593999997E+02  0.45594000000E+02  0.51100000000E-03 0.  1.
    9900012    2    1    2    0    0  0.38956946432E+01 -0.99784555133E+01 -0.39222691565E+02  0.50528861485E+02  0.30000004970E+02 0.  0.
         12    1    1    2    0    0 -0.38956946432E+01  0.99784555133E+01  0.39222691565E+02  0.40659138515E+02  0.00000000000E+00 0. -1.
         11    1    3    3    0    0  0.89349988766E+01 -0.25767320985E+01 -0.13295073566E+02  0.16224448669E+02  0.51100000000E-03 0. -1.
        -11    1    3    3    0    0 -0.75385501968E+01 -0.32017600812E+01 -0.27867522301E+02  0.29046166807E+02  0.51100000000E-03 0.  1.
        -12    1    3    3    0    0  0.24992459634E+01 -0.41999633336E+01  0.19399043025E+01  0.52582460091E+01  0.00000000000E+00 0.  1.
</event>
<event>
 7    1  0.6956664E-013  0.5052886E+02  0.7816164E-02  0.1300439E+00
        -11   -1    0    0    0    0  0.00000000000E+00  0.00000000000E+00  0.45593999997E+02  0.45594000000E+02  0.51100000000E-03 0. -1.
         11   -1    0    0    0    0 -0.00000000000E+00 -0.00000000000E+00 -0.45593999997E+02  0.45594000000E+02  0.51100000000E-03 0.  1.
    9900012    2    1    2    0    0  0.73401502324E+01  0.35313268522E+02  0.18768624909E+02  0.50528855640E+02  0.29999987202E+02 0.  0.
         12    1    1    2    0    0 -0.73401502324E+01 -0.35313268522E+02 -0.18768624909E+02  0.40659144360E+02  0.00000000000E+00 0. -1.
         11    1    3    3    0    0 -0.59396729349E+01  0.76229604550E+00  0.71000998356E+01  0.92882844364E+01  0.51100000000E-03 0. -1.
        -11    1    3    3    0    0  0.66947303105E+01  0.23616533446E+02  0.14009413148E+02  0.28263469762E+02  0.51100000000E-03 0.  1.
         12    1    3    3    0    0  0.65850928567E+01  0.10934439030E+02 -0.23408880753E+01  0.12977101441E+02  0.00000000000E+00 0. -1.
</event>
<event>
 7    1  0.6073302E-013  0.5052886E+02  0.7816164E-02  0.1300439E+00
        -11   -1    0    0    0    0  0.00000000000E+00  0.00000000000E+00  0.45593999997E+02  0.45594000000E+02  0.51100000000E-03 0.  1.
         11   -1    0    0    0    0 -0.00000000000E+00 -0.00000000000E+00 -0.45593999997E+02  0.45594000000E+02  0.51100000000E-03 0. -1.
    9900012    2    1    2    0    0  0.46788258418E+01  0.81922117188E+01  0.39549486740E+02  0.50528860247E+02  0.30000001206E+02 0.  0.
         12    1    1    2    0    0 -0.46788258418E+01 -0.81922117188E+01 -0.39549486740E+02  0.40659139753E+02  0.00000000000E+00 0. -1.
         11    1    3    3    0    0  0.23751788491E+00 -0.27438730835E+01 -0.12980772818E+01  0.30447100247E+01  0.51100000000E-03 0. -1.
        -11    1    3    3    0    0  0.89572186631E+01  0.72679998089E+01  0.39969074495E+02  0.41600270475E+02  0.51100000000E-03 0.  1.
        -12    1    3    3    0    0 -0.45159107063E+01  0.36680849933E+01  0.87848952673E+00  0.58838797467E+01  0.00000000000E+00 0.  1.
</event>
<event>
 7    1  0.6073302E-013  0.5052885E+02  0.7816164E-02  0.1300439E+00
        -11   -1    0    0    0    0  0.00000000000E+00  0.00000000000E+00  0.45593999997E+02  0.45594000000E+02  0.51100000000E-03 0. -1.
         11   -1    0    0    0    0 -0.00000000000E+00 -0.00000000000E+00 -0.45593999997E+02  0.45594000000E+02  0.51100000000E-03 0.  1.
    9900012    2    1    2    0    0 -0.31052697958E+02 -0.26226462730E+02 -0.10338106288E+01  0.50528853892E+02  0.29999981891E+02 0.  0.
         12    1    1    2    0    0  0.31052697958E+02  0.26226462730E+02  0.10338106288E+01  0.40659146108E+02  0.00000000000E+00 0. -1.
         11    1    3    3    0    0 -0.19746656290E+02 -0.55464401458E+01 -0.11157980349E+02  0.23349388828E+02  0.51100000000E-03 0. -1.
        -11    1    3    3    0    0 -0.62764018492E+01 -0.45968212838E+01  0.55207966352E+00  0.77992806273E+01  0.51100000000E-03 0.  1.
         12    1    3    3    0    0 -0.50296398194E+01 -0.16083201300E+02  0.95720900564E+01  0.19380184437E+02  0.00000000000E+00 0. -1.
</event>
<event>
 7    1  0.6073302E-013  0.5052886E+02  0.7816164E-02  0.1300439E+00
        -11   -1    0    0    0    0  0.00000000000E+00  0.00000000000E+00  0.45593999997E+02  0.45594000000E+02  0.51100000000E-03 0.  1.
         11   -1    0    0    0    0 -0.00000000000E+00 -0.00000000000E+00 -0.45593999997E+02  0.45594000000E+02  0.51100000000E-03 0. -1.
    9900012    2    1    2    0    0 -0.23241339803E+02 -0.19946775147E+02  0.26741957152E+02  0.50528856048E+02  0.29999988443E+02 0.  0.
         12    1    1    2    0    0  0.23241339803E+02  0.19946775147E+02 -0.26741957152E+02  0.40659143952E+02  0.00000000000E+00 0. -1.
         11    1    3    3    0    0 -0.19738053717E+01  0.12132181086E+01  0.11761579337E+01  0.25982982066E+01  0.51100000000E-03 0. -1.
        -11    1    3    3    0    0  0.18350993637E+01 -0.62377632565E+01  0.18392041273E+02  0.19507548862E+02  0.51100000000E-03 0.  1.
        -12    1    3    3    0    0 -0.23102633795E+02 -0.14922229999E+02  0.71737579445E+01  0.28423008980E+02  0.00000000000E+00 0.  1.
</event>
<event>
 7    1  0.6073302E-013  0.5052886E+02  0.7816164E-02  0.1300439E+00
        -11   -1    0    0    0    0  0.00000000000E+00  0.00000000000E+00  0.45593999997E+02  0.45594000000E+02  0.51100000000E-03 0.  1.
         11   -1    0    0    0    0 -0.00000000000E+00 -0.00000000000E+00 -0.45593999997E+02  0.45594000000E+02  0.51100000000E-03 0. -1.
    9900012    2    1    2    0    0 -0.14337035937E+02 -0.80981244291E+01  0.37175732615E+02  0.50528864320E+02  0.30000013588E+02 0.  0.
         12    1    1    2    0    0  0.14337035937E+02  0.80981244291E+01 -0.37175732615E+02  0.40659135680E+02  0.00000000000E+00 0. -1.
         11    1    3    3    0    0  0.13082737355E+01  0.10072478321E+02  0.10561754434E+02  0.14653226835E+02  0.51100000000E-03 0. -1.
        -11    1    3    3    0    0 -0.13722532293E+02 -0.15556968201E+02  0.23886276173E+02  0.31636708770E+02  0.51100000000E-03 0.  1.
         12    1    3    3    0    0 -0.19227773791E+01 -0.26136345487E+01  0.27277020086E+01  0.42389287151E+01  0.00000000000E+00 0. -1.
</event>
<event>
 7    1  0.6073302E-013  0.5052885E+02  0.7816164E-02  0.1300439E+00
        -11   -1    0    0    0    0  0.00000000000E+00  0.00000000000E+00  0.45593999997E+02  0.45594000000E+02  0.51100000000E-03 0.  1.
         11   -1    0    0    0    0 -0.00000000000E+00 -0.00000000000E+00 -0.45593999997E+02  0.45594000000E+02  0.51100000000E-03 0. -1.
    9900012    2    1    2    0    0  0.36289947232E+02 -0.18267518309E+02 -0.15823606647E+01  0.50528851453E+02  0.29999974478E+02 0.  0.
         12    1    1    2    0    0 -0.36289947232E+02  0.18267518309E+02  0.15823606647E+01  0.40659148547E+02  0.00000000000E+00 0. -1.
         11    1    3    3    0    0  0.30138341977E+02 -0.58918232327E+01 -0.11586946452E+02  0.32822104845E+02  0.51100000000E-03 0. -1.
        -11    1    3    3    0    0  0.61780588719E+01 -0.12600472644E+02  0.89875335026E+01  0.16664815661E+02  0.51100000000E-03 0.  1.
         12    1    3    3    0    0 -0.26453616662E-01  0.22477756834E+00  0.10170522849E+01  0.10419309475E+01  0.00000000000E+00 0. -1.
</event>
<event>
 7    1  0.6073302E-013  0.5052887E+02  0.7816164E-02  0.1300439E+00
        -11   -1    0    0    0    0  0.00000000000E+00  0.00000000000E+00  0.45593999997E+02  0.45594000000E+02  0.51100000000E-03 0.  1.
         11   -1    0    0    0    0 -0.00000000000E+00 -0.00000000000E+00 -0.45593999997E+02  0.45594000000E+02  0.51100000000E-03 0. -1.
    9900012    2    1    2    0    0 -0.82648196273E+01  0.81709157887E+01  0.38962723496E+02  0.50528869038E+02  0.30000027929E+02 0.  0.
         12    1    1    2    0    0  0.82648196273E+01 -0.81709157887E+01 -0.38962723496E+02  0.40659130962E+02  0.00000000000E+00 0. -1.
         11    1    3    3    0    0 -0.13483112478E+01  0.20719990061E+01 -0.41300367493E+01  0.48133488252E+01  0.51100000000E-03 0. -1.
        -11    1    3    3    0    0  0.93417505725E+00  0.70596563786E+01  0.24410356923E+02  0.25427877548E+02  0.51100000000E-03 0.  1.
         12    1    3    3    0    0 -0.78506834368E+01 -0.96073959600E+00  0.18682403323E+02  0.20287642665E+02  0.00000000000E+00 0. -1.
</event>
<event>
 7    1  0.6073302E-013  0.5052885E+02  0.7816164E-02  0.1300439E+00
        -11   -1    0    0    0    0  0.00000000000E+00  0.00000000000E+00  0.45593999997E+02  0.45594000000E+02  0.51100000000E-03 0.  1.
         11   -1    0    0    0    0 -0.00000000000E+00 -0.00000000000E+00 -0.45593999997E+02  0.45594000000E+02  0.51100000000E-03 0. -1.
    9900012    2    1    2    0    0  0.45859569777E+01  0.10269520432E+02  0.39072654530E+02  0.50528851173E+02  0.29999973625E+02 0.  0.
         12    1    1    2    0    0 -0.45859569777E+01 -0.10269520432E+02 -0.39072654530E+02  0.40659148827E+02  0.00000000000E+00 0. -1.
         11    1    3    3    0    0  0.10040384124E+02  0.80923404269E+01  0.47869678866E+01  0.13755375268E+02  0.51100000000E-03 0. -1.
        -11    1    3    3    0    0  0.16427992021E+01  0.15850898479E+01  0.24835350254E+02  0.24940046543E+02  0.51100000000E-03 0.  1.
         12    1    3    3    0    0 -0.70972263487E+01  0.59209015731E+00  0.94503363893E+01  0.11833429362E+02  0.00000000000E+00 0. -1.
</event>
<event>
 7    1  0.6073302E-013  0.5052886E+02  0.7816164E-02  0.1300439E+00
        -11   -1    0    0    0    0  0.00000000000E+00  0.00000000000E+00  0.45593999997E+02  0.45594000000E+02  0.51100000000E-03 0.  1.
         11   -1    0    0    0    0 -0.00000000000E+00 -0.00000000000E+00 -0.45593999997E+02  0.45594000000E+02  0.51100000000E-03 0. -1.
    9900012    2    1    2    0    0  0.17025823542E+02 -0.13856400600E+02  0.34224071591E+02  0.50528861038E+02  0.30000003612E+02 0.  0.
         12    1    1    2    0    0 -0.17025823542E+02  0.13856400600E+02 -0.34224071591E+02  0.40659138962E+02  0.00000000000E+00 0. -1.
         11    1    3    3    0    0  0.82879405968E+01 -0.22529997530E+01 -0.82534468445E+00  0.86282768461E+01  0.51100000000E-03 0. -1.
        -11    1    3    3    0    0  0.18976145631E+01 -0.71348266093E+01  0.32519959789E+02  0.33347480815E+02  0.51100000000E-03 0.  1.
        -12    1    3    3    0    0  0.68402683825E+01 -0.44685742375E+01  0.25294564859E+01  0.85531033768E+01  0.00000000000E+00 0.  1.
</event>
<event>
 7    1  0.6073302E-013  0.5052886E+02  0.7816164E-02  0.1300439E+00
        -11   -1    0    0    0    0  0.00000000000E+00  0.00000000000E+00  0.45593999997E+02  0.45594000000E+02  0.51100000000E-03 0.  1.
         11   -1    0    0    0    0 -0.00000000000E+00 -0.00000000000E+00 -0.45593999997E+02  0.45594000000E+02  0.51100000000E-03 0. -1.
    9900012    2    1    2    0    0 -0.27347065251E+02  0.14639626207E+02  0.26286597615E+02  0.50528857762E+02  0.29999993653E+02 0.  0.
         12    1    1    2    0    0  0.27347065251E+02 -0.14639626207E+02 -0.26286597615E+02  0.40659142238E+02  0.00000000000E+00 0. -1.
         11    1    3    3    0    0 -0.96425760712E+01  0.47190356342E+01 -0.46988299730E+01  0.11718684823E+02  0.51100000000E-03 0. -1.
        -11    1    3    3    0    0 -0.33459944263E+01 -0.22557038177E+01  0.90153712027E+01  0.98772869047E+01  0.51100000000E-03 0.  1.
         12    1    3    3    0    0 -0.14358494754E+02  0.12176294391E+02  0.21970056386E+02  0.28932886034E+02  0.00000000000E+00 0. -1.
</event>
<event>
 7    1  0.6073302E-013  0.5052887E+02  0.7816164E-02  0.1300439E+00
        -11   -1    0    0    0    0  0.00000000000E+00  0.00000000000E+00  0.45593999997E+02  0.45594000000E+02  0.51100000000E-03 0.  1.
         11   -1    0    0    0    0 -0.00000000000E+00 -0.00000000000E+00 -0.45593999997E+02  0.45594000000E+02  0.51100000000E-03 0. -1.
    9900012    2    1    2    0    0  0.10901730994E+02 -0.28249508489E+02  0.27134521080E+02  0.50528871840E+02  0.30000036445E+02 0.  0.
         12    1    1    2    0    0 -0.10901730994E+02  0.28249508489E+02 -0.27134521080E+02  0.40659128160E+02  0.00000000000E+00 0. -1.
         11    1    3    3    0    0  0.25651110637E+01 -0.67045070492E+00 -0.28500663554E+01  0.38925797883E+01  0.51100000000E-03 0. -1.
        -11    1    3    3    0    0 -0.37065790819E+00 -0.26989322653E+02  0.22726145216E+02  0.35285104523E+02  0.51100000000E-03 0.  1.
        -12    1    3    3    0    0  0.87072778381E+01 -0.58973513081E+00  0.72584422191E+01  0.11351187529E+02  0.00000000000E+00 0.  1.
</event>
<event>
 7    1  0.6073302E-013  0.5052888E+02  0.7816164E-02  0.1300439E+00
        -11   -1    0    0    0    0  0.00000000000E+00  0.00000000000E+00  0.45593999997E+02  0.45594000000E+02  0.51100000000E-03 0.  1.
         11   -1    0    0    0    0 -0.00000000000E+00 -0.00000000000E+00 -0.45593999997E+02  0.45594000000E+02  0.51100000000E-03 0. -1.
    9900012    2    1    2    0    0  0.16826170275E+02 -0.36516782038E+02 -0.60471900705E+01  0.50528881905E+02  0.30000067038E+02 0.  0.
         12    1    1    2    0    0 -0.16826170275E+02  0.36516782038E+02  0.60471900705E+01  0.40659118095E+02  0.00000000000E+00 0. -1.
         11    1    3    3    0    0 -0.39170487134E+01 -0.69186514731E+01  0.73372116488E+01  0.10818765358E+02  0.51100000000E-03 0. -1.
        -11    1    3    3    0    0  0.13018366651E+02 -0.24280670863E+02 -0.12612721086E+02  0.30300323121E+02  0.51100000000E-03 0.  1.
        -12    1    3    3    0    0  0.77248523373E+01 -0.53174597020E+01 -0.77168063327E+00  0.94097934258E+01  0.00000000000E+00 0.  1.
</event>
<event>
 7    1  0.6073302E-013  0.5052888E+02  0.7816164E-02  0.1300439E+00
        -11   -1    0    0    0    0  0.00000000000E+00  0.00000000000E+00  0.45593999997E+02  0.45594000000E+02  0.51100000000E-03 0.  1.
         11   -1    0    0    0    0 -0.00000000000E+00 -0.00000000000E+00 -0.45593999997E+02  0.45594000000E+02  0.51100000000E-03 0. -1.
    9900012    2    1    2    0    0  0.28079157901E+01 -0.34661612200E+02  0.21067798699E+02  0.50528881793E+02  0.30000066697E+02 0.  0.
         12    1    1    2    0    0 -0.28079157901E+01  0.34661612200E+02 -0.21067798699E+02  0.40659118207E+02  0.00000000000E+00 0. -1.
         11    1    3    3    0    0  0.95288422207E+00 -0.77159000114E+01  0.18510091549E+02  0.20076518392E+02  0.51100000000E-03 0. -1.
        -11    1    3    3    0    0  0.67381970686E-01 -0.26538207632E+02 -0.88369759967E+00  0.26553002209E+02  0.51100000000E-03 0.  1.
        -12    1    3    3    0    0  0.17876495973E+01 -0.40750455662E+00  0.34414047499E+01  0.38993611912E+01  0.00000000000E+00 0.  1.
</event>
<event>
 7    1  0.6073302E-013  0.5052885E+02  0.7816164E-02  0.1300439E+00
        -11   -1    0    0    0    0  0.00000000000E+00  0.00000000000E+00  0.45593999997E+02  0.45594000000E+02  0.51100000000E-03 0.  1.
         11   -1    0    0    0    0 -0.00000000000E+00 -0.00000000000E+00 -0.45593999997E+02  0.45594000000E+02  0.51100000000E-03 0. -1.
    9900012    2    1    2    0    0  0.13027019326E+02 -0.14761304236E+02  0.35574806087E+02  0.50528853878E+02  0.29999981847E+02 0.  0.
         12    1    1    2    0    0 -0.13027019326E+02  0.14761304236E+02 -0.35574806087E+02  0.40659146122E+02  0.00000000000E+00 0. -1.
         11    1    3    3    0    0 -0.11533005194E+01 -0.38152483135E+01 -0.29093999923E+01  0.49346560527E+01  0.51100000000E-03 0. -1.
        -11    1    3    3    0    0  0.82993940022E+01 -0.13636625194E+02  0.17739428175E+02  0.23864718723E+02  0.51100000000E-03 0.  1.
         12    1    3    3    0    0  0.58809258432E+01  0.26905692711E+01  0.20744777904E+02  0.21729479103E+02  0.00000000000E+00 0. -1.
</event>
<event>
 7    1  0.6073302E-013  0.5052887E+02  0.7816164E-02  0.1300439E+00
        -11   -1    0    0    0    0  0.00000000000E+00  0.00000000000E+00  0.45593999997E+02  0.45594000000E+02  0.51100000000E-03 0.  1.
         11   -1    0    0    0    0 -0.00000000000E+00 -0.00000000000E+00 -0.45593999997E+02  0.45594000000E+02  0.51100000000E-03 0. -1.
    9900012    2    1    2    0    0 -0.22779577658E+02 -0.33252726264E+02 -0.53396639633E+01  0.50528868511E+02  0.30000026325E+02 0.  0.
         12    1    1    2    0    0  0.22779577658E+02  0.33252726264E+02  0.53396639633E+01  0.40659131489E+02  0.00000000000E+00 0. -1.
         11    1    3    3    0    0 -0.19409282540E+02 -0.40133625442E+01 -0.54051972990E+01  0.20543696983E+02  0.51100000000E-03 0. -1.
        -11    1    3    3    0    0 -0.36819868113E+01 -0.20593071142E+02  0.23102113677E+01  0.21046821203E+02  0.51100000000E-03 0.  1.
         12    1    3    3    0    0  0.31169169363E+00 -0.86462925772E+01 -0.22446780321E+01  0.89383503237E+01  0.00000000000E+00 0. -1.
</event>
<event>
 7    1  0.6073302E-013  0.5052885E+02  0.7816164E-02  0.1300439E+00
        -11   -1    0    0    0    0  0.00000000000E+00  0.00000000000E+00  0.45593999997E+02  0.45594000000E+02  0.51100000000E-03 0. -1.
         11   -1    0    0    0    0 -0.00000000000E+00 -0.00000000000E+00 -0.45593999997E+02  0.45594000000E+02  0.51100000000E-03 0.  1.
    9900012    2    1    2    0    0  0.31183522762E+01  0.11977072268E+02 -0.38729728034E+02  0.50528853248E+02  0.29999979932E+02 0.  0.
         12    1    1    2    0    0 -0.31183522762E+01 -0.11977072268E+02  0.38729728034E+02  0.40659146752E+02  0.00000000000E+00 0. -1.
         11    1    3    3    0    0  0.29891464078E+01  0.34808950325E+01  0.42711610468E+01  0.62685280109E+01  0.51100000000E-03 0. -1.
        -11    1    3    3    0    0  0.17642171308E+01  0.86544099881E+01 -0.35594917646E+02  0.36674370299E+02  0.51100000000E-03 0.  1.
         12    1    3    3    0    0 -0.16350112623E+01 -0.15823275237E+00 -0.74059714346E+01  0.75859549380E+01  0.00000000000E+00 0. -1.
</event>
<event>
 7    1  0.6073302E-013  0.5052885E+02  0.7816164E-02  0.1300439E+00
        -11   -1    0    0    0    0  0.00000000000E+00  0.00000000000E+00  0.45593999997E+02  0.45594000000E+02  0.51100000000E-03 0. -1.
         11   -1    0    0    0    0 -0.00000000000E+00 -0.00000000000E+00 -0.45593999997E+02  0.45594000000E+02  0.51100000000E-03 0.  1.
    9900012    2    1    2    0    0 -0.48712398955E+01 -0.14468236195E+02 -0.37684312022E+02  0.50528853314E+02  0.29999980133E+02 0.  0.
         12    1    1    2    0    0  0.48712398955E+01  0.14468236195E+02  0.37684312022E+02  0.40659146686E+02  0.00000000000E+00 0. -1.
         11    1    3    3    0    0 -0.68248612133E+01 -0.12167837250E+02 -0.13005282994E+02  0.19072817829E+02  0.51100000000E-03 0. -1.
        -11    1    3    3    0    0  0.23117747381E+01  0.68850868577E+01 -0.19712080466E+02  0.21007494854E+02  0.51100000000E-03 0.  1.
        -12    1    3    3    0    0 -0.35815342030E+00 -0.91854858021E+01 -0.49669485614E+01  0.10448540630E+02  0.00000000000E+00 0.  1.
</event>
<event>
 7    1  0.6073302E-013  0.5052887E+02  0.7816164E-02  0.1300439E+00
        -11   -1    0    0    0    0  0.00000000000E+00  0.00000000000E+00  0.45593999997E+02  0.45594000000E+02  0.51100000000E-03 0.  1.
         11   -1    0    0    0    0 -0.00000000000E+00 -0.00000000000E+00 -0.45593999997E+02  0.45594000000E+02  0.51100000000E-03 0. -1.
    9900012    2    1    2    0    0  0.64847613070E+01  0.40138453760E+02  0.12986262967E+00  0.50528874778E+02  0.30000045377E+02 0.  0.
         12    1    1    2    0    0 -0.64847613070E+01 -0.40138453760E+02 -0.12986262967E+00  0.40659125222E+02  0.00000000000E+00 0. -1.
         11    1    3    3    0    0  0.11829799945E+02  0.29256950212E+01  0.49317232804E+00  0.12196191098E+02  0.51100000000E-03 0. -1.
        -11    1    3    3    0    0 -0.38919069082E+01  0.25631844776E+02  0.32163024147E+01  0.26124375734E+02  0.51100000000E-03 0.  1.
        -12    1    3    3    0    0 -0.14531317294E+01  0.11580913963E+02 -0.35796121131E+01  0.12208307947E+02  0.00000000000E+00 0.  1.
</event>
<event>
 7    1  0.6073302E-013  0.5052886E+02  0.7816164E-02  0.1300439E+00
        -11   -1    0    0    0    0  0.00000000000E+00  0.00000000000E+00  0.45593999997E+02  0.45594000000E+02  0.51100000000E-03 0.  1.
         11   -1    0    0    0    0 -0.00000000000E+00 -0.00000000000E+00 -0.45593999997E+02  0.45594000000E+02  0.51100000000E-03 0. -1.
    9900012    2    1    2    0    0  0.33088818872E+02  0.22710049070E+02  0.65229922800E+01  0.50528859682E+02  0.29999999489E+02 0.  0.
         12    1    1    2    0    0 -0.33088818872E+02 -0.22710049070E+02 -0.65229922800E+01  0.40659140318E+02  0.00000000000E+00 0. -1.
         11    1    3    3    0    0  0.25140572935E+01 -0.31896218504E+01 -0.30237979509E+01  0.50633512551E+01  0.51100000000E-03 0. -1.
        -11    1    3    3    0    0  0.16675531953E+02  0.10251777713E+02  0.14001856939E+02  0.24067079387E+02  0.51100000000E-03 0.  1.
        -12    1    3    3    0    0  0.13899229625E+02  0.15647893208E+02 -0.44550667081E+01  0.21398429040E+02  0.00000000000E+00 0.  1.
</event>
<event>
 7    1  0.6073302E-013  0.5052886E+02  0.7816164E-02  0.1300439E+00
        -11   -1    0    0    0    0  0.00000000000E+00  0.00000000000E+00  0.45593999997E+02  0.45594000000E+02  0.51100000000E-03 0.  1.
         11   -1    0    0    0    0 -0.00000000000E+00 -0.00000000000E+00 -0.45593999997E+02  0.45594000000E+02  0.51100000000E-03 0. -1.
    9900012    2    1    2    0    0 -0.17479645105E+02 -0.26194628425E+02  0.25719035386E+02  0.50528864095E+02  0.30000012904E+02 0.  0.
         12    1    1    2    0    0  0.17479645105E+02  0.26194628425E+02 -0.25719035386E+02  0.40659135905E+02  0.00000000000E+00 0. -1.
         11    1    3    3    0    0 -0.20853304024E+02 -0.16219143695E+02  0.10503575926E+02  0.28429667926E+02  0.51100000000E-03 0. -1.
        -11    1    3    3    0    0 -0.30814337892E+01 -0.71877181905E+01  0.12103027741E+02  0.14409781669E+02  0.51100000000E-03 0.  1.
         12    1    3    3    0    0  0.64550927080E+01 -0.27877665395E+01  0.31124317198E+01  0.76894145004E+01  0.00000000000E+00 0. -1.
</event>
<event>
 7    1  0.6073302E-013  0.5052887E+02  0.7816164E-02  0.1300439E+00
        -11   -1    0    0    0    0  0.00000000000E+00  0.00000000000E+00  0.45593999997E+02  0.45594000000E+02  0.51100000000E-03 0.  1.
         11   -1    0    0    0    0 -0.00000000000E+00 -0.00000000000E+00 -0.45593999997E+02  0.45594000000E+02  0.51100000000E-03 0. -1.
    9900012    2    1    2    0    0 -0.33855533266E+02  0.57061637721E+00  0.22508716842E+02  0.50528867327E+02  0.30000022728E+02 0.  0.
         12    1    1    2    0    0  0.33855533266E+02 -0.57061637721E+00 -0.22508716842E+02  0.40659132673E+02  0.00000000000E+00 0. -1.
         11    1    3    3    0    0 -0.27931562898E+01  0.44536098645E+01 -0.20162292757E+01  0.56304123861E+01  0.51100000000E-03 0. -1.
        -11    1    3    3    0    0 -0.59401368170E+01 -0.97645121062E+01  0.10555598518E+02  0.15558007019E+02  0.51100000000E-03 0.  1.
        -12    1    3    3    0    0 -0.25122240159E+02  0.58815186189E+01  0.13969347600E+02  0.29340447922E+02  0.00000000000E+00 0.  1.
</event>
<event>
 7    1  0.6073302E-013  0.5052886E+02  0.7816164E-02  0.1300439E+00
        -11   -1    0    0    0    0  0.00000000000E+00  0.00000000000E+00  0.45593999997E+02  0.45594000000E+02  0.51100000000E-03 0.  1.
         11   -1    0    0    0    0 -0.00000000000E+00 -0.00000000000E+00 -0.45593999997E+02  0.45594000000E+02  0.51100000000E-03 0. -1.
    9900012    2    1    2    0    0  0.69688715785E+01 -0.31419369258E+02  0.24848016725E+02  0.50528857476E+02  0.29999992783E+02 0.  0.
         12    1    1    2    0    0 -0.69688715785E+01  0.31419369258E+02 -0.24848016725E+02  0.40659142524E+02  0.00000000000E+00 0. -1.
         11    1    3    3    0    0  0.11000869242E+02 -0.14134627003E+01  0.56651724546E+01  0.12454363897E+02  0.51100000000E-03 0. -1.
        -11    1    3    3    0    0 -0.68230308036E+01 -0.11229183631E+02  0.39062303785E+01  0.13707915611E+02  0.51100000000E-03 0.  1.
        -12    1    3    3    0    0  0.27910331402E+01 -0.18776722927E+02  0.15276613891E+02  0.24366577968E+02  0.00000000000E+00 0.  1.
</event>
<event>
 7    1  0.6073302E-013  0.5052886E+02  0.7816164E-02  0.1300439E+00
        -11   -1    0    0    0    0  0.00000000000E+00  0.00000000000E+00  0.45593999997E+02  0.45594000000E+02  0.51100000000E-03 0. -1.
         11   -1    0    0    0    0 -0.00000000000E+00 -0.00000000000E+00 -0.45593999997E+02  0.45594000000E+02  0.51100000000E-03 0.  1.
    9900012    2    1    2    0    0  0.32439279023E+01 -0.84444410010E+00 -0.40520727503E+02  0.50528861895E+02  0.30000006215E+02 0.  0.
         12    1    1    2    0    0 -0.32439279023E+01  0.84444410010E+00  0.40520727503E+02  0.40659138105E+02  0.00000000000E+00 0. -1.
         11    1    3    3    0    0 -0.39730046008E+01 -0.25395160238E+01  0.17193339095E+01  0.50189656850E+01  0.51100000000E-03 0. -1.
        -11    1    3    3    0    0  0.11752803535E+02  0.29404516882E+01 -0.27862383444E+02  0.30382347811E+02  0.51100000000E-03 0.  1.
         12    1    3    3    0    0 -0.45358710318E+01 -0.12453797645E+01 -0.14377677969E+02  0.15127548398E+02  0.00000000000E+00 0. -1.
</event>
<event>
 7    1  0.6073302E-013  0.5052885E+02  0.7816164E-02  0.1300439E+00
        -11   -1    0    0    0    0  0.00000000000E+00  0.00000000000E+00  0.45593999997E+02  0.45594000000E+02  0.51100000000E-03 0. -1.
         11   -1    0    0    0    0 -0.00000000000E+00 -0.00000000000E+00 -0.45593999997E+02  0.45594000000E+02  0.51100000000E-03 0.  1.
    9900012    2    1    2    0    0 -0.36344391445E+01 -0.20826049919E+02 -0.34730867086E+02  0.50528848119E+02  0.29999964342E+02 0.  0.
         12    1    1    2    0    0  0.36344391445E+01  0.20826049919E+02  0.34730867086E+02  0.40659151881E+02  0.00000000000E+00 0. -1.
         11    1    3    3    0    0 -0.45734180593E+01 -0.36285722544E+01 -0.18054073896E+02  0.18974516432E+02  0.51100000000E-03 0.  1.
        -11    1    3    3    0    0 -0.20312233480E+01 -0.18198009992E+02 -0.43300902496E+01  0.18816033530E+02  0.51100000000E-03 0. -1.
        -12    1    3    3    0    0  0.29702022628E+01  0.10005323269E+01 -0.12346702941E+02  0.12738298157E+02  0.00000000000E+00 0.  1.
</event>
<event>
 7    1  0.6073302E-013  0.5052887E+02  0.7816164E-02  0.1300439E+00
        -11   -1    0    0    0    0  0.00000000000E+00  0.00000000000E+00  0.45593999997E+02  0.45594000000E+02  0.51100000000E-03 0.  1.
         11   -1    0    0    0    0 -0.00000000000E+00 -0.00000000000E+00 -0.45593999997E+02  0.45594000000E+02  0.51100000000E-03 0. -1.
    9900012    2    1    2    0    0  0.35237658247E+01  0.29712017122E+00  0.40505061943E+02  0.50528865123E+02  0.30000016028E+02 0.  0.
         12    1    1    2    0    0 -0.35237658247E+01 -0.29712017122E+00 -0.40505061943E+02  0.40659134877E+02  0.00000000000E+00 0. -1.
         11    1    3    3    0    0 -0.87186438532E+01  0.24109652376E+01  0.91005883138E+01  0.12831531940E+02  0.51100000000E-03 0. -1.
        -11    1    3    3    0    0  0.80171662264E+01  0.31807432952E+01  0.29391184652E+02  0.30630602634E+02  0.51100000000E-03 0.  1.
         12    1    3    3    0    0  0.42252434514E+01 -0.52945883615E+01  0.20132889764E+01  0.70667305484E+01  0.00000000000E+00 0. -1.
</event>
<event>
 7    1  0.6073302E-013  0.5052886E+02  0.7816164E-02  0.1300439E+00
        -11   -1    0    0    0    0  0.00000000000E+00  0.00000000000E+00  0.45593999997E+02  0.45594000000E+02  0.51100000000E-03 0.  1.
         11   -1    0    0    0    0 -0.00000000000E+00 -0.00000000000E+00 -0.45593999997E+02  0.45594000000E+02  0.51100000000E-03 0. -1.
    9900012    2    1    2    0    0 -0.25443064061E+02  0.17902146096E+02  0.26178795300E+02  0.50528859982E+02  0.30000000402E+02 0.  0.
         12    1    1    2    0    0  0.25443064061E+02 -0.17902146096E+02 -0.26178795300E+02  0.40659140018E+02  0.00000000000E+00 0. -1.
         11    1    3    3    0    0 -0.85704853084E+00  0.11390140813E+02 -0.16333440018E+01  0.11538529058E+02  0.51100000000E-03 0. -1.
        -11    1    3    3    0    0 -0.22149669050E+02  0.33767376246E+01  0.19199372208E+02  0.29506373709E+02  0.51100000000E-03 0.  1.
         12    1    3    3    0    0 -0.24363464797E+01  0.31352676581E+01  0.86127670934E+01  0.94839572153E+01  0.00000000000E+00 0. -1.
</event>
<event>
 7    1  0.6073302E-013  0.5052885E+02  0.7816164E-02  0.1300439E+00
        -11   -1    0    0    0    0  0.00000000000E+00  0.00000000000E+00  0.45593999997E+02  0.45594000000E+02  0.51100000000E-03 0.  1.
         11   -1    0    0    0    0 -0.00000000000E+00 -0.00000000000E+00 -0.45593999997E+02  0.45594000000E+02  0.51100000000E-03 0. -1.
    9900012    2    1    2    0    0  0.86184247612E+01 -0.18153005877E+02  0.35346248975E+02  0.50528853620E+02  0.29999981063E+02 0.  0.
         12    1    1    2    0    0 -0.86184247612E+01  0.18153005877E+02 -0.35346248975E+02  0.40659146380E+02  0.00000000000E+00 0. -1.
         11    1    3    3    0    0 -0.74437686174E+01 -0.14908013740E+02  0.89705570620E+01  0.18924308684E+02  0.51100000000E-03 0. -1.
        -11    1    3    3    0    0  0.54878759470E+01 -0.38501064884E+01  0.84845171377E+01  0.10813285056E+02  0.51100000000E-03 0.  1.
         12    1    3    3    0    0  0.10574317432E+02  0.60511435155E+00  0.17891174776E+02  0.20791259879E+02  0.00000000000E+00 0. -1.
</event>
<event>
 7    1  0.6073302E-013  0.5052886E+02  0.7816164E-02  0.1300439E+00
        -11   -1    0    0    0    0  0.00000000000E+00  0.00000000000E+00  0.45593999997E+02  0.45594000000E+02  0.51100000000E-03 0.  1.
         11   -1    0    0    0    0 -0.00000000000E+00 -0.00000000000E+00 -0.45593999997E+02  0.45594000000E+02  0.51100000000E-03 0. -1.
    9900012    2    1    2    0    0  0.26702631831E+02  0.24210127206E+02  0.18815012588E+02  0.50528861978E+02  0.30000006467E+02 0.  0.
         12    1    1    2    0    0 -0.26702631831E+02 -0.24210127206E+02 -0.18815012588E+02  0.40659138022E+02  0.00000000000E+00 0. -1.
         11    1    3    3    0    0  0.18107840198E+02  0.79539324673E+01 -0.36872533782E+01  0.20118517740E+02  0.51100000000E-03 0. -1.
        -11    1    3    3    0    0  0.74373261527E+00  0.38911627414E+01  0.11288954297E+02  0.11963894645E+02  0.51100000000E-03 0.  1.
        -12    1    3    3    0    0  0.78510590184E+01  0.12365031997E+02  0.11213311669E+02  0.18446449593E+02  0.00000000000E+00 0.  1.
</event>
<event>
 7    1  0.6073302E-013  0.5052884E+02  0.7816164E-02  0.1300439E+00
        -11   -1    0    0    0    0  0.00000000000E+00  0.00000000000E+00  0.45593999997E+02  0.45594000000E+02  0.51100000000E-03 0.  1.
         11   -1    0    0    0    0 -0.00000000000E+00 -0.00000000000E+00 -0.45593999997E+02  0.45594000000E+02  0.51100000000E-03 0. -1.
    9900012    2    1    2    0    0 -0.31419380678E+01 -0.12925277916E+02  0.38421769724E+02  0.50528843925E+02  0.29999951594E+02 0.  0.
         12    1    1    2    0    0  0.31419380678E+01  0.12925277916E+02 -0.38421769724E+02  0.40659156075E+02  0.00000000000E+00 0. -1.
         11    1    3    3    0    0  0.39230829345E+01 -0.92303538528E+01  0.13872575964E+02  0.17118363710E+02  0.51100000000E-03 0. -1.
        -11    1    3    3    0    0 -0.12495212411E+02 -0.26931694902E+01  0.61198080811E+01  0.14171645857E+02  0.51100000000E-03 0.  1.
        -12    1    3    3    0    0  0.54301914083E+01 -0.10017545728E+01  0.18429385679E+02  0.19238834358E+02  0.00000000000E+00 0.  1.
</event>
<event>
 7    1  0.6073302E-013  0.5052887E+02  0.7816164E-02  0.1300439E+00
        -11   -1    0    0    0    0  0.00000000000E+00  0.00000000000E+00  0.45593999997E+02  0.45594000000E+02  0.51100000000E-03 0. -1.
         11   -1    0    0    0    0 -0.00000000000E+00 -0.00000000000E+00 -0.45593999997E+02  0.45594000000E+02  0.51100000000E-03 0.  1.
    9900012    2    1    2    0    0 -0.27254445991E+02  0.24866880844E+02 -0.17087960593E+02  0.50528868352E+02  0.30000025842E+02 0.  0.
         12    1    1    2    0    0  0.27254445991E+02 -0.24866880844E+02  0.17087960593E+02  0.40659131648E+02  0.00000000000E+00 0. -1.
         11    1    3    3    0    0 -0.39624366579E+01  0.11182035275E+02  0.72402417845E+01  0.13898198391E+02  0.51100000000E-03 0. -1.
        -11    1    3    3    0    0 -0.21681651129E+02  0.11158203227E+02 -0.21870501207E+02  0.32755431889E+02  0.51100000000E-03 0.  1.
         12    1    3    3    0    0 -0.16103582042E+01  0.25266423417E+01 -0.24577011702E+01  0.38752380715E+01  0.00000000000E+00 0. -1.
</event>
<event>
 7    1  0.6073302E-013  0.5052884E+02  0.7816164E-02  0.1300439E+00
        -11   -1    0    0    0    0  0.00000000000E+00  0.00000000000E+00  0.45593999997E+02  0.45594000000E+02  0.51100000000E-03 0.  1.
         11   -1    0    0    0    0 -0.00000000000E+00 -0.00000000000E+00 -0.45593999997E+02  0.45594000000E+02  0.51100000000E-03 0. -1.
    9900012    2    1    2    0    0 -0.32993089544E+02  0.21483493050E+02  0.10152966349E+02  0.50528841659E+02  0.29999944707E+02 0.  0.
         12    1    1    2    0    0  0.32993089544E+02 -0.21483493050E+02 -0.10152966349E+02  0.40659158341E+02  0.00000000000E+00 0. -1.
         11    1    3    3    0    0 -0.32069280642E+02  0.17936079098E+02  0.38475515964E+01  0.36945166773E+02  0.51100000000E-03 0. -1.
        -11    1    3    3    0    0  0.13285679897E-01  0.77234696075E+01  0.36079991986E+01  0.85246593929E+01  0.51100000000E-03 0.  1.
         12    1    3    3    0    0 -0.93709458158E+00 -0.41760556552E+01  0.26974155538E+01  0.50590154931E+01  0.00000000000E+00 0. -1.
</event>
<event>
 7    1  0.6073302E-013  0.5052888E+02  0.7816164E-02  0.1300439E+00
        -11   -1    0    0    0    0  0.00000000000E+00  0.00000000000E+00  0.45593999997E+02  0.45594000000E+02  0.51100000000E-03 0. -1.
         11   -1    0    0    0    0 -0.00000000000E+00 -0.00000000000E+00 -0.45593999997E+02  0.45594000000E+02  0.51100000000E-03 0.  1.
    9900012    2    1    2    0    0 -0.12102254785E+02 -0.18788008931E+02 -0.33966310972E+02  0.50528878865E+02  0.30000057797E+02 0.  0.
         12    1    1    2    0    0  0.12102254785E+02  0.18788008931E+02  0.33966310972E+02  0.40659121135E+02  0.00000000000E+00 0. -1.
         11    1    3    3    0    0 -0.10751184151E+01 -0.33440953552E+01  0.45032223901E+01  0.57112052587E+01  0.51100000000E-03 0. -1.
        -11    1    3    3    0    0  0.21966568626E+01 -0.59158288473E+01 -0.14694914376E+02  0.15992587067E+02  0.51100000000E-03 0.  1.
         12    1    3    3    0    0 -0.13223793232E+02 -0.95280847281E+01 -0.23774618986E+02  0.28825086539E+02  0.00000000000E+00 0. -1.
</event>
<event>
 7    1  0.6073302E-013  0.5052886E+02  0.7816164E-02  0.1300439E+00
        -11   -1    0    0    0    0  0.00000000000E+00  0.00000000000E+00  0.45593999997E+02  0.45594000000E+02  0.51100000000E-03 0.  1.
         11   -1    0    0    0    0 -0.00000000000E+00 -0.00000000000E+00 -0.45593999997E+02  0.45594000000E+02  0.51100000000E-03 0. -1.
    9900012    2    1    2    0    0  0.32147820404E+02  0.12487157974E+02  0.21534947371E+02  0.50528862906E+02  0.30000009288E+02 0.  0.
         12    1    1    2    0    0 -0.32147820404E+02 -0.12487157974E+02 -0.21534947371E+02  0.40659137094E+02  0.00000000000E+00 0. -1.
         11    1    3    3    0    0 -0.51364234461E+01 -0.88171554110E+00  0.60609303716E+01  0.79934438976E+01  0.51100000000E-03 0. -1.
        -11    1    3    3    0    0  0.27982867236E+02  0.10143184208E+02  0.11181076749E+02  0.31795306606E+02  0.51100000000E-03 0.  1.
         12    1    3    3    0    0  0.93013766139E+01  0.32256893073E+01  0.42929402508E+01  0.10740112402E+02  0.00000000000E+00 0. -1.
</event>
<event>
 7    1  0.6073302E-013  0.5052885E+02  0.7816164E-02  0.1300439E+00
        -11   -1    0    0    0    0  0.00000000000E+00  0.00000000000E+00  0.45593999997E+02  0.45594000000E+02  0.51100000000E-03 0. -1.
         11   -1    0    0    0    0 -0.00000000000E+00 -0.00000000000E+00 -0.45593999997E+02  0.45594000000E+02  0.51100000000E-03 0.  1.
    9900012    2    1    2    0    0 -0.14794294405E+02  0.30694915024E+02  0.22183717930E+02  0.50528852242E+02  0.29999976875E+02 0.  0.
         12    1    1    2    0    0  0.14794294405E+02 -0.30694915024E+02 -0.22183717930E+02  0.40659147758E+02  0.00000000000E+00 0. -1.
         11    1    3    3    0    0 -0.83448390844E+01  0.12456228459E+02 -0.45731148686E+01  0.15675054916E+02  0.51100000000E-03 0. -1.
        -11    1    3    3    0    0  0.26072799387E+01  0.74779603674E+01  0.12713613724E+02  0.14978443648E+02  0.51100000000E-03 0.  1.
         12    1    3    3    0    0 -0.90567352587E+01  0.10760726197E+02  0.14043219074E+02  0.19875353677E+02  0.00000000000E+00 0. -1.
</event>
<event>
 7    1  0.6073302E-013  0.5052885E+02  0.7816164E-02  0.1300439E+00
        -11   -1    0    0    0    0  0.00000000000E+00  0.00000000000E+00  0.45593999997E+02  0.45594000000E+02  0.51100000000E-03 0. -1.
         11   -1    0    0    0    0 -0.00000000000E+00 -0.00000000000E+00 -0.45593999997E+02  0.45594000000E+02  0.51100000000E-03 0.  1.
    9900012    2    1    2    0    0 -0.43043150821E+01 -0.26503421681E+02 -0.30532079948E+02  0.50528851029E+02  0.29999973187E+02 0.  0.
         12    1    1    2    0    0  0.43043150821E+01  0.26503421681E+02  0.30532079948E+02  0.40659148971E+02  0.00000000000E+00 0. -1.
         11    1    3    3    0    0 -0.85256023870E+00 -0.57982022984E+01  0.24969796597E+01  0.63703152619E+01  0.51100000000E-03 0. -1.
        -11    1    3    3    0    0 -0.10174462479E+02 -0.16463277477E+02 -0.29897316131E+02  0.35614725945E+02  0.51100000000E-03 0.  1.
        -12    1    3    3    0    0  0.67227076352E+01 -0.42419419050E+01 -0.31317434772E+01  0.85438098224E+01  0.00000000000E+00 0.  1.
</event>
<event>
 7    1  0.6073302E-013  0.5052887E+02  0.7816164E-02  0.1300439E+00
        -11   -1    0    0    0    0  0.00000000000E+00  0.00000000000E+00  0.45593999997E+02  0.45594000000E+02  0.51100000000E-03 0.  1.
         11   -1    0    0    0    0 -0.00000000000E+00 -0.00000000000E+00 -0.45593999997E+02  0.45594000000E+02  0.51100000000E-03 0. -1.
    9900012    2    1    2    0    0 -0.97874797326E+01 -0.14442515909E+02  0.36725791614E+02  0.50528870705E+02  0.30000032996E+02 0.  0.
         12    1    1    2    0    0  0.97874797326E+01  0.14442515909E+02 -0.36725791614E+02  0.40659129295E+02  0.00000000000E+00 0. -1.
         11    1    3    3    0    0 -0.11234631555E+02  0.29070754420E+01  0.10141089404E+02  0.15411350634E+02  0.51100000000E-03 0. -1.
        -11    1    3    3    0    0 -0.31046464884E+01 -0.17869340613E+02  0.23055481138E+02  0.29334405985E+02  0.51100000000E-03 0.  1.
         12    1    3    3    0    0  0.45517983104E+01  0.51974926212E+00  0.35292210729E+01  0.57831140863E+01  0.00000000000E+00 0. -1.
</event>
<event>
 7    1  0.6073302E-013  0.5052887E+02  0.7816164E-02  0.1300439E+00
        -11   -1    0    0    0    0  0.00000000000E+00  0.00000000000E+00  0.45593999997E+02  0.45594000000E+02  0.51100000000E-03 0. -1.
         11   -1    0    0    0    0 -0.00000000000E+00 -0.00000000000E+00 -0.45593999997E+02  0.45594000000E+02  0.51100000000E-03 0.  1.
    9900012    2    1    2    0    0  0.26373979332E+02  0.27815717675E+02  0.13559642261E+02  0.50528870228E+02  0.30000031545E+02 0.  0.
         12    1    1    2    0    0 -0.26373979332E+02 -0.27815717675E+02 -0.13559642261E+02  0.40659129772E+02  0.00000000000E+00 0. -1.
         11    1    3    3    0    0  0.26678503425E+02  0.26261508416E+02  0.14395449193E+02  0.40107833736E+02  0.51100000000E-03 0. -1.
        -11    1    3    3    0    0 -0.15826115017E+01 -0.41257301195E+01  0.50219950421E+00  0.44473039909E+01  0.51100000000E-03 0.  1.
         12    1    3    3    0    0  0.12780874085E+01  0.56799393789E+01 -0.13380064360E+01  0.59737325011E+01  0.00000000000E+00 0. -1.
</event>
<event>
 7    1  0.6073302E-013  0.5052886E+02  0.7816164E-02  0.1300439E+00
        -11   -1    0    0    0    0  0.00000000000E+00  0.00000000000E+00  0.45593999997E+02  0.45594000000E+02  0.51100000000E-03 0.  1.
         11   -1    0    0    0    0 -0.00000000000E+00 -0.00000000000E+00 -0.45593999997E+02  0.45594000000E+02  0.51100000000E-03 0. -1.
    9900012    2    1    2    0    0  0.35647382662E+02  0.58526192687E+01  0.18659495149E+02  0.50528858320E+02  0.29999995348E+02 0.  0.
         12    1    1    2    0    0 -0.35647382662E+02 -0.58526192687E+01 -0.18659495149E+02  0.40659141680E+02  0.00000000000E+00 0. -1.
         11    1    3    3    0    0 -0.30205150624E+01  0.28809700905E+01 -0.35206161386E+01  0.54606078563E+01  0.51100000000E-03 0. -1.
        -11    1    3    3    0    0  0.11614633293E+02  0.20519892700E+01  0.96534861776E+01  0.15241396332E+02  0.51100000000E-03 0.  1.
         12    1    3    3    0    0  0.27053264431E+02  0.91965990832E+00  0.12526625110E+02  0.29826854132E+02  0.00000000000E+00 0. -1.
</event>
<event>
 7    1  0.6073302E-013  0.5052886E+02  0.7816164E-02  0.1300439E+00
        -11   -1    0    0    0    0  0.00000000000E+00  0.00000000000E+00  0.45593999997E+02  0.45594000000E+02  0.51100000000E-03 0.  1.
         11   -1    0    0    0    0 -0.00000000000E+00 -0.00000000000E+00 -0.45593999997E+02  0.45594000000E+02  0.51100000000E-03 0. -1.
    9900012    2    1    2    0    0 -0.25933712545E+01 -0.16411828439E+02  0.37109186631E+02  0.50528863024E+02  0.30000009649E+02 0.  0.
         12    1    1    2    0    0  0.25933712545E+01  0.16411828439E+02 -0.37109186631E+02  0.40659136976E+02  0.00000000000E+00 0. -1.
         11    1    3    3    0    0 -0.66913005933E+01 -0.36550090085E+01 -0.21356488358E+01  0.79179284345E+01  0.51100000000E-03 0. -1.
        -11    1    3    3    0    0  0.14675987469E+01 -0.13599469173E+02  0.30188806906E+02  0.33143075755E+02  0.51100000000E-03 0.  1.
        -12    1    3    3    0    0  0.26303305919E+01  0.84264974226E+00  0.90560285614E+01  0.94678588349E+01  0.00000000000E+00 0.  1.
</event>
<event>
 7    1  0.6073302E-013  0.5052887E+02  0.7816164E-02  0.1300439E+00
        -11   -1    0    0    0    0  0.00000000000E+00  0.00000000000E+00  0.45593999997E+02  0.45594000000E+02  0.51100000000E-03 0. -1.
         11   -1    0    0    0    0 -0.00000000000E+00 -0.00000000000E+00 -0.45593999997E+02  0.45594000000E+02  0.51100000000E-03 0.  1.
    9900012    2    1    2    0    0 -0.30849065986E+02 -0.25707750103E+02  0.63727093547E+01  0.50528871725E+02  0.30000036096E+02 0.  0.
         12    1    1    2    0    0  0.30849065986E+02  0.25707750103E+02 -0.63727093547E+01  0.40659128275E+02  0.00000000000E+00 0. -1.
         11    1    3    3    0    0  0.14389490796E+01  0.27317288967E+01 -0.23675300294E+01  0.38907731777E+01  0.51100000000E-03 0.  1.
        -11    1    3    3    0    0 -0.22942933231E+02 -0.23130689340E+02  0.12999765713E+02  0.35077070623E+02  0.51100000000E-03 0. -1.
        -12    1    3    3    0    0 -0.93450818340E+01 -0.53087896592E+01 -0.42595263292E+01  0.11561027925E+02  0.00000000000E+00 0.  1.
</event>
<event>
 7    1  0.6073302E-013  0.5052886E+02  0.7816164E-02  0.1300439E+00
        -11   -1    0    0    0    0  0.00000000000E+00  0.00000000000E+00  0.45593999997E+02  0.45594000000E+02  0.51100000000E-03 0.  1.
         11   -1    0    0    0    0 -0.00000000000E+00 -0.00000000000E+00 -0.45593999997E+02  0.45594000000E+02  0.51100000000E-03 0. -1.
    9900012    2    1    2    0    0  0.31061911786E+02 -0.16714181534E+02  0.20222748655E+02  0.50528858453E+02  0.29999995753E+02 0.  0.
         12    1    1    2    0    0 -0.31061911786E+02  0.16714181534E+02 -0.20222748655E+02  0.40659141547E+02  0.00000000000E+00 0. -1.
         11    1    3    3    0    0  0.69357694852E+01  0.46394883778E+01  0.74483383270E+01  0.11185146170E+02  0.51100000000E-03 0. -1.
        -11    1    3    3    0    0  0.22449620783E+02 -0.11901606751E+02  0.29035433542E+01  0.25574680464E+02  0.51100000000E-03 0.  1.
         12    1    3    3    0    0  0.16765215184E+01 -0.94520631611E+01  0.98708669742E+01  0.13769031819E+02  0.00000000000E+00 0. -1.
</event>
<event>
 7    1  0.6073302E-013  0.5052887E+02  0.7816164E-02  0.1300439E+00
        -11   -1    0    0    0    0  0.00000000000E+00  0.00000000000E+00  0.45593999997E+02  0.45594000000E+02  0.51100000000E-03 0. -1.
         11   -1    0    0    0    0 -0.00000000000E+00 -0.00000000000E+00 -0.45593999997E+02  0.45594000000E+02  0.51100000000E-03 0.  1.
    9900012    2    1    2    0    0 -0.16836039694E+02  0.30918335151E+00 -0.37008336591E+02  0.50528870593E+02  0.30000032654E+02 0.  0.
         12    1    1    2    0    0  0.16836039694E+02 -0.30918335151E+00  0.37008336591E+02  0.40659129407E+02  0.00000000000E+00 0. -1.
         11    1    3    3    0    0 -0.59236274563E+01  0.30585369674E+01 -0.22872579235E+02  0.23824334025E+02  0.51100000000E-03 0.  1.
        -11    1    3    3    0    0 -0.14836794088E+02  0.15565798450E+01 -0.47473527227E+01  0.15655374725E+02  0.51100000000E-03 0. -1.
         12    1    3    3    0    0  0.39243818509E+01 -0.43059334610E+01 -0.93884046330E+01  0.11049161843E+02  0.00000000000E+00 0. -1.
</event>
<event>
 7    1  0.6073302E-013  0.5052886E+02  0.7816164E-02  0.1300439E+00
        -11   -1    0    0    0    0  0.00000000000E+00  0.00000000000E+00  0.45593999997E+02  0.45594000000E+02  0.51100000000E-03 0.  1.
         11   -1    0    0    0    0 -0.00000000000E+00 -0.00000000000E+00 -0.45593999997E+02  0.45594000000E+02  0.51100000000E-03 0. -1.
    9900012    2    1    2    0    0 -0.34193425184E+02 -0.24591623901E+01  0.21861564708E+02  0.50528858138E+02  0.29999994796E+02 0.  0.
         12    1    1    2    0    0  0.34193425184E+02  0.24591623901E+01 -0.21861564708E+02  0.40659141862E+02  0.00000000000E+00 0. -1.
         11    1    3    3    0    0 -0.53727500265E+01  0.45729527026E+01  0.12620533015E+02  0.14458775643E+02  0.51100000000E-03 0. -1.
        -11    1    3    3    0    0 -0.29245878134E+02 -0.23604561824E+01  0.50354859229E+01  0.29769938864E+02  0.51100000000E-03 0.  1.
         12    1    3    3    0    0  0.42520297582E+00 -0.46716589103E+01  0.42055457701E+01  0.63001436308E+01  0.00000000000E+00 0. -1.
</event>
<event>
 7    1  0.6073302E-013  0.5052886E+02  0.7816164E-02  0.1300439E+00
        -11   -1    0    0    0    0  0.00000000000E+00  0.00000000000E+00  0.45593999997E+02  0.45594000000E+02  0.51100000000E-03 0.  1.
         11   -1    0    0    0    0 -0.00000000000E+00 -0.00000000000E+00 -0.45593999997E+02  0.45594000000E+02  0.51100000000E-03 0. -1.
    9900012    2    1    2    0    0 -0.20538897350E+02  0.23572315643E+02  0.25993555009E+02  0.50528864850E+02  0.30000015199E+02 0.  0.
         12    1    1    2    0    0  0.20538897350E+02 -0.23572315643E+02 -0.25993555009E+02  0.40659135150E+02  0.00000000000E+00 0. -1.
         11    1    3    3    0    0  0.14925568647E+01 -0.57671700436E+00 -0.41673770807E+01  0.44640072235E+01  0.51100000000E-03 0. -1.
        -11    1    3    3    0    0 -0.23544193327E+02  0.22446212982E+02  0.27894617432E+02  0.42851735071E+02  0.51100000000E-03 0.  1.
        -12    1    3    3    0    0  0.15127391121E+01  0.17028196650E+01  0.22663146569E+01  0.32131225555E+01  0.00000000000E+00 0.  1.
</event>
<event>
 7    1  0.6073302E-013  0.5052884E+02  0.7816164E-02  0.1300439E+00
        -11   -1    0    0    0    0  0.00000000000E+00  0.00000000000E+00  0.45593999997E+02  0.45594000000E+02  0.51100000000E-03 0. -1.
         11   -1    0    0    0    0 -0.00000000000E+00 -0.00000000000E+00 -0.45593999997E+02  0.45594000000E+02  0.51100000000E-03 0.  1.
    9900012    2    1    2    0    0  0.31183705221E+02  0.26084570019E+02  0.58230665568E+00  0.50528839342E+02  0.29999937664E+02 0.  0.
         12    1    1    2    0    0 -0.31183705221E+02 -0.26084570019E+02 -0.58230665568E+00  0.40659160658E+02  0.00000000000E+00 0. -1.
         11    1    3    3    0    0 -0.17587860558E+01  0.90102958162E+01  0.30430890426E-01  0.91803967990E+01  0.51100000000E-03 0. -1.
        -11    1    3    3    0    0  0.32110553383E+02  0.17675814704E+02  0.48099693898E+01  0.36968336043E+02  0.51100000000E-03 0.  1.
        -12    1    3    3    0    0  0.83193789334E+00 -0.60154050126E+00 -0.42580936246E+01  0.43801064997E+01  0.00000000000E+00 0.  1.
</event>
<event>
 7    1  0.6073302E-013  0.5052885E+02  0.7816164E-02  0.1300439E+00
        -11   -1    0    0    0    0  0.00000000000E+00  0.00000000000E+00  0.45593999997E+02  0.45594000000E+02  0.51100000000E-03 0.  1.
         11   -1    0    0    0    0 -0.00000000000E+00 -0.00000000000E+00 -0.45593999997E+02  0.45594000000E+02  0.51100000000E-03 0. -1.
    9900012    2    1    2    0    0  0.37497409806E+02  0.14934024605E+02 -0.49077145290E+01  0.50528849800E+02  0.29999969452E+02 0.  0.
         12    1    1    2    0    0 -0.37497409806E+02 -0.14934024605E+02  0.49077145290E+01  0.40659150200E+02  0.00000000000E+00 0. -1.
         11    1    3    3    0    0 -0.40537637082E+01 -0.13411859877E+01  0.15916670047E+01  0.45568831640E+01  0.51100000000E-03 0. -1.
        -11    1    3    3    0    0  0.62297378193E+01  0.30174782424E+01  0.21831704801E+01  0.72581706956E+01  0.51100000000E-03 0.  1.
         12    1    3    3    0    0  0.35321435695E+02  0.13257732350E+02 -0.86825520139E+01  0.38713795940E+02  0.00000000000E+00 0. -1.
</event>
<event>
 7    1  0.6073302E-013  0.5052886E+02  0.7816164E-02  0.1300439E+00
        -11   -1    0    0    0    0  0.00000000000E+00  0.00000000000E+00  0.45593999997E+02  0.45594000000E+02  0.51100000000E-03 0.  1.
         11   -1    0    0    0    0 -0.00000000000E+00 -0.00000000000E+00 -0.45593999997E+02  0.45594000000E+02  0.51100000000E-03 0. -1.
    9900012    2    1    2    0    0  0.35151675980E+02  0.24274932163E+01 -0.20288724339E+02  0.50528863476E+02  0.30000011023E+02 0.  0.
         12    1    1    2    0    0 -0.35151675980E+02 -0.24274932163E+01  0.20288724339E+02  0.40659136524E+02  0.00000000000E+00 0. -1.
         11    1    3    3    0    0  0.36658076192E+01  0.79455477849E+01 -0.13698509894E+02  0.16254816169E+02  0.51100000000E-03 0. -1.
        -11    1    3    3    0    0  0.59901275236E+01  0.29306254571E+01 -0.24145534254E+01  0.70922677490E+01  0.51100000000E-03 0.  1.
         12    1    3    3    0    0  0.25495740838E+02 -0.84486800256E+01 -0.41756610194E+01  0.27181779559E+02  0.00000000000E+00 0. -1.
</event>
<event>
 7    1  0.6073302E-013  0.5052887E+02  0.7816164E-02  0.1300439E+00
        -11   -1    0    0    0    0  0.00000000000E+00  0.00000000000E+00  0.45593999997E+02  0.45594000000E+02  0.51100000000E-03 0. -1.
         11   -1    0    0    0    0 -0.00000000000E+00 -0.00000000000E+00 -0.45593999997E+02  0.45594000000E+02  0.51100000000E-03 0.  1.
    9900012    2    1    2    0    0 -0.37224582906E+02  0.15676665575E+02 -0.46623841248E+01  0.50528865211E+02  0.30000016294E+02 0.  0.
         12    1    1    2    0    0  0.37224582906E+02 -0.15676665575E+02  0.46623841248E+01  0.40659134789E+02  0.00000000000E+00 0. -1.
         11    1    3    3    0    0 -0.71881414794E+00 -0.96181104939E-01  0.24321216982E+01  0.25379442075E+01  0.51100000000E-03 0. -1.
        -11    1    3    3    0    0 -0.11098748110E+02  0.24807566589E+01 -0.14450009314E+02  0.18388559831E+02  0.51100000000E-03 0.  1.
        -12    1    3    3    0    0 -0.25407020648E+02  0.13292090021E+02  0.73555034914E+01  0.29602361172E+02  0.00000000000E+00 0.  1.
</event>
<event>
 7    1  0.6073302E-013  0.5052886E+02  0.7816164E-02  0.1300439E+00
        -11   -1    0    0    0    0  0.00000000000E+00  0.00000000000E+00  0.45593999997E+02  0.45594000000E+02  0.51100000000E-03 0.  1.
         11   -1    0    0    0    0 -0.00000000000E+00 -0.00000000000E+00 -0.45593999997E+02  0.45594000000E+02  0.51100000000E-03 0. -1.
    9900012    2    1    2    0    0 -0.17740334192E+02 -0.27582636886E+02  0.24034239779E+02  0.50528855929E+02  0.29999988081E+02 0.  0.
         12    1    1    2    0    0  0.17740334192E+02  0.27582636886E+02 -0.24034239779E+02  0.40659144071E+02  0.00000000000E+00 0. -1.
         11    1    3    3    0    0  0.10851764193E+01  0.23794230230E+00 -0.23471417028E+01  0.25967862512E+01  0.51100000000E-03 0. -1.
        -11    1    3    3    0    0 -0.31949746471E+01 -0.75578027263E+01  0.19911592230E+02  0.21536010550E+02  0.51100000000E-03 0.  1.
        -12    1    3    3    0    0 -0.15630535965E+02 -0.20262776462E+02  0.64697892524E+01  0.26396059127E+02  0.00000000000E+00 0.  1.
</event>
<event>
 7    1  0.6073302E-013  0.5052889E+02  0.7816164E-02  0.1300439E+00
        -11   -1    0    0    0    0  0.00000000000E+00  0.00000000000E+00  0.45593999997E+02  0.45594000000E+02  0.51100000000E-03 0.  1.
         11   -1    0    0    0    0 -0.00000000000E+00 -0.00000000000E+00 -0.45593999997E+02  0.45594000000E+02  0.51100000000E-03 0. -1.
    9900012    2    1    2    0    0  0.11453599102E+01  0.31621101224E+02 -0.25533461207E+02  0.50528886223E+02  0.30000080163E+02 0.  0.
         12    1    1    2    0    0 -0.11453599102E+01 -0.31621101224E+02  0.25533461207E+02  0.40659113777E+02  0.00000000000E+00 0. -1.
         11    1    3    3    0    0 -0.48064536747E+01  0.75805107563E+01 -0.23732503265E+01  0.92843124477E+01  0.51100000000E-03 0. -1.
        -11    1    3    3    0    0  0.73890737949E+01  0.12801859790E+02 -0.25686740502E+02  0.29636036569E+02  0.51100000000E-03 0.  1.
        -12    1    3    3    0    0 -0.14372602100E+01  0.11238730677E+02  0.25265296210E+01  0.11608537206E+02  0.00000000000E+00 0.  1.
</event>
<event>
 7    1  0.6073302E-013  0.5052886E+02  0.7816164E-02  0.1300439E+00
        -11   -1    0    0    0    0  0.00000000000E+00  0.00000000000E+00  0.45593999997E+02  0.45594000000E+02  0.51100000000E-03 0.  1.
         11   -1    0    0    0    0 -0.00000000000E+00 -0.00000000000E+00 -0.45593999997E+02  0.45594000000E+02  0.51100000000E-03 0. -1.
    9900012    2    1    2    0    0 -0.33588726435E+02  0.22102743732E+02  0.60358467907E+01  0.50528864858E+02  0.30000015223E+02 0.  0.
         12    1    1    2    0    0  0.33588726435E+02 -0.22102743732E+02 -0.60358467907E+01  0.40659135142E+02  0.00000000000E+00 0. -1.
         11    1    3    3    0    0 -0.18358483389E+02  0.16014857758E+02  0.66433392375E+00  0.24371108329E+02  0.51100000000E-03 0. -1.
        -11    1    3    3    0    0 -0.12946626273E+02 -0.20034953481E+01 -0.38736550926E+01  0.13661417551E+02  0.51100000000E-03 0.  1.
        -12    1    3    3    0    0 -0.22836167732E+01  0.80913813221E+01  0.92451679596E+01  0.12496338979E+02  0.00000000000E+00 0.  1.
</event>
<event>
 7    1  0.6073302E-013  0.5052886E+02  0.7816164E-02  0.1300439E+00
        -11   -1    0    0    0    0  0.00000000000E+00  0.00000000000E+00  0.45593999997E+02  0.45594000000E+02  0.51100000000E-03 0.  1.
         11   -1    0    0    0    0 -0.00000000000E+00 -0.00000000000E+00 -0.45593999997E+02  0.45594000000E+02  0.51100000000E-03 0. -1.
    9900012    2    1    2    0    0 -0.50004570561E+01  0.64452142079E+01  0.39832402749E+02  0.50528859998E+02  0.30000000450E+02 0.  0.
         12    1    1    2    0    0  0.50004570561E+01 -0.64452142079E+01 -0.39832402749E+02  0.40659140002E+02  0.00000000000E+00 0. -1.
         11    1    3    3    0    0  0.76107649807E+01  0.62979285521E+01  0.19963306465E+01  0.10078342322E+02  0.51100000000E-03 0. -1.
        -11    1    3    3    0    0 -0.25574840465E+01 -0.64709288663E+00  0.18057172213E+02  0.18248860854E+02  0.51100000000E-03 0.  1.
         12    1    3    3    0    0 -0.10053737990E+02  0.79437854245E+00  0.19778899889E+02  0.22201656823E+02  0.00000000000E+00 0. -1.
</event>
<event>
 7    1  0.6073302E-013  0.5052887E+02  0.7816164E-02  0.1300439E+00
        -11   -1    0    0    0    0  0.00000000000E+00  0.00000000000E+00  0.45593999997E+02  0.45594000000E+02  0.51100000000E-03 0.  1.
         11   -1    0    0    0    0 -0.00000000000E+00 -0.00000000000E+00 -0.45593999997E+02  0.45594000000E+02  0.51100000000E-03 0. -1.
    9900012    2    1    2    0    0  0.21411264169E+02 -0.29780450851E+02 -0.17545581371E+02  0.50528869268E+02  0.30000028628E+02 0.  0.
         12    1    1    2    0    0 -0.21411264169E+02  0.29780450851E+02  0.17545581371E+02  0.40659130732E+02  0.00000000000E+00 0. -1.
         11    1    3    3    0    0 -0.34504317068E+01 -0.50529348685E+01 -0.10763425285E+02  0.12380991635E+02  0.51100000000E-03 0. -1.
        -11    1    3    3    0    0  0.20978365084E+02 -0.13397729655E+02 -0.79097274018E+01  0.26118092376E+02  0.51100000000E-03 0.  1.
         12    1    3    3    0    0  0.38833307915E+01 -0.11329786328E+02  0.11275713156E+01  0.12029785258E+02  0.00000000000E+00 0. -1.
</event>
<event>
 7    1  0.6073302E-013  0.5052886E+02  0.7816164E-02  0.1300439E+00
        -11   -1    0    0    0    0  0.00000000000E+00  0.00000000000E+00  0.45593999997E+02  0.45594000000E+02  0.51100000000E-03 0.  1.
         11   -1    0    0    0    0 -0.00000000000E+00 -0.00000000000E+00 -0.45593999997E+02  0.45594000000E+02  0.51100000000E-03 0. -1.
    9900012    2    1    2    0    0 -0.26223919106E+02  0.17254031923E+01  0.31024102970E+02  0.50528856938E+02  0.29999991147E+02 0.  0.
         12    1    1    2    0    0  0.26223919106E+02 -0.17254031923E+01 -0.31024102970E+02  0.40659143062E+02  0.00000000000E+00 0. -1.
         11    1    3    3    0    0 -0.23663425539E+02  0.55607055634E+00  0.82527139620E+01  0.25067393377E+02  0.51100000000E-03 0. -1.
        -11    1    3    3    0    0 -0.24207493623E+01  0.41221679266E+01  0.21847400726E+02  0.22364284354E+02  0.51100000000E-03 0.  1.
        -12    1    3    3    0    0 -0.13974420476E+00 -0.29528352906E+01  0.92398828202E+00  0.30971792072E+01  0.00000000000E+00 0.  1.
</event>
<event>
 7    1  0.6073302E-013  0.5052884E+02  0.7816164E-02  0.1300439E+00
        -11   -1    0    0    0    0  0.00000000000E+00  0.00000000000E+00  0.45593999997E+02  0.45594000000E+02  0.51100000000E-03 0.  1.
         11   -1    0    0    0    0 -0.00000000000E+00 -0.00000000000E+00 -0.45593999997E+02  0.45594000000E+02  0.51100000000E-03 0. -1.
    9900012    2    1    2    0    0 -0.25058237673E+02  0.31494687615E+02  0.57737748595E+01  0.50528842368E+02  0.29999946863E+02 0.  0.
         12    1    1    2    0    0  0.25058237673E+02 -0.31494687615E+02 -0.57737748595E+01  0.40659157632E+02  0.00000000000E+00 0. -1.
         11    1    3    3    0    0 -0.24106352406E+02  0.22995977016E+02  0.15149509871E+02  0.36598344701E+02  0.51100000000E-03 0. -1.
        -11    1    3    3    0    0 -0.95582783528E+00  0.89999653976E+01 -0.68369553518E+01  0.11342704384E+02  0.51100000000E-03 0.  1.
         12    1    3    3    0    0  0.39425689784E-02 -0.50125479885E+00 -0.25387796594E+01  0.25877932831E+01  0.00000000000E+00 0. -1.
</event>
<event>
 7    1  0.6073302E-013  0.5052887E+02  0.7816164E-02  0.1300439E+00
        -11   -1    0    0    0    0  0.00000000000E+00  0.00000000000E+00  0.45593999997E+02  0.45594000000E+02  0.51100000000E-03 0.  1.
         11   -1    0    0    0    0 -0.00000000000E+00 -0.00000000000E+00 -0.45593999997E+02  0.45594000000E+02  0.51100000000E-03 0. -1.
    9900012    2    1    2    0    0 -0.30672036197E+02 -0.34590823024E+01  0.26465565066E+02  0.50528865859E+02  0.30000018264E+02 0.  0.
         12    1    1    2    0    0  0.30672036197E+02  0.34590823024E+01 -0.26465565066E+02  0.40659134141E+02  0.00000000000E+00 0. -1.
         11    1    3    3    0    0 -0.11523854926E+02  0.28428301382E+01 -0.25995689978E+01  0.12150665611E+02  0.51100000000E-03 0. -1.
        -11    1    3    3    0    0 -0.80516792155E+01  0.39905100062E+01  0.16150057618E+02  0.18481830798E+02  0.51100000000E-03 0.  1.
         12    1    3    3    0    0 -0.11096502055E+02 -0.10292422447E+02  0.12915076446E+02  0.19896369450E+02  0.00000000000E+00 0. -1.
</event>
<event>
 7    1  0.6073302E-013  0.5052885E+02  0.7816164E-02  0.1300439E+00
        -11   -1    0    0    0    0  0.00000000000E+00  0.00000000000E+00  0.45593999997E+02  0.45594000000E+02  0.51100000000E-03 0.  1.
         11   -1    0    0    0    0 -0.00000000000E+00 -0.00000000000E+00 -0.45593999997E+02  0.45594000000E+02  0.51100000000E-03 0. -1.
    9900012    2    1    2    0    0 -0.11201738428E+02  0.28676315756E+02  0.26558543866E+02  0.50528852426E+02  0.29999977434E+02 0.  0.
         12    1    1    2    0    0  0.11201738428E+02 -0.28676315756E+02 -0.26558543866E+02  0.40659147574E+02  0.00000000000E+00 0. -1.
         11    1    3    3    0    0  0.39290252052E+01 -0.18646185771E+01 -0.17359925225E+01  0.46827034713E+01  0.51100000000E-03 0. -1.
        -11    1    3    3    0    0 -0.13742175232E+02  0.21747962145E+02  0.14798183300E+02  0.29678400678E+02  0.51100000000E-03 0.  1.
         12    1    3    3    0    0 -0.13885884021E+01  0.87929721883E+01  0.13496353088E+02  0.16167748276E+02  0.00000000000E+00 0. -1.
</event>
<event>
 7    1  0.6073302E-013  0.5052886E+02  0.7816164E-02  0.1300439E+00
        -11   -1    0    0    0    0  0.00000000000E+00  0.00000000000E+00  0.45593999997E+02  0.45594000000E+02  0.51100000000E-03 0.  1.
         11   -1    0    0    0    0 -0.00000000000E+00 -0.00000000000E+00 -0.45593999997E+02  0.45594000000E+02  0.51100000000E-03 0. -1.
    9900012    2    1    2    0    0  0.19531783209E+02 -0.18947879955E+02  0.30210146130E+02  0.50528860323E+02  0.30000001437E+02 0.  0.
         12    1    1    2    0    0 -0.19531783209E+02  0.18947879955E+02 -0.30210146130E+02  0.40659139677E+02  0.00000000000E+00 0. -1.
         11    1    3    3    0    0  0.16578023740E+02 -0.39121770357E+01  0.12466265531E+02  0.21107907922E+02  0.51100000000E-03 0.  1.
        -11    1    3    3    0    0 -0.25250970757E+01 -0.10756605035E+02  0.19353296405E+02  0.22285213688E+02  0.51100000000E-03 0. -1.
         12    1    3    3    0    0  0.54788565443E+01 -0.42790978843E+01 -0.16094158068E+01  0.71357387127E+01  0.00000000000E+00 0. -1.
</event>
<event>
 7    1  0.6073302E-013  0.5052888E+02  0.7816164E-02  0.1300439E+00
        -11   -1    0    0    0    0  0.00000000000E+00  0.00000000000E+00  0.45593999997E+02  0.45594000000E+02  0.51100000000E-03 0.  1.
         11   -1    0    0    0    0 -0.00000000000E+00 -0.00000000000E+00 -0.45593999997E+02  0.45594000000E+02  0.51100000000E-03 0. -1.
    9900012    2    1    2    0    0 -0.28400609283E+02  0.15962956254E+01  0.29052050523E+02  0.50528875478E+02  0.30000047502E+02 0.  0.
         12    1    1    2    0    0  0.28400609283E+02 -0.15962956254E+01 -0.29052050523E+02  0.40659124522E+02  0.00000000000E+00 0. -1.
         11    1    3    3    0    0 -0.10309655734E+01  0.66992492156E+00  0.12858686386E+00  0.12362136776E+01  0.51100000000E-03 0. -1.
        -11    1    3    3    0    0 -0.74077864073E+01  0.94092604504E+01 -0.13501012845E+01  0.12051234601E+02  0.51100000000E-03 0.  1.
        -12    1    3    3    0    0 -0.19961857302E+02 -0.84828897465E+01  0.30273564943E+02  0.37241427199E+02  0.00000000000E+00 0.  1.
</event>
<event>
 7    1  0.6073302E-013  0.5052886E+02  0.7816164E-02  0.1300439E+00
        -11   -1    0    0    0    0  0.00000000000E+00  0.00000000000E+00  0.45593999997E+02  0.45594000000E+02  0.51100000000E-03 0.  1.
         11   -1    0    0    0    0 -0.00000000000E+00 -0.00000000000E+00 -0.45593999997E+02  0.45594000000E+02  0.51100000000E-03 0. -1.
    9900012    2    1    2    0    0  0.37375824682E+02 -0.11824717901E+02  0.10788386566E+02  0.50528861928E+02  0.30000006315E+02 0.  0.
         12    1    1    2    0    0 -0.37375824682E+02  0.11824717901E+02 -0.10788386566E+02  0.40659138072E+02  0.00000000000E+00 0. -1.
         11    1    3    3    0    0  0.19513017787E+02 -0.12331356800E+02 -0.24126966514E+01  0.23208647722E+02  0.51100000000E-03 0. -1.
        -11    1    3    3    0    0  0.12303647191E+02  0.35821632988E+01  0.15896927782E+02  0.20418715465E+02  0.51100000000E-03 0.  1.
        -12    1    3    3    0    0  0.55591597043E+01 -0.30755243993E+01 -0.26958445642E+01  0.69014987404E+01  0.00000000000E+00 0.  1.
</event>
<event>
 7    1  0.6073302E-013  0.5052885E+02  0.7816164E-02  0.1300439E+00
        -11   -1    0    0    0    0  0.00000000000E+00  0.00000000000E+00  0.45593999997E+02  0.45594000000E+02  0.51100000000E-03 0.  1.
         11   -1    0    0    0    0 -0.00000000000E+00 -0.00000000000E+00 -0.45593999997E+02  0.45594000000E+02  0.51100000000E-03 0. -1.
    9900012    2    1    2    0    0  0.14663110350E+02  0.35612098816E+02  0.13036018537E+02  0.50528853839E+02  0.29999981730E+02 0.  0.
         12    1    1    2    0    0 -0.14663110350E+02 -0.35612098816E+02 -0.13036018537E+02  0.40659146161E+02  0.00000000000E+00 0. -1.
         11    1    3    3    0    0  0.93945030667E+01  0.28184279811E+02  0.38926638361E+01  0.29962695946E+02  0.51100000000E-03 0. -1.
        -11    1    3    3    0    0  0.80717920922E+01 -0.16816396392E+01  0.15715193179E+01  0.83935339806E+01  0.51100000000E-03 0.  1.
         12    1    3    3    0    0 -0.28031848088E+01  0.91094586444E+01  0.75718353830E+01  0.12172623913E+02  0.00000000000E+00 0. -1.
</event>
<event>
 7    1  0.6073302E-013  0.5052885E+02  0.7816164E-02  0.1300439E+00
        -11   -1    0    0    0    0  0.00000000000E+00  0.00000000000E+00  0.45593999997E+02  0.45594000000E+02  0.51100000000E-03 0.  1.
         11   -1    0    0    0    0 -0.00000000000E+00 -0.00000000000E+00 -0.45593999997E+02  0.45594000000E+02  0.51100000000E-03 0. -1.
    9900012    2    1    2    0    0 -0.24505630088E+02 -0.88606158750E+01  0.31211052820E+02  0.50528852962E+02  0.29999979065E+02 0.  0.
         12    1    1    2    0    0  0.24505630088E+02  0.88606158750E+01 -0.31211052820E+02  0.40659147038E+02  0.00000000000E+00 0. -1.
         11    1    3    3    0    0  0.18508698931E+01 -0.62992643789E+01  0.38638413181E+01  0.76181179480E+01  0.51100000000E-03 0. -1.
        -11    1    3    3    0    0 -0.60503261008E+01  0.79353363733E+01  0.60579602579E+01  0.11673683739E+02  0.51100000000E-03 0.  1.
        -12    1    3    3    0    0 -0.20306173880E+02 -0.10496687869E+02  0.21289251244E+02  0.31237051276E+02  0.00000000000E+00 0.  1.
</event>
<event>
 7    1  0.6073302E-013  0.5052886E+02  0.7816164E-02  0.1300439E+00
        -11   -1    0    0    0    0  0.00000000000E+00  0.00000000000E+00  0.45593999997E+02  0.45594000000E+02  0.51100000000E-03 0.  1.
         11   -1    0    0    0    0 -0.00000000000E+00 -0.00000000000E+00 -0.45593999997E+02  0.45594000000E+02  0.51100000000E-03 0. -1.
    9900012    2    1    2    0    0 -0.31470999220E+02 -0.25581888393E+02  0.28825091993E+01  0.50528860008E+02  0.30000000479E+02 0.  0.
         12    1    1    2    0    0  0.31470999220E+02  0.25581888393E+02 -0.28825091993E+01  0.40659139992E+02  0.00000000000E+00 0. -1.
         11    1    3    3    0    0 -0.14265160239E+02  0.10157327833E+01 -0.45112088098E+01  0.14995916608E+02  0.51100000000E-03 0. -1.
        -11    1    3    3    0    0 -0.17180884655E+02 -0.14627540098E+02  0.67208068651E+01  0.23543937055E+02  0.51100000000E-03 0.  1.
         12    1    3    3    0    0 -0.24954325600E-01 -0.11970081078E+02  0.67291114393E+00  0.11989006345E+02  0.00000000000E+00 0. -1.
</event>
<event>
 7    1  0.6073302E-013  0.5052886E+02  0.7816164E-02  0.1300439E+00
        -11   -1    0    0    0    0  0.00000000000E+00  0.00000000000E+00  0.45593999997E+02  0.45594000000E+02  0.51100000000E-03 0. -1.
         11   -1    0    0    0    0 -0.00000000000E+00 -0.00000000000E+00 -0.45593999997E+02  0.45594000000E+02  0.51100000000E-03 0.  1.
    9900012    2    1    2    0    0  0.94943783378E-01  0.40604254120E+02 -0.21098177868E+01  0.50528858371E+02  0.29999995503E+02 0.  0.
         12    1    1    2    0    0 -0.94943783378E-01 -0.40604254120E+02  0.21098177868E+01  0.40659141629E+02  0.00000000000E+00 0. -1.
         11    1    3    3    0    0  0.30384049531E+01  0.35004028216E+02 -0.12544360160E+02  0.37307839231E+02  0.51100000000E-03 0.  1.
        -11    1    3    3    0    0 -0.40291852865E+01  0.30826445314E+01  0.49429906710E+01  0.70830917271E+01  0.51100000000E-03 0. -1.
        -12    1    3    3    0    0  0.10857241168E+01  0.25175813724E+01  0.54915517020E+01  0.61379274124E+01  0.00000000000E+00 0.  1.
</event>
<event>
 7    1  0.6073302E-013  0.5052885E+02  0.7816164E-02  0.1300439E+00
        -11   -1    0    0    0    0  0.00000000000E+00  0.00000000000E+00  0.45593999997E+02  0.45594000000E+02  0.51100000000E-03 0. -1.
         11   -1    0    0    0    0 -0.00000000000E+00 -0.00000000000E+00 -0.45593999997E+02  0.45594000000E+02  0.51100000000E-03 0.  1.
    9900012    2    1    2    0    0 -0.57176000662E+01 -0.11193156211E+02 -0.38667665869E+02  0.50528854900E+02  0.29999984955E+02 0.  0.
         12    1    1    2    0    0  0.57176000662E+01  0.11193156211E+02  0.38667665869E+02  0.40659145100E+02  0.00000000000E+00 0. -1.
         11    1    3    3    0    0  0.65485896863E+01  0.30453667217E+01 -0.31222758164E+01  0.78680932813E+01  0.51100000000E-03 0. -1.
        -11    1    3    3    0    0 -0.11200721527E+02 -0.12579408737E+02 -0.16722155814E+02  0.23734535644E+02  0.51100000000E-03 0.  1.
        -12    1    3    3    0    0 -0.10654682250E+01 -0.16591141955E+01 -0.18823234238E+02  0.18926225975E+02  0.00000000000E+00 0.  1.
</event>
<event>
 7    1  0.6073302E-013  0.5052885E+02  0.7816164E-02  0.1300439E+00
        -11   -1    0    0    0    0  0.00000000000E+00  0.00000000000E+00  0.45593999997E+02  0.45594000000E+02  0.51100000000E-03 0. -1.
         11   -1    0    0    0    0 -0.00000000000E+00 -0.00000000000E+00 -0.45593999997E+02  0.45594000000E+02  0.51100000000E-03 0.  1.
    9900012    2    1    2    0    0 -0.24955735342E+02  0.31576763282E+02  0.57693772336E+01  0.50528850728E+02  0.29999972274E+02 0.  0.
         12    1    1    2    0    0  0.24955735342E+02 -0.31576763282E+02 -0.57693772336E+01  0.40659149272E+02  0.00000000000E+00 0. -1.
         11    1    3    3    0    0  0.10009476211E+01  0.17496543256E+02  0.31743765425E+01  0.17810322533E+02  0.51100000000E-03 0. -1.
        -11    1    3    3    0    0 -0.86621340713E+01 -0.10899391126E+01 -0.26486692570E+01  0.91233756381E+01  0.51100000000E-03 0.  1.
        -12    1    3    3    0    0 -0.17294548892E+02  0.15170159139E+02  0.52436699480E+01  0.23595152557E+02  0.00000000000E+00 0.  1.
</event>
<event>
 7    1  0.6073302E-013  0.5052886E+02  0.7816164E-02  0.1300439E+00
        -11   -1    0    0    0    0  0.00000000000E+00  0.00000000000E+00  0.45593999997E+02  0.45594000000E+02  0.51100000000E-03 0. -1.
         11   -1    0    0    0    0 -0.00000000000E+00 -0.00000000000E+00 -0.45593999997E+02  0.45594000000E+02  0.51100000000E-03 0.  1.
    9900012    2    1    2    0    0 -0.36366579082E+02  0.18776175810E+01 -0.18086235268E+02  0.50528862920E+02  0.30000009332E+02 0.  0.
         12    1    1    2    0    0  0.36366579082E+02 -0.18776175810E+01  0.18086235268E+02  0.40659137080E+02  0.00000000000E+00 0. -1.
         11    1    3    3    0    0 -0.22817772810E+01  0.22125351418E+01  0.46335968177E+01  0.56189001632E+01  0.51100000000E-03 0. -1.
        -11    1    3    3    0    0 -0.35568569019E+02 -0.21146718657E+01 -0.23233040386E+02  0.42536679525E+02  0.51100000000E-03 0.  1.
        -12    1    3    3    0    0  0.14837672180E+01  0.17797543049E+01  0.51320829982E+00  0.23732832326E+01  0.00000000000E+00 0.  1.
</event>
<event>
 7    1  0.6073302E-013  0.5052886E+02  0.7816164E-02  0.1300439E+00
        -11   -1    0    0    0    0  0.00000000000E+00  0.00000000000E+00  0.45593999997E+02  0.45594000000E+02  0.51100000000E-03 0.  1.
         11   -1    0    0    0    0 -0.00000000000E+00 -0.00000000000E+00 -0.45593999997E+02  0.45594000000E+02  0.51100000000E-03 0. -1.
    9900012    2    1    2    0    0 -0.11326922678E+02 -0.36568045204E+02  0.13698356243E+02  0.50528855012E+02  0.29999985293E+02 0.  0.
         12    1    1    2    0    0  0.11326922678E+02  0.36568045204E+02 -0.13698356243E+02  0.40659144988E+02  0.00000000000E+00 0. -1.
         11    1    3    3    0    0 -0.46050008243E+01 -0.90115474954E+01 -0.59136463976E+01  0.11721144775E+02  0.51100000000E-03 0. -1.
        -11    1    3    3    0    0 -0.19765362125E+01 -0.21274497210E+01  0.11254496915E+02  0.11623099362E+02  0.51100000000E-03 0.  1.
        -12    1    3    3    0    0 -0.47453856413E+01 -0.25429047988E+02  0.83575057259E+01  0.27184610875E+02  0.00000000000E+00 0.  1.
</event>
<event>
 7    1  0.6073302E-013  0.5052886E+02  0.7816164E-02  0.1300439E+00
        -11   -1    0    0    0    0  0.00000000000E+00  0.00000000000E+00  0.45593999997E+02  0.45594000000E+02  0.51100000000E-03 0.  1.
         11   -1    0    0    0    0 -0.00000000000E+00 -0.00000000000E+00 -0.45593999997E+02  0.45594000000E+02  0.51100000000E-03 0. -1.
    9900012    2    1    2    0    0 -0.11539731749E+02  0.25167314628E+02  0.29775939343E+02  0.50528859598E+02  0.29999999235E+02 0.  0.
         12    1    1    2    0    0  0.11539731749E+02 -0.25167314628E+02 -0.29775939343E+02  0.40659140402E+02  0.00000000000E+00 0. -1.
         11    1    3    3    0    0 -0.78086605226E+00  0.40083638479E+01 -0.32100370930E+01  0.51943306525E+01  0.51100000000E-03 0. -1.
        -11    1    3    3    0    0 -0.15617361788E+02  0.14768375992E+02  0.29696248463E+02  0.36658888304E+02  0.51100000000E-03 0.  1.
        -12    1    3    3    0    0  0.48584960917E+01  0.63905747886E+01  0.32897279729E+01  0.86756406414E+01  0.00000000000E+00 0.  1.
</event>
<event>
 7    1  0.6073302E-013  0.5052884E+02  0.7816164E-02  0.1300439E+00
        -11   -1    0    0    0    0  0.00000000000E+00  0.00000000000E+00  0.45593999997E+02  0.45594000000E+02  0.51100000000E-03 0.  1.
         11   -1    0    0    0    0 -0.00000000000E+00 -0.00000000000E+00 -0.45593999997E+02  0.45594000000E+02  0.51100000000E-03 0. -1.
    9900012    2    1    2    0    0  0.10404076073E+02 -0.19672848628E+02  0.34027957106E+02  0.50528835758E+02  0.29999926770E+02 0.  0.
         12    1    1    2    0    0 -0.10404076073E+02  0.19672848628E+02 -0.34027957106E+02  0.40659164242E+02  0.00000000000E+00 0. -1.
         11    1    3    3    0    0  0.44763031624E+01 -0.35568289977E+01 -0.48540122233E+01  0.74999838296E+01  0.51100000000E-03 0. -1.
        -11    1    3    3    0    0  0.68124969389E+01 -0.94014952960E+01  0.26019392750E+02  0.28492227496E+02  0.51100000000E-03 0.  1.
        -12    1    3    3    0    0 -0.88472402839E+00 -0.67145243345E+01  0.12862576579E+02  0.14536624433E+02  0.00000000000E+00 0.  1.
</event>
<event>
 7    1  0.6073302E-013  0.5052884E+02  0.7816164E-02  0.1300439E+00
        -11   -1    0    0    0    0  0.00000000000E+00  0.00000000000E+00  0.45593999997E+02  0.45594000000E+02  0.51100000000E-03 0. -1.
         11   -1    0    0    0    0 -0.00000000000E+00 -0.00000000000E+00 -0.45593999997E+02  0.45594000000E+02  0.51100000000E-03 0.  1.
    9900012    2    1    2    0    0  0.12122432276E+01  0.40340580102E+02 -0.49331149220E+01  0.50528836710E+02  0.29999929665E+02 0.  0.
         12    1    1    2    0    0 -0.12122432276E+01 -0.40340580102E+02  0.49331149220E+01  0.40659163290E+02  0.00000000000E+00 0. -1.
         11    1    3    3    0    0 -0.59589958709E+01  0.99634252558E+01 -0.12888269823E+01  0.11680776938E+02  0.51100000000E-03 0. -1.
        -11    1    3    3    0    0  0.15263827909E+02  0.19264599725E+02 -0.48348200520E+01  0.25049645311E+02  0.51100000000E-03 0.  1.
        -12    1    3    3    0    0 -0.80925888101E+01  0.11112555120E+02  0.11905321124E+01  0.13798414462E+02  0.00000000000E+00 0.  1.
</event>
<event>
 7    1  0.6073302E-013  0.5052886E+02  0.7816164E-02  0.1300439E+00
        -11   -1    0    0    0    0  0.00000000000E+00  0.00000000000E+00  0.45593999997E+02  0.45594000000E+02  0.51100000000E-03 0.  1.
         11   -1    0    0    0    0 -0.00000000000E+00 -0.00000000000E+00 -0.45593999997E+02  0.45594000000E+02  0.51100000000E-03 0. -1.
    9900012    2    1    2    0    0  0.95373373051E+01  0.31790205310E+01  0.39396680958E+02  0.50528862713E+02  0.30000008701E+02 0.  0.
         12    1    1    2    0    0 -0.95373373051E+01 -0.31790205310E+01 -0.39396680958E+02  0.40659137287E+02  0.00000000000E+00 0. -1.
         11    1    3    3    0    0  0.60061151967E+00  0.17819041154E+00 -0.42247068344E+00  0.75562408631E+00  0.51100000000E-03 0. -1.
        -11    1    3    3    0    0 -0.88821060517E+01 -0.59885676652E+00  0.43308393228E+01  0.98998286269E+01  0.51100000000E-03 0.  1.
        -12    1    3    3    0    0  0.17818831837E+02  0.35996868860E+01  0.35488312319E+02  0.39873409999E+02  0.00000000000E+00 0.  1.
</event>
<event>
 7    1  0.6073302E-013  0.5052886E+02  0.7816164E-02  0.1300439E+00
        -11   -1    0    0    0    0  0.00000000000E+00  0.00000000000E+00  0.45593999997E+02  0.45594000000E+02  0.51100000000E-03 0. -1.
         11   -1    0    0    0    0 -0.00000000000E+00 -0.00000000000E+00 -0.45593999997E+02  0.45594000000E+02  0.51100000000E-03 0.  1.
    9900012    2    1    2    0    0 -0.32796636062E+02 -0.47186331221E+01 -0.23564393308E+02  0.50528862436E+02  0.30000007860E+02 0.  0.
         12    1    1    2    0    0  0.32796636062E+02  0.47186331221E+01  0.23564393308E+02  0.40659137564E+02  0.00000000000E+00 0. -1.
         11    1    3    3    0    0 -0.55889994582E+01 -0.56651315339E+01  0.23305665670E+00  0.79614663164E+01  0.51100000000E-03 0. -1.
        -11    1    3    3    0    0  0.66988639102E+00  0.65730569946E+01 -0.65656288442E+01  0.93145750527E+01  0.51100000000E-03 0.  1.
        -12    1    3    3    0    0 -0.27877522994E+02 -0.56265585828E+01 -0.17231821120E+02  0.33252821067E+02  0.00000000000E+00 0.  1.
</event>
<event>
 7    1  0.6073302E-013  0.5052886E+02  0.7816164E-02  0.1300439E+00
        -11   -1    0    0    0    0  0.00000000000E+00  0.00000000000E+00  0.45593999997E+02  0.45594000000E+02  0.51100000000E-03 0.  1.
         11   -1    0    0    0    0 -0.00000000000E+00 -0.00000000000E+00 -0.45593999997E+02  0.45594000000E+02  0.51100000000E-03 0. -1.
    9900012    2    1    2    0    0 -0.27550542812E+02 -0.18280049541E+02  0.23663753478E+02  0.50528857742E+02  0.29999993594E+02 0.  0.
         12    1    1    2    0    0  0.27550542812E+02  0.18280049541E+02 -0.23663753478E+02  0.40659142258E+02  0.00000000000E+00 0. -1.
         11    1    3    3    0    0  0.19884851844E+01 -0.95358867212E+01  0.30399708334E+01  0.10204343772E+02  0.51100000000E-03 0. -1.
        -11    1    3    3    0    0 -0.26234564845E+02 -0.11951872909E+02  0.13479334163E+02  0.31824394863E+02  0.51100000000E-03 0.  1.
         12    1    3    3    0    0 -0.33044631511E+01  0.32077100889E+01  0.71444484821E+01  0.85001191077E+01  0.00000000000E+00 0. -1.
</event>
<event>
 7    1  0.6073302E-013  0.5052887E+02  0.7816164E-02  0.1300439E+00
        -11   -1    0    0    0    0  0.00000000000E+00  0.00000000000E+00  0.45593999997E+02  0.45594000000E+02  0.51100000000E-03 0. -1.
         11   -1    0    0    0    0 -0.00000000000E+00 -0.00000000000E+00 -0.45593999997E+02  0.45594000000E+02  0.51100000000E-03 0.  1.
    9900012    2    1    2    0    0 -0.25542008504E+02 -0.25007748339E+02 -0.19374808119E+02  0.50528869844E+02  0.30000030378E+02 0.  0.
         12    1    1    2    0    0  0.25542008504E+02  0.25007748339E+02  0.19374808119E+02  0.40659130156E+02  0.00000000000E+00 0. -1.
         11    1    3    3    0    0  0.47329425540E+01 -0.11964707845E+02 -0.27660165490E+01  0.13160768475E+02  0.51100000000E-03 0. -1.
        -11    1    3    3    0    0 -0.21753789281E+02 -0.79617369262E+01 -0.14157096739E+02  0.27148480460E+02  0.51100000000E-03 0.  1.
         12    1    3    3    0    0 -0.85211617771E+01 -0.50813035677E+01 -0.24516948309E+01  0.10219620909E+02  0.00000000000E+00 0. -1.
</event>
<event>
 7    1  0.6073302E-013  0.5052886E+02  0.7816164E-02  0.1300439E+00
        -11   -1    0    0    0    0  0.00000000000E+00  0.00000000000E+00  0.45593999997E+02  0.45594000000E+02  0.51100000000E-03 0.  1.
         11   -1    0    0    0    0 -0.00000000000E+00 -0.00000000000E+00 -0.45593999997E+02  0.45594000000E+02  0.51100000000E-03 0. -1.
    9900012    2    1    2    0    0 -0.32753202048E+01  0.17934192469E+02  0.36342847122E+02  0.50528861803E+02  0.30000005937E+02 0.  0.
         12    1    1    2    0    0  0.32753202048E+01 -0.17934192469E+02 -0.36342847122E+02  0.40659138197E+02  0.00000000000E+00 0. -1.
         11    1    3    3    0    0 -0.43535033244E+01  0.21435164559E+02  0.16256294576E+02  0.27252273015E+02  0.51100000000E-03 0. -1.
        -11    1    3    3    0    0  0.29778829375E+01 -0.54552610746E+01  0.50872245267E+01  0.80316569790E+01  0.51100000000E-03 0.  1.
         12    1    3    3    0    0 -0.18996998179E+01  0.19542889843E+01  0.14999328020E+02  0.15244931810E+02  0.00000000000E+00 0. -1.
</event>
<event>
 7    1  0.6073302E-013  0.5052886E+02  0.7816164E-02  0.1300439E+00
        -11   -1    0    0    0    0  0.00000000000E+00  0.00000000000E+00  0.45593999997E+02  0.45594000000E+02  0.51100000000E-03 0.  1.
         11   -1    0    0    0    0 -0.00000000000E+00 -0.00000000000E+00 -0.45593999997E+02  0.45594000000E+02  0.51100000000E-03 0. -1.
    9900012    2    1    2    0    0  0.10814084536E+02  0.37894310845E+01  0.39011040754E+02  0.50528861876E+02  0.30000006158E+02 0.  0.
         12    1    1    2    0    0 -0.10814084536E+02 -0.37894310845E+01 -0.39011040754E+02  0.40659138124E+02  0.00000000000E+00 0. -1.
         11    1    3    3    0    0 -0.38692624445E+01  0.12195590645E+02  0.22237983167E+02  0.25656023048E+02  0.51100000000E-03 0. -1.
        -11    1    3    3    0    0  0.84631274259E+01 -0.80690144330E+01  0.13415263799E+02  0.17796146291E+02  0.51100000000E-03 0.  1.
         12    1    3    3    0    0  0.62202195541E+01 -0.33714512727E+00  0.33577937874E+01  0.70766925366E+01  0.00000000000E+00 0. -1.
</event>
<event>
 7    1  0.6073302E-013  0.5052887E+02  0.7816164E-02  0.1300439E+00
        -11   -1    0    0    0    0  0.00000000000E+00  0.00000000000E+00  0.45593999997E+02  0.45594000000E+02  0.51100000000E-03 0. -1.
         11   -1    0    0    0    0 -0.00000000000E+00 -0.00000000000E+00 -0.45593999997E+02  0.45594000000E+02  0.51100000000E-03 0.  1.
    9900012    2    1    2    0    0  0.29854057910E+02 -0.12528348045E+01 -0.27574094339E+02  0.50528867602E+02  0.30000023563E+02 0.  0.
         12    1    1    2    0    0 -0.29854057910E+02  0.12528348045E+01  0.27574094339E+02  0.40659132398E+02  0.00000000000E+00 0. -1.
         11    1    3    3    0    0  0.35736564672E+01  0.10931202365E+02 -0.50207657489E+01  0.12548716853E+02  0.51100000000E-03 0. -1.
        -11    1    3    3    0    0  0.13990506743E+02 -0.89212598142E+01 -0.17981823774E+02  0.24467716324E+02  0.51100000000E-03 0.  1.
         12    1    3    3    0    0  0.12289894700E+02 -0.32627773555E+01 -0.45715048157E+01  0.13512434425E+02  0.00000000000E+00 0. -1.
</event>
<event>
 7    1  0.6073302E-013  0.5052887E+02  0.7816164E-02  0.1300439E+00
        -11   -1    0    0    0    0  0.00000000000E+00  0.00000000000E+00  0.45593999997E+02  0.45594000000E+02  0.51100000000E-03 0.  1.
         11   -1    0    0    0    0 -0.00000000000E+00 -0.00000000000E+00 -0.45593999997E+02  0.45594000000E+02  0.51100000000E-03 0. -1.
    9900012    2    1    2    0    0  0.35931925712E+02  0.18927174830E+02 -0.19554517611E+01  0.50528867889E+02  0.30000024437E+02 0.  0.
         12    1    1    2    0    0 -0.35931925712E+02 -0.18927174830E+02  0.19554517611E+01  0.40659132111E+02  0.00000000000E+00 0. -1.
         11    1    3    3    0    0  0.81004633829E+01 -0.40004491266E+01 -0.34939781849E+01  0.96865362256E+01  0.51100000000E-03 0. -1.
        -11    1    3    3    0    0  0.30080560146E+02  0.23795578822E+02  0.97667021723E+00  0.38366959159E+02  0.51100000000E-03 0.  1.
         12    1    3    3    0    0 -0.22490978171E+01 -0.86795486536E+00  0.56185620653E+00  0.24753725045E+01  0.00000000000E+00 0. -1.
</event>
<event>
 7    1  0.6073302E-013  0.5052886E+02  0.7816164E-02  0.1300439E+00
        -11   -1    0    0    0    0  0.00000000000E+00  0.00000000000E+00  0.45593999997E+02  0.45594000000E+02  0.51100000000E-03 0.  1.
         11   -1    0    0    0    0 -0.00000000000E+00 -0.00000000000E+00 -0.45593999997E+02  0.45594000000E+02  0.51100000000E-03 0. -1.
    9900012    2    1    2    0    0  0.45492796966E-01  0.24772985912E+02  0.32240695273E+02  0.50528864098E+02  0.30000012911E+02 0.  0.
         12    1    1    2    0    0 -0.45492796966E-01 -0.24772985912E+02 -0.32240695273E+02  0.40659135902E+02  0.00000000000E+00 0. -1.
         11    1    3    3    0    0  0.71603401445E+01  0.20436902554E+02  0.95688805740E+01  0.23674900901E+02  0.51100000000E-03 0. -1.
        -11    1    3    3    0    0 -0.33573099158E+01  0.67485767417E+01  0.20591696205E+02  0.21927899369E+02  0.51100000000E-03 0.  1.
         12    1    3    3    0    0 -0.37575374317E+01 -0.24124933833E+01  0.20801184949E+01  0.49260638270E+01  0.00000000000E+00 0. -1.
</event>
<event>
 7    1  0.6073302E-013  0.5052886E+02  0.7816164E-02  0.1300439E+00
        -11   -1    0    0    0    0  0.00000000000E+00  0.00000000000E+00  0.45593999997E+02  0.45594000000E+02  0.51100000000E-03 0.  1.
         11   -1    0    0    0    0 -0.00000000000E+00 -0.00000000000E+00 -0.45593999997E+02  0.45594000000E+02  0.51100000000E-03 0. -1.
    9900012    2    1    2    0    0  0.35470126062E+02 -0.11889059489E+02 -0.15927517527E+02  0.50528863352E+02  0.30000010645E+02 0.  0.
         12    1    1    2    0    0 -0.35470126062E+02  0.11889059489E+02  0.15927517527E+02  0.40659136648E+02  0.00000000000E+00 0. -1.
         11    1    3    3    0    0  0.85236959737E+01  0.71594123443E+01 -0.55930781892E+01  0.12457652349E+02  0.51100000000E-03 0. -1.
        -11    1    3    3    0    0  0.27290767311E+02 -0.17286144529E+02 -0.13028963100E+02  0.34833183214E+02  0.51100000000E-03 0.  1.
        -12    1    3    3    0    0 -0.34433722254E+00 -0.17623273045E+01  0.26945237629E+01  0.32380277886E+01  0.00000000000E+00 0.  1.
</event>
<event>
 7    1  0.6073302E-013  0.5052887E+02  0.7816164E-02  0.1300439E+00
        -11   -1    0    0    0    0  0.00000000000E+00  0.00000000000E+00  0.45593999997E+02  0.45594000000E+02  0.51100000000E-03 0.  1.
         11   -1    0    0    0    0 -0.00000000000E+00 -0.00000000000E+00 -0.45593999997E+02  0.45594000000E+02  0.51100000000E-03 0. -1.
    9900012    2    1    2    0    0 -0.16753063990E+02  0.22917775361E+02  0.29107994949E+02  0.50528868793E+02  0.30000027183E+02 0.  0.
         12    1    1    2    0    0  0.16753063990E+02 -0.22917775361E+02 -0.29107994949E+02  0.40659131207E+02  0.00000000000E+00 0. -1.
         11    1    3    3    0    0  0.52102765574E+00 -0.21056010000E+01  0.52870128315E+00  0.22326107357E+01  0.51100000000E-03 0. -1.
        -11    1    3    3    0    0 -0.16944618832E+02  0.16589697589E+02  0.31443724024E+02  0.39383320761E+02  0.51100000000E-03 0.  1.
        -12    1    3    3    0    0 -0.32947281356E+00  0.84336787721E+01 -0.28644303575E+01  0.89129372958E+01  0.00000000000E+00 0.  1.
</event>
<event>
 7    1  0.6073302E-013  0.5052888E+02  0.7816164E-02  0.1300439E+00
        -11   -1    0    0    0    0  0.00000000000E+00  0.00000000000E+00  0.45593999997E+02  0.45594000000E+02  0.51100000000E-03 0. -1.
         11   -1    0    0    0    0 -0.00000000000E+00 -0.00000000000E+00 -0.45593999997E+02  0.45594000000E+02  0.51100000000E-03 0.  1.
    9900012    2    1    2    0    0 -0.36609445981E+02  0.11605748842E+02 -0.13349872327E+02  0.50528880084E+02  0.30000061504E+02 0.  0.
         12    1    1    2    0    0  0.36609445981E+02 -0.11605748842E+02  0.13349872327E+02  0.40659119916E+02  0.00000000000E+00 0. -1.
         11    1    3    3    0    0 -0.14710734051E+02  0.16668357078E+01  0.64932882919E+01  0.16166224999E+02  0.51100000000E-03 0. -1.
        -11    1    3    3    0    0 -0.93099283168E+01  0.11175384985E+02 -0.63605103070E+01  0.15875140517E+02  0.51100000000E-03 0.  1.
         12    1    3    3    0    0 -0.12588783613E+02 -0.12364718507E+01 -0.13482650312E+02  0.18487514568E+02  0.00000000000E+00 0. -1.
</event>
<event>
 7    1  0.6073302E-013  0.5052886E+02  0.7816164E-02  0.1300439E+00
        -11   -1    0    0    0    0  0.00000000000E+00  0.00000000000E+00  0.45593999997E+02  0.45594000000E+02  0.51100000000E-03 0.  1.
         11   -1    0    0    0    0 -0.00000000000E+00 -0.00000000000E+00 -0.45593999997E+02  0.45594000000E+02  0.51100000000E-03 0. -1.
    9900012    2    1    2    0    0 -0.23938146086E+02 -0.30438353918E+02  0.12395071986E+02  0.50528855434E+02  0.29999986579E+02 0.  0.
         12    1    1    2    0    0  0.23938146086E+02  0.30438353918E+02 -0.12395071986E+02  0.40659144566E+02  0.00000000000E+00 0. -1.
         11    1    3    3    0    0 -0.24336369334E+01  0.54609695654E+00  0.66472790037E+01  0.70997978157E+01  0.51100000000E-03 0. -1.
        -11    1    3    3    0    0 -0.24942149440E+02 -0.26996537276E+02  0.17112786429E+01  0.36794732210E+02  0.51100000000E-03 0.  1.
        -12    1    3    3    0    0  0.34376402872E+01 -0.39879135986E+01  0.40365143394E+01  0.66343254086E+01  0.00000000000E+00 0.  1.
</event>
<event>
 7    1  0.6073302E-013  0.5052886E+02  0.7816164E-02  0.1300439E+00
        -11   -1    0    0    0    0  0.00000000000E+00  0.00000000000E+00  0.45593999997E+02  0.45594000000E+02  0.51100000000E-03 0.  1.
         11   -1    0    0    0    0 -0.00000000000E+00 -0.00000000000E+00 -0.45593999997E+02  0.45594000000E+02  0.51100000000E-03 0. -1.
    9900012    2    1    2    0    0 -0.88437749056E+01 -0.25194000952E+02  0.30662931179E+02  0.50528863425E+02  0.30000010866E+02 0.  0.
         12    1    1    2    0    0  0.88437749056E+01  0.25194000952E+02 -0.30662931179E+02  0.40659136575E+02  0.00000000000E+00 0. -1.
         11    1    3    3    0    0 -0.23821019866E+01 -0.13600718039E+01  0.19767838187E+02  0.19957245101E+02  0.51100000000E-03 0. -1.
        -11    1    3    3    0    0 -0.63465220530E+01 -0.76589270390E+01 -0.16742927775E+01  0.10086662586E+02  0.51100000000E-03 0.  1.
        -12    1    3    3    0    0 -0.11515086597E+00 -0.16175002109E+02  0.12569385769E+02  0.20484955738E+02  0.00000000000E+00 0.  1.
</event>
<event>
 7    1  0.6073302E-013  0.5052886E+02  0.7816164E-02  0.1300439E+00
        -11   -1    0    0    0    0  0.00000000000E+00  0.00000000000E+00  0.45593999997E+02  0.45594000000E+02  0.51100000000E-03 0.  1.
         11   -1    0    0    0    0 -0.00000000000E+00 -0.00000000000E+00 -0.45593999997E+02  0.45594000000E+02  0.51100000000E-03 0. -1.
    9900012    2    1    2    0    0  0.26076752149E+02 -0.31076921255E+02 -0.27190649162E+01  0.50528863863E+02  0.30000012199E+02 0.  0.
         12    1    1    2    0    0 -0.26076752149E+02  0.31076921255E+02  0.27190649162E+01  0.40659136137E+02  0.00000000000E+00 0. -1.
         11    1    3    3    0    0  0.13237913139E+02 -0.11534201783E+02  0.12773428982E+02  0.21712683926E+02  0.51100000000E-03 0.  1.
        -11    1    3    3    0    0  0.38346066496E+01 -0.11782043760E+02 -0.84868161989E+01  0.15018216032E+02  0.51100000000E-03 0. -1.
        -12    1    3    3    0    0  0.90042323604E+01 -0.77606757124E+01 -0.70056776991E+01  0.13797963905E+02  0.00000000000E+00 0.  1.
</event>
<event>
 7    1  0.6073302E-013  0.5052886E+02  0.7816164E-02  0.1300439E+00
        -11   -1    0    0    0    0  0.00000000000E+00  0.00000000000E+00  0.45593999997E+02  0.45594000000E+02  0.51100000000E-03 0.  1.
         11   -1    0    0    0    0 -0.00000000000E+00 -0.00000000000E+00 -0.45593999997E+02  0.45594000000E+02  0.51100000000E-03 0. -1.
    9900012    2    1    2    0    0 -0.40391663697E+01  0.16064524984E+02  0.37131952212E+02  0.50528859540E+02  0.29999999056E+02 0.  0.
         12    1    1    2    0    0  0.40391663697E+01 -0.16064524984E+02 -0.37131952212E+02  0.40659140460E+02  0.00000000000E+00 0. -1.
         11    1    3    3    0    0 -0.34867795167E+01 -0.40181244078E+01  0.26642220207E+02  0.27168195615E+02  0.51100000000E-03 0. -1.
        -11    1    3    3    0    0 -0.60012806951E+00  0.68081912283E+01  0.66642833035E+01  0.95459045518E+01  0.51100000000E-03 0.  1.
         12    1    3    3    0    0  0.47741216511E-01  0.13274458163E+02  0.38254487009E+01  0.13814759372E+02  0.00000000000E+00 0. -1.
</event>
<event>
 7    1  0.6073302E-013  0.5052886E+02  0.7816164E-02  0.1300439E+00
        -11   -1    0    0    0    0  0.00000000000E+00  0.00000000000E+00  0.45593999997E+02  0.45594000000E+02  0.51100000000E-03 0.  1.
         11   -1    0    0    0    0 -0.00000000000E+00 -0.00000000000E+00 -0.45593999997E+02  0.45594000000E+02  0.51100000000E-03 0. -1.
    9900012    2    1    2    0    0 -0.38761923965E+01  0.27751032333E+02  0.29462202494E+02  0.50528855410E+02  0.29999986504E+02 0.  0.
         12    1    1    2    0    0  0.38761923965E+01 -0.27751032333E+02 -0.29462202494E+02  0.40659144590E+02  0.00000000000E+00 0. -1.
         11    1    3    3    0    0  0.25719816670E+01 -0.54802923056E+01  0.23258249662E+01  0.64852259394E+01  0.51100000000E-03 0. -1.
        -11    1    3    3    0    0 -0.30959347447E+01  0.24572884355E+02  0.15746960815E+02  0.29349245861E+02  0.51100000000E-03 0.  1.
         12    1    3    3    0    0 -0.33522393188E+01  0.86584402835E+01  0.11389416713E+02  0.14694383609E+02  0.00000000000E+00 0. -1.
</event>
<event>
 7    1  0.6073302E-013  0.5052885E+02  0.7816164E-02  0.1300439E+00
        -11   -1    0    0    0    0  0.00000000000E+00  0.00000000000E+00  0.45593999997E+02  0.45594000000E+02  0.51100000000E-03 0.  1.
         11   -1    0    0    0    0 -0.00000000000E+00 -0.00000000000E+00 -0.45593999997E+02  0.45594000000E+02  0.51100000000E-03 0. -1.
    9900012    2    1    2    0    0  0.32815338451E+02 -0.21207955405E+02  0.11249124882E+02  0.50528848254E+02  0.29999964752E+02 0.  0.
         12    1    1    2    0    0 -0.32815338451E+02  0.21207955405E+02 -0.11249124882E+02  0.40659151746E+02  0.00000000000E+00 0. -1.
         11    1    3    3    0    0  0.27686249313E+01 -0.33035229394E+01  0.69995055777E+01  0.82201962516E+01  0.51100000000E-03 0. -1.
        -11    1    3    3    0    0  0.14607241144E+02 -0.16689425790E+02 -0.68976638199E+01  0.23226842090E+02  0.51100000000E-03 0.  1.
        -12    1    3    3    0    0  0.15439472376E+02 -0.12150066757E+01  0.11147283124E+02  0.19081809912E+02  0.00000000000E+00 0.  1.
</event>
<event>
 7    1  0.6073302E-013  0.5052886E+02  0.7816164E-02  0.1300439E+00
        -11   -1    0    0    0    0  0.00000000000E+00  0.00000000000E+00  0.45593999997E+02  0.45594000000E+02  0.51100000000E-03 0.  1.
         11   -1    0    0    0    0 -0.00000000000E+00 -0.00000000000E+00 -0.45593999997E+02  0.45594000000E+02  0.51100000000E-03 0. -1.
    9900012    2    1    2    0    0 -0.30496165746E+02 -0.13983623046E+02  0.22969713442E+02  0.50528861121E+02  0.30000003865E+02 0.  0.
         12    1    1    2    0    0  0.30496165746E+02  0.13983623046E+02 -0.22969713442E+02  0.40659138879E+02  0.00000000000E+00 0. -1.
         11    1    3    3    0    0 -0.16462553759E+02 -0.13426655002E+02  0.26715699283E+02  0.34132379484E+02  0.51100000000E-03 0. -1.
        -11    1    3    3    0    0 -0.90956204184E+01  0.94148768409E+00  0.12315215345E+01  0.92267738352E+01  0.51100000000E-03 0.  1.
         12    1    3    3    0    0 -0.49379915688E+01 -0.14984557287E+01 -0.49775073750E+01  0.71697078024E+01  0.00000000000E+00 0. -1.
</event>
<event>
 7    1  0.6073302E-013  0.5052885E+02  0.7816164E-02  0.1300439E+00
        -11   -1    0    0    0    0  0.00000000000E+00  0.00000000000E+00  0.45593999997E+02  0.45594000000E+02  0.51100000000E-03 0. -1.
         11   -1    0    0    0    0 -0.00000000000E+00 -0.00000000000E+00 -0.45593999997E+02  0.45594000000E+02  0.51100000000E-03 0.  1.
    9900012    2    1    2    0    0  0.89132489581E+01 -0.37642330595E+02  0.12520983690E+02  0.50528854754E+02  0.29999984510E+02 0.  0.
         12    1    1    2    0    0 -0.89132489581E+01  0.37642330595E+02 -0.12520983690E+02  0.40659145246E+02  0.00000000000E+00 0. -1.
         11    1    3    3    0    0 -0.39834884262E+01  0.29106373991E+01  0.18487530133E+01  0.52685745773E+01  0.51100000000E-03 0. -1.
        -11    1    3    3    0    0  0.52446764506E+01 -0.24611837388E+02  0.11258116807E+02  0.27567995302E+02  0.51100000000E-03 0.  1.
         12    1    3    3    0    0  0.76520609338E+01 -0.15941130606E+02 -0.58588613074E+00  0.17692284875E+02  0.00000000000E+00 0. -1.
</event>
<event>
 7    1  0.6073302E-013  0.5052883E+02  0.7816164E-02  0.1300439E+00
        -11   -1    0    0    0    0  0.00000000000E+00  0.00000000000E+00  0.45593999997E+02  0.45594000000E+02  0.51100000000E-03 0.  1.
         11   -1    0    0    0    0 -0.00000000000E+00 -0.00000000000E+00 -0.45593999997E+02  0.45594000000E+02  0.51100000000E-03 0. -1.
    9900012    2    1    2    0    0 -0.11753446208E+02  0.36318962121E+02  0.13998476881E+02  0.50528832985E+02  0.29999918342E+02 0.  0.
         12    1    1    2    0    0  0.11753446208E+02 -0.36318962121E+02 -0.13998476881E+02  0.40659167015E+02  0.00000000000E+00 0. -1.
         11    1    3    3    0    0 -0.19985648522E+02  0.32348618691E+02  0.13596284827E+02  0.40382152486E+02  0.51100000000E-03 0. -1.
        -11    1    3    3    0    0  0.76437925207E+01  0.47141753335E+01 -0.26926673750E+00  0.89846267597E+01  0.51100000000E-03 0.  1.
        -12    1    3    3    0    0  0.58840979349E+00 -0.74383190299E+00  0.67145879124E+00  0.11620537394E+01  0.00000000000E+00 0.  1.
</event>
<event>
 7    1  0.6073302E-013  0.5052885E+02  0.7816164E-02  0.1300439E+00
        -11   -1    0    0    0    0  0.00000000000E+00  0.00000000000E+00  0.45593999997E+02  0.45594000000E+02  0.51100000000E-03 0.  1.
         11   -1    0    0    0    0 -0.00000000000E+00 -0.00000000000E+00 -0.45593999997E+02  0.45594000000E+02  0.51100000000E-03 0. -1.
    9900012    2    1    2    0    0  0.37621731951E+02 -0.78015453946E+01  0.13300668754E+02  0.50528848326E+02  0.29999964972E+02 0.  0.
         12    1    1    2    0    0 -0.37621731951E+02  0.78015453946E+01 -0.13300668754E+02  0.40659151674E+02  0.00000000000E+00 0. -1.
         11    1    3    3    0    0  0.21790570917E+01 -0.10812416259E+00 -0.27271471010E+01  0.34924650628E+01  0.51100000000E-03 0. -1.
        -11    1    3    3    0    0  0.11070212842E+02  0.16023569839E+01  0.17655562511E+02  0.20900623152E+02  0.51100000000E-03 0.  1.
        -12    1    3    3    0    0  0.24372462017E+02 -0.92957782159E+01 -0.16277466567E+01  0.26135760112E+02  0.00000000000E+00 0.  1.
</event>
<event>
 7    1  0.6073302E-013  0.5052885E+02  0.7816164E-02  0.1300439E+00
        -11   -1    0    0    0    0  0.00000000000E+00  0.00000000000E+00  0.45593999997E+02  0.45594000000E+02  0.51100000000E-03 0.  1.
         11   -1    0    0    0    0 -0.00000000000E+00 -0.00000000000E+00 -0.45593999997E+02  0.45594000000E+02  0.51100000000E-03 0. -1.
    9900012    2    1    2    0    0 -0.12144545220E+02  0.35009521016E+02  0.16733493082E+02  0.50528851815E+02  0.29999975577E+02 0.  0.
         12    1    1    2    0    0  0.12144545220E+02 -0.35009521016E+02 -0.16733493082E+02  0.40659148185E+02  0.00000000000E+00 0. -1.
         11    1    3    3    0    0 -0.62394828113E+01  0.35059704866E+00  0.68680297177E+01  0.92856823393E+01  0.51100000000E-03 0. -1.
        -11    1    3    3    0    0  0.66304915987E+01  0.13905017202E+02  0.10365842063E+01  0.15439800170E+02  0.51100000000E-03 0.  1.
        -12    1    3    3    0    0 -0.12535554007E+02  0.20753906766E+02  0.88288791580E+01  0.25803369305E+02  0.00000000000E+00 0.  1.
</event>
<event>
 7    1  0.6073302E-013  0.5052885E+02  0.7816164E-02  0.1300439E+00
        -11   -1    0    0    0    0  0.00000000000E+00  0.00000000000E+00  0.45593999997E+02  0.45594000000E+02  0.51100000000E-03 0.  1.
         11   -1    0    0    0    0 -0.00000000000E+00 -0.00000000000E+00 -0.45593999997E+02  0.45594000000E+02  0.51100000000E-03 0. -1.
    9900012    2    1    2    0    0 -0.23821850708E+02  0.27955125703E+02 -0.17441243298E+02  0.50528848607E+02  0.29999965825E+02 0.  0.
         12    1    1    2    0    0  0.23821850708E+02 -0.27955125703E+02  0.17441243298E+02  0.40659151393E+02  0.00000000000E+00 0. -1.
         11    1    3    3    0    0 -0.69351702985E+01  0.59281499719E+01 -0.10129760482E+02  0.13632739888E+02  0.51100000000E-03 0. -1.
        -11    1    3    3    0    0  0.49389267947E+01 -0.26307328801E+00 -0.14491804354E+01  0.51538655040E+01  0.51100000000E-03 0.  1.
        -12    1    3    3    0    0 -0.21825607204E+02  0.22290049019E+02 -0.58623023808E+01  0.31742243215E+02  0.00000000000E+00 0.  1.
</event>
<event>
 7    1  0.6073302E-013  0.5052885E+02  0.7816164E-02  0.1300439E+00
        -11   -1    0    0    0    0  0.00000000000E+00  0.00000000000E+00  0.45593999997E+02  0.45594000000E+02  0.51100000000E-03 0. -1.
         11   -1    0    0    0    0 -0.00000000000E+00 -0.00000000000E+00 -0.45593999997E+02  0.45594000000E+02  0.51100000000E-03 0.  1.
    9900012    2    1    2    0    0 -0.23717366526E+02  0.63017479990E+01 -0.32418221271E+02  0.50528848839E+02  0.29999966531E+02 0.  0.
         12    1    1    2    0    0  0.23717366526E+02 -0.63017479990E+01  0.32418221271E+02  0.40659151161E+02  0.00000000000E+00 0. -1.
         11    1    3    3    0    0  0.48839838334E+01  0.76359126020E+01 -0.10270506005E+02  0.13698312057E+02  0.51100000000E-03 0. -1.
        -11    1    3    3    0    0 -0.10713288339E+02  0.27004573894E+01 -0.92820462400E+01  0.14429948018E+02  0.51100000000E-03 0.  1.
         12    1    3    3    0    0 -0.17888062021E+02 -0.40346219924E+01 -0.12865669025E+02  0.22400588763E+02  0.00000000000E+00 0. -1.
</event>
<event>
 7    1  0.6073302E-013  0.5052886E+02  0.7816164E-02  0.1300439E+00
        -11   -1    0    0    0    0  0.00000000000E+00  0.00000000000E+00  0.45593999997E+02  0.45594000000E+02  0.51100000000E-03 0.  1.
         11   -1    0    0    0    0 -0.00000000000E+00 -0.00000000000E+00 -0.45593999997E+02  0.45594000000E+02  0.51100000000E-03 0. -1.
    9900012    2    1    2    0    0  0.61780861498E+01  0.18307498984E+02  0.35774740810E+02  0.50528863911E+02  0.30000012343E+02 0.  0.
         12    1    1    2    0    0 -0.61780861498E+01 -0.18307498984E+02 -0.35774740810E+02  0.40659136089E+02  0.00000000000E+00 0. -1.
         11    1    3    3    0    0 -0.45214170047E+00  0.16073640505E+02  0.21882933463E+02  0.27155646345E+02  0.51100000000E-03 0.  1.
        -11    1    3    3    0    0  0.55112781081E+01 -0.70213566433E+01  0.96051252453E+01  0.13112286861E+02  0.51100000000E-03 0. -1.
        -12    1    3    3    0    0  0.11189497421E+01  0.92552151219E+01  0.42866821011E+01  0.10260930704E+02  0.00000000000E+00 0.  1.
</event>
<event>
 7    1  0.6073302E-013  0.5052886E+02  0.7816164E-02  0.1300439E+00
        -11   -1    0    0    0    0  0.00000000000E+00  0.00000000000E+00  0.45593999997E+02  0.45594000000E+02  0.51100000000E-03 0.  1.
         11   -1    0    0    0    0 -0.00000000000E+00 -0.00000000000E+00 -0.45593999997E+02  0.45594000000E+02  0.51100000000E-03 0. -1.
    9900012    2    1    2    0    0  0.15221977359E+02 -0.22389647967E+02  0.30334147479E+02  0.50528862847E+02  0.30000009109E+02 0.  0.
         12    1    1    2    0    0 -0.15221977359E+02  0.22389647967E+02 -0.30334147479E+02  0.40659137153E+02  0.00000000000E+00 0. -1.
         11    1    3    3    0    0  0.44219884688E+01 -0.10236896464E+01  0.27144674625E+01  0.52886913671E+01  0.51100000000E-03 0. -1.
        -11    1    3    3    0    0  0.98781652618E+01 -0.20071485266E+02  0.32866828844E+02  0.39757654712E+02  0.51100000000E-03 0.  1.
        -12    1    3    3    0    0  0.92182362800E+00 -0.12944730546E+01 -0.52471488271E+01  0.54825167673E+01  0.00000000000E+00 0.  1.
</event>
<event>
 7    1  0.6073302E-013  0.5052888E+02  0.7816164E-02  0.1300439E+00
        -11   -1    0    0    0    0  0.00000000000E+00  0.00000000000E+00  0.45593999997E+02  0.45594000000E+02  0.51100000000E-03 0.  1.
         11   -1    0    0    0    0 -0.00000000000E+00 -0.00000000000E+00 -0.45593999997E+02  0.45594000000E+02  0.51100000000E-03 0. -1.
    9900012    2    1    2    0    0  0.19133462750E+02 -0.18495115607E+02  0.30740945057E+02  0.50528875549E+02  0.30000047719E+02 0.  0.
         12    1    1    2    0    0 -0.19133462750E+02  0.18495115607E+02 -0.30740945057E+02  0.40659124451E+02  0.00000000000E+00 0. -1.
         11    1    3    3    0    0  0.17059703195E+02 -0.12722189404E+02  0.15773829852E+02  0.26489644859E+02  0.51100000000E-03 0. -1.
        -11    1    3    3    0    0  0.43880350504E+01  0.38441040000E+01  0.12575373685E+02  0.13862611974E+02  0.51100000000E-03 0.  1.
        -12    1    3    3    0    0 -0.23142754952E+01 -0.96170302029E+01  0.23917415209E+01  0.10176618716E+02  0.00000000000E+00 0.  1.
</event>
<event>
 7    1  0.6073302E-013  0.5052886E+02  0.7816164E-02  0.1300439E+00
        -11   -1    0    0    0    0  0.00000000000E+00  0.00000000000E+00  0.45593999997E+02  0.45594000000E+02  0.51100000000E-03 0.  1.
         11   -1    0    0    0    0 -0.00000000000E+00 -0.00000000000E+00 -0.45593999997E+02  0.45594000000E+02  0.51100000000E-03 0. -1.
    9900012    2    1    2    0    0 -0.17767354921E+02 -0.35977007623E+02  0.65682489829E+01  0.50528857447E+02  0.29999992697E+02 0.  0.
         12    1    1    2    0    0  0.17767354921E+02  0.35977007623E+02 -0.65682489829E+01  0.40659142553E+02  0.00000000000E+00 0. -1.
         11    1    3    3    0    0 -0.11580471799E+02 -0.17432087110E+02 -0.27911637551E+01  0.21113398198E+02  0.51100000000E-03 0. -1.
        -11    1    3    3    0    0  0.44372622651E+01 -0.40783749273E+01  0.97502871681E+01  0.11462571203E+02  0.51100000000E-03 0.  1.
        -12    1    3    3    0    0 -0.10624145387E+02 -0.14466545586E+02 -0.39087443002E+00  0.17952888047E+02  0.00000000000E+00 0.  1.
</event>
<event>
 7    1  0.6073302E-013  0.5052888E+02  0.7816164E-02  0.1300439E+00
        -11   -1    0    0    0    0  0.00000000000E+00  0.00000000000E+00  0.45593999997E+02  0.45594000000E+02  0.51100000000E-03 0.  1.
         11   -1    0    0    0    0 -0.00000000000E+00 -0.00000000000E+00 -0.45593999997E+02  0.45594000000E+02  0.51100000000E-03 0. -1.
    9900012    2    1    2    0    0  0.24825339160E+02  0.12993141232E+02  0.29462602182E+02  0.50528879119E+02  0.30000058570E+02 0.  0.
         12    1    1    2    0    0 -0.24825339160E+02 -0.12993141232E+02 -0.29462602182E+02  0.40659120881E+02  0.00000000000E+00 0. -1.
         11    1    3    3    0    0  0.42017666020E+01  0.97380703824E+01 -0.27368681315E+01  0.10953323915E+02  0.51100000000E-03 0. -1.
        -11    1    3    3    0    0  0.20046399711E+02  0.40400025295E+01  0.24944026498E+02  0.32254987521E+02  0.51100000000E-03 0.  1.
         12    1    3    3    0    0  0.57717284717E+00 -0.78493168038E+00  0.72554438158E+01  0.73205676831E+01  0.00000000000E+00 0. -1.
</event>
<event>
 7    1  0.6073302E-013  0.5052886E+02  0.7816164E-02  0.1300439E+00
        -11   -1    0    0    0    0  0.00000000000E+00  0.00000000000E+00  0.45593999997E+02  0.45594000000E+02  0.51100000000E-03 0.  1.
         11   -1    0    0    0    0 -0.00000000000E+00 -0.00000000000E+00 -0.45593999997E+02  0.45594000000E+02  0.51100000000E-03 0. -1.
    9900012    2    1    2    0    0  0.26480686702E+02 -0.16684888991E+02  0.25952912782E+02  0.50528856247E+02  0.29999989049E+02 0.  0.
         12    1    1    2    0    0 -0.26480686702E+02  0.16684888991E+02 -0.25952912782E+02  0.40659143753E+02  0.00000000000E+00 0. -1.
         11    1    3    3    0    0  0.95702846187E+01 -0.20322252256E+02  0.21138458455E+02  0.30845075953E+02  0.51100000000E-03 0. -1.
        -11    1    3    3    0    0  0.84318298212E+01  0.16592849685E+01  0.65513204788E+01  0.10805960439E+02  0.51100000000E-03 0.  1.
         12    1    3    3    0    0  0.84785722619E+01  0.19780782961E+01 -0.17368661519E+01  0.88778198549E+01  0.00000000000E+00 0. -1.
</event>
<event>
 7    1  0.6073302E-013  0.5052886E+02  0.7816164E-02  0.1300439E+00
        -11   -1    0    0    0    0  0.00000000000E+00  0.00000000000E+00  0.45593999997E+02  0.45594000000E+02  0.51100000000E-03 0.  1.
         11   -1    0    0    0    0 -0.00000000000E+00 -0.00000000000E+00 -0.45593999997E+02  0.45594000000E+02  0.51100000000E-03 0. -1.
    9900012    2    1    2    0    0  0.20731294123E+02  0.17490857013E+02  0.30289419891E+02  0.50528860899E+02  0.30000003189E+02 0.  0.
         12    1    1    2    0    0 -0.20731294123E+02 -0.17490857013E+02 -0.30289419891E+02  0.40659139101E+02  0.00000000000E+00 0. -1.
         11    1    3    3    0    0  0.55262252350E+00 -0.21127071593E+01  0.85782519815E+01  0.88518546370E+01  0.51100000000E-03 0. -1.
        -11    1    3    3    0    0  0.19407661523E+02  0.22928478632E+02  0.23197902251E+02  0.37954118713E+02  0.51100000000E-03 0.  1.
        -12    1    3    3    0    0  0.77101007663E+00 -0.33249144593E+01 -0.14867343419E+01  0.37228875491E+01  0.00000000000E+00 0.  1.
</event>
<event>
 7    1  0.6073302E-013  0.5052886E+02  0.7816164E-02  0.1300439E+00
        -11   -1    0    0    0    0  0.00000000000E+00  0.00000000000E+00  0.45593999997E+02  0.45594000000E+02  0.51100000000E-03 0. -1.
         11   -1    0    0    0    0 -0.00000000000E+00 -0.00000000000E+00 -0.45593999997E+02  0.45594000000E+02  0.51100000000E-03 0.  1.
    9900012    2    1    2    0    0 -0.28846989949E+01 -0.30097089191E+02 -0.27184732049E+02  0.50528856839E+02  0.29999990848E+02 0.  0.
         12    1    1    2    0    0  0.28846989949E+01  0.30097089191E+02  0.27184732049E+02  0.40659143161E+02  0.00000000000E+00 0. -1.
         11    1    3    3    0    0 -0.37514780227E+01 -0.18871382358E+01  0.77206003468E+00  0.42697722462E+01  0.51100000000E-03 0.  1.
        -11    1    3    3    0    0  0.10814591188E+02 -0.23428288978E+02 -0.18989303908E+02  0.32038005091E+02  0.51100000000E-03 0. -1.
        -12    1    3    3    0    0 -0.99478121602E+01 -0.47816619765E+01 -0.89674881754E+01  0.14221079502E+02  0.00000000000E+00 0.  1.
</event>
<event>
 7    1  0.6073302E-013  0.5052887E+02  0.7816164E-02  0.1300439E+00
        -11   -1    0    0    0    0  0.00000000000E+00  0.00000000000E+00  0.45593999997E+02  0.45594000000E+02  0.51100000000E-03 0.  1.
         11   -1    0    0    0    0 -0.00000000000E+00 -0.00000000000E+00 -0.45593999997E+02  0.45594000000E+02  0.51100000000E-03 0. -1.
    9900012    2    1    2    0    0  0.54344515774E+01 -0.33645844673E+02  0.22171805399E+02  0.50528867172E+02  0.30000022256E+02 0.  0.
         12    1    1    2    0    0 -0.54344515774E+01  0.33645844673E+02 -0.22171805399E+02  0.40659132828E+02  0.00000000000E+00 0. -1.
         11    1    3    3    0    0 -0.50492409628E+01  0.25523832174E+01 -0.17532769436E+00  0.56604093890E+01  0.51100000000E-03 0. -1.
        -11    1    3    3    0    0  0.54872200961E+00 -0.15348418253E+02  0.56309582521E+01  0.16357956162E+02  0.51100000000E-03 0.  1.
         12    1    3    3    0    0  0.99349705306E+01 -0.20849809637E+02  0.16716174841E+02  0.28510501621E+02  0.00000000000E+00 0. -1.
</event>
<event>
 7    1  0.6073302E-013  0.5052887E+02  0.7816164E-02  0.1300439E+00
        -11   -1    0    0    0    0  0.00000000000E+00  0.00000000000E+00  0.45593999997E+02  0.45594000000E+02  0.51100000000E-03 0.  1.
         11   -1    0    0    0    0 -0.00000000000E+00 -0.00000000000E+00 -0.45593999997E+02  0.45594000000E+02  0.51100000000E-03 0. -1.
    9900012    2    1    2    0    0  0.10763095510E+02 -0.25585402265E+02  0.29710401852E+02  0.50528868034E+02  0.30000024877E+02 0.  0.
         12    1    1    2    0    0 -0.10763095510E+02  0.25585402265E+02 -0.29710401852E+02  0.40659131966E+02  0.00000000000E+00 0. -1.
         11    1    3    3    0    0  0.70255111380E+01 -0.16046839869E+02  0.51370987316E+01  0.18255099566E+02  0.51100000000E-03 0. -1.
        -11    1    3    3    0    0  0.70982519298E+00 -0.12745246471E+02  0.24762963292E+02  0.27859459986E+02  0.51100000000E-03 0.  1.
         12    1    3    3    0    0  0.30277591786E+01  0.32066840746E+01 -0.18966017228E+00  0.44143084825E+01  0.00000000000E+00 0. -1.
</event>
<event>
 7    1  0.6073302E-013  0.5052886E+02  0.7816164E-02  0.1300439E+00
        -11   -1    0    0    0    0  0.00000000000E+00  0.00000000000E+00  0.45593999997E+02  0.45594000000E+02  0.51100000000E-03 0. -1.
         11   -1    0    0    0    0 -0.00000000000E+00 -0.00000000000E+00 -0.45593999997E+02  0.45594000000E+02  0.51100000000E-03 0.  1.
    9900012    2    1    2    0    0 -0.32221771610E+02  0.47982370511E+01 -0.24329001953E+02  0.50528856126E+02  0.29999988682E+02 0.  0.
         12    1    1    2    0    0  0.32221771610E+02 -0.47982370511E+01  0.24329001953E+02  0.40659143874E+02  0.00000000000E+00 0. -1.
         11    1    3    3    0    0 -0.19485844265E+01  0.11495907243E+02 -0.12645341484E+02  0.17200509472E+02  0.51100000000E-03 0. -1.
        -11    1    3    3    0    0 -0.24778312986E+02 -0.68682993715E+01 -0.98060390383E+01  0.27519024920E+02  0.51100000000E-03 0.  1.
         12    1    3    3    0    0 -0.54948741981E+01  0.17062918004E+00 -0.18776214302E+01  0.58093217337E+01  0.00000000000E+00 0. -1.
</event>
<event>
 7    1  0.6073302E-013  0.5052882E+02  0.7816164E-02  0.1300439E+00
        -11   -1    0    0    0    0  0.00000000000E+00  0.00000000000E+00  0.45593999997E+02  0.45594000000E+02  0.51100000000E-03 0.  1.
         11   -1    0    0    0    0 -0.00000000000E+00 -0.00000000000E+00 -0.45593999997E+02  0.45594000000E+02  0.51100000000E-03 0. -1.
    9900012    2    1    2    0    0 -0.36701528235E+02  0.16038802687E+02  0.69945573893E+01  0.50528816542E+02  0.29999868361E+02 0.  0.
         12    1    1    2    0    0  0.36701528235E+02 -0.16038802687E+02 -0.69945573893E+01  0.40659183458E+02  0.00000000000E+00 0. -1.
         11    1    3    3    0    0 -0.99164495016E+01  0.17168839193E+02  0.50757475869E+01  0.20466270393E+02  0.51100000000E-03 0. -1.
        -11    1    3    3    0    0 -0.16912839426E+02  0.53715637931E+01 -0.13542188585E+01  0.17796958842E+02  0.51100000000E-03 0.  1.
         12    1    3    3    0    0 -0.98722393066E+01 -0.65016002994E+01  0.32730286609E+01  0.12265587307E+02  0.00000000000E+00 0. -1.
</event>
<event>
 7    1  0.6073302E-013  0.5052886E+02  0.7816164E-02  0.1300439E+00
        -11   -1    0    0    0    0  0.00000000000E+00  0.00000000000E+00  0.45593999997E+02  0.45594000000E+02  0.51100000000E-03 0.  1.
         11   -1    0    0    0    0 -0.00000000000E+00 -0.00000000000E+00 -0.45593999997E+02  0.45594000000E+02  0.51100000000E-03 0. -1.
    9900012    2    1    2    0    0  0.32907845582E+02 -0.22970195333E+02  0.65276168458E+01  0.50528856426E+02  0.29999989592E+02 0.  0.
         12    1    1    2    0    0 -0.32907845582E+02  0.22970195333E+02 -0.65276168458E+01  0.40659143574E+02  0.00000000000E+00 0. -1.
         11    1    3    3    0    0 -0.77064756498E-01 -0.15578730610E+01  0.96634342913E+00  0.18348643914E+01  0.51100000000E-03 0. -1.
        -11    1    3    3    0    0 -0.51252861269E+00 -0.10732317779E+02 -0.51841291800E+01  0.11929816683E+02  0.51100000000E-03 0.  1.
        -12    1    3    3    0    0  0.33497438952E+02 -0.10680004493E+02  0.10745402597E+02  0.36764175351E+02  0.00000000000E+00 0.  1.
</event>
<event>
 7    1  0.6210692E-013  0.5052894E+02  0.7816164E-02  0.1300439E+00
        -11   -1    0    0    0    0  0.00000000000E+00  0.00000000000E+00  0.45593999997E+02  0.45594000000E+02  0.51100000000E-03 0. -1.
         11   -1    0    0    0    0 -0.00000000000E+00 -0.00000000000E+00 -0.45593999997E+02  0.45594000000E+02  0.51100000000E-03 0.  1.
    9900012    2    1    2    0    0  0.51104173162E+01 -0.32927563093E+02 -0.23298470281E+02  0.50528935896E+02  0.30000231150E+02 0.  0.
         12    1    1    2    0    0 -0.51104173162E+01  0.32927563093E+02  0.23298470281E+02  0.40659064104E+02  0.00000000000E+00 0. -1.
         11    1    3    3    0    0  0.44345209691E+01 -0.93704198704E+01  0.32708704526E+01  0.10870526140E+02  0.51100000000E-03 0. -1.
        -11    1    3    3    0    0  0.77393064614E+01 -0.18414690574E+02 -0.22286732040E+02  0.29928182683E+02  0.51100000000E-03 0.  1.
         12    1    3    3    0    0 -0.70634101143E+01 -0.51424526478E+01 -0.42826086937E+01  0.97302270735E+01  0.00000000000E+00 0. -1.
</event>
<event>
 7    1  0.6073302E-013  0.5052886E+02  0.7816164E-02  0.1300439E+00
        -11   -1    0    0    0    0  0.00000000000E+00  0.00000000000E+00  0.45593999997E+02  0.45594000000E+02  0.51100000000E-03 0. -1.
         11   -1    0    0    0    0 -0.00000000000E+00 -0.00000000000E+00 -0.45593999997E+02  0.45594000000E+02  0.51100000000E-03 0.  1.
    9900012    2    1    2    0    0 -0.40592956911E+02 -0.13307284315E+01 -0.18990716074E+01  0.50528862504E+02  0.30000008066E+02 0.  0.
         12    1    1    2    0    0  0.40592956911E+02  0.13307284315E+01  0.18990716074E+01  0.40659137496E+02  0.00000000000E+00 0. -1.
         11    1    3    3    0    0 -0.49010830508E+01  0.10336836894E+01  0.53550082970E+01  0.73324778324E+01  0.51100000000E-03 0. -1.
        -11    1    3    3    0    0 -0.37346853071E+02  0.18826320559E+01 -0.87402152649E+01  0.38402123651E+02  0.51100000000E-03 0.  1.
        -12    1    3    3    0    0  0.16549792100E+01 -0.42470441768E+01  0.14861353606E+01  0.47942610208E+01  0.00000000000E+00 0.  1.
</event>
<event>
 7    1  0.6073302E-013  0.5052887E+02  0.7816164E-02  0.1300439E+00
        -11   -1    0    0    0    0  0.00000000000E+00  0.00000000000E+00  0.45593999997E+02  0.45594000000E+02  0.51100000000E-03 0.  1.
         11   -1    0    0    0    0 -0.00000000000E+00 -0.00000000000E+00 -0.45593999997E+02  0.45594000000E+02  0.51100000000E-03 0. -1.
    9900012    2    1    2    0    0  0.10944862597E+02 -0.34604260497E+02  0.18328130545E+02  0.50528865343E+02  0.30000016697E+02 0.  0.
         12    1    1    2    0    0 -0.10944862597E+02  0.34604260497E+02 -0.18328130545E+02  0.40659134657E+02  0.00000000000E+00 0. -1.
         11    1    3    3    0    0  0.73258338797E+00 -0.19119308621E+02 -0.43915810328E+01  0.19630858993E+02  0.51100000000E-03 0. -1.
        -11    1    3    3    0    0  0.77721502063E+01 -0.16035707573E+02  0.16882125001E+02  0.24547023873E+02  0.51100000000E-03 0.  1.
         12    1    3    3    0    0  0.24401290023E+01  0.55075569765E+00  0.58375865766E+01  0.63509824772E+01  0.00000000000E+00 0. -1.
</event>
<event>
 7    1  0.6073302E-013  0.5052886E+02  0.7816164E-02  0.1300439E+00
        -11   -1    0    0    0    0  0.00000000000E+00  0.00000000000E+00  0.45593999997E+02  0.45594000000E+02  0.51100000000E-03 0. -1.
         11   -1    0    0    0    0 -0.00000000000E+00 -0.00000000000E+00 -0.45593999997E+02  0.45594000000E+02  0.51100000000E-03 0.  1.
    9900012    2    1    2    0    0  0.29970356909E+02 -0.99546719159E+01 -0.25609532561E+02  0.50528856574E+02  0.29999990042E+02 0.  0.
         12    1    1    2    0    0 -0.29970356909E+02  0.99546719159E+01  0.25609532561E+02  0.40659143426E+02  0.00000000000E+00 0. -1.
         11    1    3    3    0    0 -0.18402023051E+01 -0.14811024845E+00 -0.14109579611E+02  0.14229846037E+02  0.51100000000E-03 0. -1.
        -11    1    3    3    0    0  0.18781688325E+02 -0.90248950010E+01 -0.10147059840E+02  0.23176785147E+02  0.51100000000E-03 0.  1.
         12    1    3    3    0    0  0.13028870889E+02 -0.78166666652E+00 -0.13528931098E+01  0.13122225390E+02  0.00000000000E+00 0. -1.
</event>
<event>
 7    1  0.6073302E-013  0.5052886E+02  0.7816164E-02  0.1300439E+00
        -11   -1    0    0    0    0  0.00000000000E+00  0.00000000000E+00  0.45593999997E+02  0.45594000000E+02  0.51100000000E-03 0. -1.
         11   -1    0    0    0    0 -0.00000000000E+00 -0.00000000000E+00 -0.45593999997E+02  0.45594000000E+02  0.51100000000E-03 0.  1.
    9900012    2    1    2    0    0  0.15317093900E+01 -0.75860006906E+00 -0.40623194989E+02  0.50528861066E+02  0.30000003698E+02 0.  0.
         12    1    1    2    0    0 -0.15317093900E+01  0.75860006906E+00  0.40623194989E+02  0.40659138934E+02  0.00000000000E+00 0. -1.
         11    1    3    3    0    0 -0.27694895669E+01 -0.51631936536E+01  0.18683916114E+01  0.61497584213E+01  0.51100000000E-03 0. -1.
        -11    1    3    3    0    0  0.15692019437E+01  0.29914550378E+01 -0.40658242699E+02  0.40798332045E+02  0.51100000000E-03 0.  1.
        -12    1    3    3    0    0  0.27319970133E+01  0.14131385468E+01 -0.18333439010E+01  0.35807706003E+01  0.00000000000E+00 0.  1.
</event>
<event>
 7    1  0.6073302E-013  0.5052885E+02  0.7816164E-02  0.1300439E+00
        -11   -1    0    0    0    0  0.00000000000E+00  0.00000000000E+00  0.45593999997E+02  0.45594000000E+02  0.51100000000E-03 0. -1.
         11   -1    0    0    0    0 -0.00000000000E+00 -0.00000000000E+00 -0.45593999997E+02  0.45594000000E+02  0.51100000000E-03 0.  1.
    9900012    2    1    2    0    0  0.24668057982E+02 -0.11470288499E+02 -0.30217308678E+02  0.50528851624E+02  0.29999974998E+02 0.  0.
         12    1    1    2    0    0 -0.24668057982E+02  0.11470288499E+02  0.30217308678E+02  0.40659148376E+02  0.00000000000E+00 0. -1.
         11    1    3    3    0    0  0.72118613614E+00 -0.69273010591E+01  0.35326929229E+01  0.78094512582E+01  0.51100000000E-03 0. -1.
        -11    1    3    3    0    0  0.16868642703E+02 -0.75592023104E+01 -0.24373349803E+02  0.30590077265E+02  0.51100000000E-03 0.  1.
         12    1    3    3    0    0  0.70782291429E+01  0.30162148702E+01 -0.93766517982E+01  0.12129323101E+02  0.00000000000E+00 0. -1.
</event>
<event>
 7    1  0.6073302E-013  0.5052886E+02  0.7816164E-02  0.1300439E+00
        -11   -1    0    0    0    0  0.00000000000E+00  0.00000000000E+00  0.45593999997E+02  0.45594000000E+02  0.51100000000E-03 0.  1.
         11   -1    0    0    0    0 -0.00000000000E+00 -0.00000000000E+00 -0.45593999997E+02  0.45594000000E+02  0.51100000000E-03 0. -1.
    9900012    2    1    2    0    0 -0.40213763147E+02 -0.59084926357E+01  0.10528155557E+01  0.50528862623E+02  0.30000008428E+02 0.  0.
         12    1    1    2    0    0  0.40213763147E+02  0.59084926357E+01 -0.10528155557E+01  0.40659137377E+02  0.00000000000E+00 0. -1.
         11    1    3    3    0    0 -0.24386777652E+02  0.35520455547E+01  0.55044615322E+01  0.25251357367E+02  0.51100000000E-03 0. -1.
        -11    1    3    3    0    0 -0.17396601965E+02 -0.92595269146E+01 -0.80951395061E+01  0.21305207873E+02  0.51100000000E-03 0.  1.
        -12    1    3    3    0    0  0.15696164701E+01 -0.20101127584E+00  0.36434935296E+01  0.39722973827E+01  0.00000000000E+00 0.  1.
</event>
<event>
 7    1  0.6073302E-013  0.5052887E+02  0.7816164E-02  0.1300439E+00
        -11   -1    0    0    0    0  0.00000000000E+00  0.00000000000E+00  0.45593999997E+02  0.45594000000E+02  0.51100000000E-03 0.  1.
         11   -1    0    0    0    0 -0.00000000000E+00 -0.00000000000E+00 -0.45593999997E+02  0.45594000000E+02  0.51100000000E-03 0. -1.
    9900012    2    1    2    0    0 -0.27311916877E+02 -0.29386280809E+02  0.66084002176E+01  0.50528865028E+02  0.30000015738E+02 0.  0.
         12    1    1    2    0    0  0.27311916877E+02  0.29386280809E+02 -0.66084002176E+01  0.40659134972E+02  0.00000000000E+00 0. -1.
         11    1    3    3    0    0  0.49530948277E+01  0.32526745117E+00  0.24584403844E+01  0.55392126400E+01  0.51100000000E-03 0. -1.
        -11    1    3    3    0    0 -0.14617789947E+01 -0.15157911632E+01  0.24011588244E+01  0.31937414799E+01  0.51100000000E-03 0.  1.
         12    1    3    3    0    0 -0.30803232710E+02 -0.28195757097E+02  0.17488010088E+01  0.41795910908E+02  0.00000000000E+00 0. -1.
</event>
<event>
 7    1  0.6073302E-013  0.5052887E+02  0.7816164E-02  0.1300439E+00
        -11   -1    0    0    0    0  0.00000000000E+00  0.00000000000E+00  0.45593999997E+02  0.45594000000E+02  0.51100000000E-03 0.  1.
         11   -1    0    0    0    0 -0.00000000000E+00 -0.00000000000E+00 -0.45593999997E+02  0.45594000000E+02  0.51100000000E-03 0. -1.
    9900012    2    1    2    0    0  0.15524453161E+02  0.35717447136E+02  0.11679910691E+02  0.50528868312E+02  0.30000025723E+02 0.  0.
         12    1    1    2    0    0 -0.15524453161E+02 -0.35717447136E+02 -0.11679910691E+02  0.40659131688E+02  0.00000000000E+00 0. -1.
         11    1    3    3    0    0  0.11081594112E+02  0.29025489408E+02 -0.31161317600E+01  0.31224846530E+02  0.51100000000E-03 0. -1.
        -11    1    3    3    0    0  0.40438913036E+01  0.79964679115E+01  0.69496777047E+01  0.11339954867E+02  0.51100000000E-03 0.  1.
         12    1    3    3    0    0  0.39896774510E+00 -0.13045101840E+01  0.78463647467E+01  0.79640669146E+01  0.00000000000E+00 0. -1.
</event>
<event>
 7    1  0.6073302E-013  0.5052886E+02  0.7816164E-02  0.1300439E+00
        -11   -1    0    0    0    0  0.00000000000E+00  0.00000000000E+00  0.45593999997E+02  0.45594000000E+02  0.51100000000E-03 0. -1.
         11   -1    0    0    0    0 -0.00000000000E+00 -0.00000000000E+00 -0.45593999997E+02  0.45594000000E+02  0.51100000000E-03 0.  1.
    9900012    2    1    2    0    0 -0.24563174919E+02 -0.43316861512E+01 -0.32110011695E+02  0.50528856895E+02  0.29999991017E+02 0.  0.
         12    1    1    2    0    0  0.24563174919E+02  0.43316861512E+01  0.32110011695E+02  0.40659143105E+02  0.00000000000E+00 0. -1.
         11    1    3    3    0    0  0.26466197101E+01  0.55330168229E+00 -0.11869097541E+02  0.12173176058E+02  0.51100000000E-03 0. -1.
        -11    1    3    3    0    0 -0.18124951417E+02 -0.11370813211E+02 -0.12640967544E+02  0.24851626057E+02  0.51100000000E-03 0.  1.
         12    1    3    3    0    0 -0.90848432115E+01  0.64858253778E+01 -0.75999466098E+01  0.13504054779E+02  0.00000000000E+00 0. -1.
</event>
<event>
 7    1  0.6073302E-013  0.5052886E+02  0.7816164E-02  0.1300439E+00
        -11   -1    0    0    0    0  0.00000000000E+00  0.00000000000E+00  0.45593999997E+02  0.45594000000E+02  0.51100000000E-03 0.  1.
         11   -1    0    0    0    0 -0.00000000000E+00 -0.00000000000E+00 -0.45593999997E+02  0.45594000000E+02  0.51100000000E-03 0. -1.
    9900012    2    1    2    0    0 -0.12555354556E+01  0.19029968953E+02  0.35908904831E+02  0.50528861620E+02  0.30000005382E+02 0.  0.
         12    1    1    2    0    0  0.12555354556E+01 -0.19029968953E+02 -0.35908904831E+02  0.40659138380E+02  0.00000000000E+00 0. -1.
         11    1    3    3    0    0  0.22200494946E+01  0.10712040347E+02  0.66170025298E+01  0.12785192642E+02  0.51100000000E-03 0. -1.
        -11    1    3    3    0    0 -0.96852152439E+01 -0.26068854426E+01  0.19062769730E+02  0.21540390806E+02  0.51100000000E-03 0.  1.
        -12    1    3    3    0    0  0.62096302937E+01  0.10924814048E+02  0.10229132571E+02  0.16203278172E+02  0.00000000000E+00 0.  1.
</event>
<event>
 7    1  0.6073302E-013  0.5052886E+02  0.7816164E-02  0.1300439E+00
        -11   -1    0    0    0    0  0.00000000000E+00  0.00000000000E+00  0.45593999997E+02  0.45594000000E+02  0.51100000000E-03 0. -1.
         11   -1    0    0    0    0 -0.00000000000E+00 -0.00000000000E+00 -0.45593999997E+02  0.45594000000E+02  0.51100000000E-03 0.  1.
    9900012    2    1    2    0    0 -0.37226141840E+02  0.13215150070E+02  0.96301571445E+01  0.50528858908E+02  0.29999997137E+02 0.  0.
         12    1    1    2    0    0  0.37226141840E+02 -0.13215150070E+02 -0.96301571445E+01  0.40659141092E+02  0.00000000000E+00 0. -1.
         11    1    3    3    0    0 -0.24410553643E+02  0.17525215179E+02  0.13149110826E+02  0.32801027606E+02  0.51100000000E-03 0. -1.
        -11    1    3    3    0    0 -0.12728393896E+02 -0.33095960179E+01 -0.64365600832E+01  0.14642224658E+02  0.51100000000E-03 0.  1.
        -12    1    3    3    0    0 -0.87194301522E-01 -0.10004690907E+01  0.29176064015E+01  0.30856066440E+01  0.00000000000E+00 0.  1.
</event>
<event>
 7    1  0.6073302E-013  0.5052886E+02  0.7816164E-02  0.1300439E+00
        -11   -1    0    0    0    0  0.00000000000E+00  0.00000000000E+00  0.45593999997E+02  0.45594000000E+02  0.51100000000E-03 0. -1.
         11   -1    0    0    0    0 -0.00000000000E+00 -0.00000000000E+00 -0.45593999997E+02  0.45594000000E+02  0.51100000000E-03 0.  1.
    9900012    2    1    2    0    0  0.33665849659E+01 -0.37681138601E+02 -0.14898451012E+02  0.50528856586E+02  0.29999990078E+02 0.  0.
         12    1    1    2    0    0 -0.33665849659E+01  0.37681138601E+02  0.14898451012E+02  0.40659143414E+02  0.00000000000E+00 0. -1.
         11    1    3    3    0    0 -0.57736733831E+01  0.96945602695E+00  0.23030830488E+00  0.58590264976E+01  0.51100000000E-03 0. -1.
        -11    1    3    3    0    0  0.11273242970E+02 -0.28734562869E+02 -0.69483298983E+01  0.31639222477E+02  0.51100000000E-03 0.  1.
        -12    1    3    3    0    0 -0.21329846206E+01 -0.99160317594E+01 -0.81804294190E+01  0.13030607611E+02  0.00000000000E+00 0.  1.
</event>
<event>
 7    1  0.6073302E-013  0.5052886E+02  0.7816164E-02  0.1300439E+00
        -11   -1    0    0    0    0  0.00000000000E+00  0.00000000000E+00  0.45593999997E+02  0.45594000000E+02  0.51100000000E-03 0.  1.
         11   -1    0    0    0    0 -0.00000000000E+00 -0.00000000000E+00 -0.45593999997E+02  0.45594000000E+02  0.51100000000E-03 0. -1.
    9900012    2    1    2    0    0 -0.35662442082E+02 -0.15334803988E+02  0.12091318219E+02  0.50528856318E+02  0.29999989265E+02 0.  0.
         12    1    1    2    0    0  0.35662442082E+02  0.15334803988E+02 -0.12091318219E+02  0.40659143682E+02  0.00000000000E+00 0. -1.
         11    1    3    3    0    0 -0.69836010928E+00 -0.70453550045E-01 -0.44960776519E+00  0.83355740570E+00  0.51100000000E-03 0. -1.
        -11    1    3    3    0    0  0.23438038457E+01 -0.10136831005E+02  0.33652354143E+01  0.10934970002E+02  0.51100000000E-03 0.  1.
        -12    1    3    3    0    0 -0.37307885819E+02 -0.51275194330E+01  0.91756905702E+01  0.38760328910E+02  0.00000000000E+00 0.  1.
</event>
<event>
 7    1  0.6073302E-013  0.5052886E+02  0.7816164E-02  0.1300439E+00
        -11   -1    0    0    0    0  0.00000000000E+00  0.00000000000E+00  0.45593999997E+02  0.45594000000E+02  0.51100000000E-03 0.  1.
         11   -1    0    0    0    0 -0.00000000000E+00 -0.00000000000E+00 -0.45593999997E+02  0.45594000000E+02  0.51100000000E-03 0. -1.
    9900012    2    1    2    0    0  0.35854158866E+02 -0.19136455967E+02  0.12002841096E+01  0.50528864041E+02  0.30000012740E+02 0.  0.
         12    1    1    2    0    0 -0.35854158866E+02  0.19136455967E+02 -0.12002841096E+01  0.40659135959E+02  0.00000000000E+00 0. -1.
         11    1    3    3    0    0  0.25041624687E+02 -0.43219464326E+01  0.97907266927E+01  0.27232710430E+02  0.51100000000E-03 0. -1.
        -11    1    3    3    0    0  0.57209528386E+01 -0.88748107577E+01  0.13516192220E+01  0.10645113534E+02  0.51100000000E-03 0.  1.
         12    1    3    3    0    0  0.50915813400E+01 -0.59396987771E+01 -0.99420618052E+01  0.12651040078E+02  0.00000000000E+00 0. -1.
</event>
<event>
 7    1  0.6073302E-013  0.5052883E+02  0.7816164E-02  0.1300439E+00
        -11   -1    0    0    0    0  0.00000000000E+00  0.00000000000E+00  0.45593999997E+02  0.45594000000E+02  0.51100000000E-03 0.  1.
         11   -1    0    0    0    0 -0.00000000000E+00 -0.00000000000E+00 -0.45593999997E+02  0.45594000000E+02  0.51100000000E-03 0. -1.
    9900012    2    1    2    0    0 -0.33300943776E+02 -0.99867788159E+01 -0.21082681740E+02  0.50528830347E+02  0.29999910322E+02 0.  0.
         12    1    1    2    0    0  0.33300943776E+02  0.99867788159E+01  0.21082681740E+02  0.40659169653E+02  0.00000000000E+00 0. -1.
         11    1    3    3    0    0 -0.37131907963E+01  0.47655332979E+01 -0.65131296477E+01  0.88836339170E+01  0.51100000000E-03 0. -1.
        -11    1    3    3    0    0 -0.17444836787E+02 -0.34173280378E+00  0.59268125618E+00  0.17458246853E+02  0.51100000000E-03 0.  1.
        -12    1    3    3    0    0 -0.12142916193E+02 -0.14410579310E+02 -0.15162233349E+02  0.24186949577E+02  0.00000000000E+00 0.  1.
</event>
<event>
 7    1  0.6073302E-013  0.5052885E+02  0.7816164E-02  0.1300439E+00
        -11   -1    0    0    0    0  0.00000000000E+00  0.00000000000E+00  0.45593999997E+02  0.45594000000E+02  0.51100000000E-03 0.  1.
         11   -1    0    0    0    0 -0.00000000000E+00 -0.00000000000E+00 -0.45593999997E+02  0.45594000000E+02  0.51100000000E-03 0. -1.
    9900012    2    1    2    0    0  0.15480342421E+02 -0.23508243105E+02  0.29340886081E+02  0.50528854764E+02  0.29999984540E+02 0.  0.
         12    1    1    2    0    0 -0.15480342421E+02  0.23508243105E+02 -0.29340886081E+02  0.40659145236E+02  0.00000000000E+00 0. -1.
         11    1    3    3    0    0 -0.19607043352E+01 -0.85495413970E+01  0.17996667802E+02  0.20020466324E+02  0.51100000000E-03 0. -1.
        -11    1    3    3    0    0  0.13916420034E+02 -0.44467753025E+01 -0.50733434056E-01  0.14609693059E+02  0.51100000000E-03 0.  1.
        -12    1    3    3    0    0  0.35246267225E+01 -0.10511926405E+02  0.11394951713E+02  0.15898695381E+02  0.00000000000E+00 0.  1.
</event>
<event>
 7    1  0.6073302E-013  0.5052883E+02  0.7816164E-02  0.1300439E+00
        -11   -1    0    0    0    0  0.00000000000E+00  0.00000000000E+00  0.45593999997E+02  0.45594000000E+02  0.51100000000E-03 0.  1.
         11   -1    0    0    0    0 -0.00000000000E+00 -0.00000000000E+00 -0.45593999997E+02  0.45594000000E+02  0.51100000000E-03 0. -1.
    9900012    2    1    2    0    0  0.15850462912E+02  0.11957891760E+01  0.37423271296E+02  0.50528827347E+02  0.29999901205E+02 0.  0.
         12    1    1    2    0    0 -0.15850462912E+02 -0.11957891760E+01 -0.37423271296E+02  0.40659172653E+02  0.00000000000E+00 0. -1.
         11    1    3    3    0    0  0.13635925478E+02  0.88270982412E+01  0.81367924346E+01  0.18167650327E+02  0.51100000000E-03 0. -1.
        -11    1    3    3    0    0 -0.11305203492E+00 -0.18575081176E+01  0.24337085462E+02  0.24408130740E+02  0.51100000000E-03 0.  1.
         12    1    3    3    0    0  0.23275894684E+01 -0.57738009476E+01  0.49493933993E+01  0.79530462803E+01  0.00000000000E+00 0. -1.
</event>
<event>
 7    1  0.6073302E-013  0.5052886E+02  0.7816164E-02  0.1300439E+00
        -11   -1    0    0    0    0  0.00000000000E+00  0.00000000000E+00  0.45593999997E+02  0.45594000000E+02  0.51100000000E-03 0.  1.
         11   -1    0    0    0    0 -0.00000000000E+00 -0.00000000000E+00 -0.45593999997E+02  0.45594000000E+02  0.51100000000E-03 0. -1.
    9900012    2    1    2    0    0  0.73177637999E+01 -0.21202618492E+02  0.33912607661E+02  0.50528860113E+02  0.30000000800E+02 0.  0.
         12    1    1    2    0    0 -0.73177637999E+01  0.21202618492E+02 -0.33912607661E+02  0.40659139887E+02  0.00000000000E+00 0. -1.
         11    1    3    3    0    0 -0.88164030606E+00  0.32222876103E+01 -0.55934884593E+00  0.33872257772E+01  0.51100000000E-03 0. -1.
        -11    1    3    3    0    0  0.21169882881E+01 -0.25011336657E+02  0.22538871616E+02  0.33734986805E+02  0.51100000000E-03 0.  1.
        -12    1    3    3    0    0  0.60824158179E+01  0.58643055480E+00  0.11933084892E+02  0.13406647531E+02  0.00000000000E+00 0.  1.
</event>
<event>
 7    1  0.6073302E-013  0.5052886E+02  0.7816164E-02  0.1300439E+00
        -11   -1    0    0    0    0  0.00000000000E+00  0.00000000000E+00  0.45593999997E+02  0.45594000000E+02  0.51100000000E-03 0.  1.
         11   -1    0    0    0    0 -0.00000000000E+00 -0.00000000000E+00 -0.45593999997E+02  0.45594000000E+02  0.51100000000E-03 0. -1.
    9900012    2    1    2    0    0  0.34030310840E+02 -0.20193126916E+02 -0.93456509779E+01  0.50528860527E+02  0.30000002058E+02 0.  0.
         12    1    1    2    0    0 -0.34030310840E+02  0.20193126916E+02  0.93456509779E+01  0.40659139473E+02  0.00000000000E+00 0. -1.
         11    1    3    3    0    0 -0.27122306367E+01  0.21170350666E+01 -0.37054970073E+00  0.34605403974E+01  0.51100000000E-03 0. -1.
        -11    1    3    3    0    0  0.21926169427E+02 -0.21278116622E+02 -0.10084388034E+02  0.32174680029E+02  0.51100000000E-03 0.  1.
        -12    1    3    3    0    0  0.14816372049E+02 -0.10320453606E+01  0.11092867563E+01  0.14893640100E+02  0.00000000000E+00 0.  1.
</event>
<event>
 7    1  0.6073302E-013  0.5052886E+02  0.7816164E-02  0.1300439E+00
        -11   -1    0    0    0    0  0.00000000000E+00  0.00000000000E+00  0.45593999997E+02  0.45594000000E+02  0.51100000000E-03 0.  1.
         11   -1    0    0    0    0 -0.00000000000E+00 -0.00000000000E+00 -0.45593999997E+02  0.45594000000E+02  0.51100000000E-03 0. -1.
    9900012    2    1    2    0    0 -0.70570632576E+01  0.11296093223E+02  0.38415646053E+02  0.50528859261E+02  0.29999998210E+02 0.  0.
         12    1    1    2    0    0  0.70570632576E+01 -0.11296093223E+02 -0.38415646053E+02  0.40659140739E+02  0.00000000000E+00 0. -1.
         11    1    3    3    0    0 -0.13893549284E+02  0.14138003829E+02  0.20041707825E+02  0.28188364918E+02  0.51100000000E-03 0. -1.
        -11    1    3    3    0    0  0.26180053755E+00 -0.41538210515E+01  0.13290271037E+02  0.13926739509E+02  0.51100000000E-03 0.  1.
        -12    1    3    3    0    0  0.65746854887E+01  0.13119104450E+01  0.50836671917E+01  0.84137548341E+01  0.00000000000E+00 0.  1.
</event>
<event>
 7    1  0.6073302E-013  0.5052884E+02  0.7816164E-02  0.1300439E+00
        -11   -1    0    0    0    0  0.00000000000E+00  0.00000000000E+00  0.45593999997E+02  0.45594000000E+02  0.51100000000E-03 0.  1.
         11   -1    0    0    0    0 -0.00000000000E+00 -0.00000000000E+00 -0.45593999997E+02  0.45594000000E+02  0.51100000000E-03 0. -1.
    9900012    2    1    2    0    0 -0.16205952867E+01 -0.36706274056E+02 -0.17412361336E+02  0.50528840989E+02  0.29999942671E+02 0.  0.
         12    1    1    2    0    0  0.16205952867E+01  0.36706274056E+02  0.17412361336E+02  0.40659159011E+02  0.00000000000E+00 0. -1.
         11    1    3    3    0    0 -0.72624212453E+00 -0.42607853239E-01  0.59868148909E+01  0.60308536586E+01  0.51100000000E-03 0. -1.
        -11    1    3    3    0    0  0.22666244648E+01 -0.25269945007E+02 -0.11970856393E+02  0.28053682649E+02  0.51100000000E-03 0.  1.
         12    1    3    3    0    0 -0.31609776270E+01 -0.11393721195E+02 -0.11428319834E+02  0.16444304682E+02  0.00000000000E+00 0. -1.
</event>
<event>
 7    1  0.6073302E-013  0.5052886E+02  0.7816164E-02  0.1300439E+00
        -11   -1    0    0    0    0  0.00000000000E+00  0.00000000000E+00  0.45593999997E+02  0.45594000000E+02  0.51100000000E-03 0.  1.
         11   -1    0    0    0    0 -0.00000000000E+00 -0.00000000000E+00 -0.45593999997E+02  0.45594000000E+02  0.51100000000E-03 0. -1.
    9900012    2    1    2    0    0  0.32956420347E+02  0.27437206036E+01  0.23654010838E+02  0.50528857441E+02  0.29999992679E+02 0.  0.
         12    1    1    2    0    0 -0.32956420347E+02 -0.27437206036E+01 -0.23654010838E+02  0.40659142559E+02  0.00000000000E+00 0. -1.
         11    1    3    3    0    0 -0.39186184445E+01 -0.53769734887E+01  0.53121235332E+01  0.85138752107E+01  0.51100000000E-03 0. -1.
        -11    1    3    3    0    0  0.19139917800E+02  0.35630703343E+01  0.10131173843E+02  0.21947040969E+02  0.51100000000E-03 0.  1.
         12    1    3    3    0    0  0.17735120992E+02  0.45576237580E+01  0.82107134623E+01  0.20067941261E+02  0.00000000000E+00 0. -1.
</event>
<event>
 7    1  0.6073302E-013  0.5052886E+02  0.7816164E-02  0.1300439E+00
        -11   -1    0    0    0    0  0.00000000000E+00  0.00000000000E+00  0.45593999997E+02  0.45594000000E+02  0.51100000000E-03 0.  1.
         11   -1    0    0    0    0 -0.00000000000E+00 -0.00000000000E+00 -0.45593999997E+02  0.45594000000E+02  0.51100000000E-03 0. -1.
    9900012    2    1    2    0    0 -0.20384831166E+02  0.68129950384E+01  0.34513878392E+02  0.50528855337E+02  0.29999986283E+02 0.  0.
         12    1    1    2    0    0  0.20384831166E+02 -0.68129950384E+01 -0.34513878392E+02  0.40659144663E+02  0.00000000000E+00 0. -1.
         11    1    3    3    0    0 -0.10827177632E+02  0.10423322364E+02  0.38493372257E+01  0.15514213545E+02  0.51100000000E-03 0. -1.
        -11    1    3    3    0    0 -0.28528690966E+01 -0.76874295669E+01  0.10135849915E+02  0.13037288414E+02  0.51100000000E-03 0.  1.
         12    1    3    3    0    0 -0.67047844373E+01  0.40771022413E+01  0.20528691252E+02  0.21977353379E+02  0.00000000000E+00 0. -1.
</event>
<event>
 7    1  0.6073302E-013  0.5052887E+02  0.7816164E-02  0.1300439E+00
        -11   -1    0    0    0    0  0.00000000000E+00  0.00000000000E+00  0.45593999997E+02  0.45594000000E+02  0.51100000000E-03 0. -1.
         11   -1    0    0    0    0 -0.00000000000E+00 -0.00000000000E+00 -0.45593999997E+02  0.45594000000E+02  0.51100000000E-03 0.  1.
    9900012    2    1    2    0    0 -0.26326884931E+02 -0.15004215588E+02 -0.27109656186E+02  0.50528870470E+02  0.30000032281E+02 0.  0.
         12    1    1    2    0    0  0.26326884931E+02  0.15004215588E+02  0.27109656186E+02  0.40659129530E+02  0.00000000000E+00 0. -1.
         11    1    3    3    0    0  0.39735073543E+00 -0.51851008589E+01  0.77729083081E+00  0.52580737748E+01  0.51100000000E-03 0. -1.
        -11    1    3    3    0    0 -0.88782360546E+01 -0.10077973002E+02 -0.23217192318E+02  0.26822129570E+02  0.51100000000E-03 0.  1.
        -12    1    3    3    0    0 -0.17845999612E+02  0.25885827279E+00 -0.46697546994E+01  0.18448667125E+02  0.00000000000E+00 0.  1.
</event>
<event>
 7    1  0.6073302E-013  0.5052882E+02  0.7816164E-02  0.1300439E+00
        -11   -1    0    0    0    0  0.00000000000E+00  0.00000000000E+00  0.45593999997E+02  0.45594000000E+02  0.51100000000E-03 0. -1.
         11   -1    0    0    0    0 -0.00000000000E+00 -0.00000000000E+00 -0.45593999997E+02  0.45594000000E+02  0.51100000000E-03 0.  1.
    9900012    2    1    2    0    0  0.32162097947E+02  0.59763899971E+01 -0.24146444104E+02  0.50528824595E+02  0.29999892839E+02 0.  0.
         12    1    1    2    0    0 -0.32162097947E+02 -0.59763899971E+01  0.24146444104E+02  0.40659175405E+02  0.00000000000E+00 0. -1.
         11    1    3    3    0    0  0.55223208237E+01  0.32642668915E+01  0.39128041642E+01  0.75140869244E+01  0.51100000000E-03 0. -1.
        -11    1    3    3    0    0  0.19799984668E+02 -0.19934775253E+01 -0.28431870959E+02  0.34704245158E+02  0.51100000000E-03 0.  1.
         12    1    3    3    0    0  0.68397924550E+01  0.47056006309E+01  0.37262269135E+00  0.83104925122E+01  0.00000000000E+00 0. -1.
</event>
<event>
 7    1  0.6073302E-013  0.5052885E+02  0.7816164E-02  0.1300439E+00
        -11   -1    0    0    0    0  0.00000000000E+00  0.00000000000E+00  0.45593999997E+02  0.45594000000E+02  0.51100000000E-03 0. -1.
         11   -1    0    0    0    0 -0.00000000000E+00 -0.00000000000E+00 -0.45593999997E+02  0.45594000000E+02  0.51100000000E-03 0.  1.
    9900012    2    1    2    0    0 -0.17193381036E+02  0.18949829839E+02 -0.31598387385E+02  0.50528849890E+02  0.29999969724E+02 0.  0.
         12    1    1    2    0    0  0.17193381036E+02 -0.18949829839E+02  0.31598387385E+02  0.40659150110E+02  0.00000000000E+00 0. -1.
         11    1    3    3    0    0 -0.66658487107E+01 -0.23963264357E+00 -0.51050313385E+01  0.83995421343E+01  0.51100000000E-03 0. -1.
        -11    1    3    3    0    0 -0.52527311951E+01  0.22437508009E+02 -0.11185154474E+02  0.25615242172E+02  0.51100000000E-03 0.  1.
        -12    1    3    3    0    0 -0.52748011299E+01 -0.32480455263E+01 -0.15308201573E+02  0.16514065583E+02  0.00000000000E+00 0.  1.
</event>
<event>
 7    1  0.6073302E-013  0.5052888E+02  0.7816164E-02  0.1300439E+00
        -11   -1    0    0    0    0  0.00000000000E+00  0.00000000000E+00  0.45593999997E+02  0.45594000000E+02  0.51100000000E-03 0.  1.
         11   -1    0    0    0    0 -0.00000000000E+00 -0.00000000000E+00 -0.45593999997E+02  0.45594000000E+02  0.51100000000E-03 0. -1.
    9900012    2    1    2    0    0 -0.36076119077E+02 -0.16506493130E+02  0.89002016104E+01  0.50528877139E+02  0.30000052553E+02 0.  0.
         12    1    1    2    0    0  0.36076119077E+02  0.16506493130E+02 -0.89002016104E+01  0.40659122861E+02  0.00000000000E+00 0. -1.
         11    1    3    3    0    0 -0.10458994958E+02  0.38676446788E+01  0.20380427280E+01  0.11335910608E+02  0.51100000000E-03 0. -1.
        -11    1    3    3    0    0 -0.20994573322E+02 -0.19385312453E+02  0.13043142462E+02  0.31411558596E+02  0.51100000000E-03 0.  1.
        -12    1    3    3    0    0 -0.46225507964E+01 -0.98882535644E+00 -0.61809835795E+01  0.77814079356E+01  0.00000000000E+00 0.  1.
</event>
<event>
 7    1  0.6073302E-013  0.5052886E+02  0.7816164E-02  0.1300439E+00
        -11   -1    0    0    0    0  0.00000000000E+00  0.00000000000E+00  0.45593999997E+02  0.45594000000E+02  0.51100000000E-03 0.  1.
         11   -1    0    0    0    0 -0.00000000000E+00 -0.00000000000E+00 -0.45593999997E+02  0.45594000000E+02  0.51100000000E-03 0. -1.
    9900012    2    1    2    0    0 -0.26793567262E+02 -0.13147749561E+02  0.27611721728E+02  0.50528859061E+02  0.29999997600E+02 0.  0.
         12    1    1    2    0    0  0.26793567262E+02  0.13147749561E+02 -0.27611721728E+02  0.40659140939E+02  0.00000000000E+00 0. -1.
         11    1    3    3    0    0  0.99369864783E+00 -0.13530564116E+02  0.77758966884E+01  0.15637396582E+02  0.51100000000E-03 0. -1.
        -11    1    3    3    0    0 -0.12801966605E+02 -0.26819143155E+00  0.13505945627E+02  0.18611094625E+02  0.51100000000E-03 0.  1.
         12    1    3    3    0    0 -0.14985299306E+02  0.65100598679E+00  0.63298794124E+01  0.16280367854E+02  0.00000000000E+00 0. -1.
</event>
<event>
 7    1  0.6073302E-013  0.5052886E+02  0.7816164E-02  0.1300439E+00
        -11   -1    0    0    0    0  0.00000000000E+00  0.00000000000E+00  0.45593999997E+02  0.45594000000E+02  0.51100000000E-03 0.  1.
         11   -1    0    0    0    0 -0.00000000000E+00 -0.00000000000E+00 -0.45593999997E+02  0.45594000000E+02  0.51100000000E-03 0. -1.
    9900012    2    1    2    0    0  0.66342106846E+01  0.40099981014E+02 -0.10697994425E+01  0.50528859581E+02  0.29999999183E+02 0.  0.
         12    1    1    2    0    0 -0.66342106846E+01 -0.40099981014E+02  0.10697994425E+01  0.40659140419E+02  0.00000000000E+00 0. -1.
         11    1    3    3    0    0  0.12645937373E+02  0.21060409618E+02 -0.11993316810E+02  0.27336792673E+02  0.51100000000E-03 0. -1.
        -11    1    3    3    0    0 -0.51124609743E+01  0.10716898826E+02  0.47410439617E+01  0.12785408706E+02  0.51100000000E-03 0.  1.
         12    1    3    3    0    0 -0.89926571361E+00  0.83226725699E+01  0.61824734054E+01  0.10406658202E+02  0.00000000000E+00 0. -1.
</event>
<event>
 7    1  0.6073302E-013  0.5052886E+02  0.7816164E-02  0.1300439E+00
        -11   -1    0    0    0    0  0.00000000000E+00  0.00000000000E+00  0.45593999997E+02  0.45594000000E+02  0.51100000000E-03 0.  1.
         11   -1    0    0    0    0 -0.00000000000E+00 -0.00000000000E+00 -0.45593999997E+02  0.45594000000E+02  0.51100000000E-03 0. -1.
    9900012    2    1    2    0    0  0.34100544393E+02  0.20028999830E+02 -0.94423434827E+01  0.50528858192E+02  0.29999994962E+02 0.  0.
         12    1    1    2    0    0 -0.34100544393E+02 -0.20028999830E+02  0.94423434827E+01  0.40659141808E+02  0.00000000000E+00 0. -1.
         11    1    3    3    0    0  0.28463222961E+02  0.25318352756E+02 -0.31324278942E+00  0.38095566263E+02  0.51100000000E-03 0.  1.
        -11    1    3    3    0    0  0.47514860284E+01 -0.52764109956E+01 -0.63828022260E+01  0.95476330569E+01  0.51100000000E-03 0. -1.
        -12    1    3    3    0    0  0.88583540382E+00 -0.12941930797E-01 -0.27462984673E+01  0.28856588724E+01  0.00000000000E+00 0.  1.
</event>
<event>
 7    1  0.6073302E-013  0.5052886E+02  0.7816164E-02  0.1300439E+00
        -11   -1    0    0    0    0  0.00000000000E+00  0.00000000000E+00  0.45593999997E+02  0.45594000000E+02  0.51100000000E-03 0. -1.
         11   -1    0    0    0    0 -0.00000000000E+00 -0.00000000000E+00 -0.45593999997E+02  0.45594000000E+02  0.51100000000E-03 0.  1.
    9900012    2    1    2    0    0  0.23669407142E+02 -0.23727375718E+02 -0.23020344127E+02  0.50528862815E+02  0.30000009012E+02 0.  0.
         12    1    1    2    0    0 -0.23669407142E+02  0.23727375718E+02  0.23020344127E+02  0.40659137185E+02  0.00000000000E+00 0. -1.
         11    1    3    3    0    0  0.17281222565E+02 -0.39747082821E+00 -0.24664092084E+01  0.17460865129E+02  0.51100000000E-03 0. -1.
        -11    1    3    3    0    0  0.73720211105E+01 -0.15252393913E+02 -0.17554605361E+02  0.24395622250E+02  0.51100000000E-03 0.  1.
         12    1    3    3    0    0 -0.98383653356E+00 -0.80775109766E+01 -0.29993295578E+01  0.86723754357E+01  0.00000000000E+00 0. -1.
</event>
<event>
 7    1  0.6073302E-013  0.5052885E+02  0.7816164E-02  0.1300439E+00
        -11   -1    0    0    0    0  0.00000000000E+00  0.00000000000E+00  0.45593999997E+02  0.45594000000E+02  0.51100000000E-03 0. -1.
         11   -1    0    0    0    0 -0.00000000000E+00 -0.00000000000E+00 -0.45593999997E+02  0.45594000000E+02  0.51100000000E-03 0.  1.
    9900012    2    1    2    0    0 -0.40631375044E+02  0.14493825644E+01  0.39614734092E+00  0.50528852437E+02  0.29999977468E+02 0.  0.
         12    1    1    2    0    0  0.40631375044E+02 -0.14493825644E+01 -0.39614734092E+00  0.40659147563E+02  0.00000000000E+00 0. -1.
         11    1    3    3    0    0 -0.36383823070E+01  0.54824941461E+01  0.57983805413E+01  0.87702214930E+01  0.51100000000E-03 0. -1.
        -11    1    3    3    0    0 -0.33341110314E+02 -0.20440582722E+01 -0.10652397017E+02  0.35061109134E+02  0.51100000000E-03 0.  1.
        -12    1    3    3    0    0 -0.36518824231E+01 -0.19890533095E+01  0.52501638167E+01  0.66975218105E+01  0.00000000000E+00 0.  1.
</event>
<event>
 7    1  0.6073302E-013  0.5052888E+02  0.7816164E-02  0.1300439E+00
        -11   -1    0    0    0    0  0.00000000000E+00  0.00000000000E+00  0.45593999997E+02  0.45594000000E+02  0.51100000000E-03 0. -1.
         11   -1    0    0    0    0 -0.00000000000E+00 -0.00000000000E+00 -0.45593999997E+02  0.45594000000E+02  0.51100000000E-03 0.  1.
    9900012    2    1    2    0    0  0.25212940988E+02 -0.25004049578E+02 -0.19805784479E+02  0.50528880637E+02  0.30000063184E+02 0.  0.
         12    1    1    2    0    0 -0.25212940988E+02  0.25004049578E+02  0.19805784479E+02  0.40659119363E+02  0.00000000000E+00 0. -1.
         11    1    3    3    0    0  0.14011261236E+02  0.42121684516E+00 -0.10804385256E+02  0.17698237372E+02  0.51100000000E-03 0. -1.
        -11    1    3    3    0    0  0.53344570498E+01 -0.22319365915E+02 -0.11585680754E+02  0.25706779760E+02  0.51100000000E-03 0.  1.
         12    1    3    3    0    0  0.58672227016E+01 -0.31059005083E+01  0.25842815309E+01  0.71238635043E+01  0.00000000000E+00 0. -1.
</event>
<event>
 7    1  0.6073302E-013  0.5052884E+02  0.7816164E-02  0.1300439E+00
        -11   -1    0    0    0    0  0.00000000000E+00  0.00000000000E+00  0.45593999997E+02  0.45594000000E+02  0.51100000000E-03 0.  1.
         11   -1    0    0    0    0 -0.00000000000E+00 -0.00000000000E+00 -0.45593999997E+02  0.45594000000E+02  0.51100000000E-03 0. -1.
    9900012    2    1    2    0    0 -0.20555736752E+02 -0.25386962115E+02  0.24210149093E+02  0.50528837712E+02  0.29999932710E+02 0.  0.
         12    1    1    2    0    0  0.20555736752E+02  0.25386962115E+02 -0.24210149093E+02  0.40659162288E+02  0.00000000000E+00 0. -1.
         11    1    3    3    0    0  0.46034611085E+00 -0.31253234771E+00  0.69604773262E+01  0.69826814247E+01  0.51100000000E-03 0. -1.
        -11    1    3    3    0    0 -0.99396312749E+01 -0.20140730177E+02 -0.14947111060E-02  0.22459859404E+02  0.51100000000E-03 0.  1.
        -12    1    3    3    0    0 -0.11076451588E+02 -0.49336995901E+01  0.17251166478E+02  0.21086296884E+02  0.00000000000E+00 0.  1.
</event>
<event>
 7    1  0.6073302E-013  0.5052886E+02  0.7816164E-02  0.1300439E+00
        -11   -1    0    0    0    0  0.00000000000E+00  0.00000000000E+00  0.45593999997E+02  0.45594000000E+02  0.51100000000E-03 0. -1.
         11   -1    0    0    0    0 -0.00000000000E+00 -0.00000000000E+00 -0.45593999997E+02  0.45594000000E+02  0.51100000000E-03 0.  1.
    9900012    2    1    2    0    0  0.23833464865E+02 -0.32478251211E+02 -0.55040837725E+01  0.50528858502E+02  0.29999995903E+02 0.  0.
         12    1    1    2    0    0 -0.23833464865E+02  0.32478251211E+02  0.55040837725E+01  0.40659141498E+02  0.00000000000E+00 0. -1.
         11    1    3    3    0    0  0.11790863986E+02 -0.96228229045E+01  0.11068843706E+02  0.18818674115E+02  0.51100000000E-03 0. -1.
        -11    1    3    3    0    0  0.10506197944E+02 -0.20117865833E+02 -0.10790401458E+02  0.25130489148E+02  0.51100000000E-03 0.  1.
         12    1    3    3    0    0  0.15364029351E+01 -0.27375624728E+01 -0.57825260203E+01  0.65796952397E+01  0.00000000000E+00 0. -1.
</event>
<event>
 7    1  0.6073302E-013  0.5052884E+02  0.7816164E-02  0.1300439E+00
        -11   -1    0    0    0    0  0.00000000000E+00  0.00000000000E+00  0.45593999997E+02  0.45594000000E+02  0.51100000000E-03 0. -1.
         11   -1    0    0    0    0 -0.00000000000E+00 -0.00000000000E+00 -0.45593999997E+02  0.45594000000E+02  0.51100000000E-03 0.  1.
    9900012    2    1    2    0    0  0.31980138621E+02 -0.93372802218E+01 -0.23307793447E+02  0.50528839857E+02  0.29999939230E+02 0.  0.
         12    1    1    2    0    0 -0.31980138621E+02  0.93372802218E+01  0.23307793447E+02  0.40659160143E+02  0.00000000000E+00 0. -1.
         11    1    3    3    0    0  0.10720719327E+02  0.45892327664E+01 -0.10176046163E+02  0.15477299378E+02  0.51100000000E-03 0. -1.
        -11    1    3    3    0    0 -0.25066704755E+01 -0.22002385950E+01  0.26030059892E+01  0.42308494642E+01  0.51100000000E-03 0.  1.
        -12    1    3    3    0    0  0.23766089770E+02 -0.11726274393E+02 -0.15734753273E+02  0.30820691015E+02  0.00000000000E+00 0.  1.
</event>
<event>
 7    1  0.6073302E-013  0.5052886E+02  0.7816164E-02  0.1300439E+00
        -11   -1    0    0    0    0  0.00000000000E+00  0.00000000000E+00  0.45593999997E+02  0.45594000000E+02  0.51100000000E-03 0.  1.
         11   -1    0    0    0    0 -0.00000000000E+00 -0.00000000000E+00 -0.45593999997E+02  0.45594000000E+02  0.51100000000E-03 0. -1.
    9900012    2    1    2    0    0  0.37148586817E+02 -0.14533088193E+02 -0.78700284645E+01  0.50528862000E+02  0.30000006534E+02 0.  0.
         12    1    1    2    0    0 -0.37148586817E+02  0.14533088193E+02  0.78700284645E+01  0.40659138000E+02  0.00000000000E+00 0. -1.
         11    1    3    3    0    0  0.26260684165E+02 -0.89979245306E+01  0.30775329992E+01  0.27929507484E+02  0.51100000000E-03 0. -1.
        -11    1    3    3    0    0  0.51106569830E+01  0.52963923977E+01 -0.28465892070E+01  0.78913660162E+01  0.51100000000E-03 0.  1.
         12    1    3    3    0    0  0.57772456691E+01 -0.10831556060E+02 -0.81009722568E+01  0.14707988500E+02  0.00000000000E+00 0. -1.
</event>
<event>
 7    1  0.6073302E-013  0.5052887E+02  0.7816164E-02  0.1300439E+00
        -11   -1    0    0    0    0  0.00000000000E+00  0.00000000000E+00  0.45593999997E+02  0.45594000000E+02  0.51100000000E-03 0. -1.
         11   -1    0    0    0    0 -0.00000000000E+00 -0.00000000000E+00 -0.45593999997E+02  0.45594000000E+02  0.51100000000E-03 0.  1.
    9900012    2    1    2    0    0 -0.22906906557E+02  0.31816697719E+02 -0.10776640113E+02  0.50528873179E+02  0.30000040514E+02 0.  0.
         12    1    1    2    0    0  0.22906906557E+02 -0.31816697719E+02  0.10776640113E+02  0.40659126821E+02  0.00000000000E+00 0. -1.
         11    1    3    3    0    0 -0.62731155589E+01  0.17322335604E+02  0.82232005452E+01  0.20175141067E+02  0.51100000000E-03 0. -1.
        -11    1    3    3    0    0 -0.10509153409E+02  0.14020015905E+02 -0.13733590731E+02  0.22262404766E+02  0.51100000000E-03 0.  1.
        -12    1    3    3    0    0 -0.61246375886E+01  0.47434621028E+00 -0.52662499277E+01  0.80913273460E+01  0.00000000000E+00 0.  1.
</event>
<event>
 7    1  0.6073302E-013  0.5052882E+02  0.7816164E-02  0.1300439E+00
        -11   -1    0    0    0    0  0.00000000000E+00  0.00000000000E+00  0.45593999997E+02  0.45594000000E+02  0.51100000000E-03 0.  1.
         11   -1    0    0    0    0 -0.00000000000E+00 -0.00000000000E+00 -0.45593999997E+02  0.45594000000E+02  0.51100000000E-03 0. -1.
    9900012    2    1    2    0    0 -0.40060628955E+02  0.88558916236E+00  0.68942318075E+01  0.50528822775E+02  0.29999887306E+02 0.  0.
         12    1    1    2    0    0  0.40060628955E+02 -0.88558916236E+00 -0.68942318075E+01  0.40659177225E+02  0.00000000000E+00 0. -1.
         11    1    3    3    0    0 -0.68221534782E+01 -0.94998741103E+01 -0.54883344526E+01  0.12919411810E+02  0.51100000000E-03 0. -1.
        -11    1    3    3    0    0 -0.25469661415E+02  0.72085977227E+01  0.12365860587E+02  0.29216126404E+02  0.51100000000E-03 0.  1.
         12    1    3    3    0    0 -0.77688140613E+01  0.31768655499E+01  0.16705673054E-01  0.83932845610E+01  0.00000000000E+00 0. -1.
</event>
<event>
 7    1  0.6073302E-013  0.5052886E+02  0.7816164E-02  0.1300439E+00
        -11   -1    0    0    0    0  0.00000000000E+00  0.00000000000E+00  0.45593999997E+02  0.45594000000E+02  0.51100000000E-03 0.  1.
         11   -1    0    0    0    0 -0.00000000000E+00 -0.00000000000E+00 -0.45593999997E+02  0.45594000000E+02  0.51100000000E-03 0. -1.
    9900012    2    1    2    0    0  0.35011731461E+02  0.86152433135E+01  0.18791544416E+02  0.50528857131E+02  0.29999991736E+02 0.  0.
         12    1    1    2    0    0 -0.35011731461E+02 -0.86152433135E+01 -0.18791544416E+02  0.40659142869E+02  0.00000000000E+00 0. -1.
         11    1    3    3    0    0 -0.90960353989E+00  0.51387957807E+01  0.27864362458E+01  0.59159807208E+01  0.51100000000E-03 0. -1.
        -11    1    3    3    0    0  0.37835220671E+02  0.36037341680E+01  0.17815982780E+02  0.41974993339E+02  0.51100000000E-03 0.  1.
        -12    1    3    3    0    0 -0.19138856694E+01 -0.12728663512E+00 -0.18108746100E+01  0.26378830710E+01  0.00000000000E+00 0.  1.
</event>
<event>
 7    1  0.6073302E-013  0.5052886E+02  0.7816164E-02  0.1300439E+00
        -11   -1    0    0    0    0  0.00000000000E+00  0.00000000000E+00  0.45593999997E+02  0.45594000000E+02  0.51100000000E-03 0.  1.
         11   -1    0    0    0    0 -0.00000000000E+00 -0.00000000000E+00 -0.45593999997E+02  0.45594000000E+02  0.51100000000E-03 0. -1.
    9900012    2    1    2    0    0  0.21128990616E+02  0.10682523603E+02  0.33054728823E+02  0.50528860159E+02  0.30000000940E+02 0.  0.
         12    1    1    2    0    0 -0.21128990616E+02 -0.10682523603E+02 -0.33054728823E+02  0.40659139841E+02  0.00000000000E+00 0. -1.
         11    1    3    3    0    0 -0.42165004180E+01  0.32203720422E+01  0.14729495558E+02  0.15655916182E+02  0.51100000000E-03 0. -1.
        -11    1    3    3    0    0  0.16445114699E+02 -0.10587409617E+01  0.62606673936E+01  0.17628348940E+02  0.51100000000E-03 0.  1.
         12    1    3    3    0    0  0.89003763354E+01  0.85208925229E+01  0.12064565872E+02  0.17244595037E+02  0.00000000000E+00 0. -1.
</event>
<event>
 7    1  0.6073302E-013  0.5052886E+02  0.7816164E-02  0.1300439E+00
        -11   -1    0    0    0    0  0.00000000000E+00  0.00000000000E+00  0.45593999997E+02  0.45594000000E+02  0.51100000000E-03 0. -1.
         11   -1    0    0    0    0 -0.00000000000E+00 -0.00000000000E+00 -0.45593999997E+02  0.45594000000E+02  0.51100000000E-03 0.  1.
    9900012    2    1    2    0    0  0.19725124296E+02 -0.31823544396E+02 -0.15853936399E+02  0.50528858275E+02  0.29999995214E+02 0.  0.
         12    1    1    2    0    0 -0.19725124296E+02  0.31823544396E+02  0.15853936399E+02  0.40659141725E+02  0.00000000000E+00 0. -1.
         11    1    3    3    0    0  0.25260777390E+01  0.35313527948E+01 -0.55747438580E+01  0.70660661367E+01  0.51100000000E-03 0. -1.
        -11    1    3    3    0    0  0.33929576163E+01 -0.18980119830E+02 -0.10678964054E+02  0.22040811775E+02  0.51100000000E-03 0.  1.
         12    1    3    3    0    0  0.13806088941E+02 -0.16374777360E+02  0.39977151283E+00  0.21421980364E+02  0.00000000000E+00 0. -1.
</event>
<event>
 7    1  0.6073302E-013  0.5052885E+02  0.7816164E-02  0.1300439E+00
        -11   -1    0    0    0    0  0.00000000000E+00  0.00000000000E+00  0.45593999997E+02  0.45594000000E+02  0.51100000000E-03 0.  1.
         11   -1    0    0    0    0 -0.00000000000E+00 -0.00000000000E+00 -0.45593999997E+02  0.45594000000E+02  0.51100000000E-03 0. -1.
    9900012    2    1    2    0    0  0.14938489487E+01  0.28229848953E+02  0.29223454076E+02  0.50528853123E+02  0.29999979554E+02 0.  0.
         12    1    1    2    0    0 -0.14938489487E+01 -0.28229848953E+02 -0.29223454076E+02  0.40659146877E+02  0.00000000000E+00 0. -1.
         11    1    3    3    0    0  0.71808707251E+01  0.28647357714E+02  0.20066653861E+02  0.35705834338E+02  0.51100000000E-03 0. -1.
        -11    1    3    3    0    0 -0.44228899114E+01  0.43080964238E+01  0.27417256955E+01  0.67556428277E+01  0.51100000000E-03 0.  1.
         12    1    3    3    0    0 -0.12641318649E+01 -0.47256051852E+01  0.64150745204E+01  0.80673759576E+01  0.00000000000E+00 0. -1.
</event>
<event>
 7    1  0.6073302E-013  0.5052885E+02  0.7816164E-02  0.1300439E+00
        -11   -1    0    0    0    0  0.00000000000E+00  0.00000000000E+00  0.45593999997E+02  0.45594000000E+02  0.51100000000E-03 0.  1.
         11   -1    0    0    0    0 -0.00000000000E+00 -0.00000000000E+00 -0.45593999997E+02  0.45594000000E+02  0.51100000000E-03 0. -1.
    9900012    2    1    2    0    0 -0.25335252419E+02 -0.16748529971E+02 -0.27032916770E+02  0.50528845306E+02  0.29999955792E+02 0.  0.
         12    1    1    2    0    0  0.25335252419E+02  0.16748529971E+02  0.27032916770E+02  0.40659154694E+02  0.00000000000E+00 0. -1.
         11    1    3    3    0    0 -0.13322406954E+02 -0.23146046579E+01 -0.16422077554E+02  0.21272718519E+02  0.51100000000E-03 0. -1.
        -11    1    3    3    0    0 -0.36431363281E+01 -0.13284913912E+02  0.21601185489E+01  0.13943725914E+02  0.51100000000E-03 0.  1.
        -12    1    3    3    0    0 -0.83697091374E+01 -0.11490114013E+01 -0.12770957765E+02  0.15312400873E+02  0.00000000000E+00 0.  1.
</event>
<event>
 7    1  0.6073302E-013  0.5052887E+02  0.7816164E-02  0.1300439E+00
        -11   -1    0    0    0    0  0.00000000000E+00  0.00000000000E+00  0.45593999997E+02  0.45594000000E+02  0.51100000000E-03 0.  1.
         11   -1    0    0    0    0 -0.00000000000E+00 -0.00000000000E+00 -0.45593999997E+02  0.45594000000E+02  0.51100000000E-03 0. -1.
    9900012    2    1    2    0    0  0.25851642292E+02  0.31380655038E+02 -0.33489821668E+00  0.50528867242E+02  0.30000022469E+02 0.  0.
         12    1    1    2    0    0 -0.25851642292E+02 -0.31380655038E+02  0.33489821668E+00  0.40659132758E+02  0.00000000000E+00 0. -1.
         11    1    3    3    0    0  0.15470599177E+02  0.12147282004E+02 -0.40908533613E+00  0.19673923098E+02  0.51100000000E-03 0. -1.
        -11    1    3    3    0    0 -0.27063323653E+01  0.17224491510E+02  0.16832816746E+01  0.17516871299E+02  0.51100000000E-03 0.  1.
        -12    1    3    3    0    0  0.13087375480E+02  0.20088815240E+01 -0.16090945551E+01  0.13338072845E+02  0.00000000000E+00 0.  1.
</event>
<event>
 7    1  0.6073302E-013  0.5052885E+02  0.7816164E-02  0.1300439E+00
        -11   -1    0    0    0    0  0.00000000000E+00  0.00000000000E+00  0.45593999997E+02  0.45594000000E+02  0.51100000000E-03 0.  1.
         11   -1    0    0    0    0 -0.00000000000E+00 -0.00000000000E+00 -0.45593999997E+02  0.45594000000E+02  0.51100000000E-03 0. -1.
    9900012    2    1    2    0    0  0.64696491090E+01  0.18203088058E+01  0.40099831879E+02  0.50528850963E+02  0.29999972986E+02 0.  0.
         12    1    1    2    0    0 -0.64696491090E+01 -0.18203088058E+01 -0.40099831879E+02  0.40659149037E+02  0.00000000000E+00 0. -1.
         11    1    3    3    0    0  0.73280106404E+01  0.10628465710E+02  0.25357650514E+02  0.28454779267E+02  0.51100000000E-03 0.  1.
        -11    1    3    3    0    0 -0.15673293823E+01 -0.88233668728E+01  0.17265687420E+02  0.19452822076E+02  0.51100000000E-03 0. -1.
        -12    1    3    3    0    0  0.70896785076E+00  0.15209968225E-01 -0.25235060553E+01  0.26212496195E+01  0.00000000000E+00 0.  1.
</event>
<event>
 7    1  0.6073302E-013  0.5052887E+02  0.7816164E-02  0.1300439E+00
        -11   -1    0    0    0    0  0.00000000000E+00  0.00000000000E+00  0.45593999997E+02  0.45594000000E+02  0.51100000000E-03 0. -1.
         11   -1    0    0    0    0 -0.00000000000E+00 -0.00000000000E+00 -0.45593999997E+02  0.45594000000E+02  0.51100000000E-03 0.  1.
    9900012    2    1    2    0    0 -0.34376347933E+02  0.19349451278E+02 -0.98503870314E+01  0.50528872038E+02  0.30000037046E+02 0.  0.
         12    1    1    2    0    0  0.34376347933E+02 -0.19349451278E+02  0.98503870314E+01  0.40659127962E+02  0.00000000000E+00 0. -1.
         11    1    3    3    0    0 -0.91632978549E+01 -0.34245608779E+01 -0.12745251806E+01  0.98649916108E+01  0.51100000000E-03 0.  1.
        -11    1    3    3    0    0 -0.16385178715E+00  0.12395263631E+02 -0.64295857795E+00  0.12413009461E+02  0.51100000000E-03 0. -1.
        -12    1    3    3    0    0 -0.25049198291E+02  0.10378748525E+02 -0.79329032728E+01  0.28250870965E+02  0.00000000000E+00 0.  1.
</event>
<event>
 7    1  0.6073302E-013  0.5052886E+02  0.7816164E-02  0.1300439E+00
        -11   -1    0    0    0    0  0.00000000000E+00  0.00000000000E+00  0.45593999997E+02  0.45594000000E+02  0.51100000000E-03 0.  1.
         11   -1    0    0    0    0 -0.00000000000E+00 -0.00000000000E+00 -0.45593999997E+02  0.45594000000E+02  0.51100000000E-03 0. -1.
    9900012    2    1    2    0    0  0.59108873671E+01 -0.72559896926E+01  0.39567381476E+02  0.50528860157E+02  0.30000000933E+02 0.  0.
         12    1    1    2    0    0 -0.59108873671E+01  0.72559896926E+01 -0.39567381476E+02  0.40659139843E+02  0.00000000000E+00 0. -1.
         11    1    3    3    0    0  0.59128506466E+01  0.90150255504E+01  0.21265078959E+02  0.23841897404E+02  0.51100000000E-03 0. -1.
        -11    1    3    3    0    0  0.52077572304E+01 -0.96856033459E+01  0.96608256190E+01  0.14637732046E+02  0.51100000000E-03 0.  1.
         12    1    3    3    0    0 -0.52097205099E+01 -0.65854118971E+01  0.86414768983E+01  0.12049230707E+02  0.00000000000E+00 0. -1.
</event>
<event>
 7    1  0.6073302E-013  0.5052886E+02  0.7816164E-02  0.1300439E+00
        -11   -1    0    0    0    0  0.00000000000E+00  0.00000000000E+00  0.45593999997E+02  0.45594000000E+02  0.51100000000E-03 0.  1.
         11   -1    0    0    0    0 -0.00000000000E+00 -0.00000000000E+00 -0.45593999997E+02  0.45594000000E+02  0.51100000000E-03 0. -1.
    9900012    2    1    2    0    0 -0.29526486063E+02  0.15002431177E+02  0.23585578335E+02  0.50528858028E+02  0.29999994463E+02 0.  0.
         12    1    1    2    0    0  0.29526486063E+02 -0.15002431177E+02 -0.23585578335E+02  0.40659141972E+02  0.00000000000E+00 0. -1.
         11    1    3    3    0    0 -0.24914629176E+02 -0.15269750907E+01  0.18402200861E+02  0.31011472018E+02  0.51100000000E-03 0. -1.
        -11    1    3    3    0    0 -0.11326512630E+01  0.53607242042E+01  0.55697455559E+01  0.78129590231E+01  0.51100000000E-03 0.  1.
         12    1    3    3    0    0 -0.34792056241E+01  0.11168682063E+02 -0.38636808160E+00  0.11704426987E+02  0.00000000000E+00 0. -1.
</event>
<event>
 7    1  0.6073302E-013  0.5052886E+02  0.7816164E-02  0.1300439E+00
        -11   -1    0    0    0    0  0.00000000000E+00  0.00000000000E+00  0.45593999997E+02  0.45594000000E+02  0.51100000000E-03 0. -1.
         11   -1    0    0    0    0 -0.00000000000E+00 -0.00000000000E+00 -0.45593999997E+02  0.45594000000E+02  0.51100000000E-03 0.  1.
    9900012    2    1    2    0    0  0.26886998380E+01 -0.73954451739E+01 -0.39890396217E+02  0.50528862939E+02  0.30000009390E+02 0.  0.
         12    1    1    2    0    0 -0.26886998380E+01  0.73954451739E+01  0.39890396217E+02  0.40659137061E+02  0.00000000000E+00 0. -1.
         11    1    3    3    0    0  0.38721021756E+01 -0.16485501430E+02 -0.19181629400E+02  0.25587102989E+02  0.51100000000E-03 0. -1.
        -11    1    3    3    0    0  0.91527011744E+00  0.53058877966E+01 -0.20073714149E+01  0.57462774869E+01  0.51100000000E-03 0.  1.
         12    1    3    3    0    0 -0.20986724550E+01  0.37841684596E+01 -0.18701395402E+02  0.19195482463E+02  0.00000000000E+00 0. -1.
</event>
<event>
 7    1  0.6073302E-013  0.5052886E+02  0.7816164E-02  0.1300439E+00
        -11   -1    0    0    0    0  0.00000000000E+00  0.00000000000E+00  0.45593999997E+02  0.45594000000E+02  0.51100000000E-03 0.  1.
         11   -1    0    0    0    0 -0.00000000000E+00 -0.00000000000E+00 -0.45593999997E+02  0.45594000000E+02  0.51100000000E-03 0. -1.
    9900012    2    1    2    0    0 -0.28932652987E+02 -0.41834716840E+01  0.28258905048E+02  0.50528861314E+02  0.30000004449E+02 0.  0.
         12    1    1    2    0    0  0.28932652987E+02  0.41834716840E+01 -0.28258905048E+02  0.40659138686E+02  0.00000000000E+00 0. -1.
         11    1    3    3    0    0 -0.55564971844E+01  0.65736116239E+01  0.16966079356E+02  0.19024586190E+02  0.51100000000E-03 0. -1.
        -11    1    3    3    0    0 -0.13737180837E+02 -0.12197427879E+02  0.11647113319E+02  0.21751842063E+02  0.51100000000E-03 0.  1.
        -12    1    3    3    0    0 -0.96389749659E+01  0.14403445709E+01 -0.35428762683E+00  0.97524330604E+01  0.00000000000E+00 0.  1.
</event>
<event>
 7    1  0.6073302E-013  0.5052886E+02  0.7816164E-02  0.1300439E+00
        -11   -1    0    0    0    0  0.00000000000E+00  0.00000000000E+00  0.45593999997E+02  0.45594000000E+02  0.51100000000E-03 0.  1.
         11   -1    0    0    0    0 -0.00000000000E+00 -0.00000000000E+00 -0.45593999997E+02  0.45594000000E+02  0.51100000000E-03 0. -1.
    9900012    2    1    2    0    0  0.13386066495E+02 -0.21569394134E+02  0.31760664941E+02  0.50528863548E+02  0.30000011241E+02 0.  0.
         12    1    1    2    0    0 -0.13386066495E+02  0.21569394134E+02 -0.31760664941E+02  0.40659136452E+02  0.00000000000E+00 0. -1.
         11    1    3    3    0    0 -0.54307166840E+01 -0.56236784156E-01 -0.45763931685E+00  0.54502550659E+01  0.51100000000E-03 0. -1.
        -11    1    3    3    0    0  0.91774805048E+01 -0.16436956283E+02  0.27211977089E+02  0.33089142896E+02  0.51100000000E-03 0.  1.
         12    1    3    3    0    0  0.96393026744E+01 -0.50762010660E+01  0.50063271693E+01  0.11989465586E+02  0.00000000000E+00 0. -1.
</event>
<event>
 7    1  0.6073302E-013  0.5052888E+02  0.7816164E-02  0.1300439E+00
        -11   -1    0    0    0    0  0.00000000000E+00  0.00000000000E+00  0.45593999997E+02  0.45594000000E+02  0.51100000000E-03 0.  1.
         11   -1    0    0    0    0 -0.00000000000E+00 -0.00000000000E+00 -0.45593999997E+02  0.45594000000E+02  0.51100000000E-03 0. -1.
    9900012    2    1    2    0    0 -0.31999919445E+02 -0.25083233647E+02  0.26331650859E-01  0.50528878661E+02  0.30000057179E+02 0.  0.
         12    1    1    2    0    0  0.31999919445E+02  0.25083233647E+02 -0.26331650859E-01  0.40659121339E+02  0.00000000000E+00 0. -1.
         11    1    3    3    0    0 -0.52236852208E+00 -0.15204546473E+02 -0.45368392395E+01  0.15875579135E+02  0.51100000000E-03 0. -1.
        -11    1    3    3    0    0 -0.80871429174E+01 -0.44277894214E+01  0.52813122729E+01  0.10625415724E+02  0.51100000000E-03 0.  1.
         12    1    3    3    0    0 -0.23390408005E+02 -0.54508977527E+01 -0.71814138254E+00  0.24027883802E+02  0.00000000000E+00 0. -1.
</event>
<event>
 7    1  0.6073302E-013  0.5052885E+02  0.7816164E-02  0.1300439E+00
        -11   -1    0    0    0    0  0.00000000000E+00  0.00000000000E+00  0.45593999997E+02  0.45594000000E+02  0.51100000000E-03 0.  1.
         11   -1    0    0    0    0 -0.00000000000E+00 -0.00000000000E+00 -0.45593999997E+02  0.45594000000E+02  0.51100000000E-03 0. -1.
    9900012    2    1    2    0    0  0.15402979741E+02  0.54478062997E-01  0.37628605007E+02  0.50528847678E+02  0.29999963003E+02 0.  0.
         12    1    1    2    0    0 -0.15402979741E+02 -0.54478062997E-01 -0.37628605007E+02  0.40659152322E+02  0.00000000000E+00 0. -1.
         11    1    3    3    0    0  0.30923067644E+01 -0.12815644537E+01  0.50074139047E+01  0.60232020428E+01  0.51100000000E-03 0. -1.
        -11    1    3    3    0    0  0.10431621834E+02 -0.82392578422E+01  0.32088802424E+02  0.34733202345E+02  0.51100000000E-03 0.  1.
        -12    1    3    3    0    0  0.18790511429E+01  0.95753003589E+01  0.53238867769E+00  0.97724432904E+01  0.00000000000E+00 0.  1.
</event>
<event>
 7    1  0.6073302E-013  0.5052886E+02  0.7816164E-02  0.1300439E+00
        -11   -1    0    0    0    0  0.00000000000E+00  0.00000000000E+00  0.45593999997E+02  0.45594000000E+02  0.51100000000E-03 0. -1.
         11   -1    0    0    0    0 -0.00000000000E+00 -0.00000000000E+00 -0.45593999997E+02  0.45594000000E+02  0.51100000000E-03 0.  1.
    9900012    2    1    2    0    0  0.29179261929E+01 -0.35365525734E+02  0.19847695735E+02  0.50528859211E+02  0.29999998059E+02 0.  0.
         12    1    1    2    0    0 -0.29179261929E+01  0.35365525734E+02 -0.19847695735E+02  0.40659140789E+02  0.00000000000E+00 0. -1.
         11    1    3    3    0    0  0.58702324436E+01 -0.20583959214E+02  0.11293274417E+01  0.21434420603E+02  0.51100000000E-03 0.  1.
        -11    1    3    3    0    0 -0.51909393032E+01 -0.15198760238E+02  0.20613606709E+02  0.26131761239E+02  0.51100000000E-03 0. -1.
         12    1    3    3    0    0  0.22386330524E+01  0.41719371814E+00 -0.18952384158E+01  0.29626773693E+01  0.00000000000E+00 0. -1.
</event>
<event>
 7    1  0.6073302E-013  0.5052884E+02  0.7816164E-02  0.1300439E+00
        -11   -1    0    0    0    0  0.00000000000E+00  0.00000000000E+00  0.45593999997E+02  0.45594000000E+02  0.51100000000E-03 0.  1.
         11   -1    0    0    0    0 -0.00000000000E+00 -0.00000000000E+00 -0.45593999997E+02  0.45594000000E+02  0.51100000000E-03 0. -1.
    9900012    2    1    2    0    0 -0.28690023939E+02  0.17658238223E+02  0.22764809119E+02  0.50528838855E+02  0.29999936185E+02 0.  0.
         12    1    1    2    0    0  0.28690023939E+02 -0.17658238223E+02 -0.22764809119E+02  0.40659161145E+02  0.00000000000E+00 0. -1.
         11    1    3    3    0    0 -0.39845717177E+01 -0.40651629174E+01 -0.39775132773E+01  0.69442763086E+01  0.51100000000E-03 0. -1.
        -11    1    3    3    0    0 -0.22514471663E+02  0.15980652494E+02  0.18229607180E+02  0.33084758827E+02  0.51100000000E-03 0.  1.
         12    1    3    3    0    0 -0.21909805589E+01  0.57427486458E+01  0.85127152158E+01  0.10499803720E+02  0.00000000000E+00 0. -1.
</event>
<event>
 7    1  0.6073302E-013  0.5052886E+02  0.7816164E-02  0.1300439E+00
        -11   -1    0    0    0    0  0.00000000000E+00  0.00000000000E+00  0.45593999997E+02  0.45594000000E+02  0.51100000000E-03 0. -1.
         11   -1    0    0    0    0 -0.00000000000E+00 -0.00000000000E+00 -0.45593999997E+02  0.45594000000E+02  0.51100000000E-03 0.  1.
    9900012    2    1    2    0    0 -0.26157135422E+02  0.30917940826E+02 -0.36126199914E+01  0.50528858081E+02  0.29999994623E+02 0.  0.
         12    1    1    2    0    0  0.26157135422E+02 -0.30917940826E+02  0.36126199914E+01  0.40659141919E+02  0.00000000000E+00 0. -1.
         11    1    3    3    0    0  0.54252922135E+01  0.52229243696E+01 -0.28314318098E+01  0.80454795337E+01  0.51100000000E-03 0. -1.
        -11    1    3    3    0    0 -0.23361736740E+02  0.20720329260E+02 -0.56147784308E+01  0.31727409684E+02  0.51100000000E-03 0.  1.
         12    1    3    3    0    0 -0.82206908953E+01  0.49746871967E+01  0.48335902492E+01  0.10755968864E+02  0.00000000000E+00 0. -1.
</event>
<event>
 7    1  0.6073302E-013  0.5052885E+02  0.7816164E-02  0.1300439E+00
        -11   -1    0    0    0    0  0.00000000000E+00  0.00000000000E+00  0.45593999997E+02  0.45594000000E+02  0.51100000000E-03 0. -1.
         11   -1    0    0    0    0 -0.00000000000E+00 -0.00000000000E+00 -0.45593999997E+02  0.45594000000E+02  0.51100000000E-03 0.  1.
    9900012    2    1    2    0    0  0.15747548394E+02  0.25822850059E+02 -0.27172804172E+02  0.50528854016E+02  0.29999982268E+02 0.  0.
         12    1    1    2    0    0 -0.15747548394E+02 -0.25822850059E+02  0.27172804172E+02  0.40659145984E+02  0.00000000000E+00 0. -1.
         11    1    3    3    0    0 -0.32340353029E+01 -0.78686911408E+00 -0.37276759082E+01  0.49973708368E+01  0.51100000000E-03 0. -1.
        -11    1    3    3    0    0  0.15691810329E+02  0.21770245239E+02 -0.27490535540E+02  0.38417522483E+02  0.51100000000E-03 0.  1.
        -12    1    3    3    0    0  0.32897733679E+01  0.48394739334E+01  0.40454072762E+01  0.71139606967E+01  0.00000000000E+00 0.  1.
</event>
<event>
 7    1  0.6073302E-013  0.5052885E+02  0.7816164E-02  0.1300439E+00
        -11   -1    0    0    0    0  0.00000000000E+00  0.00000000000E+00  0.45593999997E+02  0.45594000000E+02  0.51100000000E-03 0.  1.
         11   -1    0    0    0    0 -0.00000000000E+00 -0.00000000000E+00 -0.45593999997E+02  0.45594000000E+02  0.51100000000E-03 0. -1.
    9900012    2    1    2    0    0  0.35224389237E+02  0.15860602478E+02  0.12682657672E+02  0.50528854489E+02  0.29999983705E+02 0.  0.
         12    1    1    2    0    0 -0.35224389237E+02 -0.15860602478E+02 -0.12682657672E+02  0.40659145511E+02  0.00000000000E+00 0. -1.
         11    1    3    3    0    0  0.16419056718E+02 -0.20975420684E+01  0.16571404370E+02  0.23422138017E+02  0.51100000000E-03 0. -1.
        -11    1    3    3    0    0  0.15684097238E+01  0.46212790347E+01  0.39301326531E+00  0.48959767836E+01  0.51100000000E-03 0.  1.
         12    1    3    3    0    0  0.17236922795E+02  0.13336865512E+02 -0.42817599633E+01  0.22210739689E+02  0.00000000000E+00 0. -1.
</event>
<event>
 7    1  0.6073302E-013  0.5052886E+02  0.7816164E-02  0.1300439E+00
        -11   -1    0    0    0    0  0.00000000000E+00  0.00000000000E+00  0.45593999997E+02  0.45594000000E+02  0.51100000000E-03 0.  1.
         11   -1    0    0    0    0 -0.00000000000E+00 -0.00000000000E+00 -0.45593999997E+02  0.45594000000E+02  0.51100000000E-03 0. -1.
    9900012    2    1    2    0    0  0.15964724346E+02 -0.16721874922E+02  0.33446554072E+02  0.50528861991E+02  0.30000006507E+02 0.  0.
         12    1    1    2    0    0 -0.15964724346E+02  0.16721874922E+02 -0.33446554072E+02  0.40659138009E+02  0.00000000000E+00 0. -1.
         11    1    3    3    0    0  0.33182743103E+00 -0.24349723139E+01 -0.34584620910E+01  0.42426595326E+01  0.51100000000E-03 0. -1.
        -11    1    3    3    0    0  0.15870876287E+02 -0.29758972847E+01  0.17404592678E+02  0.23741535867E+02  0.51100000000E-03 0.  1.
        -12    1    3    3    0    0 -0.23797937181E+00 -0.11311005324E+02  0.19500423485E+02  0.22544666591E+02  0.00000000000E+00 0.  1.
</event>
<event>
 7    1  0.6073302E-013  0.5052885E+02  0.7816164E-02  0.1300439E+00
        -11   -1    0    0    0    0  0.00000000000E+00  0.00000000000E+00  0.45593999997E+02  0.45594000000E+02  0.51100000000E-03 0.  1.
         11   -1    0    0    0    0 -0.00000000000E+00 -0.00000000000E+00 -0.45593999997E+02  0.45594000000E+02  0.51100000000E-03 0. -1.
    9900012    2    1    2    0    0 -0.37827646977E+02 -0.14901491878E+02 -0.42519651239E+00  0.50528854312E+02  0.29999983167E+02 0.  0.
         12    1    1    2    0    0  0.37827646977E+02  0.14901491878E+02  0.42519651239E+00  0.40659145688E+02  0.00000000000E+00 0. -1.
         11    1    3    3    0    0 -0.89887286819E+01 -0.12264658786E+02 -0.11887915579E+02  0.19301337662E+02  0.51100000000E-03 0. -1.
        -11    1    3    3    0    0 -0.17626391848E+02 -0.20475155613E+01  0.59234081979E+01  0.18707452379E+02  0.51100000000E-03 0.  1.
         12    1    3    3    0    0 -0.11212526447E+02 -0.58931753128E+00  0.55393108690E+01  0.12520064272E+02  0.00000000000E+00 0. -1.
</event>
<event>
 7    1  0.6073302E-013  0.5052885E+02  0.7816164E-02  0.1300439E+00
        -11   -1    0    0    0    0  0.00000000000E+00  0.00000000000E+00  0.45593999997E+02  0.45594000000E+02  0.51100000000E-03 0.  1.
         11   -1    0    0    0    0 -0.00000000000E+00 -0.00000000000E+00 -0.45593999997E+02  0.45594000000E+02  0.51100000000E-03 0. -1.
    9900012    2    1    2    0    0 -0.30935242549E+02  0.27763858135E+01  0.26238691722E+02  0.50528849824E+02  0.29999969527E+02 0.  0.
         12    1    1    2    0    0  0.30935242549E+02 -0.27763858135E+01 -0.26238691722E+02  0.40659150176E+02  0.00000000000E+00 0. -1.
         11    1    3    3    0    0 -0.89368203931E+01 -0.52715424624E+01  0.37642273988E+01  0.11037451103E+02  0.51100000000E-03 0. -1.
        -11    1    3    3    0    0 -0.44573954721E+01  0.13140277141E+02  0.12522646151E+02  0.18690958366E+02  0.51100000000E-03 0.  1.
        -12    1    3    3    0    0 -0.17541026683E+02 -0.50923488656E+01  0.99518181715E+01  0.20800440356E+02  0.00000000000E+00 0.  1.
</event>
<event>
 7    1  0.6073302E-013  0.5052886E+02  0.7816164E-02  0.1300439E+00
        -11   -1    0    0    0    0  0.00000000000E+00  0.00000000000E+00  0.45593999997E+02  0.45594000000E+02  0.51100000000E-03 0.  1.
         11   -1    0    0    0    0 -0.00000000000E+00 -0.00000000000E+00 -0.45593999997E+02  0.45594000000E+02  0.51100000000E-03 0. -1.
    9900012    2    1    2    0    0  0.25695866461E+02  0.25534257449E+02  0.18463205509E+02  0.50528858171E+02  0.29999994895E+02 0.  0.
         12    1    1    2    0    0 -0.25695866461E+02 -0.25534257449E+02 -0.18463205509E+02  0.40659141829E+02  0.00000000000E+00 0. -1.
         11    1    3    3    0    0  0.47435913314E+01  0.42757904839E+01 -0.78813425908E+01  0.10143944217E+02  0.51100000000E-03 0. -1.
        -11    1    3    3    0    0  0.13875642812E+02  0.16122712647E+02  0.14848047646E+02  0.25941084127E+02  0.51100000000E-03 0.  1.
         12    1    3    3    0    0  0.70766323180E+01  0.51357543181E+01  0.11496500454E+02  0.14443829827E+02  0.00000000000E+00 0. -1.
</event>
<event>
 7    1  0.6073302E-013  0.5052885E+02  0.7816164E-02  0.1300439E+00
        -11   -1    0    0    0    0  0.00000000000E+00  0.00000000000E+00  0.45593999997E+02  0.45594000000E+02  0.51100000000E-03 0.  1.
         11   -1    0    0    0    0 -0.00000000000E+00 -0.00000000000E+00 -0.45593999997E+02  0.45594000000E+02  0.51100000000E-03 0. -1.
    9900012    2    1    2    0    0 -0.33482199375E+02 -0.17278944128E+02 -0.15282229399E+02  0.50528854405E+02  0.29999983448E+02 0.  0.
         12    1    1    2    0    0  0.33482199375E+02  0.17278944128E+02  0.15282229399E+02  0.40659145595E+02  0.00000000000E+00 0. -1.
         11    1    3    3    0    0  0.22820408916E+01 -0.44121647503E+01 -0.97084589797E+01  0.10905461221E+02  0.51100000000E-03 0. -1.
        -11    1    3    3    0    0 -0.25708794608E+02 -0.11982324131E+02 -0.60023608866E+00  0.28370380600E+02  0.51100000000E-03 0.  1.
        -12    1    3    3    0    0 -0.10055445658E+02 -0.88445524642E+00 -0.49735343307E+01  0.11253012584E+02  0.00000000000E+00 0.  1.
</event>
<event>
 7    1  0.6073302E-013  0.5052887E+02  0.7816164E-02  0.1300439E+00
        -11   -1    0    0    0    0  0.00000000000E+00  0.00000000000E+00  0.45593999997E+02  0.45594000000E+02  0.51100000000E-03 0.  1.
         11   -1    0    0    0    0 -0.00000000000E+00 -0.00000000000E+00 -0.45593999997E+02  0.45594000000E+02  0.51100000000E-03 0. -1.
    9900012    2    1    2    0    0 -0.67881137526E+00  0.32501776423E+02  0.24420045222E+02  0.50528869855E+02  0.30000030410E+02 0.  0.
         12    1    1    2    0    0  0.67881137526E+00 -0.32501776423E+02 -0.24420045222E+02  0.40659130145E+02  0.00000000000E+00 0. -1.
         11    1    3    3    0    0  0.36490281000E+01  0.10702402047E+01  0.15617820547E+02  0.16074113943E+02  0.51100000000E-03 0. -1.
        -11    1    3    3    0    0 -0.73735850242E+01  0.16986871475E+02  0.41591685916E+01  0.18979521655E+02  0.51100000000E-03 0.  1.
         12    1    3    3    0    0  0.30457455490E+01  0.14444664744E+02  0.46430560835E+01  0.15475234257E+02  0.00000000000E+00 0. -1.
</event>
<event>
 7    1  0.6073302E-013  0.5052885E+02  0.7816164E-02  0.1300439E+00
        -11   -1    0    0    0    0  0.00000000000E+00  0.00000000000E+00  0.45593999997E+02  0.45594000000E+02  0.51100000000E-03 0. -1.
         11   -1    0    0    0    0 -0.00000000000E+00 -0.00000000000E+00 -0.45593999997E+02  0.45594000000E+02  0.51100000000E-03 0.  1.
    9900012    2    1    2    0    0  0.30738856999E+02  0.19556456123E+01 -0.26541747477E+02  0.50528852954E+02  0.29999979040E+02 0.  0.
         12    1    1    2    0    0 -0.30738856999E+02 -0.19556456123E+01  0.26541747477E+02  0.40659147046E+02  0.00000000000E+00 0. -1.
         11    1    3    3    0    0 -0.25585617149E+01  0.74833756676E+00 -0.10011971406E+01  0.28475679339E+01  0.51100000000E-03 0. -1.
        -11    1    3    3    0    0  0.33463992318E+02  0.64220880758E+01 -0.18070985202E+02  0.38569968934E+02  0.51100000000E-03 0.  1.
        -12    1    3    3    0    0 -0.16657360452E+00 -0.52147800302E+01 -0.74695651345E+01  0.91113160865E+01  0.00000000000E+00 0.  1.
</event>
<event>
 7    1  0.6073302E-013  0.5052886E+02  0.7816164E-02  0.1300439E+00
        -11   -1    0    0    0    0  0.00000000000E+00  0.00000000000E+00  0.45593999997E+02  0.45594000000E+02  0.51100000000E-03 0. -1.
         11   -1    0    0    0    0 -0.00000000000E+00 -0.00000000000E+00 -0.45593999997E+02  0.45594000000E+02  0.51100000000E-03 0.  1.
    9900012    2    1    2    0    0  0.24168388268E+02 -0.31374120127E+01 -0.32545528136E+02  0.50528858995E+02  0.29999997401E+02 0.  0.
         12    1    1    2    0    0 -0.24168388268E+02  0.31374120127E+01  0.32545528136E+02  0.40659141005E+02  0.00000000000E+00 0. -1.
         11    1    3    3    0    0  0.18440972787E+02 -0.11217393869E+01 -0.26322498280E+01  0.18661632190E+02  0.51100000000E-03 0. -1.
        -11    1    3    3    0    0  0.47046710841E+01 -0.80093811644E+00 -0.29900772124E+02  0.30279227298E+02  0.51100000000E-03 0.  1.
        -12    1    3    3    0    0  0.10227443972E+01 -0.12147345094E+01 -0.12506183801E-01  0.15879995072E+01  0.00000000000E+00 0.  1.
</event>
<event>
 7    1  0.6073302E-013  0.5052886E+02  0.7816164E-02  0.1300439E+00
        -11   -1    0    0    0    0  0.00000000000E+00  0.00000000000E+00  0.45593999997E+02  0.45594000000E+02  0.51100000000E-03 0. -1.
         11   -1    0    0    0    0 -0.00000000000E+00 -0.00000000000E+00 -0.45593999997E+02  0.45594000000E+02  0.51100000000E-03 0.  1.
    9900012    2    1    2    0    0 -0.13557444337E+02  0.35476046370E+02 -0.14519353149E+02  0.50528858607E+02  0.29999996221E+02 0.  0.
         12    1    1    2    0    0  0.13557444337E+02 -0.35476046370E+02  0.14519353149E+02  0.40659141393E+02  0.00000000000E+00 0. -1.
         11    1    3    3    0    0  0.43773805066E+01  0.89355904256E+00  0.35797070487E+01  0.57248764770E+01  0.51100000000E-03 0. -1.
        -11    1    3    3    0    0 -0.10253304762E+02  0.10628948928E+02 -0.11717195722E+02  0.18851989012E+02  0.51100000000E-03 0.  1.
        -12    1    3    3    0    0 -0.76815200816E+01  0.23953538400E+02 -0.63818644751E+01  0.25951993118E+02  0.00000000000E+00 0.  1.
</event>
<event>
 7    1  0.6073302E-013  0.5052886E+02  0.7816164E-02  0.1300439E+00
        -11   -1    0    0    0    0  0.00000000000E+00  0.00000000000E+00  0.45593999997E+02  0.45594000000E+02  0.51100000000E-03 0. -1.
         11   -1    0    0    0    0 -0.00000000000E+00 -0.00000000000E+00 -0.45593999997E+02  0.45594000000E+02  0.51100000000E-03 0.  1.
    9900012    2    1    2    0    0 -0.37915269052E+02  0.12892674102E+02 -0.70268618448E+01  0.50528862526E+02  0.30000008133E+02 0.  0.
         12    1    1    2    0    0  0.37915269052E+02 -0.12892674102E+02  0.70268618448E+01  0.40659137474E+02  0.00000000000E+00 0. -1.
         11    1    3    3    0    0 -0.21851788059E+02  0.14237253571E+02  0.14689750700E+01  0.26121981522E+02  0.51100000000E-03 0.  1.
        -11    1    3    3    0    0 -0.97950878377E+01  0.41987077192E+01 -0.11346782541E+02  0.15566706991E+02  0.51100000000E-03 0. -1.
         12    1    3    3    0    0 -0.62683931553E+01 -0.55432871884E+01  0.28509456262E+01  0.88401740122E+01  0.00000000000E+00 0. -1.
</event>
<event>
 7    1  0.6073302E-013  0.5052887E+02  0.7816164E-02  0.1300439E+00
        -11   -1    0    0    0    0  0.00000000000E+00  0.00000000000E+00  0.45593999997E+02  0.45594000000E+02  0.51100000000E-03 0. -1.
         11   -1    0    0    0    0 -0.00000000000E+00 -0.00000000000E+00 -0.45593999997E+02  0.45594000000E+02  0.51100000000E-03 0.  1.
    9900012    2    1    2    0    0  0.16801216153E+02  0.36451427775E+02  0.64944132472E+01  0.50528869974E+02  0.30000030773E+02 0.  0.
         12    1    1    2    0    0 -0.16801216153E+02 -0.36451427775E+02 -0.64944132472E+01  0.40659130026E+02  0.00000000000E+00 0. -1.
         11    1    3    3    0    0  0.63408256864E+01  0.95360090323E+01  0.72943085872E+01  0.13577498911E+02  0.51100000000E-03 0. -1.
        -11    1    3    3    0    0 -0.67410919023E+01  0.13613125480E+02 -0.68323683978E+00  0.15206127653E+02  0.51100000000E-03 0.  1.
        -12    1    3    3    0    0  0.17201482369E+02  0.13302293263E+02 -0.11665850022E+00  0.21745243410E+02  0.00000000000E+00 0.  1.
</event>
<event>
 7    1  0.6073302E-013  0.5052886E+02  0.7816164E-02  0.1300439E+00
        -11   -1    0    0    0    0  0.00000000000E+00  0.00000000000E+00  0.45593999997E+02  0.45594000000E+02  0.51100000000E-03 0. -1.
         11   -1    0    0    0    0 -0.00000000000E+00 -0.00000000000E+00 -0.45593999997E+02  0.45594000000E+02  0.51100000000E-03 0.  1.
    9900012    2    1    2    0    0 -0.67124305875E+01 -0.78051589997E+01 -0.39334320614E+02  0.50528855769E+02  0.29999987595E+02 0.  0.
         12    1    1    2    0    0  0.67124305875E+01  0.78051589997E+01  0.39334320614E+02  0.40659144231E+02  0.00000000000E+00 0. -1.
         11    1    3    3    0    0  0.34088933975E+01 -0.29457396819E+01 -0.22460909190E+02  0.22908303699E+02  0.51100000000E-03 0. -1.
        -11    1    3    3    0    0 -0.11512785849E+02  0.32757839014E+01 -0.14940258183E+02  0.19143832245E+02  0.51100000000E-03 0.  1.
         12    1    3    3    0    0  0.13914618641E+01 -0.81352032191E+01 -0.19331532410E+01  0.84767198248E+01  0.00000000000E+00 0. -1.
</event>
<event>
 7    1  0.6073302E-013  0.5052885E+02  0.7816164E-02  0.1300439E+00
        -11   -1    0    0    0    0  0.00000000000E+00  0.00000000000E+00  0.45593999997E+02  0.45594000000E+02  0.51100000000E-03 0.  1.
         11   -1    0    0    0    0 -0.00000000000E+00 -0.00000000000E+00 -0.45593999997E+02  0.45594000000E+02  0.51100000000E-03 0. -1.
    9900012    2    1    2    0    0 -0.21350022331E+01  0.71437350659E+01  0.39969676656E+02  0.50528852970E+02  0.29999979086E+02 0.  0.
         12    1    1    2    0    0  0.21350022331E+01 -0.71437350659E+01 -0.39969676656E+02  0.40659147030E+02  0.00000000000E+00 0. -1.
         11    1    3    3    0    0 -0.11569497830E+02  0.13021851845E+01  0.24968097254E+02  0.27549135141E+02  0.51100000000E-03 0. -1.
        -11    1    3    3    0    0  0.17513859057E+01 -0.40770214943E+01  0.18616053664E+01  0.48119675453E+01  0.51100000000E-03 0.  1.
         12    1    3    3    0    0  0.76831096914E+01  0.99185713758E+01  0.13139974036E+02  0.18167750283E+02  0.00000000000E+00 0. -1.
</event>
<event>
 7    1  0.6073302E-013  0.5052886E+02  0.7816164E-02  0.1300439E+00
        -11   -1    0    0    0    0  0.00000000000E+00  0.00000000000E+00  0.45593999997E+02  0.45594000000E+02  0.51100000000E-03 0.  1.
         11   -1    0    0    0    0 -0.00000000000E+00 -0.00000000000E+00 -0.45593999997E+02  0.45594000000E+02  0.51100000000E-03 0. -1.
    9900012    2    1    2    0    0 -0.24963864247E+02 -0.79210003082E+01  0.31100298707E+02  0.50528863958E+02  0.30000012485E+02 0.  0.
         12    1    1    2    0    0  0.24963864247E+02  0.79210003082E+01 -0.31100298707E+02  0.40659136042E+02  0.00000000000E+00 0. -1.
         11    1    3    3    0    0 -0.95308353928E+01 -0.66172034497E+01 -0.17390656087E+01  0.11732372063E+02  0.51100000000E-03 0.  1.
        -11    1    3    3    0    0 -0.33582579412E+01  0.53361774231E+01  0.14871765725E+02  0.16153083357E+02  0.51100000000E-03 0. -1.
         12    1    3    3    0    0 -0.12074770913E+02 -0.66399742816E+01  0.17967598591E+02  0.22643408537E+02  0.00000000000E+00 0. -1.
</event>
<event>
 7    1  0.6073302E-013  0.5052886E+02  0.7816164E-02  0.1300439E+00
        -11   -1    0    0    0    0  0.00000000000E+00  0.00000000000E+00  0.45593999997E+02  0.45594000000E+02  0.51100000000E-03 0.  1.
         11   -1    0    0    0    0 -0.00000000000E+00 -0.00000000000E+00 -0.45593999997E+02  0.45594000000E+02  0.51100000000E-03 0. -1.
    9900012    2    1    2    0    0 -0.14883198447E+02  0.29641145702E+02  0.23517202052E+02  0.50528857032E+02  0.29999991436E+02 0.  0.
         12    1    1    2    0    0  0.14883198447E+02 -0.29641145702E+02 -0.23517202052E+02  0.40659142968E+02  0.00000000000E+00 0. -1.
         11    1    3    3    0    0 -0.27036070632E+01 -0.29353438678E+01  0.87097853503E+01  0.95805060349E+01  0.51100000000E-03 0. -1.
        -11    1    3    3    0    0 -0.15878429037E+02  0.23597657448E+02  0.11666429081E+02  0.30742145558E+02  0.51100000000E-03 0.  1.
         12    1    3    3    0    0  0.36988376532E+01  0.89788321214E+01  0.31409876205E+01  0.10206205440E+02  0.00000000000E+00 0. -1.
</event>
<event>
 7    1  0.6073302E-013  0.5052885E+02  0.7816164E-02  0.1300439E+00
        -11   -1    0    0    0    0  0.00000000000E+00  0.00000000000E+00  0.45593999997E+02  0.45594000000E+02  0.51100000000E-03 0. -1.
         11   -1    0    0    0    0 -0.00000000000E+00 -0.00000000000E+00 -0.45593999997E+02  0.45594000000E+02  0.51100000000E-03 0.  1.
    9900012    2    1    2    0    0 -0.11974638976E+02  0.98301399275E+01 -0.37591792992E+02  0.50528849370E+02  0.29999968144E+02 0.  0.
         12    1    1    2    0    0  0.11974638976E+02 -0.98301399275E+01  0.37591792992E+02  0.40659150630E+02  0.00000000000E+00 0. -1.
         11    1    3    3    0    0 -0.32317659510E+01 -0.36612944483E+01 -0.79596827161E+00  0.49480252576E+01  0.51100000000E-03 0. -1.
        -11    1    3    3    0    0 -0.60325856611E+01  0.11181138802E+02 -0.39250526970E+02  0.41255470212E+02  0.51100000000E-03 0.  1.
        -12    1    3    3    0    0 -0.27102873636E+01  0.23102955738E+01  0.24547022495E+01  0.43253539006E+01  0.00000000000E+00 0.  1.
</event>
<event>
 7    1  0.6073302E-013  0.5052886E+02  0.7816164E-02  0.1300439E+00
        -11   -1    0    0    0    0  0.00000000000E+00  0.00000000000E+00  0.45593999997E+02  0.45594000000E+02  0.51100000000E-03 0.  1.
         11   -1    0    0    0    0 -0.00000000000E+00 -0.00000000000E+00 -0.45593999997E+02  0.45594000000E+02  0.51100000000E-03 0. -1.
    9900012    2    1    2    0    0  0.38006661314E+02 -0.10830775229E+02  0.95579238909E+01  0.50528857051E+02  0.29999991491E+02 0.  0.
         12    1    1    2    0    0 -0.38006661314E+02  0.10830775229E+02 -0.95579238909E+01  0.40659142949E+02  0.00000000000E+00 0. -1.
         11    1    3    3    0    0  0.23414732238E+02 -0.10306721636E+02  0.16430354672E+02  0.30404518604E+02  0.51100000000E-03 0.  1.
        -11    1    3    3    0    0  0.43580300180E+01 -0.31478746411E+01 -0.78498851799E+01  0.95143175263E+01  0.51100000000E-03 0. -1.
        -12    1    3    3    0    0  0.10233899058E+02  0.26238210483E+01  0.97745439892E+00  0.10610020920E+02  0.00000000000E+00 0.  1.
</event>
<event>
 7    1  0.6073302E-013  0.5052886E+02  0.7816164E-02  0.1300439E+00
        -11   -1    0    0    0    0  0.00000000000E+00  0.00000000000E+00  0.45593999997E+02  0.45594000000E+02  0.51100000000E-03 0. -1.
         11   -1    0    0    0    0 -0.00000000000E+00 -0.00000000000E+00 -0.45593999997E+02  0.45594000000E+02  0.51100000000E-03 0.  1.
    9900012    2    1    2    0    0 -0.29983677741E+02 -0.95080723448E+01 -0.25763174522E+02  0.50528861642E+02  0.30000005446E+02 0.  0.
         12    1    1    2    0    0  0.29983677741E+02  0.95080723448E+01  0.25763174522E+02  0.40659138358E+02  0.00000000000E+00 0. -1.
         11    1    3    3    0    0 -0.12979020583E+02  0.72772810669E+01 -0.16009433992E+02  0.21856710000E+02  0.51100000000E-03 0. -1.
        -11    1    3    3    0    0 -0.10966290907E+02 -0.13749562842E+02 -0.10036278664E+01  0.17615824811E+02  0.51100000000E-03 0.  1.
        -12    1    3    3    0    0 -0.60383662509E+01 -0.30357905699E+01 -0.87501126636E+01  0.11056326831E+02  0.00000000000E+00 0.  1.
</event>
<event>
 7    1  0.6073302E-013  0.5052887E+02  0.7816164E-02  0.1300439E+00
        -11   -1    0    0    0    0  0.00000000000E+00  0.00000000000E+00  0.45593999997E+02  0.45594000000E+02  0.51100000000E-03 0.  1.
         11   -1    0    0    0    0 -0.00000000000E+00 -0.00000000000E+00 -0.45593999997E+02  0.45594000000E+02  0.51100000000E-03 0. -1.
    9900012    2    1    2    0    0 -0.28505936729E+02 -0.27648901112E+02 -0.87243923489E+01  0.50528865930E+02  0.30000018480E+02 0.  0.
         12    1    1    2    0    0  0.28505936729E+02  0.27648901112E+02  0.87243923489E+01  0.40659134070E+02  0.00000000000E+00 0. -1.
         11    1    3    3    0    0 -0.24909222907E+02 -0.97741196678E+01 -0.21601327054E+01  0.26845278443E+02  0.51100000000E-03 0. -1.
        -11    1    3    3    0    0  0.20175806499E+01 -0.13481655392E+02  0.50879276473E+00  0.13641280516E+02  0.51100000000E-03 0.  1.
        -12    1    3    3    0    0 -0.56142944716E+01 -0.43931260525E+01 -0.70730524082E+01  0.10042306971E+02  0.00000000000E+00 0.  1.
</event>
<event>
 7    1  0.6073302E-013  0.5052887E+02  0.7816164E-02  0.1300439E+00
        -11   -1    0    0    0    0  0.00000000000E+00  0.00000000000E+00  0.45593999997E+02  0.45594000000E+02  0.51100000000E-03 0.  1.
         11   -1    0    0    0    0 -0.00000000000E+00 -0.00000000000E+00 -0.45593999997E+02  0.45594000000E+02  0.51100000000E-03 0. -1.
    9900012    2    1    2    0    0 -0.25348856022E+02 -0.15737191190E+02  0.27621387916E+02  0.50528871153E+02  0.30000034357E+02 0.  0.
         12    1    1    2    0    0  0.25348856022E+02  0.15737191190E+02 -0.27621387916E+02  0.40659128847E+02  0.00000000000E+00 0. -1.
         11    1    3    3    0    0 -0.13959139825E+02  0.15634078628E+01  0.23923581516E+01  0.14248691399E+02  0.51100000000E-03 0. -1.
        -11    1    3    3    0    0 -0.13288529268E+02 -0.94687468579E+01  0.22455045862E+02  0.27757364106E+02  0.51100000000E-03 0.  1.
        -12    1    3    3    0    0  0.18988130708E+01 -0.78318521947E+01  0.27739839024E+01  0.85228156479E+01  0.00000000000E+00 0.  1.
</event>
<event>
 7    1  0.6073302E-013  0.5052886E+02  0.7816164E-02  0.1300439E+00
        -11   -1    0    0    0    0  0.00000000000E+00  0.00000000000E+00  0.45593999997E+02  0.45594000000E+02  0.51100000000E-03 0. -1.
         11   -1    0    0    0    0 -0.00000000000E+00 -0.00000000000E+00 -0.45593999997E+02  0.45594000000E+02  0.51100000000E-03 0.  1.
    9900012    2    1    2    0    0 -0.15428045250E+02 -0.36950440973E+02  0.70573640387E+01  0.50528855204E+02  0.29999985878E+02 0.  0.
         12    1    1    2    0    0  0.15428045250E+02  0.36950440973E+02 -0.70573640387E+01  0.40659144796E+02  0.00000000000E+00 0. -1.
         11    1    3    3    0    0 -0.13261283154E+02 -0.59892042010E+01 -0.29716829775E+00  0.14554054663E+02  0.51100000000E-03 0. -1.
        -11    1    3    3    0    0 -0.61820368005E+01 -0.26519686316E+02  0.10531959583E+02  0.29196464070E+02  0.51100000000E-03 0.  1.
        -12    1    3    3    0    0  0.40152747044E+01 -0.44415504563E+01 -0.31774272466E+01  0.67783364711E+01  0.00000000000E+00 0.  1.
</event>
<event>
 7    1  0.6073302E-013  0.5052884E+02  0.7816164E-02  0.1300439E+00
        -11   -1    0    0    0    0  0.00000000000E+00  0.00000000000E+00  0.45593999997E+02  0.45594000000E+02  0.51100000000E-03 0.  1.
         11   -1    0    0    0    0 -0.00000000000E+00 -0.00000000000E+00 -0.45593999997E+02  0.45594000000E+02  0.51100000000E-03 0. -1.
    9900012    2    1    2    0    0 -0.33464407930E+02  0.10716707726E+02  0.20456126490E+02  0.50528837028E+02  0.29999930631E+02 0.  0.
         12    1    1    2    0    0  0.33464407930E+02 -0.10716707726E+02 -0.20456126490E+02  0.40659162972E+02  0.00000000000E+00 0. -1.
         11    1    3    3    0    0 -0.22259988691E+02  0.16846237495E+01  0.59640691529E+01  0.23106604572E+02  0.51100000000E-03 0.  1.
        -11    1    3    3    0    0 -0.14284381320E+01  0.53536477776E+01  0.15941507588E+02  0.16877015271E+02  0.51100000000E-03 0. -1.
         12    1    3    3    0    0 -0.97759811066E+01  0.36784361987E+01 -0.14494502506E+01  0.10545217186E+02  0.00000000000E+00 0. -1.
</event>
<event>
 7    1  0.6073302E-013  0.5052885E+02  0.7816164E-02  0.1300439E+00
        -11   -1    0    0    0    0  0.00000000000E+00  0.00000000000E+00  0.45593999997E+02  0.45594000000E+02  0.51100000000E-03 0. -1.
         11   -1    0    0    0    0 -0.00000000000E+00 -0.00000000000E+00 -0.45593999997E+02  0.45594000000E+02  0.51100000000E-03 0.  1.
    9900012    2    1    2    0    0  0.13472354502E+02 -0.35990539991E+02 -0.13279421729E+02  0.50528851630E+02  0.29999975016E+02 0.  0.
         12    1    1    2    0    0 -0.13472354502E+02  0.35990539991E+02  0.13279421729E+02  0.40659148370E+02  0.00000000000E+00 0. -1.
         11    1    3    3    0    0  0.15728078128E+02 -0.38300934140E+02 -0.10785683108E+02  0.42786270671E+02  0.51100000000E-03 0. -1.
        -11    1    3    3    0    0 -0.36862104751E+00 -0.22686764724E+01 -0.27223619705E+00  0.23144950251E+01  0.51100000000E-03 0.  1.
         12    1    3    3    0    0 -0.18871025782E+01  0.45790706208E+01 -0.22215024238E+01  0.54280859342E+01  0.00000000000E+00 0. -1.
</event>
<event>
 7    1  0.6073302E-013  0.5052885E+02  0.7816164E-02  0.1300439E+00
        -11   -1    0    0    0    0  0.00000000000E+00  0.00000000000E+00  0.45593999997E+02  0.45594000000E+02  0.51100000000E-03 0. -1.
         11   -1    0    0    0    0 -0.00000000000E+00 -0.00000000000E+00 -0.45593999997E+02  0.45594000000E+02  0.51100000000E-03 0.  1.
    9900012    2    1    2    0    0  0.19532686114E+02  0.26419634607E+02 -0.23950852202E+02  0.50528852926E+02  0.29999978955E+02 0.  0.
         12    1    1    2    0    0 -0.19532686114E+02 -0.26419634607E+02  0.23950852202E+02  0.40659147074E+02  0.00000000000E+00 0. -1.
         11    1    3    3    0    0 -0.95538741475E+00  0.17878381304E+02 -0.70034677893E+01  0.19224927686E+02  0.51100000000E-03 0. -1.
        -11    1    3    3    0    0  0.21241762249E+02  0.84373746528E+01 -0.11102952974E+02  0.25410181414E+02  0.51100000000E-03 0.  1.
        -12    1    3    3    0    0 -0.75368872094E+00  0.10387864960E+00 -0.58444314379E+01  0.58937438267E+01  0.00000000000E+00 0.  1.
</event>
<event>
 7    1  0.6073302E-013  0.5052886E+02  0.7816164E-02  0.1300439E+00
        -11   -1    0    0    0    0  0.00000000000E+00  0.00000000000E+00  0.45593999997E+02  0.45594000000E+02  0.51100000000E-03 0.  1.
         11   -1    0    0    0    0 -0.00000000000E+00 -0.00000000000E+00 -0.45593999997E+02  0.45594000000E+02  0.51100000000E-03 0. -1.
    9900012    2    1    2    0    0 -0.23135641758E+02 -0.11305549486E+02  0.31465728999E+02  0.50528862403E+02  0.30000007759E+02 0.  0.
         12    1    1    2    0    0  0.23135641758E+02  0.11305549486E+02 -0.31465728999E+02  0.40659137597E+02  0.00000000000E+00 0. -1.
         11    1    3    3    0    0 -0.13414663455E+02  0.47454898370E+01  0.64652228960E+01  0.15629202691E+02  0.51100000000E-03 0. -1.
        -11    1    3    3    0    0  0.37360506157E+01 -0.73645499463E+01  0.98328505259E+01  0.12840545932E+02  0.51100000000E-03 0.  1.
        -12    1    3    3    0    0 -0.13457028919E+02 -0.86864893764E+01  0.15167655577E+02  0.22059113779E+02  0.00000000000E+00 0.  1.
</event>
<event>
 7    1  0.6073302E-013  0.5052883E+02  0.7816164E-02  0.1300439E+00
        -11   -1    0    0    0    0  0.00000000000E+00  0.00000000000E+00  0.45593999997E+02  0.45594000000E+02  0.51100000000E-03 0.  1.
         11   -1    0    0    0    0 -0.00000000000E+00 -0.00000000000E+00 -0.45593999997E+02  0.45594000000E+02  0.51100000000E-03 0. -1.
    9900012    2    1    2    0    0  0.95932923607E+01 -0.33286176879E+01  0.39370763057E+02  0.50528832058E+02  0.29999915523E+02 0.  0.
         12    1    1    2    0    0 -0.95932923607E+01  0.33286176879E+01 -0.39370763057E+02  0.40659167942E+02  0.00000000000E+00 0. -1.
         11    1    3    3    0    0 -0.90254491199E+01 -0.18301223196E+01  0.21348262902E+02  0.23249869004E+02  0.51100000000E-03 0. -1.
        -11    1    3    3    0    0  0.54853852444E+01 -0.17644369582E+01  0.10916839079E+02  0.12344232045E+02  0.51100000000E-03 0.  1.
         12    1    3    3    0    0  0.13133356236E+02  0.26594158989E+00  0.71056610763E+01  0.14934731008E+02  0.00000000000E+00 0. -1.
</event>
<event>
 7    1  0.6073302E-013  0.5052886E+02  0.7816164E-02  0.1300439E+00
        -11   -1    0    0    0    0  0.00000000000E+00  0.00000000000E+00  0.45593999997E+02  0.45594000000E+02  0.51100000000E-03 0.  1.
         11   -1    0    0    0    0 -0.00000000000E+00 -0.00000000000E+00 -0.45593999997E+02  0.45594000000E+02  0.51100000000E-03 0. -1.
    9900012    2    1    2    0    0 -0.26139708493E+02 -0.10525983227E+02  0.29310154107E+02  0.50528858140E+02  0.29999994804E+02 0.  0.
         12    1    1    2    0    0  0.26139708493E+02  0.10525983227E+02 -0.29310154107E+02  0.40659141860E+02  0.00000000000E+00 0. -1.
         11    1    3    3    0    0 -0.18080293116E+02  0.14799747539E+01  0.22155529529E+01  0.18275557435E+02  0.51100000000E-03 0. -1.
        -11    1    3    3    0    0 -0.11944615101E+01  0.13356147317E+01  0.66911563141E+01  0.69269169254E+01  0.51100000000E-03 0.  1.
         12    1    3    3    0    0 -0.68649538677E+01 -0.13341572712E+02  0.20403444839E+02  0.25326383780E+02  0.00000000000E+00 0. -1.
</event>
<event>
 7    1  0.6073302E-013  0.5052880E+02  0.7816164E-02  0.1300439E+00
        -11   -1    0    0    0    0  0.00000000000E+00  0.00000000000E+00  0.45593999997E+02  0.45594000000E+02  0.51100000000E-03 0.  1.
         11   -1    0    0    0    0 -0.00000000000E+00 -0.00000000000E+00 -0.45593999997E+02  0.45594000000E+02  0.51100000000E-03 0. -1.
    9900012    2    1    2    0    0  0.33895960435E+02 -0.14568305977E+02  0.17087978776E+02  0.50528798194E+02  0.29999812590E+02 0.  0.
         12    1    1    2    0    0 -0.33895960435E+02  0.14568305977E+02 -0.17087978776E+02  0.40659201806E+02  0.00000000000E+00 0. -1.
         11    1    3    3    0    0  0.86997217893E+00  0.29922138509E+01  0.55393821087E+01  0.63557021429E+01  0.51100000000E-03 0. -1.
        -11    1    3    3    0    0  0.25120248323E+02 -0.20184803885E+02  0.14498351460E+02  0.35336318130E+02  0.51100000000E-03 0.  1.
        -12    1    3    3    0    0  0.79057399324E+01  0.26242840564E+01 -0.29497547920E+01  0.88367779207E+01  0.00000000000E+00 0.  1.
</event>
<event>
 7    1  0.6073302E-013  0.5052887E+02  0.7816164E-02  0.1300439E+00
        -11   -1    0    0    0    0  0.00000000000E+00  0.00000000000E+00  0.45593999997E+02  0.45594000000E+02  0.51100000000E-03 0.  1.
         11   -1    0    0    0    0 -0.00000000000E+00 -0.00000000000E+00 -0.45593999997E+02  0.45594000000E+02  0.51100000000E-03 0. -1.
    9900012    2    1    2    0    0 -0.15114288559E+02 -0.37608882480E+02  0.32085432553E+01  0.50528874212E+02  0.30000043654E+02 0.  0.
         12    1    1    2    0    0  0.15114288559E+02  0.37608882480E+02 -0.32085432553E+01  0.40659125788E+02  0.00000000000E+00 0. -1.
         11    1    3    3    0    0  0.73690789819E-01  0.10512642326E+01  0.28787762292E+00  0.10924562262E+01  0.51100000000E-03 0. -1.
        -11    1    3    3    0    0 -0.65353872081E+01 -0.25762498883E+02  0.14301358591E+02  0.30181890141E+02  0.51100000000E-03 0.  1.
        -12    1    3    3    0    0 -0.86525921409E+01 -0.12897647830E+02 -0.11380692959E+02  0.19254527845E+02  0.00000000000E+00 0.  1.
</event>
<event>
 7    1  0.6073302E-013  0.5052886E+02  0.7816164E-02  0.1300439E+00
        -11   -1    0    0    0    0  0.00000000000E+00  0.00000000000E+00  0.45593999997E+02  0.45594000000E+02  0.51100000000E-03 0.  1.
         11   -1    0    0    0    0 -0.00000000000E+00 -0.00000000000E+00 -0.45593999997E+02  0.45594000000E+02  0.51100000000E-03 0. -1.
    9900012    2    1    2    0    0 -0.86709834481E+00 -0.61868949097E+01  0.40176317323E+02  0.50528855865E+02  0.29999987887E+02 0.  0.
         12    1    1    2    0    0  0.86709834481E+00  0.61868949097E+01 -0.40176317323E+02  0.40659144135E+02  0.00000000000E+00 0. -1.
         11    1    3    3    0    0  0.23834611249E+01 -0.93190869390E+01  0.57757808423E+01  0.11219889167E+02  0.51100000000E-03 0. -1.
        -11    1    3    3    0    0  0.40505345792E+00 -0.23457042798E+01  0.32312729718E+02  0.32400291650E+02  0.51100000000E-03 0.  1.
         12    1    3    3    0    0 -0.36556129276E+01  0.54778963091E+01  0.20878067623E+01  0.69086750486E+01  0.00000000000E+00 0. -1.
</event>
<event>
 7    1  0.6073302E-013  0.5052886E+02  0.7816164E-02  0.1300439E+00
        -11   -1    0    0    0    0  0.00000000000E+00  0.00000000000E+00  0.45593999997E+02  0.45594000000E+02  0.51100000000E-03 0.  1.
         11   -1    0    0    0    0 -0.00000000000E+00 -0.00000000000E+00 -0.45593999997E+02  0.45594000000E+02  0.51100000000E-03 0. -1.
    9900012    2    1    2    0    0 -0.21664237739E+02 -0.27553616314E+02  0.20606423916E+02  0.50528859879E+02  0.30000000088E+02 0.  0.
         12    1    1    2    0    0  0.21664237739E+02  0.27553616314E+02 -0.20606423916E+02  0.40659140121E+02  0.00000000000E+00 0. -1.
         11    1    3    3    0    0 -0.16008161470E+02 -0.13907721842E+02  0.19744026087E+01  0.21297516907E+02  0.51100000000E-03 0. -1.
        -11    1    3    3    0    0 -0.40777773645E+01 -0.23895683328E+01  0.17125229609E+02  0.17765466346E+02  0.51100000000E-03 0.  1.
         12    1    3    3    0    0 -0.15782989046E+01 -0.11256326139E+02  0.15067916979E+01  0.11465876626E+02  0.00000000000E+00 0. -1.
</event>
<event>
 7    1  0.6073302E-013  0.5052886E+02  0.7816164E-02  0.1300439E+00
        -11   -1    0    0    0    0  0.00000000000E+00  0.00000000000E+00  0.45593999997E+02  0.45594000000E+02  0.51100000000E-03 0.  1.
         11   -1    0    0    0    0 -0.00000000000E+00 -0.00000000000E+00 -0.45593999997E+02  0.45594000000E+02  0.51100000000E-03 0. -1.
    9900012    2    1    2    0    0 -0.35062321912E+02  0.34595268204E+01  0.20293622420E+02  0.50528857675E+02  0.29999993390E+02 0.  0.
         12    1    1    2    0    0  0.35062321912E+02 -0.34595268204E+01 -0.20293622420E+02  0.40659142325E+02  0.00000000000E+00 0. -1.
         11    1    3    3    0    0 -0.11084926588E+02  0.70007724092E+01  0.80149200384E+01  0.15366370921E+02  0.51100000000E-03 0.  1.
        -11    1    3    3    0    0 -0.53268835966E+01 -0.11457385016E+02  0.37525662813E+01  0.13180634060E+02  0.51100000000E-03 0. -1.
         12    1    3    3    0    0 -0.18650511727E+02  0.79161394271E+01  0.85261361004E+01  0.21981852695E+02  0.00000000000E+00 0. -1.
</event>
<event>
 7    1  0.6073302E-013  0.5052888E+02  0.7816164E-02  0.1300439E+00
        -11   -1    0    0    0    0  0.00000000000E+00  0.00000000000E+00  0.45593999997E+02  0.45594000000E+02  0.51100000000E-03 0.  1.
         11   -1    0    0    0    0 -0.00000000000E+00 -0.00000000000E+00 -0.45593999997E+02  0.45594000000E+02  0.51100000000E-03 0. -1.
    9900012    2    1    2    0    0  0.22549998079E+02 -0.29753651228E+01  0.33701766352E+02  0.50528877208E+02  0.30000052762E+02 0.  0.
         12    1    1    2    0    0 -0.22549998079E+02  0.29753651228E+01 -0.33701766352E+02  0.40659122792E+02  0.00000000000E+00 0. -1.
         11    1    3    3    0    0  0.45814383737E+01 -0.89970444576E+01  0.15855529170E+02  0.18797185748E+02  0.51100000000E-03 0. -1.
        -11    1    3    3    0    0  0.21726731367E+02  0.56320816647E+01  0.15637865968E+02  0.27355329500E+02  0.51100000000E-03 0.  1.
        -12    1    3    3    0    0 -0.37581716617E+01  0.38959767017E+00  0.22083712138E+01  0.43763619596E+01  0.00000000000E+00 0.  1.
</event>
<event>
 7    1  0.6073302E-013  0.5052886E+02  0.7816164E-02  0.1300439E+00
        -11   -1    0    0    0    0  0.00000000000E+00  0.00000000000E+00  0.45593999997E+02  0.45594000000E+02  0.51100000000E-03 0.  1.
         11   -1    0    0    0    0 -0.00000000000E+00 -0.00000000000E+00 -0.45593999997E+02  0.45594000000E+02  0.51100000000E-03 0. -1.
    9900012    2    1    2    0    0  0.23679439659E+02  0.32981186831E+02 -0.21659287855E+01  0.50528858409E+02  0.29999995621E+02 0.  0.
         12    1    1    2    0    0 -0.23679439659E+02 -0.32981186831E+02  0.21659287855E+01  0.40659141591E+02  0.00000000000E+00 0. -1.
         11    1    3    3    0    0  0.85361570559E+01 -0.37615977144E+01 -0.20887305086E+00  0.93305531916E+01  0.51100000000E-03 0. -1.
        -11    1    3    3    0    0  0.36003532882E+01  0.16430860519E+02  0.35594868137E+01  0.17193186669E+02  0.51100000000E-03 0.  1.
        -12    1    3    3    0    0  0.11542929315E+02  0.20311924027E+02 -0.55165425484E+01  0.24005118549E+02  0.00000000000E+00 0.  1.
</event>
<event>
 7    1  0.6073302E-013  0.5052889E+02  0.7816164E-02  0.1300439E+00
        -11   -1    0    0    0    0  0.00000000000E+00  0.00000000000E+00  0.45593999997E+02  0.45594000000E+02  0.51100000000E-03 0. -1.
         11   -1    0    0    0    0 -0.00000000000E+00 -0.00000000000E+00 -0.45593999997E+02  0.45594000000E+02  0.51100000000E-03 0.  1.
    9900012    2    1    2    0    0  0.20161658096E+02  0.31155750809E+02  0.16612957158E+02  0.50528885263E+02  0.30000077246E+02 0.  0.
         12    1    1    2    0    0 -0.20161658096E+02 -0.31155750809E+02 -0.16612957158E+02  0.40659114737E+02  0.00000000000E+00 0. -1.
         11    1    3    3    0    0  0.12890721466E+02  0.25817247634E+01  0.95010088205E+01  0.16220516994E+02  0.51100000000E-03 0. -1.
        -11    1    3    3    0    0  0.24634093253E+01  0.20455175085E+02 -0.26015524606E+01  0.20766575277E+02  0.51100000000E-03 0.  1.
        -12    1    3    3    0    0  0.48075273043E+01  0.81188509598E+01  0.97135007983E+01  0.13541792992E+02  0.00000000000E+00 0.  1.
</event>
<event>
 7    1  0.6073302E-013  0.5052886E+02  0.7816164E-02  0.1300439E+00
        -11   -1    0    0    0    0  0.00000000000E+00  0.00000000000E+00  0.45593999997E+02  0.45594000000E+02  0.51100000000E-03 0.  1.
         11   -1    0    0    0    0 -0.00000000000E+00 -0.00000000000E+00 -0.45593999997E+02  0.45594000000E+02  0.51100000000E-03 0. -1.
    9900012    2    1    2    0    0  0.77442068854E+01 -0.85816408847E+00  0.39905598367E+02  0.50528856294E+02  0.29999989191E+02 0.  0.
         12    1    1    2    0    0 -0.77442068854E+01  0.85816408847E+00 -0.39905598367E+02  0.40659143706E+02  0.00000000000E+00 0. -1.
         11    1    3    3    0    0  0.94260825609E+01  0.71912413264E+01  0.26381908279E+02  0.28923521033E+02  0.51100000000E-03 0. -1.
        -11    1    3    3    0    0  0.54159033658E+01 -0.79909278205E+01  0.66314976547E+01  0.11711690660E+02  0.51100000000E-03 0.  1.
         12    1    3    3    0    0 -0.70977790413E+01 -0.58477594305E-01  0.68921924333E+01  0.98936446007E+01  0.00000000000E+00 0. -1.
</event>
<event>
 7    1  0.6073302E-013  0.5052883E+02  0.7816164E-02  0.1300439E+00
        -11   -1    0    0    0    0  0.00000000000E+00  0.00000000000E+00  0.45593999997E+02  0.45594000000E+02  0.51100000000E-03 0. -1.
         11   -1    0    0    0    0 -0.00000000000E+00 -0.00000000000E+00 -0.45593999997E+02  0.45594000000E+02  0.51100000000E-03 0.  1.
    9900012    2    1    2    0    0  0.26879598002E+02  0.42859155034E+01 -0.30204071033E+02  0.50528834152E+02  0.29999921890E+02 0.  0.
         12    1    1    2    0    0 -0.26879598002E+02 -0.42859155034E+01  0.30204071033E+02  0.40659165848E+02  0.00000000000E+00 0. -1.
         11    1    3    3    0    0 -0.24552890177E+01  0.11149856207E+01 -0.63358439973E+01  0.68858228640E+01  0.51100000000E-03 0. -1.
        -11    1    3    3    0    0  0.13844027845E+02 -0.88962304978E+01 -0.75231208818E+01  0.18094125348E+02  0.51100000000E-03 0.  1.
        -12    1    3    3    0    0  0.15490859174E+02  0.12067160381E+02 -0.16345106154E+02  0.25548885940E+02  0.00000000000E+00 0.  1.
</event>
<event>
 7    1  0.6073302E-013  0.5052886E+02  0.7816164E-02  0.1300439E+00
        -11   -1    0    0    0    0  0.00000000000E+00  0.00000000000E+00  0.45593999997E+02  0.45594000000E+02  0.51100000000E-03 0.  1.
         11   -1    0    0    0    0 -0.00000000000E+00 -0.00000000000E+00 -0.45593999997E+02  0.45594000000E+02  0.51100000000E-03 0. -1.
    9900012    2    1    2    0    0  0.70296750793E+01 -0.17524271722E+02  0.36009011942E+02  0.50528863607E+02  0.30000011421E+02 0.  0.
         12    1    1    2    0    0 -0.70296750793E+01  0.17524271722E+02 -0.36009011942E+02  0.40659136393E+02  0.00000000000E+00 0. -1.
         11    1    3    3    0    0 -0.67129957245E+01 -0.32062720423E+00  0.12069297900E+02  0.13814306550E+02  0.51100000000E-03 0. -1.
        -11    1    3    3    0    0  0.14103128032E+02 -0.18380971478E+02  0.25677639405E+02  0.34584671438E+02  0.51100000000E-03 0.  1.
         12    1    3    3    0    0 -0.36045722856E+00  0.11773269603E+01 -0.17379253628E+01  0.21298856193E+01  0.00000000000E+00 0. -1.
</event>
<event>
 7    1  0.6073302E-013  0.5052886E+02  0.7816164E-02  0.1300439E+00
        -11   -1    0    0    0    0  0.00000000000E+00  0.00000000000E+00  0.45593999997E+02  0.45594000000E+02  0.51100000000E-03 0. -1.
         11   -1    0    0    0    0 -0.00000000000E+00 -0.00000000000E+00 -0.45593999997E+02  0.45594000000E+02  0.51100000000E-03 0.  1.
    9900012    2    1    2    0    0 -0.36679549676E+02  0.68786856892E+00  0.17530058081E+02  0.50528862479E+02  0.30000007991E+02 0.  0.
         12    1    1    2    0    0  0.36679549676E+02 -0.68786856892E+00 -0.17530058081E+02  0.40659137521E+02  0.00000000000E+00 0. -1.
         11    1    3    3    0    0  0.21826831444E+01  0.10505396871E+01  0.65048224385E+01  0.69412141993E+01  0.51100000000E-03 0. -1.
        -11    1    3    3    0    0 -0.18056920819E+02  0.51327720566E+00 -0.32316782006E+01  0.18351010522E+02  0.51100000000E-03 0.  1.
        -12    1    3    3    0    0 -0.20805312002E+02 -0.87594832380E+00  0.14256913843E+02  0.25236637757E+02  0.00000000000E+00 0.  1.
</event>
<event>
 7    1  0.6073302E-013  0.5052886E+02  0.7816164E-02  0.1300439E+00
        -11   -1    0    0    0    0  0.00000000000E+00  0.00000000000E+00  0.45593999997E+02  0.45594000000E+02  0.51100000000E-03 0. -1.
         11   -1    0    0    0    0 -0.00000000000E+00 -0.00000000000E+00 -0.45593999997E+02  0.45594000000E+02  0.51100000000E-03 0.  1.
    9900012    2    1    2    0    0 -0.23614100765E+02 -0.26703571354E+02 -0.19556557675E+02  0.50528862944E+02  0.30000009405E+02 0.  0.
         12    1    1    2    0    0  0.23614100765E+02  0.26703571354E+02  0.19556557675E+02  0.40659137056E+02  0.00000000000E+00 0. -1.
         11    1    3    3    0    0 -0.59096387163E+01 -0.16218062062E+02 -0.34964803060E+01  0.17611778490E+02  0.51100000000E-03 0. -1.
        -11    1    3    3    0    0 -0.96790716728E+01  0.15999558805E+01  0.17298507218E+01  0.99617604392E+01  0.51100000000E-03 0.  1.
        -12    1    3    3    0    0 -0.80253903760E+01 -0.12085465173E+02 -0.17789928091E+02  0.22955324015E+02  0.00000000000E+00 0.  1.
</event>
<event>
 7    1  0.6073302E-013  0.5052886E+02  0.7816164E-02  0.1300439E+00
        -11   -1    0    0    0    0  0.00000000000E+00  0.00000000000E+00  0.45593999997E+02  0.45594000000E+02  0.51100000000E-03 0. -1.
         11   -1    0    0    0    0 -0.00000000000E+00 -0.00000000000E+00 -0.45593999997E+02  0.45594000000E+02  0.51100000000E-03 0.  1.
    9900012    2    1    2    0    0  0.31948591100E+02  0.13507034256E+02  0.21213516407E+02  0.50528859256E+02  0.29999998196E+02 0.  0.
         12    1    1    2    0    0 -0.31948591100E+02 -0.13507034256E+02 -0.21213516407E+02  0.40659140744E+02  0.00000000000E+00 0. -1.
         11    1    3    3    0    0  0.19851158876E+02  0.10541469180E+02  0.16093532385E+02  0.27644038527E+02  0.51100000000E-03 0.  1.
        -11    1    3    3    0    0  0.70383472276E+01  0.35527439221E+01 -0.64868250810E+01  0.10209761063E+02  0.51100000000E-03 0. -1.
         12    1    3    3    0    0  0.50590849968E+01 -0.58717884592E+00  0.11606809103E+02  0.12675059667E+02  0.00000000000E+00 0. -1.
</event>
<event>
 7    1  0.6073302E-013  0.5052882E+02  0.7816164E-02  0.1300439E+00
        -11   -1    0    0    0    0  0.00000000000E+00  0.00000000000E+00  0.45593999997E+02  0.45594000000E+02  0.51100000000E-03 0.  1.
         11   -1    0    0    0    0 -0.00000000000E+00 -0.00000000000E+00 -0.45593999997E+02  0.45594000000E+02  0.51100000000E-03 0. -1.
    9900012    2    1    2    0    0  0.24359099329E+02  0.18751923863E+02  0.26611429875E+02  0.50528824299E+02  0.29999891940E+02 0.  0.
         12    1    1    2    0    0 -0.24359099329E+02 -0.18751923863E+02 -0.26611429875E+02  0.40659175701E+02  0.00000000000E+00 0. -1.
         11    1    3    3    0    0  0.57298849727E+01  0.11249123506E+02  0.47261079590E+01  0.13480002157E+02  0.51100000000E-03 0. -1.
        -11    1    3    3    0    0  0.20560484220E+02 -0.15676480797E+01  0.15080653681E+02  0.25546372494E+02  0.51100000000E-03 0.  1.
        -12    1    3    3    0    0 -0.19312698643E+01  0.90704484363E+01  0.68046682344E+01  0.11502449648E+02  0.00000000000E+00 0.  1.
</event>
<event>
 7    1  0.6073302E-013  0.5052887E+02  0.7816164E-02  0.1300439E+00
        -11   -1    0    0    0    0  0.00000000000E+00  0.00000000000E+00  0.45593999997E+02  0.45594000000E+02  0.51100000000E-03 0. -1.
         11   -1    0    0    0    0 -0.00000000000E+00 -0.00000000000E+00 -0.45593999997E+02  0.45594000000E+02  0.51100000000E-03 0.  1.
    9900012    2    1    2    0    0  0.67569158194E+01  0.33268912880E+02 -0.22376070608E+02  0.50528868044E+02  0.30000024906E+02 0.  0.
         12    1    1    2    0    0 -0.67569158194E+01 -0.33268912880E+02  0.22376070608E+02  0.40659131956E+02  0.00000000000E+00 0. -1.
         11    1    3    3    0    0 -0.17730666839E+01  0.36075215634E+01  0.35248901446E+01  0.53462910591E+01  0.51100000000E-03 0. -1.
        -11    1    3    3    0    0  0.29016548047E+00  0.18866676120E+02 -0.25336469422E+02  0.31590700322E+02  0.51100000000E-03 0.  1.
        -12    1    3    3    0    0  0.82398170228E+01  0.10794715197E+02 -0.56449132995E+00  0.13591876662E+02  0.00000000000E+00 0.  1.
</event>
<event>
 7    1  0.6073302E-013  0.5052886E+02  0.7816164E-02  0.1300439E+00
        -11   -1    0    0    0    0  0.00000000000E+00  0.00000000000E+00  0.45593999997E+02  0.45594000000E+02  0.51100000000E-03 0.  1.
         11   -1    0    0    0    0 -0.00000000000E+00 -0.00000000000E+00 -0.45593999997E+02  0.45594000000E+02  0.51100000000E-03 0. -1.
    9900012    2    1    2    0    0  0.33250309033E+02  0.17282944484E+02  0.15776001548E+02  0.50528862704E+02  0.30000008675E+02 0.  0.
         12    1    1    2    0    0 -0.33250309033E+02 -0.17282944484E+02 -0.15776001548E+02  0.40659137296E+02  0.00000000000E+00 0. -1.
         11    1    3    3    0    0  0.12266137534E+02  0.16572883310E+02  0.78985492777E+01  0.22079530615E+02  0.51100000000E-03 0. -1.
        -11    1    3    3    0    0  0.20911329669E+02 -0.49236753772E+01  0.47377773419E+01  0.21999382313E+02  0.51100000000E-03 0.  1.
        -12    1    3    3    0    0  0.72841829136E-01  0.56337365510E+01  0.31396749283E+01  0.64499497760E+01  0.00000000000E+00 0.  1.
</event>
<event>
 7    1  0.6073302E-013  0.5052886E+02  0.7816164E-02  0.1300439E+00
        -11   -1    0    0    0    0  0.00000000000E+00  0.00000000000E+00  0.45593999997E+02  0.45594000000E+02  0.51100000000E-03 0. -1.
         11   -1    0    0    0    0 -0.00000000000E+00 -0.00000000000E+00 -0.45593999997E+02  0.45594000000E+02  0.51100000000E-03 0.  1.
    9900012    2    1    2    0    0  0.36492852391E+02 -0.16121489493E+02 -0.78444260736E+01  0.50528859336E+02  0.29999998436E+02 0.  0.
         12    1    1    2    0    0 -0.36492852391E+02  0.16121489493E+02  0.78444260736E+01  0.40659140664E+02  0.00000000000E+00 0. -1.
         11    1    3    3    0    0  0.13930513946E+02 -0.92215260879E+01  0.38873793451E+01  0.17152477390E+02  0.51100000000E-03 0. -1.
        -11    1    3    3    0    0 -0.12776776039E+01 -0.32012294107E+01 -0.83268688344E+01  0.90120516336E+01  0.51100000000E-03 0.  1.
        -12    1    3    3    0    0  0.23840016049E+02 -0.36987339947E+01 -0.34049365843E+01  0.24364330312E+02  0.00000000000E+00 0.  1.
</event>
<event>
 7    1  0.6073302E-013  0.5052885E+02  0.7816164E-02  0.1300439E+00
        -11   -1    0    0    0    0  0.00000000000E+00  0.00000000000E+00  0.45593999997E+02  0.45594000000E+02  0.51100000000E-03 0.  1.
         11   -1    0    0    0    0 -0.00000000000E+00 -0.00000000000E+00 -0.45593999997E+02  0.45594000000E+02  0.51100000000E-03 0. -1.
    9900012    2    1    2    0    0 -0.35677283601E+02  0.12747099730E+02  0.14758354995E+02  0.50528853934E+02  0.29999982018E+02 0.  0.
         12    1    1    2    0    0  0.35677283601E+02 -0.12747099730E+02 -0.14758354995E+02  0.40659146066E+02  0.00000000000E+00 0. -1.
         11    1    3    3    0    0 -0.13451240677E+02 -0.33806801807E+01 -0.41505693800E+01  0.14477296041E+02  0.51100000000E-03 0. -1.
        -11    1    3    3    0    0 -0.20242440423E+02  0.14621235070E+02  0.10166104644E+02  0.26960834430E+02  0.51100000000E-03 0.  1.
         12    1    3    3    0    0 -0.19836025010E+01  0.15065448408E+01  0.87428197312E+01  0.90907234636E+01  0.00000000000E+00 0. -1.
</event>
<event>
 7    1  0.6073302E-013  0.5052887E+02  0.7816164E-02  0.1300439E+00
        -11   -1    0    0    0    0  0.00000000000E+00  0.00000000000E+00  0.45593999997E+02  0.45594000000E+02  0.51100000000E-03 0.  1.
         11   -1    0    0    0    0 -0.00000000000E+00 -0.00000000000E+00 -0.45593999997E+02  0.45594000000E+02  0.51100000000E-03 0. -1.
    9900012    2    1    2    0    0  0.11674090651E+02  0.33417162661E+02  0.20004333106E+02  0.50528874384E+02  0.30000044177E+02 0.  0.
         12    1    1    2    0    0 -0.11674090651E+02 -0.33417162661E+02 -0.20004333106E+02  0.40659125616E+02  0.00000000000E+00 0. -1.
         11    1    3    3    0    0  0.14160076178E+02  0.26357141142E+02  0.23756918671E+02  0.38204683371E+02  0.51100000000E-03 0. -1.
        -11    1    3    3    0    0 -0.17919205053E+01  0.91244134312E+01 -0.40188955785E+01  0.10130025740E+02  0.51100000000E-03 0.  1.
         12    1    3    3    0    0 -0.69406502193E+00 -0.20643919118E+01  0.26631001407E+00  0.21941652726E+01  0.00000000000E+00 0. -1.
</event>
<event>
 7    1  0.6073302E-013  0.5052886E+02  0.7816164E-02  0.1300439E+00
        -11   -1    0    0    0    0  0.00000000000E+00  0.00000000000E+00  0.45593999997E+02  0.45594000000E+02  0.51100000000E-03 0. -1.
         11   -1    0    0    0    0 -0.00000000000E+00 -0.00000000000E+00 -0.45593999997E+02  0.45594000000E+02  0.51100000000E-03 0.  1.
    9900012    2    1    2    0    0  0.15091885322E+02  0.19629744843E+02 -0.32250174685E+02  0.50528860161E+02  0.30000000946E+02 0.  0.
         12    1    1    2    0    0 -0.15091885322E+02 -0.19629744843E+02  0.32250174685E+02  0.40659139839E+02  0.00000000000E+00 0. -1.
         11    1    3    3    0    0 -0.61874616659E+01  0.19301713554E+01 -0.51763347572E+00  0.65021679464E+01  0.51100000000E-03 0. -1.
        -11    1    3    3    0    0  0.19382247409E+02  0.19520585486E+02 -0.26632265834E+02  0.38288410205E+02  0.51100000000E-03 0.  1.
        -12    1    3    3    0    0  0.18970995795E+01 -0.18210119981E+01 -0.51002753759E+01  0.57382820096E+01  0.00000000000E+00 0.  1.
</event>
<event>
 7    1  0.6073302E-013  0.5052887E+02  0.7816164E-02  0.1300439E+00
        -11   -1    0    0    0    0  0.00000000000E+00  0.00000000000E+00  0.45593999997E+02  0.45594000000E+02  0.51100000000E-03 0. -1.
         11   -1    0    0    0    0 -0.00000000000E+00 -0.00000000000E+00 -0.45593999997E+02  0.45594000000E+02  0.51100000000E-03 0.  1.
    9900012    2    1    2    0    0 -0.31512129474E+02 -0.16678687968E+02 -0.19544102427E+02  0.50528869710E+02  0.30000029969E+02 0.  0.
         12    1    1    2    0    0  0.31512129474E+02  0.16678687968E+02  0.19544102427E+02  0.40659130290E+02  0.00000000000E+00 0. -1.
         11    1    3    3    0    0 -0.23657741934E+02 -0.68862431505E+01 -0.29671628621E+00  0.24641370476E+02  0.51100000000E-03 0. -1.
        -11    1    3    3    0    0 -0.74856788417E+01 -0.86388081062E+01 -0.66346918844E+01  0.13216789696E+02  0.51100000000E-03 0.  1.
         12    1    3    3    0    0 -0.36870869833E+00 -0.11536367109E+01 -0.12612694256E+02  0.12670709537E+02  0.00000000000E+00 0. -1.
</event>
<event>
 7    1  0.6073302E-013  0.5052886E+02  0.7816164E-02  0.1300439E+00
        -11   -1    0    0    0    0  0.00000000000E+00  0.00000000000E+00  0.45593999997E+02  0.45594000000E+02  0.51100000000E-03 0. -1.
         11   -1    0    0    0    0 -0.00000000000E+00 -0.00000000000E+00 -0.45593999997E+02  0.45594000000E+02  0.51100000000E-03 0.  1.
    9900012    2    1    2    0    0 -0.20363423023E+02 -0.24069325351E+00 -0.35191459141E+02  0.50528859245E+02  0.29999998160E+02 0.  0.
         12    1    1    2    0    0  0.20363423023E+02  0.24069325351E+00  0.35191459141E+02  0.40659140755E+02  0.00000000000E+00 0. -1.
         11    1    3    3    0    0  0.36491488909E+01 -0.11578414501E+01 -0.19128379101E+01  0.42797001744E+01  0.51100000000E-03 0. -1.
        -11    1    3    3    0    0 -0.21362051276E+02  0.49501105095E+01 -0.13190886149E+02  0.25589847722E+02  0.51100000000E-03 0.  1.
        -12    1    3    3    0    0 -0.26505206388E+01 -0.40329623130E+01 -0.20087735082E+02  0.20659311348E+02  0.00000000000E+00 0.  1.
</event>
<event>
 7    1  0.6073302E-013  0.5052886E+02  0.7816164E-02  0.1300439E+00
        -11   -1    0    0    0    0  0.00000000000E+00  0.00000000000E+00  0.45593999997E+02  0.45594000000E+02  0.51100000000E-03 0.  1.
         11   -1    0    0    0    0 -0.00000000000E+00 -0.00000000000E+00 -0.45593999997E+02  0.45594000000E+02  0.51100000000E-03 0. -1.
    9900012    2    1    2    0    0  0.26623818688E+02 -0.17577465350E+02  0.25206562131E+02  0.50528858542E+02  0.29999996024E+02 0.  0.
         12    1    1    2    0    0 -0.26623818688E+02  0.17577465350E+02 -0.25206562131E+02  0.40659141458E+02  0.00000000000E+00 0. -1.
         11    1    3    3    0    0  0.10223431551E+02 -0.99329543969E+01  0.26269118666E+02  0.29887267046E+02  0.51100000000E-03 0. -1.
        -11    1    3    3    0    0  0.14148325274E+02 -0.18088907285E+01  0.17828969915E+00  0.14264605890E+02  0.51100000000E-03 0.  1.
         12    1    3    3    0    0  0.22520618634E+01 -0.58356202241E+01 -0.12408462347E+01  0.63769856057E+01  0.00000000000E+00 0. -1.
</event>
<event>
 7    1  0.6073302E-013  0.5052885E+02  0.7816164E-02  0.1300439E+00
        -11   -1    0    0    0    0  0.00000000000E+00  0.00000000000E+00  0.45593999997E+02  0.45594000000E+02  0.51100000000E-03 0.  1.
         11   -1    0    0    0    0 -0.00000000000E+00 -0.00000000000E+00 -0.45593999997E+02  0.45594000000E+02  0.51100000000E-03 0. -1.
    9900012    2    1    2    0    0  0.12515138217E+02 -0.38683805863E+02  0.31785389000E+00  0.50528849102E+02  0.29999967329E+02 0.  0.
         12    1    1    2    0    0 -0.12515138217E+02  0.38683805863E+02 -0.31785389000E+00  0.40659150898E+02  0.00000000000E+00 0. -1.
         11    1    3    3    0    0  0.55626003149E+01 -0.18721248054E+01  0.96183201735E+01  0.11267628711E+02  0.51100000000E-03 0. -1.
        -11    1    3    3    0    0  0.77843319107E+01 -0.25025941679E+02 -0.49584297696E+01  0.26673575056E+02  0.51100000000E-03 0.  1.
         12    1    3    3    0    0 -0.83179400823E+00 -0.11785739379E+02 -0.43420365139E+01  0.12587645335E+02  0.00000000000E+00 0. -1.
</event>
<event>
 7    1  0.6073302E-013  0.5052886E+02  0.7816164E-02  0.1300439E+00
        -11   -1    0    0    0    0  0.00000000000E+00  0.00000000000E+00  0.45593999997E+02  0.45594000000E+02  0.51100000000E-03 0.  1.
         11   -1    0    0    0    0 -0.00000000000E+00 -0.00000000000E+00 -0.45593999997E+02  0.45594000000E+02  0.51100000000E-03 0. -1.
    9900012    2    1    2    0    0 -0.23591901726E+02 -0.32594110654E+02 -0.58491017291E+01  0.50528857518E+02  0.29999992911E+02 0.  0.
         12    1    1    2    0    0  0.23591901726E+02  0.32594110654E+02  0.58491017291E+01  0.40659142482E+02  0.00000000000E+00 0. -1.
         11    1    3    3    0    0 -0.13388476664E+02  0.12046314966E+01 -0.33200289691E+01  0.13846481035E+02  0.51100000000E-03 0. -1.
        -11    1    3    3    0    0 -0.64827680528E+01 -0.22518243268E+02 -0.62192676727E+01  0.24244109638E+02  0.51100000000E-03 0.  1.
         12    1    3    3    0    0 -0.37206570094E+01 -0.11280498882E+02  0.36901949126E+01  0.12438266845E+02  0.00000000000E+00 0. -1.
</event>
<event>
 7    1  0.6073302E-013  0.5052883E+02  0.7816164E-02  0.1300439E+00
        -11   -1    0    0    0    0  0.00000000000E+00  0.00000000000E+00  0.45593999997E+02  0.45594000000E+02  0.51100000000E-03 0.  1.
         11   -1    0    0    0    0 -0.00000000000E+00 -0.00000000000E+00 -0.45593999997E+02  0.45594000000E+02  0.51100000000E-03 0. -1.
    9900012    2    1    2    0    0  0.22832333398E+02 -0.16053547319E+02  0.29565789702E+02  0.50528834359E+02  0.29999922517E+02 0.  0.
         12    1    1    2    0    0 -0.22832333398E+02  0.16053547319E+02 -0.29565789702E+02  0.40659165641E+02  0.00000000000E+00 0. -1.
         11    1    3    3    0    0  0.13527346807E+02  0.46590912683E+01  0.70684519329E+01  0.15958046750E+02  0.51100000000E-03 0. -1.
        -11    1    3    3    0    0  0.36348108089E+01 -0.19414435860E+02  0.13752061790E+02  0.24067641619E+02  0.51100000000E-03 0.  1.
        -12    1    3    3    0    0  0.56701757823E+01 -0.12982027271E+01  0.87452759793E+01  0.10503145990E+02  0.00000000000E+00 0.  1.
</event>
<event>
 7    1  0.6073302E-013  0.5052887E+02  0.7816164E-02  0.1300439E+00
        -11   -1    0    0    0    0  0.00000000000E+00  0.00000000000E+00  0.45593999997E+02  0.45594000000E+02  0.51100000000E-03 0.  1.
         11   -1    0    0    0    0 -0.00000000000E+00 -0.00000000000E+00 -0.45593999997E+02  0.45594000000E+02  0.51100000000E-03 0. -1.
    9900012    2    1    2    0    0  0.17318960949E+02  0.16484728400E+02  0.32885749911E+02  0.50528865405E+02  0.30000016886E+02 0.  0.
         12    1    1    2    0    0 -0.17318960949E+02 -0.16484728400E+02 -0.32885749911E+02  0.40659134595E+02  0.00000000000E+00 0. -1.
         11    1    3    3    0    0  0.25454835737E+00  0.45667623950E+00 -0.30537633061E+00  0.60547751270E+00  0.51100000000E-03 0. -1.
        -11    1    3    3    0    0  0.79657301724E+01  0.18752484577E+02  0.61796826588E+01  0.21290772955E+02  0.51100000000E-03 0.  1.
        -12    1    3    3    0    0  0.90986824191E+01 -0.27244324165E+01  0.27011443583E+02  0.28632614938E+02  0.00000000000E+00 0.  1.
</event>
<event>
 7    1  0.6073302E-013  0.5052885E+02  0.7816164E-02  0.1300439E+00
        -11   -1    0    0    0    0  0.00000000000E+00  0.00000000000E+00  0.45593999997E+02  0.45594000000E+02  0.51100000000E-03 0. -1.
         11   -1    0    0    0    0 -0.00000000000E+00 -0.00000000000E+00 -0.45593999997E+02  0.45594000000E+02  0.51100000000E-03 0.  1.
    9900012    2    1    2    0    0  0.15224665777E+02  0.33269678980E+02 -0.17734268304E+02  0.50528852694E+02  0.29999978248E+02 0.  0.
         12    1    1    2    0    0 -0.15224665777E+02 -0.33269678980E+02  0.17734268304E+02  0.40659147306E+02  0.00000000000E+00 0. -1.
         11    1    3    3    0    0  0.32083693660E+00  0.22677046255E+02 -0.38471351411E+01  0.23003300029E+02  0.51100000000E-03 0. -1.
        -11    1    3    3    0    0  0.14626920028E+02  0.63137105992E+01 -0.16142957233E+02  0.22680493812E+02  0.51100000000E-03 0.  1.
        -12    1    3    3    0    0  0.27690881205E+00  0.42789221257E+01  0.22558240711E+01  0.48450588529E+01  0.00000000000E+00 0.  1.
</event>
<event>
 7    1  0.6073302E-013  0.5052888E+02  0.7816164E-02  0.1300439E+00
        -11   -1    0    0    0    0  0.00000000000E+00  0.00000000000E+00  0.45593999997E+02  0.45594000000E+02  0.51100000000E-03 0.  1.
         11   -1    0    0    0    0 -0.00000000000E+00 -0.00000000000E+00 -0.45593999997E+02  0.45594000000E+02  0.51100000000E-03 0. -1.
    9900012    2    1    2    0    0 -0.40557207495E+02 -0.28658061685E+01  0.25370978001E+00  0.50528876874E+02  0.30000051745E+02 0.  0.
         12    1    1    2    0    0  0.40557207495E+02  0.28658061685E+01 -0.25370978001E+00  0.40659123126E+02  0.00000000000E+00 0. -1.
         11    1    3    3    0    0 -0.16738732957E+02 -0.14164995363E+01 -0.95378707047E+01  0.19317417783E+02  0.51100000000E-03 0. -1.
        -11    1    3    3    0    0 -0.20760366107E+02  0.59592333027E+01  0.76744917764E+01  0.22921672861E+02  0.51100000000E-03 0.  1.
        -12    1    3    3    0    0 -0.30581084297E+01 -0.74085399349E+01  0.21170887084E+01  0.82897862296E+01  0.00000000000E+00 0.  1.
</event>
<event>
 7    1  0.6073302E-013  0.5052886E+02  0.7816164E-02  0.1300439E+00
        -11   -1    0    0    0    0  0.00000000000E+00  0.00000000000E+00  0.45593999997E+02  0.45594000000E+02  0.51100000000E-03 0.  1.
         11   -1    0    0    0    0 -0.00000000000E+00 -0.00000000000E+00 -0.45593999997E+02  0.45594000000E+02  0.51100000000E-03 0. -1.
    9900012    2    1    2    0    0  0.22639789364E+02  0.19008866448E+02  0.27915382876E+02  0.50528859980E+02  0.30000000395E+02 0.  0.
         12    1    1    2    0    0 -0.22639789364E+02 -0.19008866448E+02 -0.27915382876E+02  0.40659140020E+02  0.00000000000E+00 0. -1.
         11    1    3    3    0    0  0.69468760388E+01  0.29522844002E+01  0.34232445115E+01  0.82881646415E+01  0.51100000000E-03 0. -1.
        -11    1    3    3    0    0  0.87677569708E+01  0.21722156040E+02  0.23595158997E+02  0.33248415807E+02  0.51100000000E-03 0.  1.
        -12    1    3    3    0    0  0.69251563541E+01 -0.56655739924E+01  0.89697936793E+00  0.89922795318E+01  0.00000000000E+00 0.  1.
</event>
<event>
 7    1  0.6073302E-013  0.5052883E+02  0.7816164E-02  0.1300439E+00
        -11   -1    0    0    0    0  0.00000000000E+00  0.00000000000E+00  0.45593999997E+02  0.45594000000E+02  0.51100000000E-03 0.  1.
         11   -1    0    0    0    0 -0.00000000000E+00 -0.00000000000E+00 -0.45593999997E+02  0.45594000000E+02  0.51100000000E-03 0. -1.
    9900012    2    1    2    0    0 -0.14386370280E+02 -0.10769485196E+01  0.38013685198E+02  0.50528834610E+02  0.29999923279E+02 0.  0.
         12    1    1    2    0    0  0.14386370280E+02  0.10769485196E+01 -0.38013685198E+02  0.40659165390E+02  0.00000000000E+00 0. -1.
         11    1    3    3    0    0  0.14849490324E+01  0.94774594643E+01  0.73259238199E+01  0.12070479344E+02  0.51100000000E-03 0. -1.
        -11    1    3    3    0    0 -0.12338222692E+02 -0.91113964273E+01  0.31043056630E+02  0.34625433560E+02  0.51100000000E-03 0.  1.
        -12    1    3    3    0    0 -0.35330966198E+01 -0.14430115567E+01 -0.35529525216E+00  0.38329217046E+01  0.00000000000E+00 0.  1.
</event>
<event>
 7    1  0.6073302E-013  0.5052885E+02  0.7816164E-02  0.1300439E+00
        -11   -1    0    0    0    0  0.00000000000E+00  0.00000000000E+00  0.45593999997E+02  0.45594000000E+02  0.51100000000E-03 0.  1.
         11   -1    0    0    0    0 -0.00000000000E+00 -0.00000000000E+00 -0.45593999997E+02  0.45594000000E+02  0.51100000000E-03 0. -1.
    9900012    2    1    2    0    0  0.19107798892E+01 -0.24584018150E+01  0.40539752945E+02  0.50528851115E+02  0.29999973448E+02 0.  0.
         12    1    1    2    0    0 -0.19107798892E+01  0.24584018150E+01 -0.40539752945E+02  0.40659148885E+02  0.00000000000E+00 0. -1.
         11    1    3    3    0    0 -0.33351390235E+01  0.10545139810E+01  0.17360782778E+01  0.39050121754E+01  0.51100000000E-03 0. -1.
        -11    1    3    3    0    0  0.80561791385E+01 -0.12821363700E+02  0.17094673733E+02  0.22836752391E+02  0.51100000000E-03 0.  1.
        -12    1    3    3    0    0 -0.28102602257E+01  0.93084479042E+01  0.21709000934E+02  0.23787086548E+02  0.00000000000E+00 0.  1.
</event>
<event>
 7    1  0.6073302E-013  0.5052888E+02  0.7816164E-02  0.1300439E+00
        -11   -1    0    0    0    0  0.00000000000E+00  0.00000000000E+00  0.45593999997E+02  0.45594000000E+02  0.51100000000E-03 0. -1.
         11   -1    0    0    0    0 -0.00000000000E+00 -0.00000000000E+00 -0.45593999997E+02  0.45594000000E+02  0.51100000000E-03 0.  1.
    9900012    2    1    2    0    0 -0.33043983460E+02 -0.11228538683E+01 -0.23664286138E+02  0.50528879471E+02  0.30000059641E+02 0.  0.
         12    1    1    2    0    0  0.33043983460E+02  0.11228538683E+01  0.23664286138E+02  0.40659120529E+02  0.00000000000E+00 0. -1.
         11    1    3    3    0    0 -0.24828814512E+02 -0.59883225448E+01 -0.63711089111E+01  0.26323393892E+02  0.51100000000E-03 0. -1.
        -11    1    3    3    0    0  0.36153645723E+01  0.31643361981E+01 -0.66313275822E+01  0.81889187522E+01  0.51100000000E-03 0.  1.
        -12    1    3    3    0    0 -0.11830533521E+02  0.17011324783E+01 -0.10661849645E+02  0.16016566828E+02  0.00000000000E+00 0.  1.
</event>
<event>
 7    1  0.6073302E-013  0.5052890E+02  0.7816164E-02  0.1300439E+00
        -11   -1    0    0    0    0  0.00000000000E+00  0.00000000000E+00  0.45593999997E+02  0.45594000000E+02  0.51100000000E-03 0. -1.
         11   -1    0    0    0    0 -0.00000000000E+00 -0.00000000000E+00 -0.45593999997E+02  0.45594000000E+02  0.51100000000E-03 0.  1.
    9900012    2    1    2    0    0  0.32935214595E+01 -0.34695203018E+02 -0.20941774845E+02  0.50528901022E+02  0.30000125147E+02 0.  0.
         12    1    1    2    0    0 -0.32935214595E+01  0.34695203018E+02  0.20941774845E+02  0.40659098978E+02  0.00000000000E+00 0. -1.
         11    1    3    3    0    0  0.64819671112E+01 -0.87476867506E+01  0.48364863718E+01  0.11913417721E+02  0.51100000000E-03 0. -1.
        -11    1    3    3    0    0 -0.24087727479E+01 -0.12819256437E+01 -0.72788964594E+01  0.77735354528E+01  0.51100000000E-03 0.  1.
         12    1    3    3    0    0 -0.77967290374E+00 -0.24665590623E+02 -0.18499364757E+02  0.30841947848E+02  0.00000000000E+00 0. -1.
</event>
<event>
 7    1  0.6073302E-013  0.5052885E+02  0.7816164E-02  0.1300439E+00
        -11   -1    0    0    0    0  0.00000000000E+00  0.00000000000E+00  0.45593999997E+02  0.45594000000E+02  0.51100000000E-03 0.  1.
         11   -1    0    0    0    0 -0.00000000000E+00 -0.00000000000E+00 -0.45593999997E+02  0.45594000000E+02  0.51100000000E-03 0. -1.
    9900012    2    1    2    0    0  0.34257019352E+01 -0.23702169464E+02  0.32857845808E+02  0.50528852171E+02  0.29999976659E+02 0.  0.
         12    1    1    2    0    0 -0.34257019352E+01  0.23702169464E+02 -0.32857845808E+02  0.40659147829E+02  0.00000000000E+00 0. -1.
         11    1    3    3    0    0  0.11418182123E+02  0.15566019522E+01  0.11976096931E+02  0.16620011751E+02  0.51100000000E-03 0. -1.
        -11    1    3    3    0    0 -0.37402010832E+00 -0.48366262284E+01  0.47723347094E+01  0.68049998644E+01  0.51100000000E-03 0.  1.
         12    1    3    3    0    0 -0.76184600798E+01 -0.20422145188E+02  0.16109414168E+02  0.27103840556E+02  0.00000000000E+00 0. -1.
</event>
<event>
 7    1  0.6073302E-013  0.5052885E+02  0.7816164E-02  0.1300439E+00
        -11   -1    0    0    0    0  0.00000000000E+00  0.00000000000E+00  0.45593999997E+02  0.45594000000E+02  0.51100000000E-03 0.  1.
         11   -1    0    0    0    0 -0.00000000000E+00 -0.00000000000E+00 -0.45593999997E+02  0.45594000000E+02  0.51100000000E-03 0. -1.
    9900012    2    1    2    0    0 -0.40370102570E+02  0.31273336816E+01  0.36933374836E+01  0.50528854174E+02  0.29999982748E+02 0.  0.
         12    1    1    2    0    0  0.40370102570E+02 -0.31273336816E+01 -0.36933374836E+01  0.40659145826E+02  0.00000000000E+00 0. -1.
         11    1    3    3    0    0 -0.38062740833E+02  0.42478455853E+01  0.31575057434E+01  0.38428977017E+02  0.51100000000E-03 0. -1.
        -11    1    3    3    0    0 -0.42840825595E+01 -0.21871122681E+00 -0.47407809670E+01  0.63934499620E+01  0.51100000000E-03 0.  1.
         12    1    3    3    0    0  0.19767208218E+01 -0.90180067690E+00  0.52766127073E+01  0.57064271949E+01  0.00000000000E+00 0. -1.
</event>
<event>
 7    1  0.6073302E-013  0.5052886E+02  0.7816164E-02  0.1300439E+00
        -11   -1    0    0    0    0  0.00000000000E+00  0.00000000000E+00  0.45593999997E+02  0.45594000000E+02  0.51100000000E-03 0.  1.
         11   -1    0    0    0    0 -0.00000000000E+00 -0.00000000000E+00 -0.45593999997E+02  0.45594000000E+02  0.51100000000E-03 0. -1.
    9900012    2    1    2    0    0 -0.19759644133E+02 -0.52128058889E+01  0.35150370520E+02  0.50528862906E+02  0.30000009290E+02 0.  0.
         12    1    1    2    0    0  0.19759644133E+02  0.52128058889E+01 -0.35150370520E+02  0.40659137094E+02  0.00000000000E+00 0. -1.
         11    1    3    3    0    0  0.18020857141E+01 -0.84059495554E+00  0.11273763471E+00  0.19916884384E+01  0.51100000000E-03 0. -1.
        -11    1    3    3    0    0 -0.20868427875E+02 -0.13210600371E+02  0.26597201843E+02  0.36296313728E+02  0.51100000000E-03 0.  1.
        -12    1    3    3    0    0 -0.69330197263E+00  0.88383894376E+01  0.84404310422E+01  0.12240860740E+02  0.00000000000E+00 0.  1.
</event>
<event>
 7    1  0.6073302E-013  0.5052886E+02  0.7816164E-02  0.1300439E+00
        -11   -1    0    0    0    0  0.00000000000E+00  0.00000000000E+00  0.45593999997E+02  0.45594000000E+02  0.51100000000E-03 0.  1.
         11   -1    0    0    0    0 -0.00000000000E+00 -0.00000000000E+00 -0.45593999997E+02  0.45594000000E+02  0.51100000000E-03 0. -1.
    9900012    2    1    2    0    0  0.29321596520E+02 -0.23829713072E+02 -0.15018474160E+02  0.50528858178E+02  0.29999994919E+02 0.  0.
         12    1    1    2    0    0 -0.29321596520E+02  0.23829713072E+02  0.15018474160E+02  0.40659141822E+02  0.00000000000E+00 0. -1.
         11    1    3    3    0    0 -0.10967681152E+00 -0.17919638676E+00  0.54838456259E+01  0.54878687537E+01  0.51100000000E-03 0. -1.
        -11    1    3    3    0    0  0.21729988452E+02 -0.89641192137E+01 -0.12621185779E+02  0.26680370352E+02  0.51100000000E-03 0.  1.
        -12    1    3    3    0    0  0.77012848792E+01 -0.14686397472E+02 -0.78811340070E+01  0.18360619072E+02  0.00000000000E+00 0.  1.
</event>
<event>
 7    1  0.6073302E-013  0.5052884E+02  0.7816164E-02  0.1300439E+00
        -11   -1    0    0    0    0  0.00000000000E+00  0.00000000000E+00  0.45593999997E+02  0.45594000000E+02  0.51100000000E-03 0.  1.
         11   -1    0    0    0    0 -0.00000000000E+00 -0.00000000000E+00 -0.45593999997E+02  0.45594000000E+02  0.51100000000E-03 0. -1.
    9900012    2    1    2    0    0 -0.23336422276E+02  0.31689591127E+02  0.10215108042E+02  0.50528840851E+02  0.29999942250E+02 0.  0.
         12    1    1    2    0    0  0.23336422276E+02 -0.31689591127E+02 -0.10215108042E+02  0.40659159149E+02  0.00000000000E+00 0. -1.
         11    1    3    3    0    0  0.94777860503E+00  0.18475405230E+02  0.64505726776E+01  0.19592058872E+02  0.51100000000E-03 0.  1.
        -11    1    3    3    0    0 -0.14753813955E+02  0.99756768473E+01 -0.39649181069E+01  0.18245814058E+02  0.51100000000E-03 0. -1.
         12    1    3    3    0    0 -0.95303869257E+01  0.32385090494E+01  0.77294534710E+01  0.12690967921E+02  0.00000000000E+00 0. -1.
</event>
<event>
 7    1  0.6073302E-013  0.5052885E+02  0.7816164E-02  0.1300439E+00
        -11   -1    0    0    0    0  0.00000000000E+00  0.00000000000E+00  0.45593999997E+02  0.45594000000E+02  0.51100000000E-03 0.  1.
         11   -1    0    0    0    0 -0.00000000000E+00 -0.00000000000E+00 -0.45593999997E+02  0.45594000000E+02  0.51100000000E-03 0. -1.
    9900012    2    1    2    0    0 -0.68696738162E+01  0.13372814203E+02  0.37777526404E+02  0.50528854913E+02  0.29999984993E+02 0.  0.
         12    1    1    2    0    0  0.68696738162E+01 -0.13372814203E+02 -0.37777526404E+02  0.40659145087E+02  0.00000000000E+00 0. -1.
         11    1    3    3    0    0  0.35512295109E+01  0.89331439201E+01 -0.84957806278E+00  0.96505996955E+01  0.51100000000E-03 0. -1.
        -11    1    3    3    0    0 -0.55956001825E+01  0.20990084480E+01  0.92295277591E+01  0.10995488201E+02  0.51100000000E-03 0.  1.
         12    1    3    3    0    0 -0.48253031446E+01  0.23406618350E+01  0.29397576707E+02  0.29882767016E+02  0.00000000000E+00 0. -1.
</event>
<event>
 7    1  0.6073302E-013  0.5052886E+02  0.7816164E-02  0.1300439E+00
        -11   -1    0    0    0    0  0.00000000000E+00  0.00000000000E+00  0.45593999997E+02  0.45594000000E+02  0.51100000000E-03 0.  1.
         11   -1    0    0    0    0 -0.00000000000E+00 -0.00000000000E+00 -0.45593999997E+02  0.45594000000E+02  0.51100000000E-03 0. -1.
    9900012    2    1    2    0    0 -0.12728488146E+02  0.31903008179E+02  0.21756586447E+02  0.50528863325E+02  0.30000010563E+02 0.  0.
         12    1    1    2    0    0  0.12728488146E+02 -0.31903008179E+02 -0.21756586447E+02  0.40659136675E+02  0.00000000000E+00 0. -1.
         11    1    3    3    0    0 -0.37035484427E+01  0.20200857197E+02  0.20557356785E+01  0.20640178100E+02  0.51100000000E-03 0. -1.
        -11    1    3    3    0    0 -0.55135021398E+01 -0.25728915363E+00  0.15941235894E+02  0.16869733419E+02  0.51100000000E-03 0.  1.
        -12    1    3    3    0    0 -0.35114375634E+01  0.11959440136E+02  0.37596148746E+01  0.13018951806E+02  0.00000000000E+00 0.  1.
</event>
<event>
 7    1  0.6073302E-013  0.5052887E+02  0.7816164E-02  0.1300439E+00
        -11   -1    0    0    0    0  0.00000000000E+00  0.00000000000E+00  0.45593999997E+02  0.45594000000E+02  0.51100000000E-03 0.  1.
         11   -1    0    0    0    0 -0.00000000000E+00 -0.00000000000E+00 -0.45593999997E+02  0.45594000000E+02  0.51100000000E-03 0. -1.
    9900012    2    1    2    0    0 -0.24594617876E+02  0.30641828448E+02  0.10456966542E+02  0.50528867836E+02  0.30000024273E+02 0.  0.
         12    1    1    2    0    0  0.24594617876E+02 -0.30641828448E+02 -0.10456966542E+02  0.40659132164E+02  0.00000000000E+00 0. -1.
         11    1    3    3    0    0 -0.19793121222E+02  0.17399946095E+02  0.17183897896E+02  0.31461279678E+02  0.51100000000E-03 0.  1.
        -11    1    3    3    0    0  0.14076825884E+01  0.14989758920E+01 -0.53275644561E+01  0.57106428963E+01  0.51100000000E-03 0. -1.
        -12    1    3    3    0    0 -0.62091792432E+01  0.11742906460E+02 -0.13993668971E+01  0.13356945262E+02  0.00000000000E+00 0.  1.
</event>
<event>
 7    1  0.6073302E-013  0.5052886E+02  0.7816164E-02  0.1300439E+00
        -11   -1    0    0    0    0  0.00000000000E+00  0.00000000000E+00  0.45593999997E+02  0.45594000000E+02  0.51100000000E-03 0. -1.
         11   -1    0    0    0    0 -0.00000000000E+00 -0.00000000000E+00 -0.45593999997E+02  0.45594000000E+02  0.51100000000E-03 0.  1.
    9900012    2    1    2    0    0  0.40307860264E+02  0.51414842013E+01  0.14167630269E+01  0.50528859867E+02  0.30000000052E+02 0.  0.
         12    1    1    2    0    0 -0.40307860264E+02 -0.51414842013E+01 -0.14167630269E+01  0.40659140133E+02  0.00000000000E+00 0. -1.
         11    1    3    3    0    0  0.32001340187E+02 -0.12205977882E+01  0.89296387784E+01  0.33246264176E+02  0.51100000000E-03 0. -1.
        -11    1    3    3    0    0 -0.18773450618E+01  0.27278230192E+01 -0.52940392154E+01  0.62443810246E+01  0.51100000000E-03 0.  1.
         12    1    3    3    0    0  0.10183865140E+02  0.36342589703E+01 -0.22188365360E+01  0.11038214666E+02  0.00000000000E+00 0. -1.
</event>
<event>
 7    1  0.6073302E-013  0.5052886E+02  0.7816164E-02  0.1300439E+00
        -11   -1    0    0    0    0  0.00000000000E+00  0.00000000000E+00  0.45593999997E+02  0.45594000000E+02  0.51100000000E-03 0.  1.
         11   -1    0    0    0    0 -0.00000000000E+00 -0.00000000000E+00 -0.45593999997E+02  0.45594000000E+02  0.51100000000E-03 0. -1.
    9900012    2    1    2    0    0 -0.30248160415E+02  0.81860845245E+01  0.25907579181E+02  0.50528857764E+02  0.29999993659E+02 0.  0.
         12    1    1    2    0    0  0.30248160415E+02 -0.81860845245E+01 -0.25907579181E+02  0.40659142236E+02  0.00000000000E+00 0. -1.
         11    1    3    3    0    0 -0.24557074320E+02  0.86877852884E+01  0.23087731634E+02  0.34807626530E+02  0.51100000000E-03 0.  1.
        -11    1    3    3    0    0  0.29882622327E+01  0.37385855326E+01  0.36597904643E+01  0.60250144780E+01  0.51100000000E-03 0. -1.
         12    1    3    3    0    0 -0.86793483278E+01 -0.42402862966E+01 -0.83994291722E+00  0.96962167558E+01  0.00000000000E+00 0. -1.
</event>
<event>
 7    1  0.6073302E-013  0.5052886E+02  0.7816164E-02  0.1300439E+00
        -11   -1    0    0    0    0  0.00000000000E+00  0.00000000000E+00  0.45593999997E+02  0.45594000000E+02  0.51100000000E-03 0.  1.
         11   -1    0    0    0    0 -0.00000000000E+00 -0.00000000000E+00 -0.45593999997E+02  0.45594000000E+02  0.51100000000E-03 0. -1.
    9900012    2    1    2    0    0 -0.29017627630E+02  0.18962038730E+02  0.21250504937E+02  0.50528860976E+02  0.30000003424E+02 0.  0.
         12    1    1    2    0    0  0.29017627630E+02 -0.18962038730E+02 -0.21250504937E+02  0.40659139024E+02  0.00000000000E+00 0. -1.
         11    1    3    3    0    0 -0.11073540178E+02  0.20340267492E+02  0.31418798807E+01  0.23371375294E+02  0.51100000000E-03 0. -1.
        -11    1    3    3    0    0 -0.17149447337E+02 -0.82247442587E-01  0.12174196122E+02  0.21031437423E+02  0.51100000000E-03 0.  1.
         12    1    3    3    0    0 -0.79464011538E+00 -0.12959813193E+01  0.59344289344E+01  0.61260482589E+01  0.00000000000E+00 0. -1.
</event>
<event>
 7    1  0.6073302E-013  0.5052886E+02  0.7816164E-02  0.1300439E+00
        -11   -1    0    0    0    0  0.00000000000E+00  0.00000000000E+00  0.45593999997E+02  0.45594000000E+02  0.51100000000E-03 0. -1.
         11   -1    0    0    0    0 -0.00000000000E+00 -0.00000000000E+00 -0.45593999997E+02  0.45594000000E+02  0.51100000000E-03 0.  1.
    9900012    2    1    2    0    0  0.33966419679E+02  0.25835538327E+00 -0.22346843984E+02  0.50528857739E+02  0.29999993584E+02 0.  0.
         12    1    1    2    0    0 -0.33966419679E+02 -0.25835538327E+00  0.22346843984E+02  0.40659142261E+02  0.00000000000E+00 0. -1.
         11    1    3    3    0    0 -0.11181141874E+01  0.55044967352E+01 -0.60401680547E+01  0.82482297515E+01  0.51100000000E-03 0. -1.
        -11    1    3    3    0    0  0.16662851102E+02  0.20198396095E+01 -0.14872497216E+02  0.22425912080E+02  0.51100000000E-03 0.  1.
         12    1    3    3    0    0  0.18421682764E+02 -0.72659809614E+01 -0.14341787131E+01  0.19854715908E+02  0.00000000000E+00 0. -1.
</event>
<event>
 7    1  0.6073302E-013  0.5052884E+02  0.7816164E-02  0.1300439E+00
        -11   -1    0    0    0    0  0.00000000000E+00  0.00000000000E+00  0.45593999997E+02  0.45594000000E+02  0.51100000000E-03 0.  1.
         11   -1    0    0    0    0 -0.00000000000E+00 -0.00000000000E+00 -0.45593999997E+02  0.45594000000E+02  0.51100000000E-03 0. -1.
    9900012    2    1    2    0    0 -0.23072694410E+02  0.24516531720E+02  0.22798201093E+02  0.50528837097E+02  0.29999930839E+02 0.  0.
         12    1    1    2    0    0  0.23072694410E+02 -0.24516531720E+02 -0.22798201093E+02  0.40659162903E+02  0.00000000000E+00 0. -1.
         11    1    3    3    0    0  0.45413202506E+01  0.74408179410E+01 -0.87265852879E+00  0.87607587810E+01  0.51100000000E-03 0. -1.
        -11    1    3    3    0    0 -0.14683734781E+02  0.30815809206E+01  0.13433344537E+02  0.20138593640E+02  0.51100000000E-03 0.  1.
        -12    1    3    3    0    0 -0.12930279880E+02  0.13994132859E+02  0.10237515084E+02  0.21629484676E+02  0.00000000000E+00 0.  1.
</event>
<event>
 7    1  0.6073302E-013  0.5052883E+02  0.7816164E-02  0.1300439E+00
        -11   -1    0    0    0    0  0.00000000000E+00  0.00000000000E+00  0.45593999997E+02  0.45594000000E+02  0.51100000000E-03 0. -1.
         11   -1    0    0    0    0 -0.00000000000E+00 -0.00000000000E+00 -0.45593999997E+02  0.45594000000E+02  0.51100000000E-03 0.  1.
    9900012    2    1    2    0    0  0.25724832058E+02 -0.16134331284E+02 -0.27038573484E+02  0.50528830229E+02  0.29999909965E+02 0.  0.
         12    1    1    2    0    0 -0.25724832058E+02  0.16134331284E+02  0.27038573484E+02  0.40659169771E+02  0.00000000000E+00 0. -1.
         11    1    3    3    0    0  0.11228879085E+02 -0.80405514351E+01 -0.13922505227E+01  0.13880798056E+02  0.51100000000E-03 0. -1.
        -11    1    3    3    0    0 -0.40252789866E+01 -0.18321254453E+01 -0.12044866256E+02  0.12831147959E+02  0.51100000000E-03 0.  1.
        -12    1    3    3    0    0  0.18521231960E+02 -0.62616544034E+01 -0.13601456705E+02  0.23816884215E+02  0.00000000000E+00 0.  1.
</event>
<event>
 7    1  0.6073302E-013  0.5052885E+02  0.7816164E-02  0.1300439E+00
        -11   -1    0    0    0    0  0.00000000000E+00  0.00000000000E+00  0.45593999997E+02  0.45594000000E+02  0.51100000000E-03 0.  1.
         11   -1    0    0    0    0 -0.00000000000E+00 -0.00000000000E+00 -0.45593999997E+02  0.45594000000E+02  0.51100000000E-03 0. -1.
    9900012    2    1    2    0    0  0.23310496247E+02 -0.16766947962E+02  0.28786390891E+02  0.50528854906E+02  0.29999984972E+02 0.  0.
         12    1    1    2    0    0 -0.23310496247E+02  0.16766947962E+02 -0.28786390891E+02  0.40659145094E+02  0.00000000000E+00 0. -1.
         11    1    3    3    0    0  0.13280638623E+02  0.52071175011E+01  0.25175071224E+01  0.14485416020E+02  0.51100000000E-03 0. -1.
        -11    1    3    3    0    0  0.28483813559E+01 -0.10932469246E+02  0.98039121245E+01  0.14958236974E+02  0.51100000000E-03 0.  1.
         12    1    3    3    0    0  0.71814762685E+01 -0.11041596217E+02  0.16464971644E+02  0.21085201912E+02  0.00000000000E+00 0. -1.
</event>
<event>
 7    1  0.6073302E-013  0.5052885E+02  0.7816164E-02  0.1300439E+00
        -11   -1    0    0    0    0  0.00000000000E+00  0.00000000000E+00  0.45593999997E+02  0.45594000000E+02  0.51100000000E-03 0.  1.
         11   -1    0    0    0    0 -0.00000000000E+00 -0.00000000000E+00 -0.45593999997E+02  0.45594000000E+02  0.51100000000E-03 0. -1.
    9900012    2    1    2    0    0 -0.17777884133E+01  0.19383223821E+02  0.35697294053E+02  0.50528847278E+02  0.29999961786E+02 0.  0.
         12    1    1    2    0    0  0.17777884133E+01 -0.19383223821E+02 -0.35697294053E+02  0.40659152722E+02  0.00000000000E+00 0. -1.
         11    1    3    3    0    0 -0.11393983034E+02  0.14288008850E+02  0.19823156012E+02  0.26961594182E+02  0.51100000000E-03 0.  1.
        -11    1    3    3    0    0  0.10071709037E+02  0.75885171523E+01  0.16677450900E+02  0.20908426156E+02  0.51100000000E-03 0. -1.
        -12    1    3    3    0    0 -0.45551441692E+00 -0.24933021809E+01 -0.80331285966E+00  0.26588269405E+01  0.00000000000E+00 0.  1.
</event>
<event>
 7    1  0.6073302E-013  0.5052886E+02  0.7816164E-02  0.1300439E+00
        -11   -1    0    0    0    0  0.00000000000E+00  0.00000000000E+00  0.45593999997E+02  0.45594000000E+02  0.51100000000E-03 0.  1.
         11   -1    0    0    0    0 -0.00000000000E+00 -0.00000000000E+00 -0.45593999997E+02  0.45594000000E+02  0.51100000000E-03 0. -1.
    9900012    2    1    2    0    0 -0.74130168015E+01 -0.31563225470E+02  0.24535191946E+02  0.50528860019E+02  0.30000000515E+02 0.  0.
         12    1    1    2    0    0  0.74130168015E+01  0.31563225470E+02 -0.24535191946E+02  0.40659139981E+02  0.00000000000E+00 0. -1.
         11    1    3    3    0    0 -0.44187510793E+01 -0.36840070942E+01  0.16496528980E+02  0.17470911196E+02  0.51100000000E-03 0. -1.
        -11    1    3    3    0    0  0.35983077457E+01 -0.17036027994E+02 -0.10584506424E+01  0.17444035843E+02  0.51100000000E-03 0.  1.
        -12    1    3    3    0    0 -0.65925734679E+01 -0.10843190381E+02  0.90971136088E+01  0.15613912981E+02  0.00000000000E+00 0.  1.
</event>
<event>
 7    1  0.6073302E-013  0.5052887E+02  0.7816164E-02  0.1300439E+00
        -11   -1    0    0    0    0  0.00000000000E+00  0.00000000000E+00  0.45593999997E+02  0.45594000000E+02  0.51100000000E-03 0. -1.
         11   -1    0    0    0    0 -0.00000000000E+00 -0.00000000000E+00 -0.45593999997E+02  0.45594000000E+02  0.51100000000E-03 0.  1.
    9900012    2    1    2    0    0  0.29616041174E+02 -0.27760731588E+02 -0.23230337278E+01  0.50528873118E+02  0.30000040328E+02 0.  0.
         12    1    1    2    0    0 -0.29616041174E+02  0.27760731588E+02  0.23230337278E+01  0.40659126882E+02  0.00000000000E+00 0. -1.
         11    1    3    3    0    0  0.20111924799E+01  0.13728273216E+01 -0.28495451694E+01  0.37482606606E+01  0.51100000000E-03 0. -1.
        -11    1    3    3    0    0  0.13231984059E+02 -0.28040690526E+02 -0.48762490806E+01  0.31386996235E+02  0.51100000000E-03 0.  1.
        -12    1    3    3    0    0  0.14372864635E+02 -0.10928683840E+01  0.54027605222E+01  0.15393616222E+02  0.00000000000E+00 0.  1.
</event>
<event>
 7    1  0.6073302E-013  0.5052875E+02  0.7816164E-02  0.1300439E+00
        -11   -1    0    0    0    0  0.00000000000E+00  0.00000000000E+00  0.45593999997E+02  0.45594000000E+02  0.51100000000E-03 0.  1.
         11   -1    0    0    0    0 -0.00000000000E+00 -0.00000000000E+00 -0.45593999997E+02  0.45594000000E+02  0.51100000000E-03 0. -1.
    9900012    2    1    2    0    0  0.19886280366E+02 -0.35355125732E+02  0.27794173699E+01  0.50528754763E+02  0.29999680575E+02 0.  0.
         12    1    1    2    0    0 -0.19886280366E+02  0.35355125732E+02 -0.27794173699E+01  0.40659245237E+02  0.00000000000E+00 0. -1.
         11    1    3    3    0    0  0.61343427786E+01  0.24472355965E-01 -0.13894576882E+01  0.62897816456E+01  0.51100000000E-03 0. -1.
        -11    1    3    3    0    0  0.90414417250E+01 -0.20027407167E+02  0.13379378101E+02  0.25726493444E+02  0.51100000000E-03 0.  1.
        -12    1    3    3    0    0  0.47104958623E+01 -0.15352190922E+02 -0.92105030425E+01  0.18512479674E+02  0.00000000000E+00 0.  1.
</event>
<event>
 7    1  0.6073302E-013  0.5052886E+02  0.7816164E-02  0.1300439E+00
        -11   -1    0    0    0    0  0.00000000000E+00  0.00000000000E+00  0.45593999997E+02  0.45594000000E+02  0.51100000000E-03 0.  1.
         11   -1    0    0    0    0 -0.00000000000E+00 -0.00000000000E+00 -0.45593999997E+02  0.45594000000E+02  0.51100000000E-03 0. -1.
    9900012    2    1    2    0    0 -0.16834540952E+02 -0.30766917613E+02  0.20570872779E+02  0.50528858403E+02  0.29999995603E+02 0.  0.
         12    1    1    2    0    0  0.16834540952E+02  0.30766917613E+02 -0.20570872779E+02  0.40659141597E+02  0.00000000000E+00 0. -1.
         11    1    3    3    0    0 -0.18135182704E+01 -0.21358689348E+02  0.97977474856E+00  0.21457922034E+02  0.51100000000E-03 0.  1.
        -11    1    3    3    0    0 -0.29137601584E+01 -0.47146459636E+00  0.11724845317E+02  0.12090668927E+02  0.51100000000E-03 0. -1.
         12    1    3    3    0    0 -0.12107262523E+02 -0.89367636684E+01  0.78662527137E+01  0.16980267443E+02  0.00000000000E+00 0. -1.
</event>
<event>
 7    1  0.6073302E-013  0.5052890E+02  0.7816164E-02  0.1300439E+00
        -11   -1    0    0    0    0  0.00000000000E+00  0.00000000000E+00  0.45593999997E+02  0.45594000000E+02  0.51100000000E-03 0.  1.
         11   -1    0    0    0    0 -0.00000000000E+00 -0.00000000000E+00 -0.45593999997E+02  0.45594000000E+02  0.51100000000E-03 0. -1.
    9900012    2    1    2    0    0  0.36070091548E+02 -0.82517134944E+01  0.16852901478E+02  0.50528898091E+02  0.30000116236E+02 0.  0.
         12    1    1    2    0    0 -0.36070091548E+02  0.82517134944E+01 -0.16852901478E+02  0.40659101909E+02  0.00000000000E+00 0. -1.
         11    1    3    3    0    0  0.81358040140E+01 -0.10952189919E+02  0.10130094168E+02  0.16992956750E+02  0.51100000000E-03 0. -1.
        -11    1    3    3    0    0  0.85715975269E+01  0.89989438879E+01  0.35815708678E+01  0.12933712746E+02  0.51100000000E-03 0.  1.
        -12    1    3    3    0    0  0.19362690007E+02 -0.62984674634E+01  0.31412364419E+01  0.20602228595E+02  0.00000000000E+00 0.  1.
</event>
<event>
 7    1  0.6073302E-013  0.5052887E+02  0.7816164E-02  0.1300439E+00
        -11   -1    0    0    0    0  0.00000000000E+00  0.00000000000E+00  0.45593999997E+02  0.45594000000E+02  0.51100000000E-03 0.  1.
         11   -1    0    0    0    0 -0.00000000000E+00 -0.00000000000E+00 -0.45593999997E+02  0.45594000000E+02  0.51100000000E-03 0. -1.
    9900012    2    1    2    0    0  0.39563053987E+02 -0.69878737200E+01  0.62529363320E+01  0.50528870242E+02  0.30000031586E+02 0.  0.
         12    1    1    2    0    0 -0.39563053987E+02  0.69878737200E+01 -0.62529363320E+01  0.40659129758E+02  0.00000000000E+00 0. -1.
         11    1    3    3    0    0 -0.30504324908E+01  0.27210980838E+01 -0.81288729114E+00  0.41677690881E+01  0.51100000000E-03 0. -1.
        -11    1    3    3    0    0  0.33990102994E+02 -0.29902497106E+01  0.89322044844E+01  0.35271135112E+02  0.51100000000E-03 0.  1.
         12    1    3    3    0    0  0.86233834837E+01 -0.67187220931E+01 -0.18663808613E+01  0.11089966041E+02  0.00000000000E+00 0. -1.
</event>
<event>
 7    1  0.6073302E-013  0.5052886E+02  0.7816164E-02  0.1300439E+00
        -11   -1    0    0    0    0  0.00000000000E+00  0.00000000000E+00  0.45593999997E+02  0.45594000000E+02  0.51100000000E-03 0.  1.
         11   -1    0    0    0    0 -0.00000000000E+00 -0.00000000000E+00 -0.45593999997E+02  0.45594000000E+02  0.51100000000E-03 0. -1.
    9900012    2    1    2    0    0  0.38536719021E+02  0.87432440207E+01  0.95730269204E+01  0.50528857445E+02  0.29999992689E+02 0.  0.
         12    1    1    2    0    0 -0.38536719021E+02 -0.87432440207E+01 -0.95730269204E+01  0.40659142555E+02  0.00000000000E+00 0. -1.
         11    1    3    3    0    0  0.86547050171E+01 -0.37862614112E+01 -0.60701764731E+01  0.11228835072E+02  0.51100000000E-03 0. -1.
        -11    1    3    3    0    0  0.31233993868E+02  0.12152011140E+02  0.16792091512E+02  0.37486105230E+02  0.51100000000E-03 0.  1.
        -12    1    3    3    0    0 -0.13519798639E+01  0.37749429150E+00 -0.11488881181E+01  0.18139171426E+01  0.00000000000E+00 0.  1.
</event>
<event>
 7    1  0.6073302E-013  0.5052888E+02  0.7816164E-02  0.1300439E+00
        -11   -1    0    0    0    0  0.00000000000E+00  0.00000000000E+00  0.45593999997E+02  0.45594000000E+02  0.51100000000E-03 0.  1.
         11   -1    0    0    0    0 -0.00000000000E+00 -0.00000000000E+00 -0.45593999997E+02  0.45594000000E+02  0.51100000000E-03 0. -1.
    9900012    2    1    2    0    0 -0.36156623052E+02  0.18231619091E+02  0.36702056981E+01  0.50528883740E+02  0.30000072615E+02 0.  0.
         12    1    1    2    0    0  0.36156623052E+02 -0.18231619091E+02 -0.36702056981E+01  0.40659116260E+02  0.00000000000E+00 0. -1.
         11    1    3    3    0    0 -0.10609572368E+02 -0.38875732480E+01 -0.34490530279E+01  0.11814068675E+02  0.51100000000E-03 0. -1.
        -11    1    3    3    0    0 -0.27971360436E+02  0.18896137002E+02  0.48946504942E+01  0.34108922615E+02  0.51100000000E-03 0.  1.
         12    1    3    3    0    0  0.24243097521E+01  0.32230553369E+01  0.22246082318E+01  0.46058924503E+01  0.00000000000E+00 0. -1.
</event>
<event>
 7    1  0.6073302E-013  0.5052885E+02  0.7816164E-02  0.1300439E+00
        -11   -1    0    0    0    0  0.00000000000E+00  0.00000000000E+00  0.45593999997E+02  0.45594000000E+02  0.51100000000E-03 0.  1.
         11   -1    0    0    0    0 -0.00000000000E+00 -0.00000000000E+00 -0.45593999997E+02  0.45594000000E+02  0.51100000000E-03 0. -1.
    9900012    2    1    2    0    0 -0.33682968202E+02 -0.11399993546E+02  0.19714572200E+02  0.50528849040E+02  0.29999967143E+02 0.  0.
         12    1    1    2    0    0  0.33682968202E+02  0.11399993546E+02 -0.19714572200E+02  0.40659150960E+02  0.00000000000E+00 0. -1.
         11    1    3    3    0    0 -0.17912130156E+02 -0.19415848729E+02  0.96159920158E+01  0.28112041749E+02  0.51100000000E-03 0. -1.
        -11    1    3    3    0    0 -0.13648225505E+02  0.23619630847E+01  0.58658091152E+01  0.15041962833E+02  0.51100000000E-03 0.  1.
         12    1    3    3    0    0 -0.21226125414E+01  0.56538920982E+01  0.42327710689E+01  0.73748444580E+01  0.00000000000E+00 0. -1.
</event>
<event>
 7    1  0.6073302E-013  0.5052886E+02  0.7816164E-02  0.1300439E+00
        -11   -1    0    0    0    0  0.00000000000E+00  0.00000000000E+00  0.45593999997E+02  0.45594000000E+02  0.51100000000E-03 0.  1.
         11   -1    0    0    0    0 -0.00000000000E+00 -0.00000000000E+00 -0.45593999997E+02  0.45594000000E+02  0.51100000000E-03 0. -1.
    9900012    2    1    2    0    0  0.30572501949E+02 -0.12113372799E+02 -0.23911372801E+02  0.50528862955E+02  0.30000009439E+02 0.  0.
         12    1    1    2    0    0 -0.30572501949E+02  0.12113372799E+02  0.23911372801E+02  0.40659137045E+02  0.00000000000E+00 0. -1.
         11    1    3    3    0    0  0.17831904322E+01 -0.41270439271E+01 -0.43995085202E+00  0.45172797906E+01  0.51100000000E-03 0. -1.
        -11    1    3    3    0    0  0.14547476287E+02  0.69336759728E+01 -0.18986225366E+02  0.24903447206E+02  0.51100000000E-03 0.  1.
        -12    1    3    3    0    0  0.14241835229E+02 -0.14920004845E+02 -0.44851965830E+01  0.21108135959E+02  0.00000000000E+00 0.  1.
</event>
<event>
 7    1  0.6073302E-013  0.5052886E+02  0.7816164E-02  0.1300439E+00
        -11   -1    0    0    0    0  0.00000000000E+00  0.00000000000E+00  0.45593999997E+02  0.45594000000E+02  0.51100000000E-03 0.  1.
         11   -1    0    0    0    0 -0.00000000000E+00 -0.00000000000E+00 -0.45593999997E+02  0.45594000000E+02  0.51100000000E-03 0. -1.
    9900012    2    1    2    0    0  0.31070181932E+02  0.23131494013E+02  0.12358953534E+02  0.50528856465E+02  0.29999989711E+02 0.  0.
         12    1    1    2    0    0 -0.31070181932E+02 -0.23131494013E+02 -0.12358953534E+02  0.40659143535E+02  0.00000000000E+00 0. -1.
         11    1    3    3    0    0  0.15743075933E+02  0.77077368940E+01  0.16570521958E+02  0.24121273725E+02  0.51100000000E-03 0. -1.
        -11    1    3    3    0    0  0.13571662968E+02  0.10498545625E+02 -0.89490511551E+01  0.19351873625E+02  0.51100000000E-03 0.  1.
        -12    1    3    3    0    0  0.17554430300E+01  0.49252114936E+01  0.47374827313E+01  0.70557091151E+01  0.00000000000E+00 0.  1.
</event>
<event>
 7    1  0.6073302E-013  0.5052887E+02  0.7816164E-02  0.1300439E+00
        -11   -1    0    0    0    0  0.00000000000E+00  0.00000000000E+00  0.45593999997E+02  0.45594000000E+02  0.51100000000E-03 0. -1.
         11   -1    0    0    0    0 -0.00000000000E+00 -0.00000000000E+00 -0.45593999997E+02  0.45594000000E+02  0.51100000000E-03 0.  1.
    9900012    2    1    2    0    0  0.25250440586E+02  0.25118988927E+00 -0.31867178285E+02  0.50528869439E+02  0.30000029146E+02 0.  0.
         12    1    1    2    0    0 -0.25250440586E+02 -0.25118988927E+00  0.31867178285E+02  0.40659130561E+02  0.00000000000E+00 0. -1.
         11    1    3    3    0    0 -0.19965301921E+01  0.30718882696E+01  0.20495389032E+01  0.41980043265E+01  0.51100000000E-03 0. -1.
        -11    1    3    3    0    0  0.26008352681E+02 -0.41129952698E+01 -0.22092528063E+02  0.34371949839E+02  0.51100000000E-03 0.  1.
        -12    1    3    3    0    0  0.12386180969E+01  0.12922968894E+01 -0.11824189125E+02  0.11958915273E+02  0.00000000000E+00 0.  1.
</event>
<event>
 7    1  0.6073302E-013  0.5052886E+02  0.7816164E-02  0.1300439E+00
        -11   -1    0    0    0    0  0.00000000000E+00  0.00000000000E+00  0.45593999997E+02  0.45594000000E+02  0.51100000000E-03 0. -1.
         11   -1    0    0    0    0 -0.00000000000E+00 -0.00000000000E+00 -0.45593999997E+02  0.45594000000E+02  0.51100000000E-03 0.  1.
    9900012    2    1    2    0    0 -0.47249602659E+01  0.56516360262E+01 -0.39986237558E+02  0.50528862855E+02  0.30000009134E+02 0.  0.
         12    1    1    2    0    0  0.47249602659E+01 -0.56516360262E+01  0.39986237558E+02  0.40659137145E+02  0.00000000000E+00 0. -1.
         11    1    3    3    0    0  0.12821762707E+00 -0.81379014303E+00  0.90934881260E+00  0.12270328769E+01  0.51100000000E-03 0. -1.
        -11    1    3    3    0    0  0.15513162700E+01 -0.33952145181E+01 -0.36590643721E+02  0.36780555623E+02  0.51100000000E-03 0.  1.
        -12    1    3    3    0    0 -0.64044941630E+01  0.98606406874E+01 -0.43049426501E+01  0.12521274355E+02  0.00000000000E+00 0.  1.
</event>
<event>
 7    1  0.6073302E-013  0.5052886E+02  0.7816164E-02  0.1300439E+00
        -11   -1    0    0    0    0  0.00000000000E+00  0.00000000000E+00  0.45593999997E+02  0.45594000000E+02  0.51100000000E-03 0. -1.
         11   -1    0    0    0    0 -0.00000000000E+00 -0.00000000000E+00 -0.45593999997E+02  0.45594000000E+02  0.51100000000E-03 0.  1.
    9900012    2    1    2    0    0 -0.40421362845E+02  0.43471551228E+01  0.61746861202E+00  0.50528860814E+02  0.30000002929E+02 0.  0.
         12    1    1    2    0    0  0.40421362845E+02 -0.43471551228E+01 -0.61746861202E+00  0.40659139186E+02  0.00000000000E+00 0. -1.
         11    1    3    3    0    0 -0.11967537005E+02  0.25803038926E-01  0.70553126060E+01  0.13892445573E+02  0.51100000000E-03 0. -1.
        -11    1    3    3    0    0 -0.54112362053E+01  0.10780274285E+02 -0.32653994592E+01  0.12496344458E+02  0.51100000000E-03 0.  1.
        -12    1    3    3    0    0 -0.23042589634E+02 -0.64589222011E+01 -0.31724445347E+01  0.24140070782E+02  0.00000000000E+00 0.  1.
</event>
<event>
 7    1  0.6073302E-013  0.5052886E+02  0.7816164E-02  0.1300439E+00
        -11   -1    0    0    0    0  0.00000000000E+00  0.00000000000E+00  0.45593999997E+02  0.45594000000E+02  0.51100000000E-03 0.  1.
         11   -1    0    0    0    0 -0.00000000000E+00 -0.00000000000E+00 -0.45593999997E+02  0.45594000000E+02  0.51100000000E-03 0. -1.
    9900012    2    1    2    0    0  0.24737891036E+02 -0.21961555578E+02  0.23640904912E+02  0.50528861281E+02  0.30000004350E+02 0.  0.
         12    1    1    2    0    0 -0.24737891036E+02  0.21961555578E+02 -0.23640904912E+02  0.40659138719E+02  0.00000000000E+00 0. -1.
         11    1    3    3    0    0 -0.88949491581E-01 -0.12942368291E+02 -0.88542108175E+00  0.12972924872E+02  0.51100000000E-03 0. -1.
        -11    1    3    3    0    0  0.15194421276E+02 -0.10489095470E+02  0.18280443484E+02  0.25982035639E+02  0.51100000000E-03 0.  1.
         12    1    3    3    0    0  0.96324192518E+01  0.14699081831E+01  0.62458825091E+01  0.11573900770E+02  0.00000000000E+00 0. -1.
</event>
<event>
 7    1  0.6073302E-013  0.5052886E+02  0.7816164E-02  0.1300439E+00
        -11   -1    0    0    0    0  0.00000000000E+00  0.00000000000E+00  0.45593999997E+02  0.45594000000E+02  0.51100000000E-03 0.  1.
         11   -1    0    0    0    0 -0.00000000000E+00 -0.00000000000E+00 -0.45593999997E+02  0.45594000000E+02  0.51100000000E-03 0. -1.
    9900012    2    1    2    0    0 -0.67495411129E+01  0.21707474305E+02  0.33710459881E+02  0.50528857715E+02  0.29999993511E+02 0.  0.
         12    1    1    2    0    0  0.67495411129E+01 -0.21707474305E+02 -0.33710459881E+02  0.40659142285E+02  0.00000000000E+00 0. -1.
         11    1    3    3    0    0 -0.10026380072E+02  0.12178088522E+02  0.40020932327E+01  0.16274240010E+02  0.51100000000E-03 0. -1.
        -11    1    3    3    0    0  0.43050921869E+01  0.12779207018E+02  0.21666275102E+02  0.25519980952E+02  0.51100000000E-03 0.  1.
        -12    1    3    3    0    0 -0.10282532275E+01 -0.32498212351E+01  0.80420915470E+01  0.87346367532E+01  0.00000000000E+00 0.  1.
</event>
<event>
 7    1  0.6073302E-013  0.5052886E+02  0.7816164E-02  0.1300439E+00
        -11   -1    0    0    0    0  0.00000000000E+00  0.00000000000E+00  0.45593999997E+02  0.45594000000E+02  0.51100000000E-03 0.  1.
         11   -1    0    0    0    0 -0.00000000000E+00 -0.00000000000E+00 -0.45593999997E+02  0.45594000000E+02  0.51100000000E-03 0. -1.
    9900012    2    1    2    0    0 -0.27135800635E+02 -0.99312211030E+01  0.28603930472E+02  0.50528859980E+02  0.30000000395E+02 0.  0.
         12    1    1    2    0    0  0.27135800635E+02  0.99312211030E+01 -0.28603930472E+02  0.40659140020E+02  0.00000000000E+00 0. -1.
         11    1    3    3    0    0 -0.93387806979E+01  0.30957437387E+01  0.13752962358E+02  0.16909773153E+02  0.51100000000E-03 0. -1.
        -11    1    3    3    0    0 -0.55708800782E+01 -0.61881180333E+01 -0.47046333088E+01  0.95635288713E+01  0.51100000000E-03 0.  1.
        -12    1    3    3    0    0 -0.12226139859E+02 -0.68388468084E+01  0.19555601423E+02  0.24055557955E+02  0.00000000000E+00 0.  1.
</event>
<event>
 7    1  0.6073302E-013  0.5052885E+02  0.7816164E-02  0.1300439E+00
        -11   -1    0    0    0    0  0.00000000000E+00  0.00000000000E+00  0.45593999997E+02  0.45594000000E+02  0.51100000000E-03 0. -1.
         11   -1    0    0    0    0 -0.00000000000E+00 -0.00000000000E+00 -0.45593999997E+02  0.45594000000E+02  0.51100000000E-03 0.  1.
    9900012    2    1    2    0    0 -0.40524789059E+02  0.22621915117E+01 -0.24062732513E+01  0.50528853555E+02  0.29999980865E+02 0.  0.
         12    1    1    2    0    0  0.40524789059E+02 -0.22621915117E+01  0.24062732513E+01  0.40659146445E+02  0.00000000000E+00 0. -1.
         11    1    3    3    0    0  0.26907227190E+01 -0.49627298989E+00  0.43400903495E+01  0.51305613859E+01  0.51100000000E-03 0. -1.
        -11    1    3    3    0    0 -0.33830533342E+02  0.28690631794E+01 -0.19538757615E+00  0.33952535786E+02  0.51100000000E-03 0.  1.
        -12    1    3    3    0    0 -0.93849784361E+01 -0.11059867787E+00 -0.65509760247E+01  0.11445756383E+02  0.00000000000E+00 0.  1.
</event>
<event>
 7    1  0.6073302E-013  0.5052883E+02  0.7816164E-02  0.1300439E+00
        -11   -1    0    0    0    0  0.00000000000E+00  0.00000000000E+00  0.45593999997E+02  0.45594000000E+02  0.51100000000E-03 0. -1.
         11   -1    0    0    0    0 -0.00000000000E+00 -0.00000000000E+00 -0.45593999997E+02  0.45594000000E+02  0.51100000000E-03 0.  1.
    9900012    2    1    2    0    0 -0.14418489148E+02  0.19609928520E+02 -0.32568790726E+02  0.50528828153E+02  0.29999903655E+02 0.  0.
         12    1    1    2    0    0  0.14418489148E+02 -0.19609928520E+02  0.32568790726E+02  0.40659171847E+02  0.00000000000E+00 0. -1.
         11    1    3    3    0    0  0.32480365602E+01 -0.18407097787E+00 -0.53397644279E+01  0.62527360434E+01  0.51100000000E-03 0.  1.
        -11    1    3    3    0    0 -0.12186112663E+02  0.60614538820E+01 -0.36899669694E+00  0.13615385555E+02  0.51100000000E-03 0. -1.
        -12    1    3    3    0    0 -0.54804130455E+01  0.13732545616E+02 -0.26860029601E+02  0.30660706555E+02  0.00000000000E+00 0.  1.
</event>
<event>
 7    1  0.6073302E-013  0.5052885E+02  0.7816164E-02  0.1300439E+00
        -11   -1    0    0    0    0  0.00000000000E+00  0.00000000000E+00  0.45593999997E+02  0.45594000000E+02  0.51100000000E-03 0.  1.
         11   -1    0    0    0    0 -0.00000000000E+00 -0.00000000000E+00 -0.45593999997E+02  0.45594000000E+02  0.51100000000E-03 0. -1.
    9900012    2    1    2    0    0  0.14527095897E+02  0.14341465886E+02  0.35163222682E+02  0.50528851111E+02  0.29999973437E+02 0.  0.
         12    1    1    2    0    0 -0.14527095897E+02 -0.14341465886E+02 -0.35163222682E+02  0.40659148889E+02  0.00000000000E+00 0. -1.
         11    1    3    3    0    0  0.39630311288E+01 -0.73731224663E+01  0.10369889634E+02  0.13326783629E+02  0.51100000000E-03 0. -1.
        -11    1    3    3    0    0  0.37173905668E+01  0.20201967504E+02  0.16541194215E+02  0.26373274161E+02  0.51100000000E-03 0.  1.
        -12    1    3    3    0    0  0.68466742019E+01  0.15126208491E+01  0.82521388337E+01  0.10828793321E+02  0.00000000000E+00 0.  1.
</event>
<event>
 7    1  0.6073302E-013  0.5052887E+02  0.7816164E-02  0.1300439E+00
        -11   -1    0    0    0    0  0.00000000000E+00  0.00000000000E+00  0.45593999997E+02  0.45594000000E+02  0.51100000000E-03 0.  1.
         11   -1    0    0    0    0 -0.00000000000E+00 -0.00000000000E+00 -0.45593999997E+02  0.45594000000E+02  0.51100000000E-03 0. -1.
    9900012    2    1    2    0    0  0.27089290914E+02 -0.29520883458E+02 -0.69175581960E+01  0.50528869983E+02  0.30000030799E+02 0.  0.
         12    1    1    2    0    0 -0.27089290914E+02  0.29520883458E+02  0.69175581960E+01  0.40659130017E+02  0.00000000000E+00 0. -1.
         11    1    3    3    0    0  0.27660924841E+02 -0.27558808725E+02 -0.81368441180E+01  0.39885121710E+02  0.51100000000E-03 0. -1.
        -11    1    3    3    0    0 -0.14867911228E+01 -0.61071454405E+01  0.11987187501E+01  0.63988045897E+01  0.51100000000E-03 0.  1.
         12    1    3    3    0    0  0.91515719571E+00  0.41450707071E+01  0.20567171966E-01  0.42449436826E+01  0.00000000000E+00 0. -1.
</event>
<event>
 7    1  0.6073302E-013  0.5052889E+02  0.7816164E-02  0.1300439E+00
        -11   -1    0    0    0    0  0.00000000000E+00  0.00000000000E+00  0.45593999997E+02  0.45594000000E+02  0.51100000000E-03 0.  1.
         11   -1    0    0    0    0 -0.00000000000E+00 -0.00000000000E+00 -0.45593999997E+02  0.45594000000E+02  0.51100000000E-03 0. -1.
    9900012    2    1    2    0    0 -0.10357421078E+02 -0.39164086822E+02  0.34729307368E+01  0.50528891354E+02  0.30000095760E+02 0.  0.
         12    1    1    2    0    0  0.10357421078E+02  0.39164086822E+02 -0.34729307368E+01  0.40659108646E+02  0.00000000000E+00 0. -1.
         11    1    3    3    0    0 -0.12674845784E+02 -0.23145059086E+02 -0.73636962296E+01  0.27396523469E+02  0.51100000000E-03 0. -1.
        -11    1    3    3    0    0 -0.47433627947E+01 -0.10323149788E+02  0.57838340761E+01  0.12748319459E+02  0.51100000000E-03 0.  1.
         12    1    3    3    0    0  0.70607875011E+01 -0.56958779474E+01  0.50527928903E+01  0.10384048426E+02  0.00000000000E+00 0. -1.
</event>
<event>
 7    1  0.6073302E-013  0.5052886E+02  0.7816164E-02  0.1300439E+00
        -11   -1    0    0    0    0  0.00000000000E+00  0.00000000000E+00  0.45593999997E+02  0.45594000000E+02  0.51100000000E-03 0.  1.
         11   -1    0    0    0    0 -0.00000000000E+00 -0.00000000000E+00 -0.45593999997E+02  0.45594000000E+02  0.51100000000E-03 0. -1.
    9900012    2    1    2    0    0 -0.17881235362E+01 -0.38436186473E+02 -0.13138803298E+02  0.50528856275E+02  0.29999989132E+02 0.  0.
         12    1    1    2    0    0  0.17881235362E+01  0.38436186473E+02  0.13138803298E+02  0.40659143725E+02  0.00000000000E+00 0. -1.
         11    1    3    3    0    0  0.68136166275E+01 -0.55019172650E+01  0.57331957779E+01  0.10467377858E+02  0.51100000000E-03 0. -1.
        -11    1    3    3    0    0  0.54129992995E+00 -0.15646456248E+02 -0.10074038975E+02  0.18616950886E+02  0.51100000000E-03 0.  1.
         12    1    3    3    0    0 -0.91430400937E+01 -0.17287812960E+02 -0.87979601012E+01  0.21444527531E+02  0.00000000000E+00 0. -1.
</event>
<event>
 7    1  0.6073302E-013  0.5052886E+02  0.7816164E-02  0.1300439E+00
        -11   -1    0    0    0    0  0.00000000000E+00  0.00000000000E+00  0.45593999997E+02  0.45594000000E+02  0.51100000000E-03 0.  1.
         11   -1    0    0    0    0 -0.00000000000E+00 -0.00000000000E+00 -0.45593999997E+02  0.45594000000E+02  0.51100000000E-03 0. -1.
    9900012    2    1    2    0    0  0.19886924341E+02 -0.32668406929E+02  0.13800395408E+02  0.50528862227E+02  0.30000007226E+02 0.  0.
         12    1    1    2    0    0 -0.19886924341E+02  0.32668406929E+02 -0.13800395408E+02  0.40659137773E+02  0.00000000000E+00 0. -1.
         11    1    3    3    0    0  0.84173607293E+01 -0.20057892668E+02 -0.55328300506E+01  0.22445115918E+02  0.51100000000E-03 0. -1.
        -11    1    3    3    0    0  0.73531702741E+00 -0.89308390729E+01  0.74575415590E+01  0.11658280493E+02  0.51100000000E-03 0.  1.
         12    1    3    3    0    0  0.10734246584E+02 -0.36796751876E+01  0.11875683899E+02  0.16425465817E+02  0.00000000000E+00 0. -1.
</event>
<event>
 7    1  0.6073302E-013  0.5052889E+02  0.7816164E-02  0.1300439E+00
        -11   -1    0    0    0    0  0.00000000000E+00  0.00000000000E+00  0.45593999997E+02  0.45594000000E+02  0.51100000000E-03 0.  1.
         11   -1    0    0    0    0 -0.00000000000E+00 -0.00000000000E+00 -0.45593999997E+02  0.45594000000E+02  0.51100000000E-03 0. -1.
    9900012    2    1    2    0    0  0.20978473054E+02 -0.86011937346E+01  0.33750354864E+02  0.50528888859E+02  0.30000088175E+02 0.  0.
         12    1    1    2    0    0 -0.20978473054E+02  0.86011937346E+01 -0.33750354864E+02  0.40659111141E+02  0.00000000000E+00 0. -1.
         11    1    3    3    0    0  0.14168832039E+02  0.83431755751E+01  0.88812060777E+01  0.18687969437E+02  0.51100000000E-03 0. -1.
        -11    1    3    3    0    0 -0.51159764291E+00 -0.60926315465E+01  0.43572127822E+01  0.75078089214E+01  0.51100000000E-03 0.  1.
         12    1    3    3    0    0  0.73212386579E+01 -0.10851737763E+02  0.20511936004E+02  0.24333110500E+02  0.00000000000E+00 0. -1.
</event>
<event>
 7    1  0.6073302E-013  0.5052886E+02  0.7816164E-02  0.1300439E+00
        -11   -1    0    0    0    0  0.00000000000E+00  0.00000000000E+00  0.45593999997E+02  0.45594000000E+02  0.51100000000E-03 0.  1.
         11   -1    0    0    0    0 -0.00000000000E+00 -0.00000000000E+00 -0.45593999997E+02  0.45594000000E+02  0.51100000000E-03 0. -1.
    9900012    2    1    2    0    0  0.31342988321E+02  0.11126885410E+02  0.23387504711E+02  0.50528857456E+02  0.29999992722E+02 0.  0.
         12    1    1    2    0    0 -0.31342988321E+02 -0.11126885410E+02 -0.23387504711E+02  0.40659142544E+02  0.00000000000E+00 0. -1.
         11    1    3    3    0    0  0.24148981823E+02 -0.15264914400E-01  0.53733640550E+01  0.24739575534E+02  0.51100000000E-03 0. -1.
        -11    1    3    3    0    0  0.65512420481E+01  0.23598813525E+01  0.14903959755E+02  0.16450405132E+02  0.51100000000E-03 0.  1.
         12    1    3    3    0    0  0.64276445048E+00  0.87822689723E+01  0.31101809007E+01  0.93388767887E+01  0.00000000000E+00 0. -1.
</event>
<event>
 7    1  0.6073302E-013  0.5052886E+02  0.7816164E-02  0.1300439E+00
        -11   -1    0    0    0    0  0.00000000000E+00  0.00000000000E+00  0.45593999997E+02  0.45594000000E+02  0.51100000000E-03 0.  1.
         11   -1    0    0    0    0 -0.00000000000E+00 -0.00000000000E+00 -0.45593999997E+02  0.45594000000E+02  0.51100000000E-03 0. -1.
    9900012    2    1    2    0    0 -0.64685911769E+01  0.20440388098E+02  0.34547266895E+02  0.50528858502E+02  0.29999995903E+02 0.  0.
         12    1    1    2    0    0  0.64685911769E+01 -0.20440388098E+02 -0.34547266895E+02  0.40659141498E+02  0.00000000000E+00 0. -1.
         11    1    3    3    0    0 -0.71010947748E+01  0.13462082459E+02  0.61777687324E+01  0.16426138862E+02  0.51100000000E-03 0. -1.
        -11    1    3    3    0    0 -0.12158173498E+01  0.46891453684E+01  0.30233913235E+02  0.30619533078E+02  0.51100000000E-03 0.  1.
        -12    1    3    3    0    0  0.18483209477E+01  0.22891602701E+01 -0.18644150724E+01  0.34831865626E+01  0.00000000000E+00 0.  1.
</event>
<event>
 7    1  0.6073302E-013  0.5052877E+02  0.7816164E-02  0.1300439E+00
        -11   -1    0    0    0    0  0.00000000000E+00  0.00000000000E+00  0.45593999997E+02  0.45594000000E+02  0.51100000000E-03 0.  1.
         11   -1    0    0    0    0 -0.00000000000E+00 -0.00000000000E+00 -0.45593999997E+02  0.45594000000E+02  0.51100000000E-03 0. -1.
    9900012    2    1    2    0    0 -0.32080780445E+02  0.79691432937E+01  0.23674662874E+02  0.50528765120E+02  0.29999712059E+02 0.  0.
         12    1    1    2    0    0  0.32080780445E+02 -0.79691432937E+01 -0.23674662874E+02  0.40659234880E+02  0.00000000000E+00 0. -1.
         11    1    3    3    0    0  0.25240529837E+01  0.28721084197E+00  0.53547694979E+01  0.59267942573E+01  0.51100000000E-03 0. -1.
        -11    1    3    3    0    0 -0.29723853449E+02  0.11142131015E+02  0.20984229275E+02  0.38052495660E+02  0.51100000000E-03 0.  1.
         12    1    3    3    0    0 -0.48809799798E+01 -0.34601985632E+01 -0.26643358988E+01  0.65494752035E+01  0.00000000000E+00 0. -1.
</event>
<event>
 7    1  0.6073302E-013  0.5052886E+02  0.7816164E-02  0.1300439E+00
        -11   -1    0    0    0    0  0.00000000000E+00  0.00000000000E+00  0.45593999997E+02  0.45594000000E+02  0.51100000000E-03 0.  1.
         11   -1    0    0    0    0 -0.00000000000E+00 -0.00000000000E+00 -0.45593999997E+02  0.45594000000E+02  0.51100000000E-03 0. -1.
    9900012    2    1    2    0    0 -0.28302853801E+02  0.64531856564E+01  0.28468765106E+02  0.50528859268E+02  0.29999998232E+02 0.  0.
         12    1    1    2    0    0  0.28302853801E+02 -0.64531856564E+01 -0.28468765106E+02  0.40659140732E+02  0.00000000000E+00 0. -1.
         11    1    3    3    0    0 -0.31858936802E+01 -0.50589720869E+01  0.10741628048E+02  0.12293318937E+02  0.51100000000E-03 0. -1.
        -11    1    3    3    0    0 -0.15594487285E+02  0.16824934366E+02  0.11220639141E+02  0.25537603511E+02  0.51100000000E-03 0.  1.
        -12    1    3    3    0    0 -0.95224728358E+01 -0.53127766225E+01  0.65064979169E+01  0.12697936820E+02  0.00000000000E+00 0.  1.
</event>
<event>
 7    1  0.6073302E-013  0.5052885E+02  0.7816164E-02  0.1300439E+00
        -11   -1    0    0    0    0  0.00000000000E+00  0.00000000000E+00  0.45593999997E+02  0.45594000000E+02  0.51100000000E-03 0. -1.
         11   -1    0    0    0    0 -0.00000000000E+00 -0.00000000000E+00 -0.45593999997E+02  0.45594000000E+02  0.51100000000E-03 0.  1.
    9900012    2    1    2    0    0 -0.20130195628E+02 -0.16549072831E+02 -0.31210088130E+02  0.50528853567E+02  0.29999980902E+02 0.  0.
         12    1    1    2    0    0  0.20130195628E+02  0.16549072831E+02  0.31210088130E+02  0.40659146433E+02  0.00000000000E+00 0. -1.
         11    1    3    3    0    0 -0.89655814484E+01 -0.56772190073E+00 -0.29627268573E+01  0.94594772349E+01  0.51100000000E-03 0. -1.
        -11    1    3    3    0    0  0.72888299456E+00 -0.15885030463E+02 -0.85369395265E+01  0.18048401590E+02  0.51100000000E-03 0.  1.
        -12    1    3    3    0    0 -0.11893497175E+02 -0.96320467222E-01 -0.19710421746E+02  0.23020974742E+02  0.00000000000E+00 0.  1.
</event>
<event>
 7    1  0.6073302E-013  0.5052886E+02  0.7816164E-02  0.1300439E+00
        -11   -1    0    0    0    0  0.00000000000E+00  0.00000000000E+00  0.45593999997E+02  0.45594000000E+02  0.51100000000E-03 0.  1.
         11   -1    0    0    0    0 -0.00000000000E+00 -0.00000000000E+00 -0.45593999997E+02  0.45594000000E+02  0.51100000000E-03 0. -1.
    9900012    2    1    2    0    0 -0.21477858908E+02 -0.57461424227E+01  0.34041871323E+02  0.50528861062E+02  0.30000003685E+02 0.  0.
         12    1    1    2    0    0  0.21477858908E+02  0.57461424227E+01 -0.34041871323E+02  0.40659138938E+02  0.00000000000E+00 0. -1.
         11    1    3    3    0    0 -0.18070996538E+02 -0.15472563540E+02  0.22951112607E+02  0.33056235547E+02  0.51100000000E-03 0. -1.
        -11    1    3    3    0    0 -0.50220521510E+01  0.10105733848E+02  0.75935003138E+01  0.13601768697E+02  0.51100000000E-03 0.  1.
        -12    1    3    3    0    0  0.16151897810E+01 -0.37931273035E+00  0.34972584017E+01  0.38708568179E+01  0.00000000000E+00 0.  1.
</event>
<event>
 7    1  0.6073302E-013  0.5052886E+02  0.7816164E-02  0.1300439E+00
        -11   -1    0    0    0    0  0.00000000000E+00  0.00000000000E+00  0.45593999997E+02  0.45594000000E+02  0.51100000000E-03 0.  1.
         11   -1    0    0    0    0 -0.00000000000E+00 -0.00000000000E+00 -0.45593999997E+02  0.45594000000E+02  0.51100000000E-03 0. -1.
    9900012    2    1    2    0    0  0.38842679586E+02  0.11208563589E+02  0.43335846632E+01  0.50528860669E+02  0.30000002488E+02 0.  0.
         12    1    1    2    0    0 -0.38842679586E+02 -0.11208563589E+02 -0.43335846632E+01  0.40659139331E+02  0.00000000000E+00 0. -1.
         11    1    3    3    0    0  0.10943363411E+02 -0.77384277270E+01  0.37175091367E+01  0.13909002152E+02  0.51100000000E-03 0. -1.
        -11    1    3    3    0    0  0.52838393298E+01  0.83561655678E+01  0.52913164181E+01  0.11213495920E+02  0.51100000000E-03 0.  1.
         12    1    3    3    0    0  0.22615476845E+02  0.10590825748E+02 -0.46752408916E+01  0.25406362596E+02  0.00000000000E+00 0. -1.
</event>
<event>
 7    1  0.6073302E-013  0.5052885E+02  0.7816164E-02  0.1300439E+00
        -11   -1    0    0    0    0  0.00000000000E+00  0.00000000000E+00  0.45593999997E+02  0.45594000000E+02  0.51100000000E-03 0.  1.
         11   -1    0    0    0    0 -0.00000000000E+00 -0.00000000000E+00 -0.45593999997E+02  0.45594000000E+02  0.51100000000E-03 0. -1.
    9900012    2    1    2    0    0  0.21892048012E+02 -0.34225699540E+02 -0.15829851673E+01  0.50528854446E+02  0.29999983574E+02 0.  0.
         12    1    1    2    0    0 -0.21892048012E+02  0.34225699540E+02  0.15829851673E+01  0.40659145554E+02  0.00000000000E+00 0. -1.
         11    1    3    3    0    0 -0.48617293873E+01 -0.34726049372E+01 -0.55932213330E+00  0.60006865603E+01  0.51100000000E-03 0. -1.
        -11    1    3    3    0    0  0.26439634148E+02 -0.28876034753E+02 -0.56200843715E+01  0.39553318262E+02  0.51100000000E-03 0.  1.
        -12    1    3    3    0    0  0.31414325070E+00 -0.18770598497E+01  0.45964213375E+01  0.49748496232E+01  0.00000000000E+00 0.  1.
</event>
<event>
 7    1  0.6073302E-013  0.5052885E+02  0.7816164E-02  0.1300439E+00
        -11   -1    0    0    0    0  0.00000000000E+00  0.00000000000E+00  0.45593999997E+02  0.45594000000E+02  0.51100000000E-03 0. -1.
         11   -1    0    0    0    0 -0.00000000000E+00 -0.00000000000E+00 -0.45593999997E+02  0.45594000000E+02  0.51100000000E-03 0.  1.
    9900012    2    1    2    0    0 -0.38472784421E+02 -0.23065416220E+00 -0.13151348970E+02  0.50528851925E+02  0.29999975911E+02 0.  0.
         12    1    1    2    0    0  0.38472784421E+02  0.23065416220E+00  0.13151348970E+02  0.40659148075E+02  0.00000000000E+00 0. -1.
         11    1    3    3    0    0  0.25894525106E+01 -0.42451859867E+01 -0.89622880508E-01  0.49734194362E+01  0.51100000000E-03 0. -1.
        -11    1    3    3    0    0 -0.32835029263E+02  0.24948694060E+01 -0.16099570716E+02  0.36654599951E+02  0.51100000000E-03 0.  1.
        -12    1    3    3    0    0 -0.82272076686E+01  0.15196624185E+01  0.30378446269E+01  0.89008325378E+01  0.00000000000E+00 0.  1.
</event>
<event>
 7    1  0.6073302E-013  0.5052888E+02  0.7816164E-02  0.1300439E+00
        -11   -1    0    0    0    0  0.00000000000E+00  0.00000000000E+00  0.45593999997E+02  0.45594000000E+02  0.51100000000E-03 0.  1.
         11   -1    0    0    0    0 -0.00000000000E+00 -0.00000000000E+00 -0.45593999997E+02  0.45594000000E+02  0.51100000000E-03 0. -1.
    9900012    2    1    2    0    0  0.96979506268E+01  0.13788625813E+02  0.36999837633E+02  0.50528875157E+02  0.30000046526E+02 0.  0.
         12    1    1    2    0    0 -0.96979506268E+01 -0.13788625813E+02 -0.36999837633E+02  0.40659124843E+02  0.00000000000E+00 0. -1.
         11    1    3    3    0    0 -0.69530325908E+01 -0.14149379505E+00  0.11603158481E+02  0.13527674216E+02  0.51100000000E-03 0. -1.
        -11    1    3    3    0    0  0.66379212144E+01  0.15078206911E+02  0.18589076188E+02  0.24838842072E+02  0.51100000000E-03 0.  1.
         12    1    3    3    0    0  0.10013062003E+02 -0.11480873027E+01  0.68076029639E+01  0.12162358869E+02  0.00000000000E+00 0. -1.
</event>
<event>
 7    1  0.6073302E-013  0.5052886E+02  0.7816164E-02  0.1300439E+00
        -11   -1    0    0    0    0  0.00000000000E+00  0.00000000000E+00  0.45593999997E+02  0.45594000000E+02  0.51100000000E-03 0. -1.
         11   -1    0    0    0    0 -0.00000000000E+00 -0.00000000000E+00 -0.45593999997E+02  0.45594000000E+02  0.51100000000E-03 0.  1.
    9900012    2    1    2    0    0  0.26297141068E+02  0.22228916382E+02 -0.21621772432E+02  0.50528863327E+02  0.30000010569E+02 0.  0.
         12    1    1    2    0    0 -0.26297141068E+02 -0.22228916382E+02  0.21621772432E+02  0.40659136673E+02  0.00000000000E+00 0. -1.
         11    1    3    3    0    0  0.25364361252E+01  0.56769749329E+01  0.52102262396E+01  0.81122136520E+01  0.51100000000E-03 0. -1.
        -11    1    3    3    0    0  0.18700292011E+02  0.14981713229E+02 -0.28139551085E+02  0.36959261196E+02  0.51100000000E-03 0.  1.
        -12    1    3    3    0    0  0.50604129316E+01  0.15702282200E+01  0.13075524138E+01  0.54573884795E+01  0.00000000000E+00 0.  1.
</event>
<event>
 7    1  0.6073302E-013  0.5052886E+02  0.7816164E-02  0.1300439E+00
        -11   -1    0    0    0    0  0.00000000000E+00  0.00000000000E+00  0.45593999997E+02  0.45594000000E+02  0.51100000000E-03 0.  1.
         11   -1    0    0    0    0 -0.00000000000E+00 -0.00000000000E+00 -0.45593999997E+02  0.45594000000E+02  0.51100000000E-03 0. -1.
    9900012    2    1    2    0    0  0.34760388663E+02  0.21089222026E+02  0.35445574491E+00  0.50528861488E+02  0.30000004979E+02 0.  0.
         12    1    1    2    0    0 -0.34760388663E+02 -0.21089222026E+02 -0.35445574491E+00  0.40659138512E+02  0.00000000000E+00 0. -1.
         11    1    3    3    0    0  0.28681325421E+02  0.19471099933E+02 -0.45886465812E+01  0.34968526394E+02  0.51100000000E-03 0. -1.
        -11    1    3    3    0    0  0.66070760532E+01 -0.10286291998E+01  0.86761399594E+01  0.10953854886E+02  0.51100000000E-03 0.  1.
         12    1    3    3    0    0 -0.52801281104E+00  0.26467512926E+01 -0.37330376332E+01  0.46064802078E+01  0.00000000000E+00 0. -1.
</event>
<event>
 7    1  0.6073302E-013  0.5052886E+02  0.7816164E-02  0.1300439E+00
        -11   -1    0    0    0    0  0.00000000000E+00  0.00000000000E+00  0.45593999997E+02  0.45594000000E+02  0.51100000000E-03 0. -1.
         11   -1    0    0    0    0 -0.00000000000E+00 -0.00000000000E+00 -0.45593999997E+02  0.45594000000E+02  0.51100000000E-03 0.  1.
    9900012    2    1    2    0    0 -0.21007354002E+02  0.31652103527E+02 -0.14491402298E+02  0.50528864244E+02  0.30000013358E+02 0.  0.
         12    1    1    2    0    0  0.21007354002E+02 -0.31652103527E+02  0.14491402298E+02  0.40659135756E+02  0.00000000000E+00 0. -1.
         11    1    3    3    0    0 -0.71380482240E+01  0.76828913257E+01 -0.16504761029E+02  0.19554684566E+02  0.51100000000E-03 0.  1.
        -11    1    3    3    0    0 -0.10175927634E+02  0.13543997073E+02  0.76182993681E+01  0.18574925180E+02  0.51100000000E-03 0. -1.
        -12    1    3    3    0    0 -0.36933781437E+01  0.10425215128E+02 -0.56049406363E+01  0.12399254498E+02  0.00000000000E+00 0.  1.
</event>
<event>
 7    1  0.6073302E-013  0.5052886E+02  0.7816164E-02  0.1300439E+00
        -11   -1    0    0    0    0  0.00000000000E+00  0.00000000000E+00  0.45593999997E+02  0.45594000000E+02  0.51100000000E-03 0.  1.
         11   -1    0    0    0    0 -0.00000000000E+00 -0.00000000000E+00 -0.45593999997E+02  0.45594000000E+02  0.51100000000E-03 0. -1.
    9900012    2    1    2    0    0 -0.13899137954E+02  0.30845393361E+02 -0.22550866020E+02  0.50528857293E+02  0.29999992227E+02 0.  0.
         12    1    1    2    0    0  0.13899137954E+02 -0.30845393361E+02  0.22550866020E+02  0.40659142707E+02  0.00000000000E+00 0. -1.
         11    1    3    3    0    0  0.51315854506E+00  0.28681180617E+01 -0.11669633481E+02  0.12027875073E+02  0.51100000000E-03 0. -1.
        -11    1    3    3    0    0 -0.16167013408E+02  0.26216833768E+02 -0.14553900628E+02  0.34066269522E+02  0.51100000000E-03 0.  1.
        -12    1    3    3    0    0  0.17547169092E+01  0.17604415310E+01  0.36726680902E+01  0.44347126982E+01  0.00000000000E+00 0.  1.
</event>
<event>
 7    1  0.6073302E-013  0.5052886E+02  0.7816164E-02  0.1300439E+00
        -11   -1    0    0    0    0  0.00000000000E+00  0.00000000000E+00  0.45593999997E+02  0.45594000000E+02  0.51100000000E-03 0.  1.
         11   -1    0    0    0    0 -0.00000000000E+00 -0.00000000000E+00 -0.45593999997E+02  0.45594000000E+02  0.51100000000E-03 0. -1.
    9900012    2    1    2    0    0 -0.18305732297E+01  0.41672360284E+01  0.40403578048E+02  0.50528856212E+02  0.29999988943E+02 0.  0.
         12    1    1    2    0    0  0.18305732297E+01 -0.41672360284E+01 -0.40403578048E+02  0.40659143788E+02  0.00000000000E+00 0. -1.
         11    1    3    3    0    0  0.81321425106E+01  0.37841893008E+01  0.13013565633E+02  0.15805211837E+02  0.51100000000E-03 0. -1.
        -11    1    3    3    0    0 -0.87201968052E+01  0.58079003978E+01  0.49205242117E+01  0.11575193222E+02  0.51100000000E-03 0.  1.
        -12    1    3    3    0    0 -0.12425189351E+01 -0.54248536701E+01  0.22469488204E+02  0.23148451153E+02  0.00000000000E+00 0.  1.
</event>
<event>
 7    1  0.6073302E-013  0.5052886E+02  0.7816164E-02  0.1300439E+00
        -11   -1    0    0    0    0  0.00000000000E+00  0.00000000000E+00  0.45593999997E+02  0.45594000000E+02  0.51100000000E-03 0. -1.
         11   -1    0    0    0    0 -0.00000000000E+00 -0.00000000000E+00 -0.45593999997E+02  0.45594000000E+02  0.51100000000E-03 0.  1.
    9900012    2    1    2    0    0  0.25619832896E+02  0.24202783417E+02 -0.20273505456E+02  0.50528860975E+02  0.30000003421E+02 0.  0.
         12    1    1    2    0    0 -0.25619832896E+02 -0.24202783417E+02  0.20273505456E+02  0.40659139025E+02  0.00000000000E+00 0. -1.
         11    1    3    3    0    0  0.51317936903E+01  0.18841684195E+02 -0.94613477684E+00  0.19550947319E+02  0.51100000000E-03 0. -1.
        -11    1    3    3    0    0  0.63186118592E+01 -0.34880479113E+01 -0.81050268511E+01  0.10852778196E+02  0.51100000000E-03 0.  1.
        -12    1    3    3    0    0  0.14169427347E+02  0.88491471331E+01 -0.11222343828E+02  0.20125135461E+02  0.00000000000E+00 0.  1.
</event>
<event>
 7    1  0.6073302E-013  0.5052886E+02  0.7816164E-02  0.1300439E+00
        -11   -1    0    0    0    0  0.00000000000E+00  0.00000000000E+00  0.45593999997E+02  0.45594000000E+02  0.51100000000E-03 0.  1.
         11   -1    0    0    0    0 -0.00000000000E+00 -0.00000000000E+00 -0.45593999997E+02  0.45594000000E+02  0.51100000000E-03 0. -1.
    9900012    2    1    2    0    0 -0.19367895206E+02 -0.18794354667E+02  0.30410896382E+02  0.50528858951E+02  0.29999997268E+02 0.  0.
         12    1    1    2    0    0  0.19367895206E+02  0.18794354667E+02 -0.30410896382E+02  0.40659141049E+02  0.00000000000E+00 0. -1.
         11    1    3    3    0    0  0.56392022819E+01 -0.11245530023E+02  0.12245307880E+02  0.17555913910E+02  0.51100000000E-03 0. -1.
        -11    1    3    3    0    0 -0.18465758051E+02 -0.87379822588E+01  0.11015663316E+02  0.23209510829E+02  0.51100000000E-03 0.  1.
         12    1    3    3    0    0 -0.65413394369E+01  0.11891576148E+01  0.71499251863E+01  0.97634342130E+01  0.00000000000E+00 0. -1.
</event>
<event>
 7    1  0.6073302E-013  0.5052886E+02  0.7816164E-02  0.1300439E+00
        -11   -1    0    0    0    0  0.00000000000E+00  0.00000000000E+00  0.45593999997E+02  0.45594000000E+02  0.51100000000E-03 0.  1.
         11   -1    0    0    0    0 -0.00000000000E+00 -0.00000000000E+00 -0.45593999997E+02  0.45594000000E+02  0.51100000000E-03 0. -1.
    9900012    2    1    2    0    0  0.14935216639E+02  0.23324509306E+02  0.29766970345E+02  0.50528856454E+02  0.29999989676E+02 0.  0.
         12    1    1    2    0    0 -0.14935216639E+02 -0.23324509306E+02 -0.29766970345E+02  0.40659143546E+02  0.00000000000E+00 0. -1.
         11    1    3    3    0    0  0.80241813008E+01  0.68676880886E+01 -0.34544786870E+01  0.11112427660E+02  0.51100000000E-03 0. -1.
        -11    1    3    3    0    0 -0.77648893576E+00  0.12203289890E+02  0.21939522246E+02  0.25117043135E+02  0.51100000000E-03 0.  1.
         12    1    3    3    0    0  0.76875242735E+01  0.42535313271E+01  0.11281926786E+02  0.14299385659E+02  0.00000000000E+00 0. -1.
</event>
<event>
 7    1  0.6073302E-013  0.5052883E+02  0.7816164E-02  0.1300439E+00
        -11   -1    0    0    0    0  0.00000000000E+00  0.00000000000E+00  0.45593999997E+02  0.45594000000E+02  0.51100000000E-03 0.  1.
         11   -1    0    0    0    0 -0.00000000000E+00 -0.00000000000E+00 -0.45593999997E+02  0.45594000000E+02  0.51100000000E-03 0. -1.
    9900012    2    1    2    0    0 -0.24979805778E+02 -0.30985840133E+02  0.83099444989E+01  0.50528829287E+02  0.29999907102E+02 0.  0.
         12    1    1    2    0    0  0.24979805778E+02  0.30985840133E+02 -0.83099444989E+01  0.40659170713E+02  0.00000000000E+00 0. -1.
         11    1    3    3    0    0 -0.77863407296E+01 -0.20934234226E+02  0.16915096713E+02  0.28017668741E+02  0.51100000000E-03 0.  1.
        -11    1    3    3    0    0 -0.16581192240E+02 -0.82275526936E+01 -0.64019105590E+01  0.19586041420E+02  0.51100000000E-03 0. -1.
        -12    1    3    3    0    0 -0.61227280882E+00 -0.18240532133E+01 -0.22032416552E+01  0.29251191272E+01  0.00000000000E+00 0.  1.
</event>
<event>
 7    1  0.6073302E-013  0.5052885E+02  0.7816164E-02  0.1300439E+00
        -11   -1    0    0    0    0  0.00000000000E+00  0.00000000000E+00  0.45593999997E+02  0.45594000000E+02  0.51100000000E-03 0.  1.
         11   -1    0    0    0    0 -0.00000000000E+00 -0.00000000000E+00 -0.45593999997E+02  0.45594000000E+02  0.51100000000E-03 0. -1.
    9900012    2    1    2    0    0 -0.79740277704E+01 -0.15323143582E+01  0.39840093282E+02  0.50528854179E+02  0.29999982763E+02 0.  0.
         12    1    1    2    0    0  0.79740277704E+01  0.15323143582E+01 -0.39840093282E+02  0.40659145821E+02  0.00000000000E+00 0. -1.
         11    1    3    3    0    0 -0.14831541133E+02  0.11931253734E+01  0.23384747383E+02  0.27717225167E+02  0.51100000000E-03 0. -1.
        -11    1    3    3    0    0  0.83596117288E+01 -0.47415192332E+00  0.27074842656E+01  0.87999090684E+01  0.51100000000E-03 0.  1.
        -12    1    3    3    0    0 -0.15020983664E+01 -0.22512878083E+01  0.13747861633E+02  0.14011719943E+02  0.00000000000E+00 0.  1.
</event>
<event>
 7    1  0.6073302E-013  0.5052884E+02  0.7816164E-02  0.1300439E+00
        -11   -1    0    0    0    0  0.00000000000E+00  0.00000000000E+00  0.45593999997E+02  0.45594000000E+02  0.51100000000E-03 0.  1.
         11   -1    0    0    0    0 -0.00000000000E+00 -0.00000000000E+00 -0.45593999997E+02  0.45594000000E+02  0.51100000000E-03 0. -1.
    9900012    2    1    2    0    0  0.92792813167E+01  0.32444844310E+01  0.39452952256E+02  0.50528841343E+02  0.29999943745E+02 0.  0.
         12    1    1    2    0    0 -0.92792813167E+01 -0.32444844310E+01 -0.39452952256E+02  0.40659158657E+02  0.00000000000E+00 0. -1.
         11    1    3    3    0    0  0.31464127430E+01  0.42342050557E+01  0.29346681992E+01  0.60366119060E+01  0.51100000000E-03 0. -1.
        -11    1    3    3    0    0 -0.39730779257E+01 -0.57004415638E+01  0.70580047993E+00  0.69841632859E+01  0.51100000000E-03 0.  1.
        -12    1    3    3    0    0  0.10105946499E+02  0.47107209390E+01  0.35812483577E+02  0.37508066151E+02  0.00000000000E+00 0.  1.
</event>
<event>
 7    1  0.6073302E-013  0.5052886E+02  0.7816164E-02  0.1300439E+00
        -11   -1    0    0    0    0  0.00000000000E+00  0.00000000000E+00  0.45593999997E+02  0.45594000000E+02  0.51100000000E-03 0. -1.
         11   -1    0    0    0    0 -0.00000000000E+00 -0.00000000000E+00 -0.45593999997E+02  0.45594000000E+02  0.51100000000E-03 0.  1.
    9900012    2    1    2    0    0  0.50461457894E+01 -0.39579443238E+02 -0.78211088970E+01  0.50528860083E+02  0.30000000709E+02 0.  0.
         12    1    1    2    0    0 -0.50461457894E+01  0.39579443238E+02  0.78211088970E+01  0.40659139917E+02  0.00000000000E+00 0. -1.
         11    1    3    3    0    0 -0.74233079999E+01 -0.39056190544E+00  0.29046949833E+01  0.79809331203E+01  0.51100000000E-03 0. -1.
        -11    1    3    3    0    0  0.89968057996E+01 -0.25521599913E+02 -0.75238683823E+01  0.28087420181E+02  0.51100000000E-03 0.  1.
         12    1    3    3    0    0  0.34726479897E+01 -0.13667281420E+02 -0.32019354980E+01  0.14460506783E+02  0.00000000000E+00 0. -1.
</event>
<event>
 7    1  0.6073302E-013  0.5052886E+02  0.7816164E-02  0.1300439E+00
        -11   -1    0    0    0    0  0.00000000000E+00  0.00000000000E+00  0.45593999997E+02  0.45594000000E+02  0.51100000000E-03 0.  1.
         11   -1    0    0    0    0 -0.00000000000E+00 -0.00000000000E+00 -0.45593999997E+02  0.45594000000E+02  0.51100000000E-03 0. -1.
    9900012    2    1    2    0    0 -0.10311007563E+02 -0.32219853560E+02  0.22555033735E+02  0.50528863423E+02  0.30000010860E+02 0.  0.
         12    1    1    2    0    0  0.10311007563E+02  0.32219853560E+02 -0.22555033735E+02  0.40659136577E+02  0.00000000000E+00 0. -1.
         11    1    3    3    0    0  0.47285493167E+01 -0.18124500197E+02  0.94303919589E+01  0.20971146340E+02  0.51100000000E-03 0. -1.
        -11    1    3    3    0    0 -0.13217342954E+02 -0.77712286469E+01  0.16189417063E+02  0.22297698862E+02  0.51100000000E-03 0.  1.
        -12    1    3    3    0    0 -0.18222139262E+01 -0.63241247158E+01 -0.30647752868E+01  0.72600182212E+01  0.00000000000E+00 0.  1.
</event>
<event>
 7    1  0.6073302E-013  0.5052897E+02  0.7816164E-02  0.1300438E+00
        -11   -1    0    0    0    0  0.00000000000E+00  0.00000000000E+00  0.45593999997E+02  0.45594000000E+02  0.51100000000E-03 0.  1.
         11   -1    0    0    0    0 -0.00000000000E+00 -0.00000000000E+00 -0.45593999997E+02  0.45594000000E+02  0.51100000000E-03 0. -1.
    9900012    2    1    2    0    0  0.17060154187E+01  0.19759153242E+02  0.35493968466E+02  0.50528973661E+02  0.30000345937E+02 0.  0.
         12    1    1    2    0    0 -0.17060154187E+01 -0.19759153242E+02 -0.35493968466E+02  0.40659026339E+02  0.00000000000E+00 0. -1.
         11    1    3    3    0    0 -0.12380481676E+02  0.14934221309E+02  0.20404474342E+02  0.28154038185E+02  0.51100000000E-03 0. -1.
        -11    1    3    3    0    0  0.76895277817E+01  0.55106249779E+01  0.58728072892E+01  0.11134886208E+02  0.51100000000E-03 0.  1.
         12    1    3    3    0    0  0.63969693131E+01 -0.68569304566E+00  0.92166868340E+01  0.11240049268E+02  0.00000000000E+00 0. -1.
</event>
<event>
 7    1  0.6073302E-013  0.5052886E+02  0.7816164E-02  0.1300439E+00
        -11   -1    0    0    0    0  0.00000000000E+00  0.00000000000E+00  0.45593999997E+02  0.45594000000E+02  0.51100000000E-03 0. -1.
         11   -1    0    0    0    0 -0.00000000000E+00 -0.00000000000E+00 -0.45593999997E+02  0.45594000000E+02  0.51100000000E-03 0.  1.
    9900012    2    1    2    0    0 -0.28473953093E+02 -0.23615342118E+02 -0.16873518203E+02  0.50528855830E+02  0.29999987780E+02 0.  0.
         12    1    1    2    0    0  0.28473953093E+02  0.23615342118E+02  0.16873518203E+02  0.40659144170E+02  0.00000000000E+00 0. -1.
         11    1    3    3    0    0 -0.22573481508E+02 -0.19172154080E+02 -0.72643572323E+01  0.30494334650E+02  0.51100000000E-03 0. -1.
        -11    1    3    3    0    0  0.33830503709E+01  0.36601900412E+01 -0.44276000889E+01  0.66667581146E+01  0.51100000000E-03 0.  1.
        -12    1    3    3    0    0 -0.92835219556E+01 -0.81033780795E+01 -0.51815608822E+01  0.13367763065E+02  0.00000000000E+00 0.  1.
</event>
<event>
 7    1  0.6073302E-013  0.5052886E+02  0.7816164E-02  0.1300439E+00
        -11   -1    0    0    0    0  0.00000000000E+00  0.00000000000E+00  0.45593999997E+02  0.45594000000E+02  0.51100000000E-03 0.  1.
         11   -1    0    0    0    0 -0.00000000000E+00 -0.00000000000E+00 -0.45593999997E+02  0.45594000000E+02  0.51100000000E-03 0. -1.
    9900012    2    1    2    0    0 -0.28208088996E+02 -0.14738007219E+02  0.25303363486E+02  0.50528863939E+02  0.30000012428E+02 0.  0.
         12    1    1    2    0    0  0.28208088996E+02  0.14738007219E+02 -0.25303363486E+02  0.40659136061E+02  0.00000000000E+00 0. -1.
         11    1    3    3    0    0 -0.90047925509E+01 -0.10944602192E+01 -0.19288423542E+01  0.92738646283E+01  0.51100000000E-03 0. -1.
        -11    1    3    3    0    0  0.26699250973E+00  0.22638647764E+01  0.11214525174E+02  0.11443860531E+02  0.51100000000E-03 0.  1.
        -12    1    3    3    0    0 -0.19470288955E+02 -0.15907411776E+02  0.16017680666E+02  0.29811138779E+02  0.00000000000E+00 0.  1.
</event>
<event>
 7    1  0.6073302E-013  0.5052886E+02  0.7816164E-02  0.1300439E+00
        -11   -1    0    0    0    0  0.00000000000E+00  0.00000000000E+00  0.45593999997E+02  0.45594000000E+02  0.51100000000E-03 0.  1.
         11   -1    0    0    0    0 -0.00000000000E+00 -0.00000000000E+00 -0.45593999997E+02  0.45594000000E+02  0.51100000000E-03 0. -1.
    9900012    2    1    2    0    0  0.13845199737E+02  0.27266001463E+02  0.26796287364E+02  0.50528863167E+02  0.30000010082E+02 0.  0.
         12    1    1    2    0    0 -0.13845199737E+02 -0.27266001463E+02 -0.26796287364E+02  0.40659136833E+02  0.00000000000E+00 0. -1.
         11    1    3    3    0    0 -0.54042181451E+01  0.16741950005E+02  0.13206561853E+02  0.21997993999E+02  0.51100000000E-03 0. -1.
        -11    1    3    3    0    0  0.10991030981E+02 -0.35649684248E-01  0.94657967308E+01  0.14505355595E+02  0.51100000000E-03 0.  1.
        -12    1    3    3    0    0  0.82583869004E+01  0.10559701142E+02  0.41239287800E+01  0.14025513573E+02  0.00000000000E+00 0.  1.
</event>
<event>
 7    1  0.6073302E-013  0.5052887E+02  0.7816164E-02  0.1300439E+00
        -11   -1    0    0    0    0  0.00000000000E+00  0.00000000000E+00  0.45593999997E+02  0.45594000000E+02  0.51100000000E-03 0.  1.
         11   -1    0    0    0    0 -0.00000000000E+00 -0.00000000000E+00 -0.45593999997E+02  0.45594000000E+02  0.51100000000E-03 0. -1.
    9900012    2    1    2    0    0  0.21321288885E+02 -0.28991234587E+02  0.18922887476E+02  0.50528871713E+02  0.30000036059E+02 0.  0.
         12    1    1    2    0    0 -0.21321288885E+02  0.28991234587E+02 -0.18922887476E+02  0.40659128287E+02  0.00000000000E+00 0. -1.
         11    1    3    3    0    0 -0.71427182672E+00 -0.94290580809E+00 -0.17820156641E+01  0.21388865546E+01  0.51100000000E-03 0. -1.
        -11    1    3    3    0    0  0.15061731366E+02 -0.23754506031E+02  0.26271161114E+02  0.38487741101E+02  0.51100000000E-03 0.  1.
        -12    1    3    3    0    0  0.69738293463E+01 -0.42938227479E+01 -0.55662579738E+01  0.99022440574E+01  0.00000000000E+00 0.  1.
</event>
<event>
 7    1  0.6073302E-013  0.5052885E+02  0.7816164E-02  0.1300439E+00
        -11   -1    0    0    0    0  0.00000000000E+00  0.00000000000E+00  0.45593999997E+02  0.45594000000E+02  0.51100000000E-03 0.  1.
         11   -1    0    0    0    0 -0.00000000000E+00 -0.00000000000E+00 -0.45593999997E+02  0.45594000000E+02  0.51100000000E-03 0. -1.
    9900012    2    1    2    0    0 -0.19026985993E+02 -0.22274655216E+02  0.28195384268E+02  0.50528853981E+02  0.29999982161E+02 0.  0.
         12    1    1    2    0    0  0.19026985993E+02  0.22274655216E+02 -0.28195384268E+02  0.40659146019E+02  0.00000000000E+00 0. -1.
         11    1    3    3    0    0  0.48418178812E+01  0.24937079844E+01  0.37470125989E+01  0.66107400178E+01  0.51100000000E-03 0. -1.
        -11    1    3    3    0    0 -0.14072215823E+02 -0.12819637164E+02  0.62295933284E+01  0.20029433054E+02  0.51100000000E-03 0.  1.
        -12    1    3    3    0    0 -0.97965880511E+01 -0.11948726037E+02  0.18218778341E+02  0.23888680909E+02  0.00000000000E+00 0.  1.
</event>
<event>
 7    1  0.6073302E-013  0.5052887E+02  0.7816164E-02  0.1300439E+00
        -11   -1    0    0    0    0  0.00000000000E+00  0.00000000000E+00  0.45593999997E+02  0.45594000000E+02  0.51100000000E-03 0. -1.
         11   -1    0    0    0    0 -0.00000000000E+00 -0.00000000000E+00 -0.45593999997E+02  0.45594000000E+02  0.51100000000E-03 0.  1.
    9900012    2    1    2    0    0 -0.32625463624E+02 -0.20672138090E+02 -0.12704604175E+02  0.50528866498E+02  0.30000020206E+02 0.  0.
         12    1    1    2    0    0  0.32625463624E+02  0.20672138090E+02  0.12704604175E+02  0.40659133502E+02  0.00000000000E+00 0. -1.
         11    1    3    3    0    0  0.11756637997E+01 -0.43416058110E+01 -0.97903210118E+01  0.10774140901E+02  0.51100000000E-03 0. -1.
        -11    1    3    3    0    0 -0.13571774767E+02 -0.10091916199E+02  0.41917318205E+01  0.17424421333E+02  0.51100000000E-03 0.  1.
         12    1    3    3    0    0 -0.20229352657E+02 -0.62386160803E+01 -0.71060149840E+01  0.22330304263E+02  0.00000000000E+00 0. -1.
</event>
<event>
 7    1  0.6073302E-013  0.5052886E+02  0.7816164E-02  0.1300439E+00
        -11   -1    0    0    0    0  0.00000000000E+00  0.00000000000E+00  0.45593999997E+02  0.45594000000E+02  0.51100000000E-03 0.  1.
         11   -1    0    0    0    0 -0.00000000000E+00 -0.00000000000E+00 -0.45593999997E+02  0.45594000000E+02  0.51100000000E-03 0. -1.
    9900012    2    1    2    0    0 -0.16267826513E+02 -0.66040250015E+01  0.36673022358E+02  0.50528857184E+02  0.29999991897E+02 0.  0.
         12    1    1    2    0    0  0.16267826513E+02  0.66040250015E+01 -0.36673022358E+02  0.40659142816E+02  0.00000000000E+00 0. -1.
         11    1    3    3    0    0 -0.26828811654E+01 -0.41958801906E+01  0.11248162950E+01  0.51057295150E+01  0.51100000000E-03 0. -1.
        -11    1    3    3    0    0 -0.17515324445E+01  0.10376344251E+02  0.16861708935E+02  0.19875955685E+02  0.51100000000E-03 0.  1.
        -12    1    3    3    0    0 -0.11833412903E+02 -0.12784489062E+02  0.18686497127E+02  0.25547171984E+02  0.00000000000E+00 0.  1.
</event>
<event>
 7    1  0.6073302E-013  0.5052886E+02  0.7816164E-02  0.1300439E+00
        -11   -1    0    0    0    0  0.00000000000E+00  0.00000000000E+00  0.45593999997E+02  0.45594000000E+02  0.51100000000E-03 0.  1.
         11   -1    0    0    0    0 -0.00000000000E+00 -0.00000000000E+00 -0.45593999997E+02  0.45594000000E+02  0.51100000000E-03 0. -1.
    9900012    2    1    2    0    0  0.14320726091E+02 -0.64593020036E+01  0.37501469911E+02  0.50528855596E+02  0.29999987071E+02 0.  0.
         12    1    1    2    0    0 -0.14320726091E+02  0.64593020036E+01 -0.37501469911E+02  0.40659144404E+02  0.00000000000E+00 0. -1.
         11    1    3    3    0    0 -0.10525431772E+01 -0.24029342788E+01 -0.10760482574E+01  0.28354577058E+01  0.51100000000E-03 0. -1.
        -11    1    3    3    0    0  0.68032177344E+01  0.96902646138E+01  0.16699943884E+02  0.20471275627E+02  0.51100000000E-03 0.  1.
        -12    1    3    3    0    0  0.85700515341E+01 -0.13746632339E+02  0.21877574285E+02  0.27222122263E+02  0.00000000000E+00 0.  1.
</event>
<event>
 7    1  0.6073302E-013  0.5052890E+02  0.7816164E-02  0.1300439E+00
        -11   -1    0    0    0    0  0.00000000000E+00  0.00000000000E+00  0.45593999997E+02  0.45594000000E+02  0.51100000000E-03 0.  1.
         11   -1    0    0    0    0 -0.00000000000E+00 -0.00000000000E+00 -0.45593999997E+02  0.45594000000E+02  0.51100000000E-03 0. -1.
    9900012    2    1    2    0    0  0.12250370048E+02 -0.36205017624E+02  0.13866777627E+02  0.50528900290E+02  0.30000122922E+02 0.  0.
         12    1    1    2    0    0 -0.12250370048E+02  0.36205017624E+02 -0.13866777627E+02  0.40659099710E+02  0.00000000000E+00 0. -1.
         11    1    3    3    0    0 -0.45660806387E+00  0.47694180603E+01  0.29841506553E+01  0.56445544512E+01  0.51100000000E-03 0. -1.
        -11    1    3    3    0    0 -0.35135279529E+00 -0.79574217069E+01  0.30212389793E+01  0.85189139120E+01  0.51100000000E-03 0.  1.
         12    1    3    3    0    0  0.13058330908E+02 -0.33017013977E+02  0.78613879920E+01  0.36365431927E+02  0.00000000000E+00 0. -1.
</event>
<event>
 7    1  0.6073302E-013  0.5052886E+02  0.7816164E-02  0.1300439E+00
        -11   -1    0    0    0    0  0.00000000000E+00  0.00000000000E+00  0.45593999997E+02  0.45594000000E+02  0.51100000000E-03 0.  1.
         11   -1    0    0    0    0 -0.00000000000E+00 -0.00000000000E+00 -0.45593999997E+02  0.45594000000E+02  0.51100000000E-03 0. -1.
    9900012    2    1    2    0    0  0.22422837951E+00 -0.89818001659E+01  0.39654034637E+02  0.50528862336E+02  0.30000007557E+02 0.  0.
         12    1    1    2    0    0 -0.22422837951E+00  0.89818001659E+01 -0.39654034637E+02  0.40659137664E+02  0.00000000000E+00 0. -1.
         11    1    3    3    0    0  0.29017942491E+01  0.15319927435E+01  0.35644212952E+01  0.48448437602E+01  0.51100000000E-03 0. -1.
        -11    1    3    3    0    0 -0.13278664936E+02 -0.48048508884E+01  0.11159166084E+02  0.17998236649E+02  0.51100000000E-03 0.  1.
        -12    1    3    3    0    0  0.10601099066E+02 -0.57089420211E+01  0.24930447258E+02  0.27685781927E+02  0.00000000000E+00 0.  1.
</event>
<event>
 7    1  0.6073302E-013  0.5052886E+02  0.7816164E-02  0.1300439E+00
        -11   -1    0    0    0    0  0.00000000000E+00  0.00000000000E+00  0.45593999997E+02  0.45594000000E+02  0.51100000000E-03 0.  1.
         11   -1    0    0    0    0 -0.00000000000E+00 -0.00000000000E+00 -0.45593999997E+02  0.45594000000E+02  0.51100000000E-03 0. -1.
    9900012    2    1    2    0    0  0.51851781054E+01  0.37107202156E+02  0.15790349485E+02  0.50528860059E+02  0.30000000636E+02 0.  0.
         12    1    1    2    0    0 -0.51851781054E+01 -0.37107202156E+02 -0.15790349485E+02  0.40659139941E+02  0.00000000000E+00 0. -1.
         11    1    3    3    0    0 -0.49293471327E+01  0.22914451342E+02  0.11061102312E+01  0.23464740006E+02  0.51100000000E-03 0. -1.
        -11    1    3    3    0    0  0.31485466147E+01  0.10761564283E+02  0.15636020171E+02  0.19240835186E+02  0.51100000000E-03 0.  1.
         12    1    3    3    0    0  0.69659786234E+01  0.34311865319E+01 -0.95178091740E+00  0.78232848672E+01  0.00000000000E+00 0. -1.
</event>
<event>
 7    1  0.6073302E-013  0.5052886E+02  0.7816164E-02  0.1300439E+00
        -11   -1    0    0    0    0  0.00000000000E+00  0.00000000000E+00  0.45593999997E+02  0.45594000000E+02  0.51100000000E-03 0.  1.
         11   -1    0    0    0    0 -0.00000000000E+00 -0.00000000000E+00 -0.45593999997E+02  0.45594000000E+02  0.51100000000E-03 0. -1.
    9900012    2    1    2    0    0  0.25076633689E+02 -0.10226586434E+02  0.30327291891E+02  0.50528864978E+02  0.30000015588E+02 0.  0.
         12    1    1    2    0    0 -0.25076633689E+02  0.10226586434E+02 -0.30327291891E+02  0.40659135022E+02  0.00000000000E+00 0. -1.
         11    1    3    3    0    0  0.11208355485E+02 -0.33529345010E+01  0.54996111079E+01  0.12927301538E+02  0.51100000000E-03 0. -1.
        -11    1    3    3    0    0  0.10644640149E+01  0.61981719611E+01  0.16187802653E+02  0.17366501498E+02  0.51100000000E-03 0.  1.
        -12    1    3    3    0    0  0.12803814188E+02 -0.13071823894E+02  0.86398781307E+01  0.20235061942E+02  0.00000000000E+00 0.  1.
</event>
<event>
 7    1  0.6073302E-013  0.5052885E+02  0.7816164E-02  0.1300439E+00
        -11   -1    0    0    0    0  0.00000000000E+00  0.00000000000E+00  0.45593999997E+02  0.45594000000E+02  0.51100000000E-03 0.  1.
         11   -1    0    0    0    0 -0.00000000000E+00 -0.00000000000E+00 -0.45593999997E+02  0.45594000000E+02  0.51100000000E-03 0. -1.
    9900012    2    1    2    0    0  0.38155008863E+02 -0.12988373012E+02  0.53538971480E+01  0.50528846670E+02  0.29999959938E+02 0.  0.
         12    1    1    2    0    0 -0.38155008863E+02  0.12988373012E+02 -0.53538971480E+01  0.40659153330E+02  0.00000000000E+00 0. -1.
         11    1    3    3    0    0  0.48063573747E+00 -0.83209156634E+01  0.88500789786E+01  0.12156995779E+02  0.51100000000E-03 0. -1.
        -11    1    3    3    0    0  0.28742216140E+02 -0.21669035358E+01 -0.39059775671E+01  0.29087232948E+02  0.51100000000E-03 0.  1.
         12    1    3    3    0    0  0.89321569859E+01 -0.25005538131E+01  0.40979573645E+00  0.92846179425E+01  0.00000000000E+00 0. -1.
</event>
<event>
 7    1  0.6073302E-013  0.5052886E+02  0.7816164E-02  0.1300439E+00
        -11   -1    0    0    0    0  0.00000000000E+00  0.00000000000E+00  0.45593999997E+02  0.45594000000E+02  0.51100000000E-03 0.  1.
         11   -1    0    0    0    0 -0.00000000000E+00 -0.00000000000E+00 -0.45593999997E+02  0.45594000000E+02  0.51100000000E-03 0. -1.
    9900012    2    1    2    0    0 -0.17423002131E+02 -0.36705761391E+02 -0.15137268736E+01  0.50528864599E+02  0.30000014435E+02 0.  0.
         12    1    1    2    0    0  0.17423002131E+02  0.36705761391E+02  0.15137268736E+01  0.40659135401E+02  0.00000000000E+00 0. -1.
         11    1    3    3    0    0 -0.78752613516E+01 -0.44860887248E+00 -0.50986854301E+01  0.93924216607E+01  0.51100000000E-03 0. -1.
        -11    1    3    3    0    0 -0.13394212494E+02 -0.33069635462E+02  0.14638473623E+01  0.35709222441E+02  0.51100000000E-03 0.  1.
         12    1    3    3    0    0  0.38464717145E+01 -0.31875170557E+01  0.21211111941E+01  0.54272204975E+01  0.00000000000E+00 0. -1.
</event>
<event>
 7    1  0.6073302E-013  0.5052885E+02  0.7816164E-02  0.1300439E+00
        -11   -1    0    0    0    0  0.00000000000E+00  0.00000000000E+00  0.45593999997E+02  0.45594000000E+02  0.51100000000E-03 0. -1.
         11   -1    0    0    0    0 -0.00000000000E+00 -0.00000000000E+00 -0.45593999997E+02  0.45594000000E+02  0.51100000000E-03 0.  1.
    9900012    2    1    2    0    0 -0.44064155341E+01 -0.36655121047E+02  0.17033847567E+02  0.50528851463E+02  0.29999974506E+02 0.  0.
         12    1    1    2    0    0  0.44064155341E+01  0.36655121047E+02 -0.17033847567E+02  0.40659148537E+02  0.00000000000E+00 0. -1.
         11    1    3    3    0    0  0.36891328419E+01 -0.15602213929E+02  0.21313569994E+02  0.26670340207E+02  0.51100000000E-03 0. -1.
        -11    1    3    3    0    0 -0.41328592335E+01 -0.99797950346E+01 -0.53407861991E+01  0.12049930782E+02  0.51100000000E-03 0.  1.
         12    1    3    3    0    0 -0.39626891425E+01 -0.11073112084E+02  0.10610637715E+01  0.11808580473E+02  0.00000000000E+00 0. -1.
</event>
<event>
 7    1  0.6073302E-013  0.5052873E+02  0.7816164E-02  0.1300439E+00
        -11   -1    0    0    0    0  0.00000000000E+00  0.00000000000E+00  0.45593999997E+02  0.45594000000E+02  0.51100000000E-03 0.  1.
         11   -1    0    0    0    0 -0.00000000000E+00 -0.00000000000E+00 -0.45593999997E+02  0.45594000000E+02  0.51100000000E-03 0. -1.
    9900012    2    1    2    0    0 -0.18740195165E+02  0.93515308700E+01  0.34850111363E+02  0.50528729145E+02  0.29999602707E+02 0.  0.
         12    1    1    2    0    0  0.18740195165E+02 -0.93515308700E+01 -0.34850111363E+02  0.40659270855E+02  0.00000000000E+00 0. -1.
         11    1    3    3    0    0 -0.94287841266E+01  0.15170264410E+02  0.20501152320E+02  0.27190736274E+02  0.51100000000E-03 0. -1.
        -11    1    3    3    0    0 -0.96272123025E+01 -0.38766659551E+01  0.16756157873E+01  0.10512822845E+02  0.51100000000E-03 0.  1.
        -12    1    3    3    0    0  0.31580126389E+00 -0.19420675852E+01  0.12673343255E+02  0.12825170026E+02  0.00000000000E+00 0.  1.
</event>
<event>
 7    1  0.6073302E-013  0.5052886E+02  0.7816164E-02  0.1300439E+00
        -11   -1    0    0    0    0  0.00000000000E+00  0.00000000000E+00  0.45593999997E+02  0.45594000000E+02  0.51100000000E-03 0.  1.
         11   -1    0    0    0    0 -0.00000000000E+00 -0.00000000000E+00 -0.45593999997E+02  0.45594000000E+02  0.51100000000E-03 0. -1.
    9900012    2    1    2    0    0 -0.95974500039E+01  0.28040667979E+02  0.27834797725E+02  0.50528855005E+02  0.29999985273E+02 0.  0.
         12    1    1    2    0    0  0.95974500039E+01 -0.28040667979E+02 -0.27834797725E+02  0.40659144995E+02  0.00000000000E+00 0. -1.
         11    1    3    3    0    0 -0.25160445874E+01  0.12279254783E+01 -0.49412547336E+01  0.56792851618E+01  0.51100000000E-03 0. -1.
        -11    1    3    3    0    0 -0.40159979322E+00  0.16778399450E+02  0.11335259049E+02  0.20252507708E+02  0.51100000000E-03 0.  1.
         12    1    3    3    0    0 -0.66798056233E+01  0.10034343052E+02  0.21440793410E+02  0.24597062135E+02  0.00000000000E+00 0. -1.
</event>
<event>
 7    1  0.6073302E-013  0.5052886E+02  0.7816164E-02  0.1300439E+00
        -11   -1    0    0    0    0  0.00000000000E+00  0.00000000000E+00  0.45593999997E+02  0.45594000000E+02  0.51100000000E-03 0. -1.
         11   -1    0    0    0    0 -0.00000000000E+00 -0.00000000000E+00 -0.45593999997E+02  0.45594000000E+02  0.51100000000E-03 0.  1.
    9900012    2    1    2    0    0  0.37974077654E+02  0.35875549329E+01 -0.14080638156E+02  0.50528862098E+02  0.30000006833E+02 0.  0.
         12    1    1    2    0    0 -0.37974077654E+02 -0.35875549329E+01  0.14080638156E+02  0.40659137902E+02  0.00000000000E+00 0. -1.
         11    1    3    3    0    0  0.10292094732E+02 -0.85827953398E+01 -0.46458817205E+01  0.14183645760E+02  0.51100000000E-03 0. -1.
        -11    1    3    3    0    0  0.30263134122E+02  0.11819419846E+02 -0.88952952539E+01  0.33685044906E+02  0.51100000000E-03 0.  1.
        -12    1    3    3    0    0 -0.25811512003E+01  0.35093042656E+00 -0.53946118178E+00  0.26601714324E+01  0.00000000000E+00 0.  1.
</event>
<event>
 7    1  0.6073302E-013  0.5052885E+02  0.7816164E-02  0.1300439E+00
        -11   -1    0    0    0    0  0.00000000000E+00  0.00000000000E+00  0.45593999997E+02  0.45594000000E+02  0.51100000000E-03 0.  1.
         11   -1    0    0    0    0 -0.00000000000E+00 -0.00000000000E+00 -0.45593999997E+02  0.45594000000E+02  0.51100000000E-03 0. -1.
    9900012    2    1    2    0    0  0.17305081854E+02  0.16262758399E+02  0.33003378631E+02  0.50528853799E+02  0.29999981608E+02 0.  0.
         12    1    1    2    0    0 -0.17305081854E+02 -0.16262758399E+02 -0.33003378631E+02  0.40659146201E+02  0.00000000000E+00 0. -1.
         11    1    3    3    0    0 -0.37657866196E+01 -0.48078914541E+00  0.10021171700E+02  0.10716164872E+02  0.51100000000E-03 0. -1.
        -11    1    3    3    0    0  0.16925359988E+02  0.20727002499E+02  0.18816373868E+02  0.32712877726E+02  0.51100000000E-03 0.  1.
        -12    1    3    3    0    0  0.41455084857E+01 -0.39834549546E+01  0.41658330639E+01  0.70998112014E+01  0.00000000000E+00 0.  1.
</event>
<event>
 7    1  0.6073302E-013  0.5052886E+02  0.7816164E-02  0.1300439E+00
        -11   -1    0    0    0    0  0.00000000000E+00  0.00000000000E+00  0.45593999997E+02  0.45594000000E+02  0.51100000000E-03 0. -1.
         11   -1    0    0    0    0 -0.00000000000E+00 -0.00000000000E+00 -0.45593999997E+02  0.45594000000E+02  0.51100000000E-03 0.  1.
    9900012    2    1    2    0    0 -0.30888283695E+02 -0.20769976151E+02 -0.16361162449E+02  0.50528860614E+02  0.30000002321E+02 0.  0.
         12    1    1    2    0    0  0.30888283695E+02  0.20769976151E+02  0.16361162449E+02  0.40659139386E+02  0.00000000000E+00 0. -1.
         11    1    3    3    0    0  0.74947972707E+00  0.59992942676E+00  0.14969638300E+01  0.17783520877E+01  0.51100000000E-03 0. -1.
        -11    1    3    3    0    0 -0.19795495868E+02 -0.25954720666E+02 -0.12188062557E+02  0.34843335814E+02  0.51100000000E-03 0.  1.
        -12    1    3    3    0    0 -0.11842267554E+02  0.45848150883E+01 -0.56700637220E+01  0.13907172712E+02  0.00000000000E+00 0.  1.
</event>
<event>
 7    1  0.6073302E-013  0.5052885E+02  0.7816164E-02  0.1300439E+00
        -11   -1    0    0    0    0  0.00000000000E+00  0.00000000000E+00  0.45593999997E+02  0.45594000000E+02  0.51100000000E-03 0.  1.
         11   -1    0    0    0    0 -0.00000000000E+00 -0.00000000000E+00 -0.45593999997E+02  0.45594000000E+02  0.51100000000E-03 0. -1.
    9900012    2    1    2    0    0  0.27363044555E+02  0.29067572783E+01  0.29932941799E+02  0.50528850354E+02  0.29999971137E+02 0.  0.
         12    1    1    2    0    0 -0.27363044555E+02 -0.29067572783E+01 -0.29932941799E+02  0.40659149646E+02  0.00000000000E+00 0. -1.
         11    1    3    3    0    0  0.72460754000E+01  0.81373062425E+01 -0.61417237568E+00  0.10913229108E+02  0.51100000000E-03 0. -1.
        -11    1    3    3    0    0  0.19117922589E+02 -0.25553401291E+01  0.31205299465E+02  0.36685084738E+02  0.51100000000E-03 0.  1.
        -12    1    3    3    0    0  0.99904656574E+00 -0.26752088351E+01 -0.65818529063E+00  0.29305365087E+01  0.00000000000E+00 0.  1.
</event>
<event>
 7    1  0.6073302E-013  0.5052886E+02  0.7816164E-02  0.1300439E+00
        -11   -1    0    0    0    0  0.00000000000E+00  0.00000000000E+00  0.45593999997E+02  0.45594000000E+02  0.51100000000E-03 0.  1.
         11   -1    0    0    0    0 -0.00000000000E+00 -0.00000000000E+00 -0.45593999997E+02  0.45594000000E+02  0.51100000000E-03 0. -1.
    9900012    2    1    2    0    0  0.13953253340E+02  0.71695448227E+01  0.37510934825E+02  0.50528857324E+02  0.29999992322E+02 0.  0.
         12    1    1    2    0    0 -0.13953253340E+02 -0.71695448227E+01 -0.37510934825E+02  0.40659142676E+02  0.00000000000E+00 0. -1.
         11    1    3    3    0    0  0.97137594104E+01 -0.75883601840E+01  0.19160457974E+02  0.22782964737E+02  0.51100000000E-03 0. -1.
        -11    1    3    3    0    0 -0.51492622821E+01  0.39735589495E+01  0.53804978929E+01  0.84411984109E+01  0.51100000000E-03 0.  1.
         12    1    3    3    0    0  0.93887562112E+01  0.10784346057E+02  0.12969978958E+02  0.19304694176E+02  0.00000000000E+00 0. -1.
</event>
<event>
 7    1  0.6073302E-013  0.5052886E+02  0.7816164E-02  0.1300439E+00
        -11   -1    0    0    0    0  0.00000000000E+00  0.00000000000E+00  0.45593999997E+02  0.45594000000E+02  0.51100000000E-03 0.  1.
         11   -1    0    0    0    0 -0.00000000000E+00 -0.00000000000E+00 -0.45593999997E+02  0.45594000000E+02  0.51100000000E-03 0. -1.
    9900012    2    1    2    0    0  0.70680203279E+01 -0.38839519288E+02 -0.97314174422E+01  0.50528860126E+02  0.30000000838E+02 0.  0.
         12    1    1    2    0    0 -0.70680203279E+01  0.38839519288E+02  0.97314174422E+01  0.40659139874E+02  0.00000000000E+00 0. -1.
         11    1    3    3    0    0  0.15659291894E+02 -0.18015790520E+02  0.31396753331E+01  0.24075707510E+02  0.51100000000E-03 0. -1.
        -11    1    3    3    0    0 -0.22347949205E+01 -0.12147537734E+02 -0.71186878654E+01  0.14255970627E+02  0.51100000000E-03 0.  1.
         12    1    3    3    0    0 -0.63564766452E+01 -0.86761910340E+01 -0.57524049098E+01  0.12197181988E+02  0.00000000000E+00 0. -1.
</event>
<event>
 7    1  0.6073302E-013  0.5052885E+02  0.7816164E-02  0.1300439E+00
        -11   -1    0    0    0    0  0.00000000000E+00  0.00000000000E+00  0.45593999997E+02  0.45594000000E+02  0.51100000000E-03 0.  1.
         11   -1    0    0    0    0 -0.00000000000E+00 -0.00000000000E+00 -0.45593999997E+02  0.45594000000E+02  0.51100000000E-03 0. -1.
    9900012    2    1    2    0    0 -0.31883897342E+02 -0.20365224649E+02  0.14894338494E+02  0.50528848461E+02  0.29999965381E+02 0.  0.
         12    1    1    2    0    0  0.31883897342E+02  0.20365224649E+02 -0.14894338494E+02  0.40659151539E+02  0.00000000000E+00 0. -1.
         11    1    3    3    0    0  0.16592573863E+01  0.37515712537E+01  0.41856594038E+01  0.58606456003E+01  0.51100000000E-03 0. -1.
        -11    1    3    3    0    0 -0.17255561544E+02 -0.16701983597E+02  0.11763524903E+02  0.26741188805E+02  0.51100000000E-03 0.  1.
         12    1    3    3    0    0 -0.16287593184E+02 -0.74148123055E+01 -0.10548458133E+01  0.17927014056E+02  0.00000000000E+00 0. -1.
</event>
<event>
 7    1  0.6073302E-013  0.5052886E+02  0.7816164E-02  0.1300439E+00
        -11   -1    0    0    0    0  0.00000000000E+00  0.00000000000E+00  0.45593999997E+02  0.45594000000E+02  0.51100000000E-03 0.  1.
         11   -1    0    0    0    0 -0.00000000000E+00 -0.00000000000E+00 -0.45593999997E+02  0.45594000000E+02  0.51100000000E-03 0. -1.
    9900012    2    1    2    0    0  0.28075729846E+02  0.29107678494E+02  0.42026084208E+01  0.50528862389E+02  0.30000007718E+02 0.  0.
         12    1    1    2    0    0 -0.28075729846E+02 -0.29107678494E+02 -0.42026084208E+01  0.40659137611E+02  0.00000000000E+00 0. -1.
         11    1    3    3    0    0  0.85816739849E+01  0.67746119500E+01 -0.11171982049E+02  0.15631816229E+02  0.51100000000E-03 0. -1.
        -11    1    3    3    0    0  0.15794302101E+02  0.10905691810E+02  0.10944777164E+02  0.22094846461E+02  0.51100000000E-03 0.  1.
        -12    1    3    3    0    0  0.36997537604E+01  0.11427374734E+02  0.44298133063E+01  0.12802199699E+02  0.00000000000E+00 0.  1.
</event>
<event>
 7    1  0.6073302E-013  0.5052886E+02  0.7816164E-02  0.1300439E+00
        -11   -1    0    0    0    0  0.00000000000E+00  0.00000000000E+00  0.45593999997E+02  0.45594000000E+02  0.51100000000E-03 0.  1.
         11   -1    0    0    0    0 -0.00000000000E+00 -0.00000000000E+00 -0.45593999997E+02  0.45594000000E+02  0.51100000000E-03 0. -1.
    9900012    2    1    2    0    0 -0.48613638647E+01 -0.23555220597E+02  0.32782375742E+02  0.50528862832E+02  0.30000009063E+02 0.  0.
         12    1    1    2    0    0  0.48613638647E+01  0.23555220597E+02 -0.32782375742E+02  0.40659137168E+02  0.00000000000E+00 0. -1.
         11    1    3    3    0    0 -0.32588288395E+01 -0.64469352512E+01  0.94113098044E+01  0.11864050406E+02  0.51100000000E-03 0. -1.
        -11    1    3    3    0    0  0.90136064967E-01 -0.17916022954E+02  0.29496285583E+01  0.18157431313E+02  0.51100000000E-03 0.  1.
        -12    1    3    3    0    0 -0.16926710902E+01  0.80773760807E+00  0.20421437379E+02  0.20507381112E+02  0.00000000000E+00 0.  1.
</event>
<event>
 7    1  0.6073302E-013  0.5052886E+02  0.7816164E-02  0.1300439E+00
        -11   -1    0    0    0    0  0.00000000000E+00  0.00000000000E+00  0.45593999997E+02  0.45594000000E+02  0.51100000000E-03 0. -1.
         11   -1    0    0    0    0 -0.00000000000E+00 -0.00000000000E+00 -0.45593999997E+02  0.45594000000E+02  0.51100000000E-03 0.  1.
    9900012    2    1    2    0    0  0.24798345483E+02  0.16283848564E+02 -0.27803674571E+02  0.50528856103E+02  0.29999988611E+02 0.  0.
         12    1    1    2    0    0 -0.24798345483E+02 -0.16283848564E+02  0.27803674571E+02  0.40659143897E+02  0.00000000000E+00 0. -1.
         11    1    3    3    0    0 -0.23792564491E+01  0.22407925615E+01 -0.77958552473E+01  0.84532462317E+01  0.51100000000E-03 0. -1.
        -11    1    3    3    0    0  0.23497781705E+02  0.74659559251E+01 -0.23233808062E+02  0.33877663441E+02  0.51100000000E-03 0.  1.
        -12    1    3    3    0    0  0.36798202272E+01  0.65771000775E+01  0.32259887379E+01  0.81979464301E+01  0.00000000000E+00 0.  1.
</event>
<event>
 7    1  0.6073302E-013  0.5052886E+02  0.7816164E-02  0.1300439E+00
        -11   -1    0    0    0    0  0.00000000000E+00  0.00000000000E+00  0.45593999997E+02  0.45594000000E+02  0.51100000000E-03 0. -1.
         11   -1    0    0    0    0 -0.00000000000E+00 -0.00000000000E+00 -0.45593999997E+02  0.45594000000E+02  0.51100000000E-03 0.  1.
    9900012    2    1    2    0    0 -0.44616959553E+01 -0.38994596632E+02  0.10615086966E+02  0.50528863652E+02  0.30000011556E+02 0.  0.
         12    1    1    2    0    0  0.44616959553E+01  0.38994596632E+02 -0.10615086966E+02  0.40659136348E+02  0.00000000000E+00 0. -1.
         11    1    3    3    0    0 -0.10724750720E+02 -0.47685315338E+01  0.70686835329E+01  0.13701294032E+02  0.51100000000E-03 0. -1.
        -11    1    3    3    0    0  0.87857078346E+01 -0.31020719594E+02  0.15293364579E+01  0.32277121566E+02  0.51100000000E-03 0.  1.
        -12    1    3    3    0    0 -0.25226530694E+01 -0.32053455038E+01  0.20170669752E+01  0.45504480538E+01  0.00000000000E+00 0.  1.
</event>
<event>
 7    1  0.6073302E-013  0.5052885E+02  0.7816164E-02  0.1300439E+00
        -11   -1    0    0    0    0  0.00000000000E+00  0.00000000000E+00  0.45593999997E+02  0.45594000000E+02  0.51100000000E-03 0. -1.
         11   -1    0    0    0    0 -0.00000000000E+00 -0.00000000000E+00 -0.45593999997E+02  0.45594000000E+02  0.51100000000E-03 0.  1.
    9900012    2    1    2    0    0  0.41927194360E+01  0.14420498554E+02 -0.37784077367E+02  0.50528853706E+02  0.29999981326E+02 0.  0.
         12    1    1    2    0    0 -0.41927194360E+01 -0.14420498554E+02  0.37784077367E+02  0.40659146294E+02  0.00000000000E+00 0. -1.
         11    1    3    3    0    0 -0.41306962996E+01 -0.13700294945E+01  0.24769395532E+01  0.50074806587E+01  0.51100000000E-03 0. -1.
        -11    1    3    3    0    0  0.91593699610E+01  0.76892150185E+01 -0.16317646486E+02  0.20230760558E+02  0.51100000000E-03 0.  1.
         12    1    3    3    0    0 -0.83595422531E+00  0.81013130304E+01 -0.23943370435E+02  0.25290612489E+02  0.00000000000E+00 0. -1.
</event>
<event>
 7    1  0.6073302E-013  0.5052886E+02  0.7816164E-02  0.1300439E+00
        -11   -1    0    0    0    0  0.00000000000E+00  0.00000000000E+00  0.45593999997E+02  0.45594000000E+02  0.51100000000E-03 0. -1.
         11   -1    0    0    0    0 -0.00000000000E+00 -0.00000000000E+00 -0.45593999997E+02  0.45594000000E+02  0.51100000000E-03 0.  1.
    9900012    2    1    2    0    0 -0.31648114211E+01 -0.29367805282E+02 -0.27940686958E+02  0.50528855812E+02  0.29999987726E+02 0.  0.
         12    1    1    2    0    0  0.31648114211E+01  0.29367805282E+02  0.27940686958E+02  0.40659144188E+02  0.00000000000E+00 0. -1.
         11    1    3    3    0    0 -0.15578684131E+01  0.23896696267E+00  0.14161713873E+01  0.21188678253E+01  0.51100000000E-03 0. -1.
        -11    1    3    3    0    0  0.90773379662E+01 -0.23170635169E+02 -0.13750322131E+02  0.28431457185E+02  0.51100000000E-03 0.  1.
        -12    1    3    3    0    0 -0.10684280974E+02 -0.64361370760E+01 -0.15606536214E+02  0.19978530802E+02  0.00000000000E+00 0.  1.
</event>
<event>
 7    1  0.6073302E-013  0.5052886E+02  0.7816164E-02  0.1300439E+00
        -11   -1    0    0    0    0  0.00000000000E+00  0.00000000000E+00  0.45593999997E+02  0.45594000000E+02  0.51100000000E-03 0.  1.
         11   -1    0    0    0    0 -0.00000000000E+00 -0.00000000000E+00 -0.45593999997E+02  0.45594000000E+02  0.51100000000E-03 0. -1.
    9900012    2    1    2    0    0  0.45570360008E+01 -0.22985982920E+02  0.33227149378E+02  0.50528862728E+02  0.30000008748E+02 0.  0.
         12    1    1    2    0    0 -0.45570360008E+01  0.22985982920E+02 -0.33227149378E+02  0.40659137272E+02  0.00000000000E+00 0. -1.
         11    1    3    3    0    0  0.67867689094E+01 -0.38515072944E+01  0.40306872664E+01  0.87829824530E+01  0.51100000000E-03 0. -1.
        -11    1    3    3    0    0 -0.11976257851E+02 -0.57629245249E+01  0.13094349762E+02  0.18657546653E+02  0.51100000000E-03 0.  1.
         12    1    3    3    0    0  0.97465249419E+01 -0.13371551100E+02  0.16102112350E+02  0.23088333622E+02  0.00000000000E+00 0. -1.
</event>
<event>
 7    1  0.6073302E-013  0.5052886E+02  0.7816164E-02  0.1300439E+00
        -11   -1    0    0    0    0  0.00000000000E+00  0.00000000000E+00  0.45593999997E+02  0.45594000000E+02  0.51100000000E-03 0.  1.
         11   -1    0    0    0    0 -0.00000000000E+00 -0.00000000000E+00 -0.45593999997E+02  0.45594000000E+02  0.51100000000E-03 0. -1.
    9900012    2    1    2    0    0 -0.39542827541E+02 -0.86229170939E+01  0.38956492368E+01  0.50528855984E+02  0.29999988249E+02 0.  0.
         12    1    1    2    0    0  0.39542827541E+02  0.86229170939E+01 -0.38956492368E+01  0.40659144016E+02  0.00000000000E+00 0. -1.
         11    1    3    3    0    0 -0.67532160714E+01  0.49316598398E+01  0.78968530784E+01  0.11501629662E+02  0.51100000000E-03 0. -1.
        -11    1    3    3    0    0 -0.22838738958E+02 -0.16742824300E+02 -0.20063370558E+01  0.28389356304E+02  0.51100000000E-03 0.  1.
         12    1    3    3    0    0 -0.99508725119E+01  0.31882473664E+01 -0.19948667857E+01  0.10637870018E+02  0.00000000000E+00 0. -1.
</event>
<event>
 7    1  0.6073302E-013  0.5052883E+02  0.7816164E-02  0.1300439E+00
        -11   -1    0    0    0    0  0.00000000000E+00  0.00000000000E+00  0.45593999997E+02  0.45594000000E+02  0.51100000000E-03 0.  1.
         11   -1    0    0    0    0 -0.00000000000E+00 -0.00000000000E+00 -0.45593999997E+02  0.45594000000E+02  0.51100000000E-03 0. -1.
    9900012    2    1    2    0    0  0.36641417569E+01 -0.36002086042E+02  0.18536240077E+02  0.50528827229E+02  0.29999900846E+02 0.  0.
         12    1    1    2    0    0 -0.36641417569E+01  0.36002086042E+02 -0.18536240077E+02  0.40659172771E+02  0.00000000000E+00 0. -1.
         11    1    3    3    0    0  0.24308978152E+01  0.46751995285E+00 -0.11628945015E+01  0.27349886612E+01  0.51100000000E-03 0. -1.
        -11    1    3    3    0    0  0.65200050728E+01 -0.26609351514E+02  0.23379165804E+02  0.36016016550E+02  0.51100000000E-03 0.  1.
        -12    1    3    3    0    0 -0.52867611311E+01 -0.98602544805E+01 -0.36800312252E+01  0.11777822018E+02  0.00000000000E+00 0.  1.
</event>
<event>
 7    1  0.6073302E-013  0.5052886E+02  0.7816164E-02  0.1300439E+00
        -11   -1    0    0    0    0  0.00000000000E+00  0.00000000000E+00  0.45593999997E+02  0.45594000000E+02  0.51100000000E-03 0.  1.
         11   -1    0    0    0    0 -0.00000000000E+00 -0.00000000000E+00 -0.45593999997E+02  0.45594000000E+02  0.51100000000E-03 0. -1.
    9900012    2    1    2    0    0  0.26945206808E+02 -0.19686148493E+02  0.23228795586E+02  0.50528861338E+02  0.30000004522E+02 0.  0.
         12    1    1    2    0    0 -0.26945206808E+02  0.19686148493E+02 -0.23228795586E+02  0.40659138662E+02  0.00000000000E+00 0. -1.
         11    1    3    3    0    0  0.88641686453E+01 -0.92765523810E+01 -0.51515652321E+01  0.13826298653E+02  0.51100000000E-03 0. -1.
        -11    1    3    3    0    0 -0.96376410785E+00 -0.19339344597E+01  0.45792044991E+01  0.50634037816E+01  0.51100000000E-03 0.  1.
         12    1    3    3    0    0  0.19044802271E+02 -0.84756616522E+01  0.23801156319E+02  0.31639158903E+02  0.00000000000E+00 0. -1.
</event>
<event>
 7    1  0.6073302E-013  0.5052884E+02  0.7816164E-02  0.1300439E+00
        -11   -1    0    0    0    0  0.00000000000E+00  0.00000000000E+00  0.45593999997E+02  0.45594000000E+02  0.51100000000E-03 0. -1.
         11   -1    0    0    0    0 -0.00000000000E+00 -0.00000000000E+00 -0.45593999997E+02  0.45594000000E+02  0.51100000000E-03 0.  1.
    9900012    2    1    2    0    0  0.25428210811E+02  0.60618296176E+01 -0.31142054820E+02  0.50528840371E+02  0.29999940792E+02 0.  0.
         12    1    1    2    0    0 -0.25428210811E+02 -0.60618296176E+01  0.31142054820E+02  0.40659159629E+02  0.00000000000E+00 0. -1.
         11    1    3    3    0    0  0.56256054317E+01  0.10387488545E+02 -0.23517615093E+02  0.26317780580E+02  0.51100000000E-03 0. -1.
        -11    1    3    3    0    0  0.15713521565E+02  0.11944682821E+01 -0.33216769739E+01  0.16105125042E+02  0.51100000000E-03 0.  1.
        -12    1    3    3    0    0  0.40890838141E+01 -0.55201272091E+01 -0.43027627527E+01  0.81059347487E+01  0.00000000000E+00 0.  1.
</event>
<event>
 7    1  0.6073302E-013  0.5052887E+02  0.7816164E-02  0.1300439E+00
        -11   -1    0    0    0    0  0.00000000000E+00  0.00000000000E+00  0.45593999997E+02  0.45594000000E+02  0.51100000000E-03 0.  1.
         11   -1    0    0    0    0 -0.00000000000E+00 -0.00000000000E+00 -0.45593999997E+02  0.45594000000E+02  0.51100000000E-03 0. -1.
    9900012    2    1    2    0    0  0.23767713234E+01  0.18526401686E+02  0.36114934530E+02  0.50528866986E+02  0.30000021690E+02 0.  0.
         12    1    1    2    0    0 -0.23767713234E+01 -0.18526401686E+02 -0.36114934530E+02  0.40659133014E+02  0.00000000000E+00 0. -1.
         11    1    3    3    0    0  0.25023417860E+01  0.17698258150E+02  0.24836680193E+02  0.30599848680E+02  0.51100000000E-03 0. -1.
        -11    1    3    3    0    0 -0.82449365900E+01  0.10207155222E+01  0.58202677384E+01  0.10143784124E+02  0.51100000000E-03 0.  1.
         12    1    3    3    0    0  0.81193661274E+01 -0.19257198643E+00  0.54579865985E+01  0.97852341816E+01  0.00000000000E+00 0. -1.
</event>
<event>
 7    1  0.6073302E-013  0.5052886E+02  0.7816164E-02  0.1300439E+00
        -11   -1    0    0    0    0  0.00000000000E+00  0.00000000000E+00  0.45593999997E+02  0.45594000000E+02  0.51100000000E-03 0.  1.
         11   -1    0    0    0    0 -0.00000000000E+00 -0.00000000000E+00 -0.45593999997E+02  0.45594000000E+02  0.51100000000E-03 0. -1.
    9900012    2    1    2    0    0  0.15916870061E+02 -0.17164270208E+01  0.37374761854E+02  0.50528859602E+02  0.29999999247E+02 0.  0.
         12    1    1    2    0    0 -0.15916870061E+02  0.17164270208E+01 -0.37374761854E+02  0.40659140398E+02  0.00000000000E+00 0. -1.
         11    1    3    3    0    0 -0.55418478372E+00 -0.50420868093E+00 -0.46124187913E+01  0.46728743334E+01  0.51100000000E-03 0. -1.
        -11    1    3    3    0    0  0.99886910680E+01 -0.35718598101E+01  0.17968016760E+02  0.20865803563E+02  0.51100000000E-03 0.  1.
         12    1    3    3    0    0  0.64823637770E+01  0.23596414703E+01  0.24019163885E+02  0.24990181706E+02  0.00000000000E+00 0. -1.
</event>
<event>
 7    1  0.6073302E-013  0.5052887E+02  0.7816164E-02  0.1300439E+00
        -11   -1    0    0    0    0  0.00000000000E+00  0.00000000000E+00  0.45593999997E+02  0.45594000000E+02  0.51100000000E-03 0.  1.
         11   -1    0    0    0    0 -0.00000000000E+00 -0.00000000000E+00 -0.45593999997E+02  0.45594000000E+02  0.51100000000E-03 0. -1.
    9900012    2    1    2    0    0 -0.24248432533E+02  0.42873996277E+01  0.32354239552E+02  0.50528867043E+02  0.30000021863E+02 0.  0.
         12    1    1    2    0    0  0.24248432533E+02 -0.42873996277E+01 -0.32354239552E+02  0.40659132957E+02  0.00000000000E+00 0. -1.
         11    1    3    3    0    0 -0.43173527879E+01 -0.10624720401E+02  0.16907360317E+02  0.20429954768E+02  0.51100000000E-03 0. -1.
        -11    1    3    3    0    0 -0.95557516104E+01  0.31050517026E+01  0.49729396850E+01  0.11210881512E+02  0.51100000000E-03 0.  1.
         12    1    3    3    0    0 -0.10375328134E+02  0.11807068326E+02  0.10473939551E+02  0.18888030762E+02  0.00000000000E+00 0. -1.
</event>
<event>
 7    1  0.6073302E-013  0.5052886E+02  0.7816164E-02  0.1300439E+00
        -11   -1    0    0    0    0  0.00000000000E+00  0.00000000000E+00  0.45593999997E+02  0.45594000000E+02  0.51100000000E-03 0.  1.
         11   -1    0    0    0    0 -0.00000000000E+00 -0.00000000000E+00 -0.45593999997E+02  0.45594000000E+02  0.51100000000E-03 0. -1.
    9900012    2    1    2    0    0 -0.23197391048E+02 -0.33323820559E+02  0.21376369629E+01  0.50528862529E+02  0.30000008144E+02 0.  0.
         12    1    1    2    0    0  0.23197391048E+02  0.33323820559E+02 -0.21376369629E+01  0.40659137471E+02  0.00000000000E+00 0. -1.
         11    1    3    3    0    0  0.34774076362E+01 -0.41895632752E+01 -0.50880887387E+01  0.74520769976E+01  0.51100000000E-03 0. -1.
        -11    1    3    3    0    0 -0.18634661232E+02 -0.28295082720E+02  0.84057762932E+01  0.34907296955E+02  0.51100000000E-03 0.  1.
         12    1    3    3    0    0 -0.80401374523E+01 -0.83917456380E+00 -0.11800505917E+01  0.81694885764E+01  0.00000000000E+00 0. -1.
</event>
<event>
 7    1  0.6073302E-013  0.5052886E+02  0.7816164E-02  0.1300439E+00
        -11   -1    0    0    0    0  0.00000000000E+00  0.00000000000E+00  0.45593999997E+02  0.45594000000E+02  0.51100000000E-03 0.  1.
         11   -1    0    0    0    0 -0.00000000000E+00 -0.00000000000E+00 -0.45593999997E+02  0.45594000000E+02  0.51100000000E-03 0. -1.
    9900012    2    1    2    0    0 -0.12926262025E+02  0.37742000283E+02 -0.78497890667E+01  0.50528855596E+02  0.29999987069E+02 0.  0.
         12    1    1    2    0    0  0.12926262025E+02 -0.37742000283E+02  0.78497890667E+01  0.40659144404E+02  0.00000000000E+00 0. -1.
         11    1    3    3    0    0 -0.72863330867E+01  0.11605060798E+02 -0.14443633428E+02  0.19909460887E+02  0.51100000000E-03 0. -1.
        -11    1    3    3    0    0 -0.72658376754E+01  0.21959883128E+02  0.97869588783E+01  0.25115999452E+02  0.51100000000E-03 0.  1.
        -12    1    3    3    0    0  0.16259087369E+01  0.41770563574E+01 -0.31931145172E+01  0.55033952568E+01  0.00000000000E+00 0.  1.
</event>
<event>
 7    1  0.6073302E-013  0.5052890E+02  0.7816164E-02  0.1300439E+00
        -11   -1    0    0    0    0  0.00000000000E+00  0.00000000000E+00  0.45593999997E+02  0.45594000000E+02  0.51100000000E-03 0. -1.
         11   -1    0    0    0    0 -0.00000000000E+00 -0.00000000000E+00 -0.45593999997E+02  0.45594000000E+02  0.51100000000E-03 0.  1.
    9900012    2    1    2    0    0  0.21501389723E+02  0.28330166528E+02  0.19704174504E+02  0.50528897840E+02  0.30000115475E+02 0.  0.
         12    1    1    2    0    0 -0.21501389723E+02 -0.28330166528E+02 -0.19704174504E+02  0.40659102160E+02  0.00000000000E+00 0. -1.
         11    1    3    3    0    0 -0.48120295981E+01 -0.51688002905E+00  0.72506899653E+01  0.87175282650E+01  0.51100000000E-03 0. -1.
        -11    1    3    3    0    0  0.19835032134E+02  0.18770807674E+02  0.11985136665E+02  0.29823065262E+02  0.51100000000E-03 0.  1.
         12    1    3    3    0    0  0.64783871871E+01  0.10076238883E+02  0.46834787428E+00  0.11988304313E+02  0.00000000000E+00 0. -1.
</event>
<event>
 7    1  0.6073302E-013  0.5052886E+02  0.7816164E-02  0.1300439E+00
        -11   -1    0    0    0    0  0.00000000000E+00  0.00000000000E+00  0.45593999997E+02  0.45594000000E+02  0.51100000000E-03 0.  1.
         11   -1    0    0    0    0 -0.00000000000E+00 -0.00000000000E+00 -0.45593999997E+02  0.45594000000E+02  0.51100000000E-03 0. -1.
    9900012    2    1    2    0    0 -0.53450701053E+01  0.15957603108E+02  0.37012840856E+02  0.50528864992E+02  0.30000015630E+02 0.  0.
         12    1    1    2    0    0  0.53450701053E+01 -0.15957603108E+02 -0.37012840856E+02  0.40659135008E+02  0.00000000000E+00 0. -1.
         11    1    3    3    0    0  0.29209392676E+01 -0.19268880473E+01 -0.16587057780E+01  0.38724783887E+01  0.51100000000E-03 0. -1.
        -11    1    3    3    0    0 -0.30124645408E+01  0.19320617478E+02  0.23702531975E+02  0.30727369309E+02  0.51100000000E-03 0.  1.
        -12    1    3    3    0    0 -0.52535448321E+01 -0.14361263234E+01  0.14969014658E+02  0.15929017294E+02  0.00000000000E+00 0.  1.
</event>
<event>
 7    1  0.6073302E-013  0.5052886E+02  0.7816164E-02  0.1300439E+00
        -11   -1    0    0    0    0  0.00000000000E+00  0.00000000000E+00  0.45593999997E+02  0.45594000000E+02  0.51100000000E-03 0.  1.
         11   -1    0    0    0    0 -0.00000000000E+00 -0.00000000000E+00 -0.45593999997E+02  0.45594000000E+02  0.51100000000E-03 0. -1.
    9900012    2    1    2    0    0  0.18558807040E+02  0.16863463530E+02  0.32005618089E+02  0.50528864369E+02  0.30000013736E+02 0.  0.
         12    1    1    2    0    0 -0.18558807040E+02 -0.16863463530E+02 -0.32005618089E+02  0.40659135631E+02  0.00000000000E+00 0. -1.
         11    1    3    3    0    0  0.11596823105E+02  0.18056050245E+02  0.22728307084E+02  0.31258330086E+02  0.51100000000E-03 0. -1.
        -11    1    3    3    0    0 -0.19699171287E+01 -0.51825982580E+01  0.75015453403E+01  0.93280802393E+01  0.51100000000E-03 0.  1.
        -12    1    3    3    0    0  0.89319010634E+01  0.39900115436E+01  0.17757656646E+01  0.99424540442E+01  0.00000000000E+00 0.  1.
</event>
<event>
 7    1  0.6073302E-013  0.5052886E+02  0.7816164E-02  0.1300439E+00
        -11   -1    0    0    0    0  0.00000000000E+00  0.00000000000E+00  0.45593999997E+02  0.45594000000E+02  0.51100000000E-03 0. -1.
         11   -1    0    0    0    0 -0.00000000000E+00 -0.00000000000E+00 -0.45593999997E+02  0.45594000000E+02  0.51100000000E-03 0.  1.
    9900012    2    1    2    0    0 -0.27919070178E+02  0.17124514862E+02 -0.24092368138E+02  0.50528859683E+02  0.29999999492E+02 0.  0.
         12    1    1    2    0    0  0.27919070178E+02 -0.17124514862E+02  0.24092368138E+02  0.40659140317E+02  0.00000000000E+00 0. -1.
         11    1    3    3    0    0  0.28460480927E+01 -0.50648397136E+01 -0.67637140448E+00  0.58489374768E+01  0.51100000000E-03 0. -1.
        -11    1    3    3    0    0 -0.22669538825E+02  0.17760862390E+02 -0.17014602308E+02  0.33449258816E+02  0.51100000000E-03 0.  1.
        -12    1    3    3    0    0 -0.80955794461E+01  0.44284921853E+01 -0.64013944253E+01  0.11230663391E+02  0.00000000000E+00 0.  1.
</event>
<event>
 7    1  0.6073302E-013  0.5052877E+02  0.7816164E-02  0.1300439E+00
        -11   -1    0    0    0    0  0.00000000000E+00  0.00000000000E+00  0.45593999997E+02  0.45594000000E+02  0.51100000000E-03 0.  1.
         11   -1    0    0    0    0 -0.00000000000E+00 -0.00000000000E+00 -0.45593999997E+02  0.45594000000E+02  0.51100000000E-03 0. -1.
    9900012    2    1    2    0    0  0.36177462945E+02 -0.35895053145E+01  0.18206576795E+02  0.50528772115E+02  0.29999733321E+02 0.  0.
         12    1    1    2    0    0 -0.36177462945E+02  0.35895053145E+01 -0.18206576795E+02  0.40659227885E+02  0.00000000000E+00 0. -1.
         11    1    3    3    0    0  0.15193290849E+02  0.79826578408E+01  0.32297538111E+01  0.17463969279E+02  0.51100000000E-03 0.  1.
        -11    1    3    3    0    0  0.69807419131E+01 -0.13380241747E+02  0.99517868781E+01  0.18077601865E+02  0.51100000000E-03 0. -1.
         12    1    3    3    0    0  0.14003430183E+02  0.18080785917E+01  0.50250361060E+01  0.14987200971E+02  0.00000000000E+00 0. -1.
</event>
<event>
 7    1  0.6073302E-013  0.5052887E+02  0.7816164E-02  0.1300439E+00
        -11   -1    0    0    0    0  0.00000000000E+00  0.00000000000E+00  0.45593999997E+02  0.45594000000E+02  0.51100000000E-03 0.  1.
         11   -1    0    0    0    0 -0.00000000000E+00 -0.00000000000E+00 -0.45593999997E+02  0.45594000000E+02  0.51100000000E-03 0. -1.
    9900012    2    1    2    0    0  0.11405927894E+02  0.27989670762E+02  0.27196465900E+02  0.50528872883E+02  0.30000039616E+02 0.  0.
         12    1    1    2    0    0 -0.11405927894E+02 -0.27989670762E+02 -0.27196465900E+02  0.40659127117E+02  0.00000000000E+00 0. -1.
         11    1    3    3    0    0  0.15051437581E+02  0.11244395721E+02  0.59371344138E+01  0.19703597989E+02  0.51100000000E-03 0. -1.
        -11    1    3    3    0    0 -0.52693662558E+01  0.12157841408E+02  0.55263491503E+01  0.14356875135E+02  0.51100000000E-03 0.  1.
         12    1    3    3    0    0  0.16238565682E+01  0.45874336323E+01  0.15732982336E+02  0.16468399760E+02  0.00000000000E+00 0. -1.
</event>
<event>
 7    1  0.6073302E-013  0.5052886E+02  0.7816164E-02  0.1300439E+00
        -11   -1    0    0    0    0  0.00000000000E+00  0.00000000000E+00  0.45593999997E+02  0.45594000000E+02  0.51100000000E-03 0.  1.
         11   -1    0    0    0    0 -0.00000000000E+00 -0.00000000000E+00 -0.45593999997E+02  0.45594000000E+02  0.51100000000E-03 0. -1.
    9900012    2    1    2    0    0  0.20480964255E+01 -0.40093540665E+02  0.64404087177E+01  0.50528861218E+02  0.30000004158E+02 0.  0.
         12    1    1    2    0    0 -0.20480964255E+01  0.40093540665E+02 -0.64404087177E+01  0.40659138782E+02  0.00000000000E+00 0. -1.
         11    1    3    3    0    0  0.11762974070E+01 -0.36179046750E+01  0.41159328731E+01  0.56048027177E+01  0.51100000000E-03 0. -1.
        -11    1    3    3    0    0 -0.81557721444E+01 -0.18616485286E+02 -0.86642036242E+01  0.22094310769E+02  0.51100000000E-03 0.  1.
        -12    1    3    3    0    0  0.90275711628E+01 -0.17859150705E+02  0.10988679469E+02  0.22829747731E+02  0.00000000000E+00 0.  1.
</event>
<event>
 7    1  0.6073302E-013  0.5052888E+02  0.7816164E-02  0.1300439E+00
        -11   -1    0    0    0    0  0.00000000000E+00  0.00000000000E+00  0.45593999997E+02  0.45594000000E+02  0.51100000000E-03 0.  1.
         11   -1    0    0    0    0 -0.00000000000E+00 -0.00000000000E+00 -0.45593999997E+02  0.45594000000E+02  0.51100000000E-03 0. -1.
    9900012    2    1    2    0    0  0.32172694325E+02 -0.61333246984E+01  0.24092829384E+02  0.50528876059E+02  0.30000049268E+02 0.  0.
         12    1    1    2    0    0 -0.32172694325E+02  0.61333246984E+01 -0.24092829384E+02  0.40659123941E+02  0.00000000000E+00 0. -1.
         11    1    3    3    0    0 -0.82444377293E+00 -0.56021320749E+00 -0.33940097331E+01  0.35373505201E+01  0.51100000000E-03 0. -1.
        -11    1    3    3    0    0  0.20430116232E+02  0.83887903721E+00  0.25590793602E+02  0.32756405247E+02  0.51100000000E-03 0.  1.
        -12    1    3    3    0    0  0.12567021866E+02 -0.64119905281E+01  0.18960455149E+01  0.14235120291E+02  0.00000000000E+00 0.  1.
</event>
<event>
 7    1  0.6073302E-013  0.5052886E+02  0.7816164E-02  0.1300439E+00
        -11   -1    0    0    0    0  0.00000000000E+00  0.00000000000E+00  0.45593999997E+02  0.45594000000E+02  0.51100000000E-03 0.  1.
         11   -1    0    0    0    0 -0.00000000000E+00 -0.00000000000E+00 -0.45593999997E+02  0.45594000000E+02  0.51100000000E-03 0. -1.
    9900012    2    1    2    0    0  0.37645190552E+02  0.14905200195E+02  0.37202876796E+01  0.50528857056E+02  0.29999991506E+02 0.  0.
         12    1    1    2    0    0 -0.37645190552E+02 -0.14905200195E+02 -0.37202876796E+01  0.40659142944E+02  0.00000000000E+00 0. -1.
         11    1    3    3    0    0  0.49247637156E+01 -0.53427021905E+01 -0.29219881549E+01  0.78317162481E+01  0.51100000000E-03 0. -1.
        -11    1    3    3    0    0  0.85991934050E+01  0.12410361159E+02  0.83925980662E+01  0.17274226288E+02  0.51100000000E-03 0.  1.
        -12    1    3    3    0    0  0.24121233431E+02  0.78375412271E+01 -0.17503222316E+01  0.25422914519E+02  0.00000000000E+00 0.  1.
</event>
<event>
 7    1  0.6073302E-013  0.5052886E+02  0.7816164E-02  0.1300439E+00
        -11   -1    0    0    0    0  0.00000000000E+00  0.00000000000E+00  0.45593999997E+02  0.45594000000E+02  0.51100000000E-03 0.  1.
         11   -1    0    0    0    0 -0.00000000000E+00 -0.00000000000E+00 -0.45593999997E+02  0.45594000000E+02  0.51100000000E-03 0. -1.
    9900012    2    1    2    0    0  0.22050443565E+02  0.22352652647E+02 -0.25832201338E+02  0.50528858743E+02  0.29999996636E+02 0.  0.
         12    1    1    2    0    0 -0.22050443565E+02 -0.22352652647E+02  0.25832201338E+02  0.40659141257E+02  0.00000000000E+00 0. -1.
         11    1    3    3    0    0 -0.17264241801E+01  0.51464437463E+00 -0.48544672279E+01  0.51779582472E+01  0.51100000000E-03 0. -1.
        -11    1    3    3    0    0  0.24806922005E+02  0.14089899274E+02 -0.23684555546E+02  0.37079196493E+02  0.51100000000E-03 0.  1.
        -12    1    3    3    0    0 -0.10300542591E+01  0.77481089980E+01  0.27068214360E+01  0.82717040027E+01  0.00000000000E+00 0.  1.
</event>
<event>
 7    1  0.6073302E-013  0.5052886E+02  0.7816164E-02  0.1300439E+00
        -11   -1    0    0    0    0  0.00000000000E+00  0.00000000000E+00  0.45593999997E+02  0.45594000000E+02  0.51100000000E-03 0.  1.
         11   -1    0    0    0    0 -0.00000000000E+00 -0.00000000000E+00 -0.45593999997E+02  0.45594000000E+02  0.51100000000E-03 0. -1.
    9900012    2    1    2    0    0 -0.12136550099E+02 -0.89155884819E+01  0.37767472969E+02  0.50528861043E+02  0.30000003626E+02 0.  0.
         12    1    1    2    0    0  0.12136550099E+02  0.89155884819E+01 -0.37767472969E+02  0.40659138957E+02  0.00000000000E+00 0. -1.
         11    1    3    3    0    0 -0.10672928383E+02  0.38851432725E+01  0.62632718185E+01  0.12970517054E+02  0.51100000000E-03 0. -1.
        -11    1    3    3    0    0 -0.43146819758E+01 -0.13940294031E+02  0.31235616648E+02  0.34476253072E+02  0.51100000000E-03 0.  1.
        -12    1    3    3    0    0  0.28510602594E+01  0.11395622764E+01  0.26858450188E+00  0.30820909168E+01  0.00000000000E+00 0.  1.
</event>
<event>
 7    1  0.6073302E-013  0.5052887E+02  0.7816164E-02  0.1300439E+00
        -11   -1    0    0    0    0  0.00000000000E+00  0.00000000000E+00  0.45593999997E+02  0.45594000000E+02  0.51100000000E-03 0.  1.
         11   -1    0    0    0    0 -0.00000000000E+00 -0.00000000000E+00 -0.45593999997E+02  0.45594000000E+02  0.51100000000E-03 0. -1.
    9900012    2    1    2    0    0 -0.11887746871E+02 -0.16564638655E+02  0.35177542196E+02  0.50528865056E+02  0.30000015825E+02 0.  0.
         12    1    1    2    0    0  0.11887746871E+02  0.16564638655E+02 -0.35177542196E+02  0.40659134944E+02  0.00000000000E+00 0. -1.
         11    1    3    3    0    0 -0.95561218022E+01 -0.18397654311E+01  0.46598604641E+01  0.10789740523E+02  0.51100000000E-03 0. -1.
        -11    1    3    3    0    0  0.33434182185E+01 -0.13932305378E+02  0.30833937335E+02  0.34000283387E+02  0.51100000000E-03 0.  1.
        -12    1    3    3    0    0 -0.56750432869E+01 -0.79256784620E+00 -0.31625560392E+00  0.57388411466E+01  0.00000000000E+00 0.  1.
</event>
<event>
 7    1  0.6073302E-013  0.5052885E+02  0.7816164E-02  0.1300439E+00
        -11   -1    0    0    0    0  0.00000000000E+00  0.00000000000E+00  0.45593999997E+02  0.45594000000E+02  0.51100000000E-03 0.  1.
         11   -1    0    0    0    0 -0.00000000000E+00 -0.00000000000E+00 -0.45593999997E+02  0.45594000000E+02  0.51100000000E-03 0. -1.
    9900012    2    1    2    0    0 -0.15600323867E+02 -0.30980501479E+02  0.21213316924E+02  0.50528851072E+02  0.29999973319E+02 0.  0.
         12    1    1    2    0    0  0.15600323867E+02  0.30980501479E+02 -0.21213316924E+02  0.40659148928E+02  0.00000000000E+00 0. -1.
         11    1    3    3    0    0 -0.45548817980E+01 -0.34229376845E+01  0.15922935780E+02  0.16911633118E+02  0.51100000000E-03 0. -1.
        -11    1    3    3    0    0 -0.10218328643E+02 -0.72495361399E+01 -0.31788049704E+00  0.12532799479E+02  0.51100000000E-03 0.  1.
        -12    1    3    3    0    0 -0.82711342560E+00 -0.20308027654E+02  0.56082616404E+01  0.21084418476E+02  0.00000000000E+00 0.  1.
</event>
<event>
 7    1  0.6073302E-013  0.5052886E+02  0.7816164E-02  0.1300439E+00
        -11   -1    0    0    0    0  0.00000000000E+00  0.00000000000E+00  0.45593999997E+02  0.45594000000E+02  0.51100000000E-03 0. -1.
         11   -1    0    0    0    0 -0.00000000000E+00 -0.00000000000E+00 -0.45593999997E+02  0.45594000000E+02  0.51100000000E-03 0.  1.
    9900012    2    1    2    0    0 -0.62370297944E+01  0.24406279857E+02 -0.31915493675E+02  0.50528858671E+02  0.29999996417E+02 0.  0.
         12    1    1    2    0    0  0.62370297944E+01 -0.24406279857E+02  0.31915493675E+02  0.40659141329E+02  0.00000000000E+00 0. -1.
         11    1    3    3    0    0 -0.11783220676E+02  0.15717857560E+02 -0.25231016806E+02  0.31976546797E+02  0.51100000000E-03 0. -1.
        -11    1    3    3    0    0  0.69886545497E+01  0.11718185988E+02 -0.38959451101E+01  0.14189276368E+02  0.51100000000E-03 0.  1.
        -12    1    3    3    0    0 -0.14424636683E+01 -0.30297636915E+01 -0.27885317588E+01  0.43630355065E+01  0.00000000000E+00 0.  1.
</event>
<event>
 7    1  0.6073302E-013  0.5052886E+02  0.7816164E-02  0.1300439E+00
        -11   -1    0    0    0    0  0.00000000000E+00  0.00000000000E+00  0.45593999997E+02  0.45594000000E+02  0.51100000000E-03 0.  1.
         11   -1    0    0    0    0 -0.00000000000E+00 -0.00000000000E+00 -0.45593999997E+02  0.45594000000E+02  0.51100000000E-03 0. -1.
    9900012    2    1    2    0    0  0.30587224449E+02  0.62159612762E+01  0.26056651554E+02  0.50528861245E+02  0.30000004242E+02 0.  0.
         12    1    1    2    0    0 -0.30587224449E+02 -0.62159612762E+01 -0.26056651554E+02  0.40659138755E+02  0.00000000000E+00 0. -1.
         11    1    3    3    0    0 -0.81521698436E+00 -0.15759937151E+01  0.10168958700E+02  0.10322599296E+02  0.51100000000E-03 0. -1.
        -11    1    3    3    0    0  0.32135025396E+02  0.98911188357E+01  0.17048570074E+02  0.37698114420E+02  0.51100000000E-03 0.  1.
        -12    1    3    3    0    0 -0.73258396263E+00 -0.20991638443E+01 -0.11608772204E+01  0.25081475292E+01  0.00000000000E+00 0.  1.
</event>
<event>
 7    1  0.6073302E-013  0.5052882E+02  0.7816164E-02  0.1300439E+00
        -11   -1    0    0    0    0  0.00000000000E+00  0.00000000000E+00  0.45593999997E+02  0.45594000000E+02  0.51100000000E-03 0. -1.
         11   -1    0    0    0    0 -0.00000000000E+00 -0.00000000000E+00 -0.45593999997E+02  0.45594000000E+02  0.51100000000E-03 0.  1.
    9900012    2    1    2    0    0  0.18446471303E+02 -0.20936271681E+02 -0.29573115642E+02  0.50528819681E+02  0.29999877901E+02 0.  0.
         12    1    1    2    0    0 -0.18446471303E+02  0.20936271681E+02  0.29573115642E+02  0.40659180319E+02  0.00000000000E+00 0. -1.
         11    1    3    3    0    0 -0.31545274644E+01 -0.12419393252E+02 -0.73200896111E+00  0.12834648793E+02  0.51100000000E-03 0. -1.
        -11    1    3    3    0    0  0.13891729543E+02 -0.61481941996E+01 -0.23630632070E+02  0.28092476109E+02  0.51100000000E-03 0.  1.
         12    1    3    3    0    0  0.77092692246E+01 -0.23686842302E+01 -0.52104746107E+01  0.96016947790E+01  0.00000000000E+00 0. -1.
</event>
<event>
 7    1  0.6073302E-013  0.5052887E+02  0.7816164E-02  0.1300439E+00
        -11   -1    0    0    0    0  0.00000000000E+00  0.00000000000E+00  0.45593999997E+02  0.45594000000E+02  0.51100000000E-03 0.  1.
         11   -1    0    0    0    0 -0.00000000000E+00 -0.00000000000E+00 -0.45593999997E+02  0.45594000000E+02  0.51100000000E-03 0. -1.
    9900012    2    1    2    0    0  0.30142898585E+02 -0.27107859647E+02  0.31200541911E+01  0.50528866611E+02  0.30000020552E+02 0.  0.
         12    1    1    2    0    0 -0.30142898585E+02  0.27107859647E+02 -0.31200541911E+01  0.40659133389E+02  0.00000000000E+00 0. -1.
         11    1    3    3    0    0  0.16296983294E+02 -0.26324094181E+02 -0.20579357992E+01  0.31028772114E+02  0.51100000000E-03 0. -1.
        -11    1    3    3    0    0  0.10967582483E+02 -0.55938652037E+01  0.62275565746E+01  0.13797161106E+02  0.51100000000E-03 0.  1.
         12    1    3    3    0    0  0.28783328088E+01  0.48100997377E+01 -0.10495665843E+01  0.57029333907E+01  0.00000000000E+00 0. -1.
</event>
<event>
 7    1  0.6073302E-013  0.5052888E+02  0.7816164E-02  0.1300439E+00
        -11   -1    0    0    0    0  0.00000000000E+00  0.00000000000E+00  0.45593999997E+02  0.45594000000E+02  0.51100000000E-03 0. -1.
         11   -1    0    0    0    0 -0.00000000000E+00 -0.00000000000E+00 -0.45593999997E+02  0.45594000000E+02  0.51100000000E-03 0.  1.
    9900012    2    1    2    0    0  0.25941380917E+02 -0.16084219005E+02 -0.26860870610E+02  0.50528883989E+02  0.30000073374E+02 0.  0.
         12    1    1    2    0    0 -0.25941380917E+02  0.16084219005E+02  0.26860870610E+02  0.40659116011E+02  0.00000000000E+00 0. -1.
         11    1    3    3    0    0  0.23305105750E+01 -0.51470013010E+01  0.66391247788E+00  0.56889086802E+01  0.51100000000E-03 0. -1.
        -11    1    3    3    0    0  0.18873670986E+02 -0.10115513394E+02 -0.31845772317E+02  0.38375673055E+02  0.51100000000E-03 0.  1.
        -12    1    3    3    0    0  0.47371993559E+01 -0.82170430965E+00  0.43209892295E+01  0.64643022540E+01  0.00000000000E+00 0.  1.
</event>
<event>
 7    1  0.6073302E-013  0.5052886E+02  0.7816164E-02  0.1300439E+00
        -11   -1    0    0    0    0  0.00000000000E+00  0.00000000000E+00  0.45593999997E+02  0.45594000000E+02  0.51100000000E-03 0.  1.
         11   -1    0    0    0    0 -0.00000000000E+00 -0.00000000000E+00 -0.45593999997E+02  0.45594000000E+02  0.51100000000E-03 0. -1.
    9900012    2    1    2    0    0  0.13269861516E+02 -0.92213750343E+01  0.37310083626E+02  0.50528864220E+02  0.30000013284E+02 0.  0.
         12    1    1    2    0    0 -0.13269861516E+02  0.92213750343E+01 -0.37310083626E+02  0.40659135780E+02  0.00000000000E+00 0. -1.
         11    1    3    3    0    0 -0.14474680960E+01  0.65577018081E+01  0.97403787655E+01  0.11831043726E+02  0.51100000000E-03 0. -1.
        -11    1    3    3    0    0  0.11479282505E+02 -0.19144120581E+02  0.21079035694E+02  0.30701743040E+02  0.51100000000E-03 0.  1.
        -12    1    3    3    0    0  0.32380471068E+01  0.33650437382E+01  0.64906691663E+01  0.79960774541E+01  0.00000000000E+00 0.  1.
</event>
<event>
 7    1  0.6073302E-013  0.5052886E+02  0.7816164E-02  0.1300439E+00
        -11   -1    0    0    0    0  0.00000000000E+00  0.00000000000E+00  0.45593999997E+02  0.45594000000E+02  0.51100000000E-03 0.  1.
         11   -1    0    0    0    0 -0.00000000000E+00 -0.00000000000E+00 -0.45593999997E+02  0.45594000000E+02  0.51100000000E-03 0. -1.
    9900012    2    1    2    0    0  0.36879108069E+01  0.40168069389E+02  0.51079249784E+01  0.50528863485E+02  0.30000011049E+02 0.  0.
         12    1    1    2    0    0 -0.36879108069E+01 -0.40168069389E+02 -0.51079249784E+01  0.40659136515E+02  0.00000000000E+00 0. -1.
         11    1    3    3    0    0 -0.10180124517E+02  0.18040300204E+02 -0.49702742236E+00  0.20720386173E+02  0.51100000000E-03 0. -1.
        -11    1    3    3    0    0  0.15837998334E+02  0.20370250911E+02  0.71166179904E+01  0.26766314003E+02  0.51100000000E-03 0.  1.
         12    1    3    3    0    0 -0.19699630105E+01  0.17575182742E+01 -0.15116655896E+01  0.30421633095E+01  0.00000000000E+00 0. -1.
</event>
<event>
 7    1  0.6073302E-013  0.5052885E+02  0.7816164E-02  0.1300439E+00
        -11   -1    0    0    0    0  0.00000000000E+00  0.00000000000E+00  0.45593999997E+02  0.45594000000E+02  0.51100000000E-03 0.  1.
         11   -1    0    0    0    0 -0.00000000000E+00 -0.00000000000E+00 -0.45593999997E+02  0.45594000000E+02  0.51100000000E-03 0. -1.
    9900012    2    1    2    0    0  0.14554072842E+02  0.13356898440E+02  0.35537852954E+02  0.50528846482E+02  0.29999959368E+02 0.  0.
         12    1    1    2    0    0 -0.14554072842E+02 -0.13356898440E+02 -0.35537852954E+02  0.40659153518E+02  0.00000000000E+00 0. -1.
         11    1    3    3    0    0 -0.69143412469E+01  0.78264148095E+01  0.11768785240E+02  0.15734204458E+02  0.51100000000E-03 0. -1.
        -11    1    3    3    0    0  0.14971439106E+02 -0.17861615087E+01  0.17821624691E+02  0.23344049964E+02  0.51100000000E-03 0.  1.
         12    1    3    3    0    0  0.64969749834E+01  0.73166451388E+01  0.59474430233E+01  0.11450592061E+02  0.00000000000E+00 0. -1.
</event>
<event>
 7    1  0.6073302E-013  0.5052885E+02  0.7816164E-02  0.1300439E+00
        -11   -1    0    0    0    0  0.00000000000E+00  0.00000000000E+00  0.45593999997E+02  0.45594000000E+02  0.51100000000E-03 0.  1.
         11   -1    0    0    0    0 -0.00000000000E+00 -0.00000000000E+00 -0.45593999997E+02  0.45594000000E+02  0.51100000000E-03 0. -1.
    9900012    2    1    2    0    0 -0.15369515640E+02  0.85345459659E+01  0.36662047811E+02  0.50528852990E+02  0.29999979149E+02 0.  0.
         12    1    1    2    0    0  0.15369515640E+02 -0.85345459659E+01 -0.36662047811E+02  0.40659147010E+02  0.00000000000E+00 0. -1.
         11    1    3    3    0    0 -0.49595066843E+00  0.15363855553E+02  0.12728614429E+02  0.19957746618E+02  0.51100000000E-03 0. -1.
        -11    1    3    3    0    0 -0.71296264860E+01  0.18195153513E+00  0.42901906959E+01  0.83228851163E+01  0.51100000000E-03 0.  1.
         12    1    3    3    0    0 -0.77439384856E+01 -0.70112611225E+01  0.19643242687E+02  0.22248221256E+02  0.00000000000E+00 0. -1.
</event>
<event>
 7    1  0.6073302E-013  0.5052886E+02  0.7816164E-02  0.1300439E+00
        -11   -1    0    0    0    0  0.00000000000E+00  0.00000000000E+00  0.45593999997E+02  0.45594000000E+02  0.51100000000E-03 0. -1.
         11   -1    0    0    0    0 -0.00000000000E+00 -0.00000000000E+00 -0.45593999997E+02  0.45594000000E+02  0.51100000000E-03 0.  1.
    9900012    2    1    2    0    0  0.48400141649E+01 -0.24860668941E+02 -0.31807028330E+02  0.50528860209E+02  0.30000001093E+02 0.  0.
         12    1    1    2    0    0 -0.48400141649E+01  0.24860668941E+02  0.31807028330E+02  0.40659139791E+02  0.00000000000E+00 0. -1.
         11    1    3    3    0    0  0.10873205001E+02 -0.55065487133E+01 -0.22084044715E+01  0.12386513484E+02  0.51100000000E-03 0. -1.
        -11    1    3    3    0    0 -0.50334081753E+01 -0.13445171537E+02 -0.96133183291E+01  0.17277839132E+02  0.51100000000E-03 0.  1.
         12    1    3    3    0    0 -0.99978266073E+00 -0.59089486913E+01 -0.19985305529E+02  0.20864507593E+02  0.00000000000E+00 0. -1.
</event>
<event>
 7    1  0.6073302E-013  0.5052886E+02  0.7816164E-02  0.1300439E+00
        -11   -1    0    0    0    0  0.00000000000E+00  0.00000000000E+00  0.45593999997E+02  0.45594000000E+02  0.51100000000E-03 0.  1.
         11   -1    0    0    0    0 -0.00000000000E+00 -0.00000000000E+00 -0.45593999997E+02  0.45594000000E+02  0.51100000000E-03 0. -1.
    9900012    2    1    2    0    0 -0.41125255355E+01  0.40022705508E+02  0.58682193803E+01  0.50528858087E+02  0.29999994640E+02 0.  0.
         12    1    1    2    0    0  0.41125255355E+01 -0.40022705508E+02 -0.58682193803E+01  0.40659141913E+02  0.00000000000E+00 0. -1.
         11    1    3    3    0    0  0.18219248668E+01 -0.24149614477E+01  0.32444980749E+01  0.44360136421E+01  0.51100000000E-03 0. -1.
        -11    1    3    3    0    0 -0.10001341356E+02  0.15017992064E+02  0.34062102606E+01  0.18362167169E+02  0.51100000000E-03 0.  1.
        -12    1    3    3    0    0  0.40668909535E+01  0.27419674892E+02 -0.78248895522E+00  0.27730677275E+02  0.00000000000E+00 0.  1.
</event>
<event>
 7    1  0.6073302E-013  0.5052886E+02  0.7816164E-02  0.1300439E+00
        -11   -1    0    0    0    0  0.00000000000E+00  0.00000000000E+00  0.45593999997E+02  0.45594000000E+02  0.51100000000E-03 0.  1.
         11   -1    0    0    0    0 -0.00000000000E+00 -0.00000000000E+00 -0.45593999997E+02  0.45594000000E+02  0.51100000000E-03 0. -1.
    9900012    2    1    2    0    0  0.18751354873E+02  0.13653804346E+02  0.33393500974E+02  0.50528860929E+02  0.30000003280E+02 0.  0.
         12    1    1    2    0    0 -0.18751354873E+02 -0.13653804346E+02 -0.33393500974E+02  0.40659139071E+02  0.00000000000E+00 0. -1.
         11    1    3    3    0    0  0.12819605344E+02  0.67313615613E+01 -0.90107727691E+00  0.14507427414E+02  0.51100000000E-03 0. -1.
        -11    1    3    3    0    0  0.43136412679E+01  0.89630415334E+00  0.18977830236E+02  0.19482528143E+02  0.51100000000E-03 0.  1.
         12    1    3    3    0    0  0.16181082607E+01  0.60261386317E+01  0.15316748015E+02  0.16538905372E+02  0.00000000000E+00 0. -1.
</event>
<event>
 7    1  0.6073302E-013  0.5052886E+02  0.7816164E-02  0.1300439E+00
        -11   -1    0    0    0    0  0.00000000000E+00  0.00000000000E+00  0.45593999997E+02  0.45594000000E+02  0.51100000000E-03 0. -1.
         11   -1    0    0    0    0 -0.00000000000E+00 -0.00000000000E+00 -0.45593999997E+02  0.45594000000E+02  0.51100000000E-03 0.  1.
    9900012    2    1    2    0    0 -0.31943848368E+02  0.21059621983E+02 -0.13756774190E+02  0.50528856345E+02  0.29999989347E+02 0.  0.
         12    1    1    2    0    0  0.31943848368E+02 -0.21059621983E+02  0.13756774190E+02  0.40659143655E+02  0.00000000000E+00 0. -1.
         11    1    3    3    0    0 -0.54718792036E+01  0.83868200439E+01 -0.12490302564E+02  0.16008993437E+02  0.51100000000E-03 0. -1.
        -11    1    3    3    0    0 -0.28910336190E+02  0.11857122045E+02 -0.30421541428E+01  0.31395120384E+02  0.51100000000E-03 0.  1.
        -12    1    3    3    0    0  0.24383670256E+01  0.81567989450E+00  0.17756825173E+01  0.31247425244E+01  0.00000000000E+00 0.  1.
</event>
<event>
 7    1  0.6073302E-013  0.5052886E+02  0.7816164E-02  0.1300439E+00
        -11   -1    0    0    0    0  0.00000000000E+00  0.00000000000E+00  0.45593999997E+02  0.45594000000E+02  0.51100000000E-03 0.  1.
         11   -1    0    0    0    0 -0.00000000000E+00 -0.00000000000E+00 -0.45593999997E+02  0.45594000000E+02  0.51100000000E-03 0. -1.
    9900012    2    1    2    0    0 -0.10115385676E+02 -0.27139796392E+02  0.28535524550E+02  0.50528859122E+02  0.29999997788E+02 0.  0.
         12    1    1    2    0    0  0.10115385676E+02  0.27139796392E+02 -0.28535524550E+02  0.40659140878E+02  0.00000000000E+00 0. -1.
         11    1    3    3    0    0 -0.61289282798E+01 -0.18812074957E+02  0.18659718289E+02  0.27196378673E+02  0.51100000000E-03 0. -1.
        -11    1    3    3    0    0 -0.95671381892E+01  0.16205192415E+01  0.39283874568E+01  0.10468449934E+02  0.51100000000E-03 0.  1.
         12    1    3    3    0    0  0.55806807931E+01 -0.99482406764E+01  0.59474188044E+01  0.12864030516E+02  0.00000000000E+00 0. -1.
</event>
<event>
 7    1  0.6073302E-013  0.5052885E+02  0.7816164E-02  0.1300439E+00
        -11   -1    0    0    0    0  0.00000000000E+00  0.00000000000E+00  0.45593999997E+02  0.45594000000E+02  0.51100000000E-03 0.  1.
         11   -1    0    0    0    0 -0.00000000000E+00 -0.00000000000E+00 -0.45593999997E+02  0.45594000000E+02  0.51100000000E-03 0. -1.
    9900012    2    1    2    0    0  0.26795455044E+02  0.91106502427E+01  0.29191884420E+02  0.50528850047E+02  0.29999970203E+02 0.  0.
         12    1    1    2    0    0 -0.26795455044E+02 -0.91106502427E+01 -0.29191884420E+02  0.40659149953E+02  0.00000000000E+00 0. -1.
         11    1    3    3    0    0  0.25208116208E+02  0.32013149944E+01  0.29205092311E+02  0.38712206830E+02  0.51100000000E-03 0. -1.
        -11    1    3    3    0    0  0.19330908494E+01  0.54767917483E+01  0.44515501656E+01  0.73176763541E+01  0.51100000000E-03 0.  1.
         12    1    3    3    0    0 -0.34575201324E+00  0.43254349999E+00 -0.44647580565E+01  0.44989668633E+01  0.00000000000E+00 0. -1.
</event>
<event>
 7    1  0.6073302E-013  0.5052887E+02  0.7816164E-02  0.1300439E+00
        -11   -1    0    0    0    0  0.00000000000E+00  0.00000000000E+00  0.45593999997E+02  0.45594000000E+02  0.51100000000E-03 0.  1.
         11   -1    0    0    0    0 -0.00000000000E+00 -0.00000000000E+00 -0.45593999997E+02  0.45594000000E+02  0.51100000000E-03 0. -1.
    9900012    2    1    2    0    0 -0.14042185312E+02 -0.66894062123E+01  0.37566394486E+02  0.50528866728E+02  0.30000020906E+02 0.  0.
         12    1    1    2    0    0  0.14042185312E+02  0.66894062123E+01 -0.37566394486E+02  0.40659133272E+02  0.00000000000E+00 0. -1.
         11    1    3    3    0    0 -0.29048268129E+01 -0.20130091244E+01  0.28246012892E+00  0.35454207836E+01  0.51100000000E-03 0. -1.
        -11    1    3    3    0    0 -0.11364957767E+02 -0.18788216566E+01  0.40851253865E+02  0.42444283225E+02  0.51100000000E-03 0.  1.
        -12    1    3    3    0    0  0.22759926796E+00 -0.27975754313E+01 -0.35673195081E+01  0.45391627194E+01  0.00000000000E+00 0.  1.
</event>
<event>
 7    1  0.6073302E-013  0.5052886E+02  0.7816164E-02  0.1300439E+00
        -11   -1    0    0    0    0  0.00000000000E+00  0.00000000000E+00  0.45593999997E+02  0.45594000000E+02  0.51100000000E-03 0.  1.
         11   -1    0    0    0    0 -0.00000000000E+00 -0.00000000000E+00 -0.45593999997E+02  0.45594000000E+02  0.51100000000E-03 0. -1.
    9900012    2    1    2    0    0  0.88345857650E+01 -0.28573839054E+02  0.27543627125E+02  0.50528861063E+02  0.30000003687E+02 0.  0.
         12    1    1    2    0    0 -0.88345857650E+01  0.28573839054E+02 -0.27543627125E+02  0.40659138937E+02  0.00000000000E+00 0. -1.
         11    1    3    3    0    0 -0.10457537360E+01 -0.82996061857E+01  0.37378772431E+01  0.91623572436E+01  0.51100000000E-03 0. -1.
        -11    1    3    3    0    0  0.11440670198E+02 -0.11959331883E+02  0.27530890320E+02  0.32122647396E+02  0.51100000000E-03 0.  1.
        -12    1    3    3    0    0 -0.15603306967E+01 -0.83149009853E+01 -0.37251404388E+01  0.92438564229E+01  0.00000000000E+00 0.  1.
</event>
<event>
 7    1  0.6073302E-013  0.5052885E+02  0.7816164E-02  0.1300439E+00
        -11   -1    0    0    0    0  0.00000000000E+00  0.00000000000E+00  0.45593999997E+02  0.45594000000E+02  0.51100000000E-03 0.  1.
         11   -1    0    0    0    0 -0.00000000000E+00 -0.00000000000E+00 -0.45593999997E+02  0.45594000000E+02  0.51100000000E-03 0. -1.
    9900012    2    1    2    0    0 -0.40587598816E-01 -0.26335282308E+01  0.40573748792E+02  0.50528853313E+02  0.29999980130E+02 0.  0.
         12    1    1    2    0    0  0.40587598816E-01  0.26335282308E+01 -0.40573748792E+02  0.40659146687E+02  0.00000000000E+00 0. -1.
         11    1    3    3    0    0 -0.73261788384E+00  0.78720589067E+01 -0.12578691066E+00  0.79070767672E+01  0.51100000000E-03 0. -1.
        -11    1    3    3    0    0 -0.22860616528E+01 -0.54553203155E+01  0.12629707496E+02  0.13946186192E+02  0.51100000000E-03 0.  1.
         12    1    3    3    0    0  0.29780919378E+01 -0.50502668220E+01  0.28069828207E+02  0.28675590353E+02  0.00000000000E+00 0. -1.
</event>
<event>
 7    1  0.6073302E-013  0.5052885E+02  0.7816164E-02  0.1300439E+00
        -11   -1    0    0    0    0  0.00000000000E+00  0.00000000000E+00  0.45593999997E+02  0.45594000000E+02  0.51100000000E-03 0. -1.
         11   -1    0    0    0    0 -0.00000000000E+00 -0.00000000000E+00 -0.45593999997E+02  0.45594000000E+02  0.51100000000E-03 0.  1.
    9900012    2    1    2    0    0 -0.29682189060E+02  0.24982983276E+02  0.12164899876E+02  0.50528848634E+02  0.29999965909E+02 0.  0.
         12    1    1    2    0    0  0.29682189060E+02 -0.24982983276E+02 -0.12164899876E+02  0.40659151366E+02  0.00000000000E+00 0. -1.
         11    1    3    3    0    0 -0.95438948678E+01 -0.46150372944E+01  0.89387092632E+01  0.13866687493E+02  0.51100000000E-03 0. -1.
        -11    1    3    3    0    0 -0.13146412921E+02  0.20342189682E+02  0.55106559685E+01  0.24839488385E+02  0.51100000000E-03 0.  1.
         12    1    3    3    0    0 -0.69918812709E+01  0.92558308883E+01 -0.22844653560E+01  0.11822672756E+02  0.00000000000E+00 0. -1.
</event>
<event>
 7    1  0.6073302E-013  0.5052887E+02  0.7816164E-02  0.1300439E+00
        -11   -1    0    0    0    0  0.00000000000E+00  0.00000000000E+00  0.45593999997E+02  0.45594000000E+02  0.51100000000E-03 0.  1.
         11   -1    0    0    0    0 -0.00000000000E+00 -0.00000000000E+00 -0.45593999997E+02  0.45594000000E+02  0.51100000000E-03 0. -1.
    9900012    2    1    2    0    0  0.16230890729E+02  0.32919962800E+02  0.17492834760E+02  0.50528867784E+02  0.30000024117E+02 0.  0.
         12    1    1    2    0    0 -0.16230890729E+02 -0.32919962800E+02 -0.17492834760E+02  0.40659132216E+02  0.00000000000E+00 0. -1.
         11    1    3    3    0    0 -0.53553704656E+01 -0.34062374318E+00  0.37209850471E+01  0.65300648802E+01  0.51100000000E-03 0. -1.
        -11    1    3    3    0    0  0.13587498613E+02  0.23599426475E+02  0.15506201733E+02  0.31336804894E+02  0.51100000000E-03 0.  1.
        -12    1    3    3    0    0  0.79987625811E+01  0.96611600681E+01 -0.17343520197E+01  0.12661998011E+02  0.00000000000E+00 0.  1.
</event>
<event>
 7    1  0.6073302E-013  0.5052886E+02  0.7816164E-02  0.1300439E+00
        -11   -1    0    0    0    0  0.00000000000E+00  0.00000000000E+00  0.45593999997E+02  0.45594000000E+02  0.51100000000E-03 0.  1.
         11   -1    0    0    0    0 -0.00000000000E+00 -0.00000000000E+00 -0.45593999997E+02  0.45594000000E+02  0.51100000000E-03 0. -1.
    9900012    2    1    2    0    0  0.20498767263E+02  0.20270022587E+02  0.28672153169E+02  0.50528860286E+02  0.30000001325E+02 0.  0.
         12    1    1    2    0    0 -0.20498767263E+02 -0.20270022587E+02 -0.28672153169E+02  0.40659139714E+02  0.00000000000E+00 0. -1.
         11    1    3    3    0    0 -0.19658089024E+01  0.59954817502E+01 -0.43416598527E+00  0.63244530531E+01  0.51100000000E-03 0. -1.
        -11    1    3    3    0    0  0.11501963530E+02  0.13677915579E+02  0.27936174649E+02  0.33163389361E+02  0.51100000000E-03 0.  1.
        -12    1    3    3    0    0  0.10962612635E+02  0.59662525743E+00  0.11701445053E+01  0.11041017872E+02  0.00000000000E+00 0.  1.
</event>
<event>
 7    1  0.6073302E-013  0.5052887E+02  0.7816164E-02  0.1300439E+00
        -11   -1    0    0    0    0  0.00000000000E+00  0.00000000000E+00  0.45593999997E+02  0.45594000000E+02  0.51100000000E-03 0. -1.
         11   -1    0    0    0    0 -0.00000000000E+00 -0.00000000000E+00 -0.45593999997E+02  0.45594000000E+02  0.51100000000E-03 0.  1.
    9900012    2    1    2    0    0  0.19388055341E+02 -0.35682157473E+02  0.20129080286E+01  0.50528870022E+02  0.30000030918E+02 0.  0.
         12    1    1    2    0    0 -0.19388055341E+02  0.35682157473E+02 -0.20129080286E+01  0.40659129978E+02  0.00000000000E+00 0. -1.
         11    1    3    3    0    0 -0.59699474522E+01 -0.96523266449E+01 -0.54916025081E+01  0.12608147390E+02  0.51100000000E-03 0. -1.
        -11    1    3    3    0    0  0.19552903369E+02 -0.22976146559E+02  0.38567112271E+01  0.30415350772E+02  0.51100000000E-03 0.  1.
         12    1    3    3    0    0  0.58050994241E+01 -0.30536842699E+01  0.36477993096E+01  0.75053718593E+01  0.00000000000E+00 0. -1.
</event>
<event>
 7    1  0.6073302E-013  0.5052884E+02  0.7816164E-02  0.1300439E+00
        -11   -1    0    0    0    0  0.00000000000E+00  0.00000000000E+00  0.45593999997E+02  0.45594000000E+02  0.51100000000E-03 0. -1.
         11   -1    0    0    0    0 -0.00000000000E+00 -0.00000000000E+00 -0.45593999997E+02  0.45594000000E+02  0.51100000000E-03 0.  1.
    9900012    2    1    2    0    0  0.22668834115E+02 -0.87728851579E+01 -0.32593364050E+02  0.50528844399E+02  0.29999953034E+02 0.  0.
         12    1    1    2    0    0 -0.22668834115E+02  0.87728851579E+01  0.32593364050E+02  0.40659155601E+02  0.00000000000E+00 0. -1.
         11    1    3    3    0    0  0.21655508720E+01  0.42587577280E+01 -0.13669277010E+02  0.14480185158E+02  0.51100000000E-03 0. -1.
        -11    1    3    3    0    0  0.12448192439E+02 -0.53179994010E+01  0.61512537407E+00  0.13550534754E+02  0.51100000000E-03 0.  1.
        -12    1    3    3    0    0  0.80550908033E+01 -0.77136434849E+01 -0.19539212414E+02  0.22498124487E+02  0.00000000000E+00 0.  1.
</event>
<event>
 7    1  0.6073302E-013  0.5052890E+02  0.7816164E-02  0.1300439E+00
        -11   -1    0    0    0    0  0.00000000000E+00  0.00000000000E+00  0.45593999997E+02  0.45594000000E+02  0.51100000000E-03 0. -1.
         11   -1    0    0    0    0 -0.00000000000E+00 -0.00000000000E+00 -0.45593999997E+02  0.45594000000E+02  0.51100000000E-03 0.  1.
    9900012    2    1    2    0    0  0.69761510386E+01  0.38284726895E+02 -0.11780308422E+02  0.50528896920E+02  0.30000112678E+02 0.  0.
         12    1    1    2    0    0 -0.69761510386E+01 -0.38284726895E+02  0.11780308422E+02  0.40659103080E+02  0.00000000000E+00 0. -1.
         11    1    3    3    0    0  0.87417757289E+01  0.85271650022E+01  0.17185963274E+01  0.12332264977E+02  0.51100000000E-03 0. -1.
        -11    1    3    3    0    0 -0.24591702126E+01  0.23502757291E+02 -0.18618166762E+02  0.30084269183E+02  0.51100000000E-03 0.  1.
        -12    1    3    3    0    0  0.69354552232E+00  0.62548046020E+01  0.51192620127E+01  0.81123627603E+01  0.00000000000E+00 0.  1.
</event>
<event>
 7    1  0.6073302E-013  0.5052886E+02  0.7816164E-02  0.1300439E+00
        -11   -1    0    0    0    0  0.00000000000E+00  0.00000000000E+00  0.45593999997E+02  0.45594000000E+02  0.51100000000E-03 0.  1.
         11   -1    0    0    0    0 -0.00000000000E+00 -0.00000000000E+00 -0.45593999997E+02  0.45594000000E+02  0.51100000000E-03 0. -1.
    9900012    2    1    2    0    0 -0.36635878525E+02 -0.15232787769E+02 -0.88848552407E+01  0.50528855012E+02  0.29999985294E+02 0.  0.
         12    1    1    2    0    0  0.36635878525E+02  0.15232787769E+02  0.88848552407E+01  0.40659144988E+02  0.00000000000E+00 0. -1.
         11    1    3    3    0    0 -0.17784837195E+02 -0.13573602507E+02 -0.10562080007E+02  0.24740668007E+02  0.51100000000E-03 0. -1.
        -11    1    3    3    0    0 -0.33647353982E+01  0.70128603665E+01  0.20181350684E+01  0.80358275390E+01  0.51100000000E-03 0.  1.
        -12    1    3    3    0    0 -0.15486305931E+02 -0.86720456288E+01 -0.34091030236E+00  0.17752359466E+02  0.00000000000E+00 0.  1.
</event>
<event>
 7    1  0.6073302E-013  0.5052884E+02  0.7816164E-02  0.1300439E+00
        -11   -1    0    0    0    0  0.00000000000E+00  0.00000000000E+00  0.45593999997E+02  0.45594000000E+02  0.51100000000E-03 0.  1.
         11   -1    0    0    0    0 -0.00000000000E+00 -0.00000000000E+00 -0.45593999997E+02  0.45594000000E+02  0.51100000000E-03 0. -1.
    9900012    2    1    2    0    0 -0.22063866957E+02  0.48459372866E+01  0.33806357388E+02  0.50528841953E+02  0.29999945600E+02 0.  0.
         12    1    1    2    0    0  0.22063866957E+02 -0.48459372866E+01 -0.33806357388E+02  0.40659158047E+02  0.00000000000E+00 0. -1.
         11    1    3    3    0    0 -0.10863476641E+01 -0.66233041757E+01  0.22393970725E+00  0.67155386013E+01  0.51100000000E-03 0. -1.
        -11    1    3    3    0    0 -0.12424955469E+02  0.11247158675E+02  0.12044905581E+02  0.20638746265E+02  0.51100000000E-03 0.  1.
        -12    1    3    3    0    0 -0.85525638237E+01  0.22208278775E+00  0.21537512100E+02  0.23174557087E+02  0.00000000000E+00 0.  1.
</event>
<event>
 7    1  0.6073302E-013  0.5052895E+02  0.7816164E-02  0.1300438E+00
        -11   -1    0    0    0    0  0.00000000000E+00  0.00000000000E+00  0.45593999997E+02  0.45594000000E+02  0.51100000000E-03 0.  1.
         11   -1    0    0    0    0 -0.00000000000E+00 -0.00000000000E+00 -0.45593999997E+02  0.45594000000E+02  0.51100000000E-03 0. -1.
    9900012    2    1    2    0    0 -0.10562143718E+02 -0.22545375183E+02  0.32145065383E+02  0.50528953645E+02  0.30000285097E+02 0.  0.
         12    1    1    2    0    0  0.10562143718E+02  0.22545375183E+02 -0.32145065383E+02  0.40659046355E+02  0.00000000000E+00 0. -1.
         11    1    3    3    0    0 -0.62601247061E+01  0.30683687616E+01  0.39387085879E+01  0.80073387461E+01  0.51100000000E-03 0. -1.
        -11    1    3    3    0    0  0.90884385994E+00 -0.22539039457E+02  0.28638982714E+02  0.36455803762E+02  0.51100000000E-03 0.  1.
        -12    1    3    3    0    0 -0.52108628719E+01 -0.30747044880E+01 -0.43262591910E+00  0.60658111365E+01  0.00000000000E+00 0.  1.
</event>
<event>
 7    1  0.6073302E-013  0.5052886E+02  0.7816164E-02  0.1300439E+00
        -11   -1    0    0    0    0  0.00000000000E+00  0.00000000000E+00  0.45593999997E+02  0.45594000000E+02  0.51100000000E-03 0. -1.
         11   -1    0    0    0    0 -0.00000000000E+00 -0.00000000000E+00 -0.45593999997E+02  0.45594000000E+02  0.51100000000E-03 0.  1.
    9900012    2    1    2    0    0  0.29862794112E+02 -0.26835588207E+02 -0.64210825175E+01  0.50528861209E+02  0.30000004129E+02 0.  0.
         12    1    1    2    0    0 -0.29862794112E+02  0.26835588207E+02  0.64210825175E+01  0.40659138791E+02  0.00000000000E+00 0. -1.
         11    1    3    3    0    0  0.28103181901E+01  0.33161291338E+00  0.46621279062E+01  0.54537411315E+01  0.51100000000E-03 0. -1.
        -11    1    3    3    0    0  0.62065050611E+01 -0.20904531692E+02 -0.38880225599E+01  0.22150324377E+02  0.51100000000E-03 0.  1.
        -12    1    3    3    0    0  0.20845970861E+02 -0.62626694284E+01 -0.71951878638E+01  0.22924795700E+02  0.00000000000E+00 0.  1.
</event>
<event>
 7    1  0.6073302E-013  0.5052887E+02  0.7816164E-02  0.1300439E+00
        -11   -1    0    0    0    0  0.00000000000E+00  0.00000000000E+00  0.45593999997E+02  0.45594000000E+02  0.51100000000E-03 0. -1.
         11   -1    0    0    0    0 -0.00000000000E+00 -0.00000000000E+00 -0.45593999997E+02  0.45594000000E+02  0.51100000000E-03 0.  1.
    9900012    2    1    2    0    0  0.33779449398E+02 -0.14292712651E+02 -0.17545153472E+02  0.50528865148E+02  0.30000016105E+02 0.  0.
         12    1    1    2    0    0 -0.33779449398E+02  0.14292712651E+02  0.17545153472E+02  0.40659134852E+02  0.00000000000E+00 0. -1.
         11    1    3    3    0    0  0.36991324994E+01  0.67592815335E+01 -0.88372582969E+01  0.11724700532E+02  0.51100000000E-03 0. -1.
        -11    1    3    3    0    0  0.26033437886E+02 -0.13887692892E+02 -0.57549132084E+01  0.30062051299E+02  0.51100000000E-03 0.  1.
         12    1    3    3    0    0  0.40468790122E+01 -0.71643012928E+01 -0.29529819668E+01  0.87421133172E+01  0.00000000000E+00 0. -1.
</event>
<event>
 7    1  0.6073302E-013  0.5052884E+02  0.7816164E-02  0.1300439E+00
        -11   -1    0    0    0    0  0.00000000000E+00  0.00000000000E+00  0.45593999997E+02  0.45594000000E+02  0.51100000000E-03 0.  1.
         11   -1    0    0    0    0 -0.00000000000E+00 -0.00000000000E+00 -0.45593999997E+02  0.45594000000E+02  0.51100000000E-03 0. -1.
    9900012    2    1    2    0    0  0.28839136724E+01  0.98758402482E+01  0.39335960803E+02  0.50528843701E+02  0.29999950912E+02 0.  0.
         12    1    1    2    0    0 -0.28839136724E+01 -0.98758402482E+01 -0.39335960803E+02  0.40659156299E+02  0.00000000000E+00 0. -1.
         11    1    3    3    0    0  0.90737326829E+01  0.55865589365E+01  0.12407207701E+02  0.16354848478E+02  0.51100000000E-03 0.  1.
        -11    1    3    3    0    0 -0.11802259309E+02  0.43939261213E+01  0.92507007127E+01  0.15626111976E+02  0.51100000000E-03 0. -1.
        -12    1    3    3    0    0  0.56124402981E+01 -0.10464480961E+00  0.17678052390E+02  0.18547883247E+02  0.00000000000E+00 0.  1.
</event>
<event>
 7    1  0.6073302E-013  0.5052886E+02  0.7816164E-02  0.1300439E+00
        -11   -1    0    0    0    0  0.00000000000E+00  0.00000000000E+00  0.45593999997E+02  0.45594000000E+02  0.51100000000E-03 0. -1.
         11   -1    0    0    0    0 -0.00000000000E+00 -0.00000000000E+00 -0.45593999997E+02  0.45594000000E+02  0.51100000000E-03 0.  1.
    9900012    2    1    2    0    0 -0.56349423318E+01  0.16654220172E+02 -0.36661285399E+02  0.50528862384E+02  0.30000007702E+02 0.  0.
         12    1    1    2    0    0  0.56349423318E+01 -0.16654220172E+02  0.36661285399E+02  0.40659137616E+02  0.00000000000E+00 0. -1.
         11    1    3    3    0    0  0.19619786662E+01  0.85562274959E+01 -0.41502270816E+01  0.97099317370E+01  0.51100000000E-03 0. -1.
        -11    1    3    3    0    0 -0.65133022041E+01  0.19313264250E+01 -0.33758014230E+02  0.34434817444E+02  0.51100000000E-03 0.  1.
        -12    1    3    3    0    0 -0.10836187940E+01  0.61666662507E+01  0.12469559132E+01  0.63841132029E+01  0.00000000000E+00 0.  1.
</event>
<event>
 7    1  0.6073302E-013  0.5052885E+02  0.7816164E-02  0.1300439E+00
        -11   -1    0    0    0    0  0.00000000000E+00  0.00000000000E+00  0.45593999997E+02  0.45594000000E+02  0.51100000000E-03 0. -1.
         11   -1    0    0    0    0 -0.00000000000E+00 -0.00000000000E+00 -0.45593999997E+02  0.45594000000E+02  0.51100000000E-03 0.  1.
    9900012    2    1    2    0    0 -0.24235363425E+02 -0.23248840271E+02 -0.22919528342E+02  0.50528853505E+02  0.29999980714E+02 0.  0.
         12    1    1    2    0    0  0.24235363425E+02  0.23248840271E+02  0.22919528342E+02  0.40659146495E+02  0.00000000000E+00 0. -1.
         11    1    3    3    0    0 -0.24973314672E+01 -0.24101610278E+01  0.39271219758E+01  0.52409758548E+01  0.51100000000E-03 0. -1.
        -11    1    3    3    0    0 -0.46010952881E+01 -0.16860726930E+02 -0.19602028377E+02  0.26262020242E+02  0.51100000000E-03 0.  1.
        -12    1    3    3    0    0 -0.17136936670E+02 -0.39779523131E+01 -0.72446219408E+01  0.19025857408E+02  0.00000000000E+00 0.  1.
</event>
<event>
 7    1  0.6073302E-013  0.5052887E+02  0.7816164E-02  0.1300439E+00
        -11   -1    0    0    0    0  0.00000000000E+00  0.00000000000E+00  0.45593999997E+02  0.45594000000E+02  0.51100000000E-03 0.  1.
         11   -1    0    0    0    0 -0.00000000000E+00 -0.00000000000E+00 -0.45593999997E+02  0.45594000000E+02  0.51100000000E-03 0. -1.
    9900012    2    1    2    0    0 -0.35690636369E+02  0.15768928099E+02  0.11431718136E+02  0.50528870677E+02  0.30000032909E+02 0.  0.
         12    1    1    2    0    0  0.35690636369E+02 -0.15768928099E+02 -0.11431718136E+02  0.40659129323E+02  0.00000000000E+00 0. -1.
         11    1    3    3    0    0  0.24949354101E+01  0.44143374862E+01 -0.24750669641E+01  0.56424316461E+01  0.51100000000E-03 0. -1.
        -11    1    3    3    0    0 -0.31392984730E+02  0.12161761676E+02  0.56054087025E+01  0.34129877590E+02  0.51100000000E-03 0.  1.
        -12    1    3    3    0    0 -0.67925870484E+01 -0.80717106331E+00  0.83013763975E+01  0.10756561441E+02  0.00000000000E+00 0.  1.
</event>
<event>
 7    1  0.6073302E-013  0.5052894E+02  0.7816164E-02  0.1300438E+00
        -11   -1    0    0    0    0  0.00000000000E+00  0.00000000000E+00  0.45593999997E+02  0.45594000000E+02  0.51100000000E-03 0.  1.
         11   -1    0    0    0    0 -0.00000000000E+00 -0.00000000000E+00 -0.45593999997E+02  0.45594000000E+02  0.51100000000E-03 0. -1.
    9900012    2    1    2    0    0 -0.35027004426E+02 -0.24520682117E+01  0.20500124711E+02  0.50528944542E+02  0.30000257429E+02 0.  0.
         12    1    1    2    0    0  0.35027004426E+02  0.24520682117E+01 -0.20500124711E+02  0.40659055458E+02  0.00000000000E+00 0. -1.
         11    1    3    3    0    0 -0.18960010060E+02 -0.24300074528E+01 -0.16095342015E+01  0.19182740115E+02  0.51100000000E-03 0. -1.
        -11    1    3    3    0    0 -0.61352782869E+01  0.74828292233E+01  0.82410914876E+01  0.12710230604E+02  0.51100000000E-03 0.  1.
         12    1    3    3    0    0 -0.99317160782E+01 -0.75048899823E+01  0.13868567425E+02  0.18635973823E+02  0.00000000000E+00 0. -1.
</event>
<event>
 7    1  0.6073302E-013  0.5052886E+02  0.7816164E-02  0.1300439E+00
        -11   -1    0    0    0    0  0.00000000000E+00  0.00000000000E+00  0.45593999997E+02  0.45594000000E+02  0.51100000000E-03 0. -1.
         11   -1    0    0    0    0 -0.00000000000E+00 -0.00000000000E+00 -0.45593999997E+02  0.45594000000E+02  0.51100000000E-03 0.  1.
    9900012    2    1    2    0    0 -0.30931198760E+01  0.36245389342E+02 -0.18162320642E+02  0.50528861664E+02  0.30000005515E+02 0.  0.
         12    1    1    2    0    0  0.30931198760E+01 -0.36245389342E+02  0.18162320642E+02  0.40659138336E+02  0.00000000000E+00 0. -1.
         11    1    3    3    0    0  0.27168239668E+01  0.22078615915E+02 -0.17723058243E+02  0.28442102717E+02  0.51100000000E-03 0.  1.
        -11    1    3    3    0    0 -0.79263571411E+01  0.16675696280E+02  0.10261517910E+01  0.18492132697E+02  0.51100000000E-03 0. -1.
         12    1    3    3    0    0  0.21164132983E+01 -0.25089228528E+01 -0.14654141896E+01  0.35946262501E+01  0.00000000000E+00 0. -1.
</event>
<event>
 7    1  0.6073302E-013  0.5052885E+02  0.7816164E-02  0.1300439E+00
        -11   -1    0    0    0    0  0.00000000000E+00  0.00000000000E+00  0.45593999997E+02  0.45594000000E+02  0.51100000000E-03 0.  1.
         11   -1    0    0    0    0 -0.00000000000E+00 -0.00000000000E+00 -0.45593999997E+02  0.45594000000E+02  0.51100000000E-03 0. -1.
    9900012    2    1    2    0    0  0.35744012255E+02 -0.19337916744E+02  0.12557992176E+01  0.50528850135E+02  0.29999970470E+02 0.  0.
         12    1    1    2    0    0 -0.35744012255E+02  0.19337916744E+02 -0.12557992176E+01  0.40659149865E+02  0.00000000000E+00 0. -1.
         11    1    3    3    0    0  0.84370360533E+01 -0.19143508843E+02  0.56039079657E+01  0.21657822904E+02  0.51100000000E-03 0. -1.
        -11    1    3    3    0    0  0.25214990315E+02  0.14297807474E+01 -0.20051837131E+01  0.25334971316E+02  0.51100000000E-03 0.  1.
         12    1    3    3    0    0  0.20919858866E+01 -0.16241886479E+01 -0.23429250350E+01  0.35360559149E+01  0.00000000000E+00 0. -1.
</event>
<event>
 7    1  0.6073302E-013  0.5052886E+02  0.7816164E-02  0.1300439E+00
        -11   -1    0    0    0    0  0.00000000000E+00  0.00000000000E+00  0.45593999997E+02  0.45594000000E+02  0.51100000000E-03 0.  1.
         11   -1    0    0    0    0 -0.00000000000E+00 -0.00000000000E+00 -0.45593999997E+02  0.45594000000E+02  0.51100000000E-03 0. -1.
    9900012    2    1    2    0    0  0.12502544497E+02 -0.65407409546E+01  0.38132278150E+02  0.50528861445E+02  0.30000004847E+02 0.  0.
         12    1    1    2    0    0 -0.12502544497E+02  0.65407409546E+01 -0.38132278150E+02  0.40659138555E+02  0.00000000000E+00 0. -1.
         11    1    3    3    0    0  0.14566393202E+00 -0.11719710119E+02  0.44190754378E+01  0.12526014978E+02  0.51100000000E-03 0. -1.
        -11    1    3    3    0    0  0.12935556544E+02  0.12623236199E+01  0.29418690661E+02  0.32161801014E+02  0.51100000000E-03 0.  1.
         12    1    3    3    0    0 -0.57867597929E+00  0.39166455443E+01  0.42945120520E+01  0.58410454521E+01  0.00000000000E+00 0. -1.
</event>
<event>
 7    1  0.6073302E-013  0.5052886E+02  0.7816164E-02  0.1300439E+00
        -11   -1    0    0    0    0  0.00000000000E+00  0.00000000000E+00  0.45593999997E+02  0.45594000000E+02  0.51100000000E-03 0.  1.
         11   -1    0    0    0    0 -0.00000000000E+00 -0.00000000000E+00 -0.45593999997E+02  0.45594000000E+02  0.51100000000E-03 0. -1.
    9900012    2    1    2    0    0 -0.28119329259E+01  0.27588043670E+02  0.29734803668E+02  0.50528859952E+02  0.30000000310E+02 0.  0.
         12    1    1    2    0    0  0.28119329259E+01 -0.27588043670E+02 -0.29734803668E+02  0.40659140048E+02  0.00000000000E+00 0. -1.
         11    1    3    3    0    0 -0.37596555781E+01 -0.30606659251E+01  0.95354892272E+01  0.10697113678E+02  0.51100000000E-03 0. -1.
        -11    1    3    3    0    0  0.75141245739E+01  0.19384401880E+02  0.15651751031E+02  0.26022959381E+02  0.51100000000E-03 0.  1.
         12    1    3    3    0    0 -0.65664019217E+01  0.11264307715E+02  0.45475634090E+01  0.13808786893E+02  0.00000000000E+00 0. -1.
</event>
<event>
 7    1  0.6073302E-013  0.5052886E+02  0.7816164E-02  0.1300439E+00
        -11   -1    0    0    0    0  0.00000000000E+00  0.00000000000E+00  0.45593999997E+02  0.45594000000E+02  0.51100000000E-03 0.  1.
         11   -1    0    0    0    0 -0.00000000000E+00 -0.00000000000E+00 -0.45593999997E+02  0.45594000000E+02  0.51100000000E-03 0. -1.
    9900012    2    1    2    0    0  0.10339855071E+02  0.64335478709E+00  0.39317156924E+02  0.50528864042E+02  0.30000012742E+02 0.  0.
         12    1    1    2    0    0 -0.10339855071E+02 -0.64335478709E+00 -0.39317156924E+02  0.40659135958E+02  0.00000000000E+00 0. -1.
         11    1    3    3    0    0  0.79091555494E+01 -0.96363735500E+01  0.14220663055E+02  0.18911417046E+02  0.51100000000E-03 0. -1.
        -11    1    3    3    0    0 -0.57729310167E+01  0.38852053918E+01  0.17212108376E+02  0.18565511802E+02  0.51100000000E-03 0.  1.
        -12    1    3    3    0    0  0.82036305381E+01  0.63945229453E+01  0.78843854928E+01  0.13051935194E+02  0.00000000000E+00 0.  1.
</event>
<event>
 7    1  0.6073302E-013  0.5052886E+02  0.7816164E-02  0.1300439E+00
        -11   -1    0    0    0    0  0.00000000000E+00  0.00000000000E+00  0.45593999997E+02  0.45594000000E+02  0.51100000000E-03 0.  1.
         11   -1    0    0    0    0 -0.00000000000E+00 -0.00000000000E+00 -0.45593999997E+02  0.45594000000E+02  0.51100000000E-03 0. -1.
    9900012    2    1    2    0    0  0.18695212368E+02 -0.35119755274E+02 -0.83819769546E+01  0.50528859408E+02  0.29999998656E+02 0.  0.
         12    1    1    2    0    0 -0.18695212368E+02  0.35119755274E+02  0.83819769546E+01  0.40659140592E+02  0.00000000000E+00 0. -1.
         11    1    3    3    0    0 -0.30263934927E+01 -0.12940330600E+02 -0.59293583758E+01  0.14552268023E+02  0.51100000000E-03 0. -1.
        -11    1    3    3    0    0  0.16873074935E+02 -0.50375131261E+01  0.16804464449E+01  0.17689010622E+02  0.51100000000E-03 0.  1.
        -12    1    3    3    0    0  0.48485309259E+01 -0.17141911548E+02 -0.41330650238E+01  0.18287580763E+02  0.00000000000E+00 0.  1.
</event>
<event>
 7    1  0.6073302E-013  0.5052886E+02  0.7816164E-02  0.1300439E+00
        -11   -1    0    0    0    0  0.00000000000E+00  0.00000000000E+00  0.45593999997E+02  0.45594000000E+02  0.51100000000E-03 0. -1.
         11   -1    0    0    0    0 -0.00000000000E+00 -0.00000000000E+00 -0.45593999997E+02  0.45594000000E+02  0.51100000000E-03 0.  1.
    9900012    2    1    2    0    0 -0.11466138754E+02 -0.27675721038E+02 -0.27490870156E+02  0.50528858165E+02  0.29999994877E+02 0.  0.
         12    1    1    2    0    0  0.11466138754E+02  0.27675721038E+02  0.27490870156E+02  0.40659141835E+02  0.00000000000E+00 0. -1.
         11    1    3    3    0    0  0.53497486880E+01 -0.69203478572E+01 -0.16373157298E+02  0.18563170679E+02  0.51100000000E-03 0. -1.
        -11    1    3    3    0    0 -0.11893187649E+02 -0.55855653613E+01 -0.88850936394E+01  0.15861631130E+02  0.51100000000E-03 0.  1.
        -12    1    3    3    0    0 -0.49226997931E+01 -0.15169807819E+02 -0.22326192179E+01  0.16104056355E+02  0.00000000000E+00 0.  1.
</event>
<event>
 7    1  0.6073302E-013  0.5052886E+02  0.7816164E-02  0.1300439E+00
        -11   -1    0    0    0    0  0.00000000000E+00  0.00000000000E+00  0.45593999997E+02  0.45594000000E+02  0.51100000000E-03 0. -1.
         11   -1    0    0    0    0 -0.00000000000E+00 -0.00000000000E+00 -0.45593999997E+02  0.45594000000E+02  0.51100000000E-03 0.  1.
    9900012    2    1    2    0    0  0.37153976933E+02 -0.14683221533E+02  0.75597793179E+01  0.50528864989E+02  0.30000015619E+02 0.  0.
         12    1    1    2    0    0 -0.37153976933E+02  0.14683221533E+02 -0.75597793179E+01  0.40659135011E+02  0.00000000000E+00 0. -1.
         11    1    3    3    0    0  0.27597686374E+01 -0.12288110169E+02  0.81931587041E+01  0.15024707128E+02  0.51100000000E-03 0. -1.
        -11    1    3    3    0    0  0.25668812722E+02 -0.37343725227E+00  0.29846655121E+01  0.25844450669E+02  0.51100000000E-03 0.  1.
        -12    1    3    3    0    0  0.87253955742E+01 -0.20216741121E+01 -0.36180448983E+01  0.96597071917E+01  0.00000000000E+00 0.  1.
</event>
<event>
 7    1  0.6073302E-013  0.5052886E+02  0.7816164E-02  0.1300439E+00
        -11   -1    0    0    0    0  0.00000000000E+00  0.00000000000E+00  0.45593999997E+02  0.45594000000E+02  0.51100000000E-03 0.  1.
         11   -1    0    0    0    0 -0.00000000000E+00 -0.00000000000E+00 -0.45593999997E+02  0.45594000000E+02  0.51100000000E-03 0. -1.
    9900012    2    1    2    0    0  0.24607873982E+02 -0.31246622452E+02  0.84419836248E+01  0.50528856328E+02  0.29999989296E+02 0.  0.
         12    1    1    2    0    0 -0.24607873982E+02  0.31246622452E+02 -0.84419836248E+01  0.40659143672E+02  0.00000000000E+00 0. -1.
         11    1    3    3    0    0  0.10698725158E+02 -0.40924208827E+00 -0.50282840377E+01  0.11828518069E+02  0.51100000000E-03 0. -1.
        -11    1    3    3    0    0  0.13308640211E+02 -0.17773614086E+02  0.12746809880E+02  0.25602781574E+02  0.51100000000E-03 0.  1.
        -12    1    3    3    0    0  0.60050861314E+00 -0.13063766278E+02  0.72345778221E+00  0.13097556685E+02  0.00000000000E+00 0.  1.
</event>
<event>
 7    1  0.6073302E-013  0.5052886E+02  0.7816164E-02  0.1300439E+00
        -11   -1    0    0    0    0  0.00000000000E+00  0.00000000000E+00  0.45593999997E+02  0.45594000000E+02  0.51100000000E-03 0.  1.
         11   -1    0    0    0    0 -0.00000000000E+00 -0.00000000000E+00 -0.45593999997E+02  0.45594000000E+02  0.51100000000E-03 0. -1.
    9900012    2    1    2    0    0 -0.27841812637E+02  0.12391131116E+02  0.26915770639E+02  0.50528863630E+02  0.30000011490E+02 0.  0.
         12    1    1    2    0    0  0.27841812637E+02 -0.12391131116E+02 -0.26915770639E+02  0.40659136370E+02  0.00000000000E+00 0. -1.
         11    1    3    3    0    0 -0.27089950774E+02 -0.21007792603E+01  0.18213671547E+02  0.32711107256E+02  0.51100000000E-03 0. -1.
        -11    1    3    3    0    0  0.16401974529E+01  0.16396855862E+01  0.22811345147E+01  0.32530587823E+01  0.51100000000E-03 0.  1.
         12    1    3    3    0    0 -0.23920593160E+01  0.12852224790E+02  0.64209645770E+01  0.14564697591E+02  0.00000000000E+00 0. -1.
</event>
<event>
 7    1  0.6073302E-013  0.5052887E+02  0.7816164E-02  0.1300439E+00
        -11   -1    0    0    0    0  0.00000000000E+00  0.00000000000E+00  0.45593999997E+02  0.45594000000E+02  0.51100000000E-03 0.  1.
         11   -1    0    0    0    0 -0.00000000000E+00 -0.00000000000E+00 -0.45593999997E+02  0.45594000000E+02  0.51100000000E-03 0. -1.
    9900012    2    1    2    0    0 -0.14658194897E+02  0.31928615060E+02  0.20466204574E+02  0.50528872280E+02  0.30000037783E+02 0.  0.
         12    1    1    2    0    0  0.14658194897E+02 -0.31928615060E+02 -0.20466204574E+02  0.40659127720E+02  0.00000000000E+00 0. -1.
         11    1    3    3    0    0 -0.31362681443E-01  0.19428946035E+02  0.75326393122E+01  0.20838080116E+02  0.51100000000E-03 0. -1.
        -11    1    3    3    0    0 -0.12504444474E+02 -0.14497571441E+01  0.54256800022E+01  0.13707696055E+02  0.51100000000E-03 0.  1.
        -12    1    3    3    0    0 -0.21223877411E+01  0.13949426168E+02  0.75078852600E+01  0.15983096109E+02  0.00000000000E+00 0.  1.
</event>
<event>
 7    1  0.6073302E-013  0.5052886E+02  0.7816164E-02  0.1300439E+00
        -11   -1    0    0    0    0  0.00000000000E+00  0.00000000000E+00  0.45593999997E+02  0.45594000000E+02  0.51100000000E-03 0.  1.
         11   -1    0    0    0    0 -0.00000000000E+00 -0.00000000000E+00 -0.45593999997E+02  0.45594000000E+02  0.51100000000E-03 0. -1.
    9900012    2    1    2    0    0 -0.33756049931E+02  0.59184952363E+01  0.21878432303E+02  0.50528864583E+02  0.30000014388E+02 0.  0.
         12    1    1    2    0    0  0.33756049931E+02 -0.59184952363E+01 -0.21878432303E+02  0.40659135417E+02  0.00000000000E+00 0. -1.
         11    1    3    3    0    0 -0.48311618203E+01  0.48840357715E+01  0.12117039020E+02  0.13928982907E+02  0.51100000000E-03 0. -1.
        -11    1    3    3    0    0 -0.29941403964E+02  0.39650610880E+01  0.45618400201E+01  0.30545372242E+02  0.51100000000E-03 0.  1.
        -12    1    3    3    0    0  0.10165158541E+01 -0.29306016231E+01  0.51995532629E+01  0.60545094342E+01  0.00000000000E+00 0.  1.
</event>
<event>
 7    1  0.6073302E-013  0.5052888E+02  0.7816164E-02  0.1300439E+00
        -11   -1    0    0    0    0  0.00000000000E+00  0.00000000000E+00  0.45593999997E+02  0.45594000000E+02  0.51100000000E-03 0.  1.
         11   -1    0    0    0    0 -0.00000000000E+00 -0.00000000000E+00 -0.45593999997E+02  0.45594000000E+02  0.51100000000E-03 0. -1.
    9900012    2    1    2    0    0 -0.31638113752E+02  0.23993701646E+02 -0.87462192288E+01  0.50528876653E+02  0.30000051076E+02 0.  0.
         12    1    1    2    0    0  0.31638113752E+02 -0.23993701646E+02  0.87462192288E+01  0.40659123347E+02  0.00000000000E+00 0. -1.
         11    1    3    3    0    0 -0.32358283455E+01  0.28400852668E+01 -0.78272386226E+01  0.89332152174E+01  0.51100000000E-03 0. -1.
        -11    1    3    3    0    0 -0.21787750609E+02  0.25068099116E+02  0.22335744664E+01  0.33288203993E+02  0.51100000000E-03 0.  1.
        -12    1    3    3    0    0 -0.66145347981E+01 -0.39144827365E+01 -0.31525550727E+01  0.83074574435E+01  0.00000000000E+00 0.  1.
</event>
<event>
 7    1  0.6073302E-013  0.5052889E+02  0.7816164E-02  0.1300439E+00
        -11   -1    0    0    0    0  0.00000000000E+00  0.00000000000E+00  0.45593999997E+02  0.45594000000E+02  0.51100000000E-03 0.  1.
         11   -1    0    0    0    0 -0.00000000000E+00 -0.00000000000E+00 -0.45593999997E+02  0.45594000000E+02  0.51100000000E-03 0. -1.
    9900012    2    1    2    0    0 -0.11249619584E+02  0.14846406433E+02  0.36141304596E+02  0.50528885122E+02  0.30000076818E+02 0.  0.
         12    1    1    2    0    0  0.11249619584E+02 -0.14846406433E+02 -0.36141304596E+02  0.40659114878E+02  0.00000000000E+00 0. -1.
         11    1    3    3    0    0 -0.69314989907E+01  0.53161959414E+01  0.23329460143E+01  0.90415847567E+01  0.51100000000E-03 0. -1.
        -11    1    3    3    0    0  0.50204344094E+01  0.12568735329E+02  0.24317380561E+02  0.27830071273E+02  0.51100000000E-03 0.  1.
        -12    1    3    3    0    0 -0.93385550026E+01 -0.30385248368E+01  0.94909780201E+01  0.13657229093E+02  0.00000000000E+00 0.  1.
</event>
<event>
 7    1  0.6073302E-013  0.5052886E+02  0.7816164E-02  0.1300439E+00
        -11   -1    0    0    0    0  0.00000000000E+00  0.00000000000E+00  0.45593999997E+02  0.45594000000E+02  0.51100000000E-03 0.  1.
         11   -1    0    0    0    0 -0.00000000000E+00 -0.00000000000E+00 -0.45593999997E+02  0.45594000000E+02  0.51100000000E-03 0. -1.
    9900012    2    1    2    0    0  0.21929427042E+02 -0.28791566348E+02  0.18528660689E+02  0.50528864125E+02  0.30000012994E+02 0.  0.
         12    1    1    2    0    0 -0.21929427042E+02  0.28791566348E+02 -0.18528660689E+02  0.40659135875E+02  0.00000000000E+00 0. -1.
         11    1    3    3    0    0  0.23035042323E+02 -0.22126925280E+02  0.15623547775E+02  0.35557126466E+02  0.51100000000E-03 0.  1.
        -11    1    3    3    0    0 -0.43214569729E+01 -0.88928228728E+01 -0.33350567432E+00  0.98928517280E+01  0.51100000000E-03 0. -1.
        -12    1    3    3    0    0  0.32158416914E+01  0.22281818047E+01  0.32386185879E+01  0.50788859307E+01  0.00000000000E+00 0.  1.
</event>
<event>
 7    1  0.6073302E-013  0.5052875E+02  0.7816164E-02  0.1300439E+00
        -11   -1    0    0    0    0  0.00000000000E+00  0.00000000000E+00  0.45593999997E+02  0.45594000000E+02  0.51100000000E-03 0.  1.
         11   -1    0    0    0    0 -0.00000000000E+00 -0.00000000000E+00 -0.45593999997E+02  0.45594000000E+02  0.51100000000E-03 0. -1.
    9900012    2    1    2    0    0  0.26234065714E+02 -0.20466789834E+02  0.23367897312E+02  0.50528753637E+02  0.29999677154E+02 0.  0.
         12    1    1    2    0    0 -0.26234065714E+02  0.20466789834E+02 -0.23367897312E+02  0.40659246363E+02  0.00000000000E+00 0. -1.
         11    1    3    3    0    0  0.18790894295E+01 -0.83307996983E+01  0.62465599811E+01  0.10580770887E+02  0.51100000000E-03 0. -1.
        -11    1    3    3    0    0  0.28907790196E+02 -0.82057980532E+01  0.13664478830E+02  0.33010807892E+02  0.51100000000E-03 0.  1.
        -12    1    3    3    0    0 -0.45528139120E+01 -0.39301920828E+01  0.34568585015E+01  0.69371748590E+01  0.00000000000E+00 0.  1.
</event>
<event>
 7    1  0.6073302E-013  0.5052886E+02  0.7816164E-02  0.1300439E+00
        -11   -1    0    0    0    0  0.00000000000E+00  0.00000000000E+00  0.45593999997E+02  0.45594000000E+02  0.51100000000E-03 0.  1.
         11   -1    0    0    0    0 -0.00000000000E+00 -0.00000000000E+00 -0.45593999997E+02  0.45594000000E+02  0.51100000000E-03 0. -1.
    9900012    2    1    2    0    0 -0.15091108996E+02  0.94820841709E+01  0.36544691198E+02  0.50528856555E+02  0.29999989984E+02 0.  0.
         12    1    1    2    0    0  0.15091108996E+02 -0.94820841709E+01 -0.36544691198E+02  0.40659143445E+02  0.00000000000E+00 0. -1.
         11    1    3    3    0    0 -0.19572557053E+00 -0.78718980331E+01  0.12892397955E+02  0.15106919356E+02  0.51100000000E-03 0. -1.
        -11    1    3    3    0    0 -0.10762208609E+02  0.41185340934E+01  0.15577070688E+02  0.19376082903E+02  0.51100000000E-03 0.  1.
         12    1    3    3    0    0 -0.41331748166E+01  0.13235448111E+02  0.80752225554E+01  0.16045854295E+02  0.00000000000E+00 0. -1.
</event>
<event>
 7    1  0.6073302E-013  0.5052889E+02  0.7816164E-02  0.1300439E+00
        -11   -1    0    0    0    0  0.00000000000E+00  0.00000000000E+00  0.45593999997E+02  0.45594000000E+02  0.51100000000E-03 0. -1.
         11   -1    0    0    0    0 -0.00000000000E+00 -0.00000000000E+00 -0.45593999997E+02  0.45594000000E+02  0.51100000000E-03 0.  1.
    9900012    2    1    2    0    0 -0.40399753108E+02 -0.20470212892E+01  0.41027668033E+01  0.50528892253E+02  0.30000098491E+02 0.  0.
         12    1    1    2    0    0  0.40399753108E+02  0.20470212892E+01 -0.41027668033E+01  0.40659107747E+02  0.00000000000E+00 0. -1.
         11    1    3    3    0    0 -0.14681156634E+02  0.11240797169E+02 -0.77495707629E-01  0.18490480982E+02  0.51100000000E-03 0. -1.
        -11    1    3    3    0    0 -0.91318528491E+01 -0.11206026570E+02  0.50146256681E+01  0.15300726741E+02  0.51100000000E-03 0.  1.
        -12    1    3    3    0    0 -0.16586743626E+02 -0.20817918880E+01 -0.83436315718E+00  0.16737684531E+02  0.00000000000E+00 0.  1.
</event>
<event>
 7    1  0.6073302E-013  0.5052886E+02  0.7816164E-02  0.1300439E+00
        -11   -1    0    0    0    0  0.00000000000E+00  0.00000000000E+00  0.45593999997E+02  0.45594000000E+02  0.51100000000E-03 0. -1.
         11   -1    0    0    0    0 -0.00000000000E+00 -0.00000000000E+00 -0.45593999997E+02  0.45594000000E+02  0.51100000000E-03 0.  1.
    9900012    2    1    2    0    0  0.11751228969E+02  0.15848533408E+02 -0.35551348376E+02  0.50528858779E+02  0.29999996746E+02 0.  0.
         12    1    1    2    0    0 -0.11751228969E+02 -0.15848533408E+02  0.35551348376E+02  0.40659141221E+02  0.00000000000E+00 0. -1.
         11    1    3    3    0    0  0.10349730516E+02 -0.45028027875E+01 -0.23641008641E+02  0.26197126647E+02  0.51100000000E-03 0. -1.
        -11    1    3    3    0    0  0.30309696164E+01  0.14922718735E+02 -0.10482742176E+02  0.18486811381E+02  0.51100000000E-03 0.  1.
         12    1    3    3    0    0 -0.16294711642E+01  0.54286174597E+01 -0.14275975590E+01  0.58449207513E+01  0.00000000000E+00 0. -1.
</event>
<event>
 7    1  0.6073302E-013  0.5052886E+02  0.7816164E-02  0.1300439E+00
        -11   -1    0    0    0    0  0.00000000000E+00  0.00000000000E+00  0.45593999997E+02  0.45594000000E+02  0.51100000000E-03 0.  1.
         11   -1    0    0    0    0 -0.00000000000E+00 -0.00000000000E+00 -0.45593999997E+02  0.45594000000E+02  0.51100000000E-03 0. -1.
    9900012    2    1    2    0    0  0.35826055047E+02  0.12528963534E+02  0.14583720702E+02  0.50528855186E+02  0.29999985824E+02 0.  0.
         12    1    1    2    0    0 -0.35826055047E+02 -0.12528963534E+02 -0.14583720702E+02  0.40659144814E+02  0.00000000000E+00 0. -1.
         11    1    3    3    0    0  0.12042782182E+02  0.57590354147E+01 -0.67880804360E+01  0.14975751329E+02  0.51100000000E-03 0. -1.
        -11    1    3    3    0    0  0.13286955769E+02  0.97996226657E+01  0.17247350402E+02  0.23875654842E+02  0.51100000000E-03 0.  1.
        -12    1    3    3    0    0  0.10496317096E+02 -0.30296945469E+01  0.41244507366E+01  0.11677449015E+02  0.00000000000E+00 0.  1.
</event>
<event>
 7    1  0.6073302E-013  0.5052885E+02  0.7816164E-02  0.1300439E+00
        -11   -1    0    0    0    0  0.00000000000E+00  0.00000000000E+00  0.45593999997E+02  0.45594000000E+02  0.51100000000E-03 0.  1.
         11   -1    0    0    0    0 -0.00000000000E+00 -0.00000000000E+00 -0.45593999997E+02  0.45594000000E+02  0.51100000000E-03 0. -1.
    9900012    2    1    2    0    0  0.80454906009E+01 -0.12445997670E+01  0.39835761359E+02  0.50528845673E+02  0.29999956907E+02 0.  0.
         12    1    1    2    0    0 -0.80454906009E+01  0.12445997670E+01 -0.39835761359E+02  0.40659154327E+02  0.00000000000E+00 0. -1.
         11    1    3    3    0    0 -0.45565381097E+01  0.34652184775E+01  0.71163109037E+01  0.91329984004E+01  0.51100000000E-03 0. -1.
        -11    1    3    3    0    0  0.63295981492E+01 -0.12788003797E+02  0.24161577242E+02  0.28060268512E+02  0.51100000000E-03 0.  1.
        -12    1    3    3    0    0  0.62724305613E+01  0.80781855524E+01  0.85578732125E+01  0.13335578761E+02  0.00000000000E+00 0.  1.
</event>
<event>
 7    1  0.6073302E-013  0.5052886E+02  0.7816164E-02  0.1300439E+00
        -11   -1    0    0    0    0  0.00000000000E+00  0.00000000000E+00  0.45593999997E+02  0.45594000000E+02  0.51100000000E-03 0. -1.
         11   -1    0    0    0    0 -0.00000000000E+00 -0.00000000000E+00 -0.45593999997E+02  0.45594000000E+02  0.51100000000E-03 0.  1.
    9900012    2    1    2    0    0 -0.89063309684E+01 -0.10247860429E+02 -0.38325241032E+02  0.50528862345E+02  0.30000007584E+02 0.  0.
         12    1    1    2    0    0  0.89063309684E+01  0.10247860429E+02  0.38325241032E+02  0.40659137655E+02  0.00000000000E+00 0. -1.
         11    1    3    3    0    0 -0.14451210586E+01 -0.89859855455E+01 -0.28245610015E+02  0.29675761093E+02  0.51100000000E-03 0. -1.
        -11    1    3    3    0    0 -0.20890067542E+01  0.75125073209E+01 -0.57620417495E+01  0.96955062193E+01  0.51100000000E-03 0.  1.
         12    1    3    3    0    0 -0.53722031556E+01 -0.87743822048E+01 -0.43175892676E+01  0.11157595032E+02  0.00000000000E+00 0. -1.
</event>
<event>
 7    1  0.6073302E-013  0.5052885E+02  0.7816164E-02  0.1300439E+00
        -11   -1    0    0    0    0  0.00000000000E+00  0.00000000000E+00  0.45593999997E+02  0.45594000000E+02  0.51100000000E-03 0.  1.
         11   -1    0    0    0    0 -0.00000000000E+00 -0.00000000000E+00 -0.45593999997E+02  0.45594000000E+02  0.51100000000E-03 0. -1.
    9900012    2    1    2    0    0  0.29022129130E+02 -0.27723583849E+02 -0.65026920376E+01  0.50528854849E+02  0.29999984799E+02 0.  0.
         12    1    1    2    0    0 -0.29022129130E+02  0.27723583849E+02  0.65026920376E+01  0.40659145151E+02  0.00000000000E+00 0. -1.
         11    1    3    3    0    0  0.25287094896E+02 -0.95244197169E+01 -0.16472394739E+00  0.27021822172E+02  0.51100000000E-03 0. -1.
        -11    1    3    3    0    0  0.30915670717E+01 -0.13245875918E+02 -0.10356850685E+02  0.17096063061E+02  0.51100000000E-03 0.  1.
         12    1    3    3    0    0  0.64346716204E+00 -0.49532882140E+01  0.40188825946E+01  0.64109696169E+01  0.00000000000E+00 0. -1.
</event>
<event>
 7    1  0.6073302E-013  0.5052888E+02  0.7816164E-02  0.1300439E+00
        -11   -1    0    0    0    0  0.00000000000E+00  0.00000000000E+00  0.45593999997E+02  0.45594000000E+02  0.51100000000E-03 0.  1.
         11   -1    0    0    0    0 -0.00000000000E+00 -0.00000000000E+00 -0.45593999997E+02  0.45594000000E+02  0.51100000000E-03 0. -1.
    9900012    2    1    2    0    0  0.30759240037E+02  0.14851062389E+02  0.22056278495E+02  0.50528876513E+02  0.30000050648E+02 0.  0.
         12    1    1    2    0    0 -0.30759240037E+02 -0.14851062389E+02 -0.22056278495E+02  0.40659123487E+02  0.00000000000E+00 0. -1.
         11    1    3    3    0    0 -0.77361667960E+00 -0.13677370189E+01  0.16238253150E+00  0.15797327836E+01  0.51100000000E-03 0. -1.
        -11    1    3    3    0    0  0.24280864157E+02  0.25649954360E+01  0.22875444641E+02  0.33457817227E+02  0.51100000000E-03 0.  1.
        -12    1    3    3    0    0  0.72519925588E+01  0.13653803972E+02 -0.98154867755E+00  0.15491326502E+02  0.00000000000E+00 0.  1.
</event>
<event>
 7    1  0.6073302E-013  0.5052887E+02  0.7816164E-02  0.1300439E+00
        -11   -1    0    0    0    0  0.00000000000E+00  0.00000000000E+00  0.45593999997E+02  0.45594000000E+02  0.51100000000E-03 0.  1.
         11   -1    0    0    0    0 -0.00000000000E+00 -0.00000000000E+00 -0.45593999997E+02  0.45594000000E+02  0.51100000000E-03 0. -1.
    9900012    2    1    2    0    0 -0.13011530504E+02 -0.86095440452E+01  0.37546511558E+02  0.50528871813E+02  0.30000036363E+02 0.  0.
         12    1    1    2    0    0  0.13011530504E+02  0.86095440452E+01 -0.37546511558E+02  0.40659128187E+02  0.00000000000E+00 0. -1.
         11    1    3    3    0    0 -0.64166120169E+01  0.19901163662E+01  0.50509305623E+00  0.67371056235E+01  0.51100000000E-03 0. -1.
        -11    1    3    3    0    0 -0.10839264179E+02 -0.12267271566E+02  0.35298880088E+02  0.38909979894E+02  0.51100000000E-03 0.  1.
        -12    1    3    3    0    0  0.42443456914E+01  0.16676111547E+01  0.17425384135E+01  0.48817862954E+01  0.00000000000E+00 0.  1.
</event>
<event>
 7    1  0.6073302E-013  0.5052889E+02  0.7816164E-02  0.1300439E+00
        -11   -1    0    0    0    0  0.00000000000E+00  0.00000000000E+00  0.45593999997E+02  0.45594000000E+02  0.51100000000E-03 0. -1.
         11   -1    0    0    0    0 -0.00000000000E+00 -0.00000000000E+00 -0.45593999997E+02  0.45594000000E+02  0.51100000000E-03 0.  1.
    9900012    2    1    2    0    0 -0.39596005447E+02 -0.21205599930E+01 -0.89901610947E+01  0.50528887632E+02  0.30000084445E+02 0.  0.
         12    1    1    2    0    0  0.39596005447E+02  0.21205599930E+01  0.89901610947E+01  0.40659112368E+02  0.00000000000E+00 0. -1.
         11    1    3    3    0    0  0.21742996073E+01  0.77645442852E+00  0.14876088944E+01  0.27465324949E+01  0.51100000000E-03 0. -1.
        -11    1    3    3    0    0 -0.38833599252E+02 -0.88204621638E+01 -0.74630695797E+01  0.40516001671E+02  0.51100000000E-03 0.  1.
        -12    1    3    3    0    0 -0.29367058028E+01  0.59234477423E+01 -0.30147004093E+01  0.72663534656E+01  0.00000000000E+00 0.  1.
</event>
<event>
 7    1  0.6073302E-013  0.5052886E+02  0.7816164E-02  0.1300439E+00
        -11   -1    0    0    0    0  0.00000000000E+00  0.00000000000E+00  0.45593999997E+02  0.45594000000E+02  0.51100000000E-03 0.  1.
         11   -1    0    0    0    0 -0.00000000000E+00 -0.00000000000E+00 -0.45593999997E+02  0.45594000000E+02  0.51100000000E-03 0. -1.
    9900012    2    1    2    0    0  0.10588757022E+02 -0.97177280635E+01  0.38034317213E+02  0.50528864497E+02  0.30000014124E+02 0.  0.
         12    1    1    2    0    0 -0.10588757022E+02  0.97177280635E+01 -0.38034317213E+02  0.40659135503E+02  0.00000000000E+00 0. -1.
         11    1    3    3    0    0 -0.50088282313E+01  0.19687320480E+01  0.56453859399E+01  0.77996569667E+01  0.51100000000E-03 0. -1.
        -11    1    3    3    0    0  0.13629184997E+02 -0.16391176883E+02  0.30663460574E+02  0.37345323374E+02  0.51100000000E-03 0.  1.
        -12    1    3    3    0    0  0.19684002558E+01  0.47047167714E+01  0.17254706994E+01  0.53838841556E+01  0.00000000000E+00 0.  1.
</event>
<event>
 7    1  0.6073302E-013  0.5052888E+02  0.7816164E-02  0.1300439E+00
        -11   -1    0    0    0    0  0.00000000000E+00  0.00000000000E+00  0.45593999997E+02  0.45594000000E+02  0.51100000000E-03 0. -1.
         11   -1    0    0    0    0 -0.00000000000E+00 -0.00000000000E+00 -0.45593999997E+02  0.45594000000E+02  0.51100000000E-03 0.  1.
    9900012    2    1    2    0    0 -0.34429183598E+02 -0.43542955009E+01 -0.21185741854E+02  0.50528877648E+02  0.30000054099E+02 0.  0.
         12    1    1    2    0    0  0.34429183598E+02  0.43542955009E+01  0.21185741854E+02  0.40659122352E+02  0.00000000000E+00 0. -1.
         11    1    3    3    0    0 -0.53403796655E+01 -0.10459673447E+02 -0.14625569732E+02  0.18757177662E+02  0.51100000000E-03 0. -1.
        -11    1    3    3    0    0 -0.25948338894E+02  0.22820094944E+01 -0.46091377057E+01  0.26453128536E+02  0.51100000000E-03 0.  1.
        -12    1    3    3    0    0 -0.31404650376E+01  0.38233684520E+01 -0.19510344171E+01  0.53185714500E+01  0.00000000000E+00 0.  1.
</event>
<event>
 7    1  0.6073302E-013  0.5052886E+02  0.7816164E-02  0.1300439E+00
        -11   -1    0    0    0    0  0.00000000000E+00  0.00000000000E+00  0.45593999997E+02  0.45594000000E+02  0.51100000000E-03 0. -1.
         11   -1    0    0    0    0 -0.00000000000E+00 -0.00000000000E+00 -0.45593999997E+02  0.45594000000E+02  0.51100000000E-03 0.  1.
    9900012    2    1    2    0    0  0.33901669201E+02  0.21996951559E+02 -0.44694961575E+01  0.50528862671E+02  0.30000008574E+02 0.  0.
         12    1    1    2    0    0 -0.33901669201E+02 -0.21996951559E+02  0.44694961575E+01  0.40659137329E+02  0.00000000000E+00 0. -1.
         11    1    3    3    0    0  0.88390230669E+00  0.20837200744E+01  0.87268000714E+01  0.90155539144E+01  0.51100000000E-03 0. -1.
        -11    1    3    3    0    0  0.19765965701E+02  0.15822926018E+02 -0.66536164477E+01  0.26178789123E+02  0.51100000000E-03 0.  1.
         12    1    3    3    0    0  0.13251801193E+02  0.40903054663E+01 -0.65426797812E+01  0.15334519633E+02  0.00000000000E+00 0. -1.
</event>
<event>
 7    1  0.6073302E-013  0.5052885E+02  0.7816164E-02  0.1300439E+00
        -11   -1    0    0    0    0  0.00000000000E+00  0.00000000000E+00  0.45593999997E+02  0.45594000000E+02  0.51100000000E-03 0. -1.
         11   -1    0    0    0    0 -0.00000000000E+00 -0.00000000000E+00 -0.45593999997E+02  0.45594000000E+02  0.51100000000E-03 0.  1.
    9900012    2    1    2    0    0 -0.49306116579E+01  0.40120142099E+02  0.43851947481E+01  0.50528847693E+02  0.29999963047E+02 0.  0.
         12    1    1    2    0    0  0.49306116579E+01 -0.40120142099E+02 -0.43851947481E+01  0.40659152307E+02  0.00000000000E+00 0. -1.
         11    1    3    3    0    0 -0.83381974022E+00  0.21535822937E+02  0.16985616186E+02  0.27440810528E+02  0.51100000000E-03 0. -1.
        -11    1    3    3    0    0 -0.38606652542E+01  0.10562493101E+02 -0.63418640634E+01  0.12910857321E+02  0.51100000000E-03 0.  1.
         12    1    3    3    0    0 -0.23612666345E+00  0.80218260609E+01 -0.62585573747E+01  0.10177179843E+02  0.00000000000E+00 0. -1.
</event>
<event>
 7    1  0.6073302E-013  0.5052886E+02  0.7816164E-02  0.1300439E+00
        -11   -1    0    0    0    0  0.00000000000E+00  0.00000000000E+00  0.45593999997E+02  0.45594000000E+02  0.51100000000E-03 0.  1.
         11   -1    0    0    0    0 -0.00000000000E+00 -0.00000000000E+00 -0.45593999997E+02  0.45594000000E+02  0.51100000000E-03 0. -1.
    9900012    2    1    2    0    0  0.97121951570E+01  0.31247725046E+02  0.24133348847E+02  0.50528861029E+02  0.30000003584E+02 0.  0.
         12    1    1    2    0    0 -0.97121951570E+01 -0.31247725046E+02 -0.24133348847E+02  0.40659138971E+02  0.00000000000E+00 0. -1.
         11    1    3    3    0    0 -0.50746425255E+01  0.15432073628E+02  0.18161038606E+02  0.24366456795E+02  0.51100000000E-03 0.  1.
        -11    1    3    3    0    0  0.93653193809E+00  0.45285709892E+00 -0.33254300225E+01  0.34843445178E+01  0.51100000000E-03 0. -1.
         12    1    3    3    0    0  0.13850305744E+02  0.15362794319E+02  0.92977402631E+01  0.22678059716E+02  0.00000000000E+00 0. -1.
</event>
<event>
 7    1  0.6073302E-013  0.5052885E+02  0.7816164E-02  0.1300439E+00
        -11   -1    0    0    0    0  0.00000000000E+00  0.00000000000E+00  0.45593999997E+02  0.45594000000E+02  0.51100000000E-03 0. -1.
         11   -1    0    0    0    0 -0.00000000000E+00 -0.00000000000E+00 -0.45593999997E+02  0.45594000000E+02  0.51100000000E-03 0.  1.
    9900012    2    1    2    0    0 -0.25114827203E+02  0.15843938747E+02 -0.27773753904E+02  0.50528851627E+02  0.29999975005E+02 0.  0.
         12    1    1    2    0    0  0.25114827203E+02 -0.15843938747E+02  0.27773753904E+02  0.40659148373E+02  0.00000000000E+00 0. -1.
         11    1    3    3    0    0 -0.16219417285E+00  0.62448374742E+01  0.41196459242E+01  0.74830331305E+01  0.51100000000E-03 0. -1.
        -11    1    3    3    0    0 -0.13240662190E+02  0.97156663892E+01 -0.23356315686E+02  0.28552176647E+02  0.51100000000E-03 0.  1.
         12    1    3    3    0    0 -0.11711970840E+02 -0.11656511647E+00 -0.85370841430E+01  0.14493641849E+02  0.00000000000E+00 0. -1.
</event>
<event>
 7    1  0.6073302E-013  0.5052886E+02  0.7816164E-02  0.1300439E+00
        -11   -1    0    0    0    0  0.00000000000E+00  0.00000000000E+00  0.45593999997E+02  0.45594000000E+02  0.51100000000E-03 0.  1.
         11   -1    0    0    0    0 -0.00000000000E+00 -0.00000000000E+00 -0.45593999997E+02  0.45594000000E+02  0.51100000000E-03 0. -1.
    9900012    2    1    2    0    0 -0.23584023685E+02 -0.22332714525E+02  0.24458320064E+02  0.50528859188E+02  0.29999997989E+02 0.  0.
         12    1    1    2    0    0  0.23584023685E+02  0.22332714525E+02 -0.24458320064E+02  0.40659140812E+02  0.00000000000E+00 0. -1.
         11    1    3    3    0    0 -0.86537691576E+01 -0.11341367273E+02 -0.45672904837E+01  0.14979134650E+02  0.51100000000E-03 0. -1.
        -11    1    3    3    0    0 -0.57246553160E+01 -0.96385135643E+01  0.15289276501E+02  0.18958760466E+02  0.51100000000E-03 0.  1.
         12    1    3    3    0    0 -0.92055992111E+01 -0.13528336879E+01  0.13736334046E+02  0.16590964072E+02  0.00000000000E+00 0. -1.
</event>
<event>
 7    1  0.6073302E-013  0.5052886E+02  0.7816164E-02  0.1300439E+00
        -11   -1    0    0    0    0  0.00000000000E+00  0.00000000000E+00  0.45593999997E+02  0.45594000000E+02  0.51100000000E-03 0.  1.
         11   -1    0    0    0    0 -0.00000000000E+00 -0.00000000000E+00 -0.45593999997E+02  0.45594000000E+02  0.51100000000E-03 0. -1.
    9900012    2    1    2    0    0  0.30653752411E+02 -0.20038280971E+02 -0.17662965819E+02  0.50528860773E+02  0.30000002806E+02 0.  0.
         12    1    1    2    0    0 -0.30653752411E+02  0.20038280971E+02  0.17662965819E+02  0.40659139227E+02  0.00000000000E+00 0. -1.
         11    1    3    3    0    0  0.22662947636E+02 -0.16993475100E+01 -0.10655843345E+02  0.25100676787E+02  0.51100000000E-03 0. -1.
        -11    1    3    3    0    0  0.74689355980E+01 -0.14991834279E+02  0.95383006104E+00  0.16776468223E+02  0.51100000000E-03 0.  1.
         12    1    3    3    0    0  0.52186917711E+00 -0.33470991822E+01 -0.79609525350E+01  0.86517157626E+01  0.00000000000E+00 0. -1.
</event>
<event>
 7    1  0.6073302E-013  0.5052886E+02  0.7816164E-02  0.1300439E+00
        -11   -1    0    0    0    0  0.00000000000E+00  0.00000000000E+00  0.45593999997E+02  0.45594000000E+02  0.51100000000E-03 0.  1.
         11   -1    0    0    0    0 -0.00000000000E+00 -0.00000000000E+00 -0.45593999997E+02  0.45594000000E+02  0.51100000000E-03 0. -1.
    9900012    2    1    2    0    0 -0.14242408321E+02 -0.35830934107E+02  0.12902079386E+02  0.50528859746E+02  0.29999999683E+02 0.  0.
         12    1    1    2    0    0  0.14242408321E+02  0.35830934107E+02 -0.12902079386E+02  0.40659140254E+02  0.00000000000E+00 0. -1.
         11    1    3    3    0    0 -0.25234827409E+01  0.23952866259E+01 -0.71024933527E+00  0.35510304903E+01  0.51100000000E-03 0. -1.
        -11    1    3    3    0    0 -0.13774387288E+02 -0.39942581485E+02  0.12360772136E+02  0.44021951898E+02  0.51100000000E-03 0.  1.
        -12    1    3    3    0    0  0.20554617076E+01  0.17163607527E+01  0.12515565848E+01  0.29558773571E+01  0.00000000000E+00 0.  1.
</event>
<event>
 7    1  0.6073302E-013  0.5052886E+02  0.7816164E-02  0.1300439E+00
        -11   -1    0    0    0    0  0.00000000000E+00  0.00000000000E+00  0.45593999997E+02  0.45594000000E+02  0.51100000000E-03 0.  1.
         11   -1    0    0    0    0 -0.00000000000E+00 -0.00000000000E+00 -0.45593999997E+02  0.45594000000E+02  0.51100000000E-03 0. -1.
    9900012    2    1    2    0    0  0.77576425780E+00  0.39736565544E+02  0.85772509249E+01  0.50528859763E+02  0.29999999735E+02 0.  0.
         12    1    1    2    0    0 -0.77576425780E+00 -0.39736565544E+02 -0.85772509249E+01  0.40659140237E+02  0.00000000000E+00 0. -1.
         11    1    3    3    0    0 -0.95817524873E+01  0.10648368417E+02  0.99457099782E+01  0.17438889813E+02  0.51100000000E-03 0. -1.
        -11    1    3    3    0    0  0.59308901706E+01  0.27319582547E+02 -0.28432883881E+01  0.28100166153E+02  0.51100000000E-03 0.  1.
         12    1    3    3    0    0  0.44266265745E+01  0.17686145805E+01  0.14748293348E+01  0.49898037969E+01  0.00000000000E+00 0. -1.
</event>
<event>
 7    1  0.6073302E-013  0.5052883E+02  0.7816164E-02  0.1300439E+00
        -11   -1    0    0    0    0  0.00000000000E+00  0.00000000000E+00  0.45593999997E+02  0.45594000000E+02  0.51100000000E-03 0.  1.
         11   -1    0    0    0    0 -0.00000000000E+00 -0.00000000000E+00 -0.45593999997E+02  0.45594000000E+02  0.51100000000E-03 0. -1.
    9900012    2    1    2    0    0  0.66702062764E+01  0.33413472963E+02  0.22185943773E+02  0.50528832174E+02  0.29999915876E+02 0.  0.
         12    1    1    2    0    0 -0.66702062764E+01 -0.33413472963E+02 -0.22185943773E+02  0.40659167826E+02  0.00000000000E+00 0. -1.
         11    1    3    3    0    0  0.39275652703E+01  0.45146240119E+01  0.82612607819E+01  0.10200785700E+02  0.51100000000E-03 0. -1.
        -11    1    3    3    0    0  0.95655374013E+01  0.24465073536E+02  0.26192930229E+01  0.26398864087E+02  0.51100000000E-03 0.  1.
        -12    1    3    3    0    0 -0.68228963952E+01  0.44337754148E+01  0.11305389968E+02  0.13929182387E+02  0.00000000000E+00 0.  1.
</event>
<event>
 7    1  0.6073302E-013  0.5052887E+02  0.7816164E-02  0.1300439E+00
        -11   -1    0    0    0    0  0.00000000000E+00  0.00000000000E+00  0.45593999997E+02  0.45594000000E+02  0.51100000000E-03 0. -1.
         11   -1    0    0    0    0 -0.00000000000E+00 -0.00000000000E+00 -0.45593999997E+02  0.45594000000E+02  0.51100000000E-03 0.  1.
    9900012    2    1    2    0    0  0.33368791559E+02  0.24739342847E+01 -0.23099089785E+02  0.50528873720E+02  0.30000042159E+02 0.  0.
         12    1    1    2    0    0 -0.33368791559E+02 -0.24739342847E+01  0.23099089785E+02  0.40659126280E+02  0.00000000000E+00 0. -1.
         11    1    3    3    0    0  0.24200622955E+02 -0.77033285213E+01 -0.21616090872E+02  0.33350664260E+02  0.51100000000E-03 0. -1.
        -11    1    3    3    0    0  0.83020439920E+01  0.11476532711E+02 -0.35356183090E+01  0.14599155270E+02  0.51100000000E-03 0.  1.
         12    1    3    3    0    0  0.86612461167E+00 -0.12992699052E+01  0.20526193959E+01  0.25790541898E+01  0.00000000000E+00 0. -1.
</event>
<event>
 7    1  0.6073302E-013  0.5052884E+02  0.7816164E-02  0.1300439E+00
        -11   -1    0    0    0    0  0.00000000000E+00  0.00000000000E+00  0.45593999997E+02  0.45594000000E+02  0.51100000000E-03 0.  1.
         11   -1    0    0    0    0 -0.00000000000E+00 -0.00000000000E+00 -0.45593999997E+02  0.45594000000E+02  0.51100000000E-03 0. -1.
    9900012    2    1    2    0    0  0.24474653964E+02  0.90289482984E+01  0.31187119689E+02  0.50528843239E+02  0.29999949510E+02 0.  0.
         12    1    1    2    0    0 -0.24474653964E+02 -0.90289482984E+01 -0.31187119689E+02  0.40659156761E+02  0.00000000000E+00 0. -1.
         11    1    3    3    0    0  0.11756041495E+02 -0.51288128860E+01  0.22553827450E+02  0.25945796696E+02  0.51100000000E-03 0. -1.
        -11    1    3    3    0    0  0.11519580545E+02  0.53799621936E+01  0.76971928117E+00  0.12737236638E+02  0.51100000000E-03 0.  1.
         12    1    3    3    0    0  0.11990319244E+01  0.87777989907E+01  0.78635729572E+01  0.11845809906E+02  0.00000000000E+00 0. -1.
</event>
<event>
 7    1  0.6073302E-013  0.5052886E+02  0.7816164E-02  0.1300439E+00
        -11   -1    0    0    0    0  0.00000000000E+00  0.00000000000E+00  0.45593999997E+02  0.45594000000E+02  0.51100000000E-03 0. -1.
         11   -1    0    0    0    0 -0.00000000000E+00 -0.00000000000E+00 -0.45593999997E+02  0.45594000000E+02  0.51100000000E-03 0.  1.
    9900012    2    1    2    0    0  0.30564748085E+02 -0.24533074237E+02 -0.10820819224E+02  0.50528859752E+02  0.29999999703E+02 0.  0.
         12    1    1    2    0    0 -0.30564748085E+02  0.24533074237E+02  0.10820819224E+02  0.40659140248E+02  0.00000000000E+00 0. -1.
         11    1    3    3    0    0  0.87666953557E+01 -0.11080684592E+02 -0.17230794877E+02  0.22283105952E+02  0.51100000000E-03 0. -1.
        -11    1    3    3    0    0  0.19158161789E+02 -0.13305327606E+02  0.24079447002E+01  0.23449202626E+02  0.51100000000E-03 0.  1.
         12    1    3    3    0    0  0.26398909403E+01 -0.14706203920E+00  0.40020309537E+01  0.47965511750E+01  0.00000000000E+00 0. -1.
</event>
<event>
 7    1  0.6073302E-013  0.5052891E+02  0.7816164E-02  0.1300439E+00
        -11   -1    0    0    0    0  0.00000000000E+00  0.00000000000E+00  0.45593999997E+02  0.45594000000E+02  0.51100000000E-03 0.  1.
         11   -1    0    0    0    0 -0.00000000000E+00 -0.00000000000E+00 -0.45593999997E+02  0.45594000000E+02  0.51100000000E-03 0. -1.
    9900012    2    1    2    0    0  0.25655770766E+01  0.26660255637E+02  0.30591018527E+02  0.50528907156E+02  0.30000143791E+02 0.  0.
         12    1    1    2    0    0 -0.25655770766E+01 -0.26660255637E+02 -0.30591018527E+02  0.40659092844E+02  0.00000000000E+00 0. -1.
         11    1    3    3    0    0  0.60925198829E+01  0.61336695025E+01  0.39860494651E+01  0.95199417377E+01  0.51100000000E-03 0. -1.
        -11    1    3    3    0    0 -0.10800190184E+02  0.15595531676E+02  0.83045693222E+01  0.20708225133E+02  0.51100000000E-03 0.  1.
        -12    1    3    3    0    0  0.72732473772E+01  0.49310544581E+01  0.18300399740E+02  0.20300740285E+02  0.00000000000E+00 0.  1.
</event>
<event>
 7    1  0.6073302E-013  0.5052887E+02  0.7816164E-02  0.1300439E+00
        -11   -1    0    0    0    0  0.00000000000E+00  0.00000000000E+00  0.45593999997E+02  0.45594000000E+02  0.51100000000E-03 0.  1.
         11   -1    0    0    0    0 -0.00000000000E+00 -0.00000000000E+00 -0.45593999997E+02  0.45594000000E+02  0.51100000000E-03 0. -1.
    9900012    2    1    2    0    0  0.22312804010E+02  0.32632669661E+02  0.95085617810E+01  0.50528866965E+02  0.30000021626E+02 0.  0.
         12    1    1    2    0    0 -0.22312804010E+02 -0.32632669661E+02 -0.95085617810E+01  0.40659133035E+02  0.00000000000E+00 0. -1.
         11    1    3    3    0    0  0.95139092332E+01  0.45210476001E+01 -0.15171388470E+00  0.10534579140E+02  0.51100000000E-03 0. -1.
        -11    1    3    3    0    0  0.88206119666E+01  0.29069468035E+02  0.14495957979E+02  0.33659619209E+02  0.51100000000E-03 0.  1.
        -12    1    3    3    0    0  0.39782828106E+01 -0.95784597395E+00 -0.48356823133E+01  0.63346686153E+01  0.00000000000E+00 0.  1.
</event>
<event>
 7    1  0.6073302E-013  0.5052887E+02  0.7816164E-02  0.1300439E+00
        -11   -1    0    0    0    0  0.00000000000E+00  0.00000000000E+00  0.45593999997E+02  0.45594000000E+02  0.51100000000E-03 0.  1.
         11   -1    0    0    0    0 -0.00000000000E+00 -0.00000000000E+00 -0.45593999997E+02  0.45594000000E+02  0.51100000000E-03 0. -1.
    9900012    2    1    2    0    0 -0.36680493047E+02  0.69333903263E+01  0.16113175592E+02  0.50528869423E+02  0.30000029099E+02 0.  0.
         12    1    1    2    0    0  0.36680493047E+02 -0.69333903263E+01 -0.16113175592E+02  0.40659130577E+02  0.00000000000E+00 0. -1.
         11    1    3    3    0    0 -0.35454929271E+01  0.32894387958E+01  0.17914109612E+01  0.51575266534E+01  0.51100000000E-03 0. -1.
        -11    1    3    3    0    0 -0.21229156087E+02  0.78755869220E+01  0.21171235820E+02  0.30998760684E+02  0.51100000000E-03 0.  1.
        -12    1    3    3    0    0 -0.11905844033E+02 -0.42316353916E+01 -0.68494711896E+01  0.14372582085E+02  0.00000000000E+00 0.  1.
</event>
<event>
 7    1  0.6073302E-013  0.5052885E+02  0.7816164E-02  0.1300439E+00
        -11   -1    0    0    0    0  0.00000000000E+00  0.00000000000E+00  0.45593999997E+02  0.45594000000E+02  0.51100000000E-03 0.  1.
         11   -1    0    0    0    0 -0.00000000000E+00 -0.00000000000E+00 -0.45593999997E+02  0.45594000000E+02  0.51100000000E-03 0. -1.
    9900012    2    1    2    0    0 -0.12183018995E+02 -0.18093710671E+02  0.34312647819E+02  0.50528854436E+02  0.29999983542E+02 0.  0.
         12    1    1    2    0    0  0.12183018995E+02  0.18093710671E+02 -0.34312647819E+02  0.40659145564E+02  0.00000000000E+00 0. -1.
         11    1    3    3    0    0 -0.13585540234E+02 -0.32510557569E+01  0.10783716320E+02  0.17647232217E+02  0.51100000000E-03 0. -1.
        -11    1    3    3    0    0 -0.31653211594E+01 -0.76156056857E+01  0.22864310440E+02  0.24306242000E+02  0.51100000000E-03 0.  1.
        -12    1    3    3    0    0  0.45678423990E+01 -0.72270492283E+01  0.66462105835E+00  0.85753802179E+01  0.00000000000E+00 0.  1.
</event>
<event>
 7    1  0.6073302E-013  0.5052886E+02  0.7816164E-02  0.1300439E+00
        -11   -1    0    0    0    0  0.00000000000E+00  0.00000000000E+00  0.45593999997E+02  0.45594000000E+02  0.51100000000E-03 0. -1.
         11   -1    0    0    0    0 -0.00000000000E+00 -0.00000000000E+00 -0.45593999997E+02  0.45594000000E+02  0.51100000000E-03 0.  1.
    9900012    2    1    2    0    0  0.31290415107E+01  0.35146437968E+02  0.20201548773E+02  0.50528861108E+02  0.30000003823E+02 0.  0.
         12    1    1    2    0    0 -0.31290415107E+01 -0.35146437968E+02 -0.20201548773E+02  0.40659138892E+02  0.00000000000E+00 0. -1.
         11    1    3    3    0    0  0.10564071852E+02  0.15346874389E+01  0.20392606376E+00  0.10676912743E+02  0.51100000000E-03 0. -1.
        -11    1    3    3    0    0 -0.34393330622E+01  0.11981245849E+02  0.76903419513E+01  0.14646522577E+02  0.51100000000E-03 0.  1.
         12    1    3    3    0    0 -0.39956972788E+01  0.21630504681E+02  0.12307280758E+02  0.25205425788E+02  0.00000000000E+00 0. -1.
</event>
<event>
 7    1  0.6073302E-013  0.5052882E+02  0.7816164E-02  0.1300439E+00
        -11   -1    0    0    0    0  0.00000000000E+00  0.00000000000E+00  0.45593999997E+02  0.45594000000E+02  0.51100000000E-03 0.  1.
         11   -1    0    0    0    0 -0.00000000000E+00 -0.00000000000E+00 -0.45593999997E+02  0.45594000000E+02  0.51100000000E-03 0. -1.
    9900012    2    1    2    0    0  0.81926484600E+01 -0.27630644481E+02  0.28680953668E+02  0.50528817685E+02  0.29999871834E+02 0.  0.
         12    1    1    2    0    0 -0.81926484600E+01  0.27630644481E+02 -0.28680953668E+02  0.40659182315E+02  0.00000000000E+00 0. -1.
         11    1    3    3    0    0 -0.41448292722E+01 -0.23360632305E+02  0.15886916220E+02  0.28553333581E+02  0.51100000000E-03 0.  1.
        -11    1    3    3    0    0  0.95128350303E+01 -0.42644271254E+01  0.15086248939E+02  0.18337782754E+02  0.51100000000E-03 0. -1.
         12    1    3    3    0    0  0.28246427019E+01 -0.55850506563E-02 -0.22922114909E+01  0.36377013491E+01  0.00000000000E+00 0. -1.
</event>
<event>
 7    1  0.6073302E-013  0.5052886E+02  0.7816164E-02  0.1300439E+00
        -11   -1    0    0    0    0  0.00000000000E+00  0.00000000000E+00  0.45593999997E+02  0.45594000000E+02  0.51100000000E-03 0.  1.
         11   -1    0    0    0    0 -0.00000000000E+00 -0.00000000000E+00 -0.45593999997E+02  0.45594000000E+02  0.51100000000E-03 0. -1.
    9900012    2    1    2    0    0 -0.11435248294E+02  0.18636399619E+02  0.34279519628E+02  0.50528858835E+02  0.29999996916E+02 0.  0.
         12    1    1    2    0    0  0.11435248294E+02 -0.18636399619E+02 -0.34279519628E+02  0.40659141165E+02  0.00000000000E+00 0. -1.
         11    1    3    3    0    0 -0.11873022431E+02  0.58522317204E+01  0.20681102237E+01  0.13397550445E+02  0.51100000000E-03 0. -1.
        -11    1    3    3    0    0  0.48730365240E+01  0.69891242676E+01  0.26583996139E+02  0.27916002471E+02  0.51100000000E-03 0.  1.
        -12    1    3    3    0    0 -0.44352623872E+01  0.57950436310E+01  0.56274132649E+01  0.92153059191E+01  0.00000000000E+00 0.  1.
</event>
<event>
 7    1  0.6073302E-013  0.5052886E+02  0.7816164E-02  0.1300439E+00
        -11   -1    0    0    0    0  0.00000000000E+00  0.00000000000E+00  0.45593999997E+02  0.45594000000E+02  0.51100000000E-03 0.  1.
         11   -1    0    0    0    0 -0.00000000000E+00 -0.00000000000E+00 -0.45593999997E+02  0.45594000000E+02  0.51100000000E-03 0. -1.
    9900012    2    1    2    0    0 -0.20463700886E+02  0.33888735090E+02  0.92712425966E+01  0.50528863767E+02  0.30000011905E+02 0.  0.
         12    1    1    2    0    0  0.20463700886E+02 -0.33888735090E+02 -0.92712425966E+01  0.40659136233E+02  0.00000000000E+00 0. -1.
         11    1    3    3    0    0 -0.59074200460E+01  0.59812727210E+01 -0.12464466709E+01  0.84986389809E+01  0.51100000000E-03 0. -1.
        -11    1    3    3    0    0  0.11331700386E+00  0.24944044728E+02  0.25467786501E+01  0.25073976348E+02  0.51100000000E-03 0.  1.
        -12    1    3    3    0    0 -0.14669597844E+02  0.29634176409E+01  0.79709106174E+01  0.16956248438E+02  0.00000000000E+00 0.  1.
</event>
<event>
 7    1  0.6073302E-013  0.5052887E+02  0.7816164E-02  0.1300439E+00
        -11   -1    0    0    0    0  0.00000000000E+00  0.00000000000E+00  0.45593999997E+02  0.45594000000E+02  0.51100000000E-03 0. -1.
         11   -1    0    0    0    0 -0.00000000000E+00 -0.00000000000E+00 -0.45593999997E+02  0.45594000000E+02  0.51100000000E-03 0.  1.
    9900012    2    1    2    0    0  0.11565374133E+02  0.26825882927E+02 -0.28280368925E+02  0.50528866461E+02  0.30000020095E+02 0.  0.
         12    1    1    2    0    0 -0.11565374133E+02 -0.26825882927E+02  0.28280368925E+02  0.40659133539E+02  0.00000000000E+00 0. -1.
         11    1    3    3    0    0  0.17094573436E+02  0.59608682708E+01 -0.18646907157E+02  0.25989681381E+02  0.51100000000E-03 0. -1.
        -11    1    3    3    0    0 -0.25404529854E+01  0.16821372838E+02 -0.95518002034E+01  0.19510237643E+02  0.51100000000E-03 0.  1.
         12    1    3    3    0    0 -0.29887463178E+01  0.40436418185E+01 -0.81661564078E-01  0.50289474365E+01  0.00000000000E+00 0. -1.
</event>
<event>
 7    1  0.6073302E-013  0.5052887E+02  0.7816164E-02  0.1300439E+00
        -11   -1    0    0    0    0  0.00000000000E+00  0.00000000000E+00  0.45593999997E+02  0.45594000000E+02  0.51100000000E-03 0.  1.
         11   -1    0    0    0    0 -0.00000000000E+00 -0.00000000000E+00 -0.45593999997E+02  0.45594000000E+02  0.51100000000E-03 0. -1.
    9900012    2    1    2    0    0 -0.27767313529E+02 -0.13325788214E+02  0.26543636308E+02  0.50528868669E+02  0.30000026805E+02 0.  0.
         12    1    1    2    0    0  0.27767313529E+02  0.13325788214E+02 -0.26543636308E+02  0.40659131331E+02  0.00000000000E+00 0. -1.
         11    1    3    3    0    0 -0.21457958034E+02 -0.15568238005E+02  0.92350836251E+01  0.28073132483E+02  0.51100000000E-03 0. -1.
        -11    1    3    3    0    0  0.50711294941E-01  0.65669374168E+01  0.70578069402E+01  0.96405330629E+01  0.51100000000E-03 0.  1.
        -12    1    3    3    0    0 -0.63600667901E+01 -0.43244876256E+01  0.10250745743E+02  0.12815203123E+02  0.00000000000E+00 0.  1.
</event>
<event>
 7    1  0.6073302E-013  0.5052884E+02  0.7816164E-02  0.1300439E+00
        -11   -1    0    0    0    0  0.00000000000E+00  0.00000000000E+00  0.45593999997E+02  0.45594000000E+02  0.51100000000E-03 0. -1.
         11   -1    0    0    0    0 -0.00000000000E+00 -0.00000000000E+00 -0.45593999997E+02  0.45594000000E+02  0.51100000000E-03 0.  1.
    9900012    2    1    2    0    0  0.61916754109E+01 -0.21617785741E+02 -0.33874795379E+02  0.50528840310E+02  0.29999940606E+02 0.  0.
         12    1    1    2    0    0 -0.61916754109E+01  0.21617785741E+02  0.33874795379E+02  0.40659159690E+02  0.00000000000E+00 0. -1.
         11    1    3    3    0    0 -0.33459803625E+01  0.35149427754E+01 -0.32255468571E+01  0.58270541518E+01  0.51100000000E-03 0. -1.
        -11    1    3    3    0    0  0.11187083948E+01 -0.20640218152E+02 -0.12390269646E+02  0.24099562154E+02  0.51100000000E-03 0.  1.
        -12    1    3    3    0    0  0.84189473785E+01 -0.44925103641E+01 -0.18258978876E+02  0.20602224004E+02  0.00000000000E+00 0.  1.
</event>
<event>
 7    1  0.6073302E-013  0.5052886E+02  0.7816164E-02  0.1300439E+00
        -11   -1    0    0    0    0  0.00000000000E+00  0.00000000000E+00  0.45593999997E+02  0.45594000000E+02  0.51100000000E-03 0.  1.
         11   -1    0    0    0    0 -0.00000000000E+00 -0.00000000000E+00 -0.45593999997E+02  0.45594000000E+02  0.51100000000E-03 0. -1.
    9900012    2    1    2    0    0  0.11492200992E+02 -0.16886806999E+02  0.35155807163E+02  0.50528859435E+02  0.29999998737E+02 0.  0.
         12    1    1    2    0    0 -0.11492200992E+02  0.16886806999E+02 -0.35155807163E+02  0.40659140565E+02  0.00000000000E+00 0. -1.
         11    1    3    3    0    0  0.53105346102E+01  0.18310458598E+01 -0.15241231225E+00  0.56194071361E+01  0.51100000000E-03 0. -1.
        -11    1    3    3    0    0  0.39384339667E+01 -0.10187589892E+02  0.34341192970E+02  0.36036312031E+02  0.51100000000E-03 0.  1.
        -12    1    3    3    0    0  0.22432324150E+01 -0.85302629667E+01  0.96702650510E+00  0.88731402677E+01  0.00000000000E+00 0.  1.
</event>
<event>
 7    1  0.6073302E-013  0.5052886E+02  0.7816164E-02  0.1300439E+00
        -11   -1    0    0    0    0  0.00000000000E+00  0.00000000000E+00  0.45593999997E+02  0.45594000000E+02  0.51100000000E-03 0.  1.
         11   -1    0    0    0    0 -0.00000000000E+00 -0.00000000000E+00 -0.45593999997E+02  0.45594000000E+02  0.51100000000E-03 0. -1.
    9900012    2    1    2    0    0 -0.50698310814E+01 -0.32355916115E+02  0.24094759758E+02  0.50528856593E+02  0.29999990099E+02 0.  0.
         12    1    1    2    0    0  0.50698310814E+01  0.32355916115E+02 -0.24094759758E+02  0.40659143407E+02  0.00000000000E+00 0. -1.
         11    1    3    3    0    0 -0.63782811883E+00  0.49047368832E+01  0.45184971257E+00  0.49666323627E+01  0.51100000000E-03 0. -1.
        -11    1    3    3    0    0 -0.13384418222E+01 -0.32900781799E+02  0.23027390989E+02  0.40181010508E+02  0.51100000000E-03 0.  1.
        -12    1    3    3    0    0 -0.30935611404E+01 -0.43598711999E+01  0.61551905643E+00  0.53812137216E+01  0.00000000000E+00 0.  1.
</event>
<event>
 7    1  0.6073302E-013  0.5052886E+02  0.7816164E-02  0.1300439E+00
        -11   -1    0    0    0    0  0.00000000000E+00  0.00000000000E+00  0.45593999997E+02  0.45594000000E+02  0.51100000000E-03 0.  1.
         11   -1    0    0    0    0 -0.00000000000E+00 -0.00000000000E+00 -0.45593999997E+02  0.45594000000E+02  0.51100000000E-03 0. -1.
    9900012    2    1    2    0    0 -0.30901181343E+02 -0.22966587617E+01  0.26325051054E+02  0.50528856344E+02  0.29999989342E+02 0.  0.
         12    1    1    2    0    0  0.30901181343E+02  0.22966587617E+01 -0.26325051054E+02  0.40659143656E+02  0.00000000000E+00 0. -1.
         11    1    3    3    0    0 -0.35563220403E+01 -0.12523168551E+02  0.49701165530E+01  0.13934820983E+02  0.51100000000E-03 0. -1.
        -11    1    3    3    0    0 -0.22742076956E+02  0.67836090934E+01  0.15253423093E+02  0.28211457476E+02  0.51100000000E-03 0.  1.
         12    1    3    3    0    0 -0.46027823468E+01  0.34429006959E+01  0.61015114082E+01  0.83825778850E+01  0.00000000000E+00 0. -1.
</event>
<event>
 7    1  0.6073302E-013  0.5052887E+02  0.7816164E-02  0.1300439E+00
        -11   -1    0    0    0    0  0.00000000000E+00  0.00000000000E+00  0.45593999997E+02  0.45594000000E+02  0.51100000000E-03 0.  1.
         11   -1    0    0    0    0 -0.00000000000E+00 -0.00000000000E+00 -0.45593999997E+02  0.45594000000E+02  0.51100000000E-03 0. -1.
    9900012    2    1    2    0    0  0.28792584252E+02 -0.24961576562E+02  0.14179977686E+02  0.50528868436E+02  0.30000026098E+02 0.  0.
         12    1    1    2    0    0 -0.28792584252E+02  0.24961576562E+02 -0.14179977686E+02  0.40659131564E+02  0.00000000000E+00 0. -1.
         11    1    3    3    0    0  0.13287257116E+02 -0.13762396283E+02 -0.51343372354E+01  0.19806972819E+02  0.51100000000E-03 0. -1.
        -11    1    3    3    0    0  0.14144751383E+02 -0.19445211623E+01  0.13834458087E+02  0.19880829587E+02  0.51100000000E-03 0.  1.
        -12    1    3    3    0    0  0.13605757524E+01 -0.92546591169E+01  0.54798568340E+01  0.10841066030E+02  0.00000000000E+00 0.  1.
</event>
<event>
 7    1  0.6073302E-013  0.5052890E+02  0.7816164E-02  0.1300439E+00
        -11   -1    0    0    0    0  0.00000000000E+00  0.00000000000E+00  0.45593999997E+02  0.45594000000E+02  0.51100000000E-03 0.  1.
         11   -1    0    0    0    0 -0.00000000000E+00 -0.00000000000E+00 -0.45593999997E+02  0.45594000000E+02  0.51100000000E-03 0. -1.
    9900012    2    1    2    0    0  0.11414184737E+02  0.27097857540E+02  0.28081752669E+02  0.50528901025E+02  0.30000125156E+02 0.  0.
         12    1    1    2    0    0 -0.11414184737E+02 -0.27097857540E+02 -0.28081752669E+02  0.40659098975E+02  0.00000000000E+00 0. -1.
         11    1    3    3    0    0  0.70483581898E+00  0.13917733395E+02 -0.29331186564E+01  0.14240901717E+02  0.51100000000E-03 0. -1.
        -11    1    3    3    0    0  0.11580504127E+02  0.10599899191E+02  0.23203386514E+02  0.28015407987E+02  0.51100000000E-03 0.  1.
        -12    1    3    3    0    0 -0.87115520867E+00  0.25802249538E+01  0.78114848117E+01  0.82725913215E+01  0.00000000000E+00 0.  1.
</event>
<event>
 7    1  0.6073302E-013  0.5052885E+02  0.7816164E-02  0.1300439E+00
        -11   -1    0    0    0    0  0.00000000000E+00  0.00000000000E+00  0.45593999997E+02  0.45594000000E+02  0.51100000000E-03 0.  1.
         11   -1    0    0    0    0 -0.00000000000E+00 -0.00000000000E+00 -0.45593999997E+02  0.45594000000E+02  0.51100000000E-03 0. -1.
    9900012    2    1    2    0    0  0.12239344102E+02  0.14774019538E+02  0.35848200270E+02  0.50528847771E+02  0.29999963285E+02 0.  0.
         12    1    1    2    0    0 -0.12239344102E+02 -0.14774019538E+02 -0.35848200270E+02  0.40659152229E+02  0.00000000000E+00 0. -1.
         11    1    3    3    0    0  0.52495281154E+01  0.19548070600E+01 -0.27374363420E+01  0.62347713722E+01  0.51100000000E-03 0. -1.
        -11    1    3    3    0    0  0.11615863851E+02  0.11036649472E+02  0.33790085481E+02  0.37396601472E+02  0.51100000000E-03 0.  1.
        -12    1    3    3    0    0 -0.46260478642E+01  0.17825630055E+01  0.47955511315E+01  0.68974749268E+01  0.00000000000E+00 0.  1.
</event>
<event>
 7    1  0.6073302E-013  0.5052886E+02  0.7816164E-02  0.1300439E+00
        -11   -1    0    0    0    0  0.00000000000E+00  0.00000000000E+00  0.45593999997E+02  0.45594000000E+02  0.51100000000E-03 0.  1.
         11   -1    0    0    0    0 -0.00000000000E+00 -0.00000000000E+00 -0.45593999997E+02  0.45594000000E+02  0.51100000000E-03 0. -1.
    9900012    2    1    2    0    0  0.39044399177E+02  0.10809961453E+02  0.34416968865E+01  0.50528860177E+02  0.30000000994E+02 0.  0.
         12    1    1    2    0    0 -0.39044399177E+02 -0.10809961453E+02 -0.34416968865E+01  0.40659139823E+02  0.00000000000E+00 0. -1.
         11    1    3    3    0    0  0.14810630685E+00 -0.33943624510E+01  0.72802705426E+01  0.80340507443E+01  0.51100000000E-03 0. -1.
        -11    1    3    3    0    0  0.10019690607E+02  0.97627037967E+00  0.18260231094E+01  0.10231405787E+02  0.51100000000E-03 0.  1.
         12    1    3    3    0    0  0.28876602263E+02  0.13228053524E+02 -0.56645967656E+01  0.32263403646E+02  0.00000000000E+00 0. -1.
</event>
<event>
 7    1  0.6073302E-013  0.5052886E+02  0.7816164E-02  0.1300439E+00
        -11   -1    0    0    0    0  0.00000000000E+00  0.00000000000E+00  0.45593999997E+02  0.45594000000E+02  0.51100000000E-03 0. -1.
         11   -1    0    0    0    0 -0.00000000000E+00 -0.00000000000E+00 -0.45593999997E+02  0.45594000000E+02  0.51100000000E-03 0.  1.
    9900012    2    1    2    0    0  0.40526086124E+02  0.30466180507E+01 -0.12328776558E+01  0.50528861723E+02  0.30000005694E+02 0.  0.
         12    1    1    2    0    0 -0.40526086124E+02 -0.30466180507E+01  0.12328776558E+01  0.40659138277E+02  0.00000000000E+00 0. -1.
         11    1    3    3    0    0  0.14343295955E+02 -0.12599405911E+01  0.12341397542E+02  0.18963852000E+02  0.51100000000E-03 0. -1.
        -11    1    3    3    0    0  0.19294353215E+02  0.74133185149E+01 -0.79525708058E+01  0.22146619157E+02  0.51100000000E-03 0.  1.
         12    1    3    3    0    0  0.68884369540E+01 -0.31067598731E+01 -0.56217043920E+01  0.94183905657E+01  0.00000000000E+00 0. -1.
</event>
<event>
 7    1  0.6073302E-013  0.5052886E+02  0.7816164E-02  0.1300439E+00
        -11   -1    0    0    0    0  0.00000000000E+00  0.00000000000E+00  0.45593999997E+02  0.45594000000E+02  0.51100000000E-03 0.  1.
         11   -1    0    0    0    0 -0.00000000000E+00 -0.00000000000E+00 -0.45593999997E+02  0.45594000000E+02  0.51100000000E-03 0. -1.
    9900012    2    1    2    0    0  0.10873153959E+02  0.25236560210E+02  0.29967581720E+02  0.50528863236E+02  0.30000010292E+02 0.  0.
         12    1    1    2    0    0 -0.10873153959E+02 -0.25236560210E+02 -0.29967581720E+02  0.40659136764E+02  0.00000000000E+00 0. -1.
         11    1    3    3    0    0 -0.23570321913E+00  0.80631372173E+01  0.24047893444E+01  0.84174075489E+01  0.51100000000E-03 0. -1.
        -11    1    3    3    0    0  0.20829164414E+00  0.13300507900E+01  0.22070407157E+02  0.22111429009E+02  0.51100000000E-03 0.  1.
        -12    1    3    3    0    0  0.10900565534E+02  0.15843372203E+02  0.54923852187E+01  0.20000026678E+02  0.00000000000E+00 0.  1.
</event>
<event>
 7    1  0.6073302E-013  0.5052886E+02  0.7816164E-02  0.1300439E+00
        -11   -1    0    0    0    0  0.00000000000E+00  0.00000000000E+00  0.45593999997E+02  0.45594000000E+02  0.51100000000E-03 0.  1.
         11   -1    0    0    0    0 -0.00000000000E+00 -0.00000000000E+00 -0.45593999997E+02  0.45594000000E+02  0.51100000000E-03 0. -1.
    9900012    2    1    2    0    0 -0.17998404988E+02 -0.31609806169E+02  0.18167099687E+02  0.50528856635E+02  0.29999990227E+02 0.  0.
         12    1    1    2    0    0  0.17998404988E+02  0.31609806169E+02 -0.18167099687E+02  0.40659143365E+02  0.00000000000E+00 0. -1.
         11    1    3    3    0    0 -0.28377179565E+01 -0.20667650721E+02 -0.25123985372E+01  0.21012295834E+02  0.51100000000E-03 0. -1.
        -11    1    3    3    0    0 -0.15999800281E+02 -0.10898840119E+02  0.17068660024E+02  0.25809251834E+02  0.51100000000E-03 0.  1.
        -12    1    3    3    0    0  0.83911325008E+00 -0.43315329049E-01  0.36108382002E+01  0.37073089664E+01  0.00000000000E+00 0.  1.
</event>
<event>
 7    1  0.6073302E-013  0.5052886E+02  0.7816164E-02  0.1300439E+00
        -11   -1    0    0    0    0  0.00000000000E+00  0.00000000000E+00  0.45593999997E+02  0.45594000000E+02  0.51100000000E-03 0. -1.
         11   -1    0    0    0    0 -0.00000000000E+00 -0.00000000000E+00 -0.45593999997E+02  0.45594000000E+02  0.51100000000E-03 0.  1.
    9900012    2    1    2    0    0 -0.33333495486E+02  0.15340521673E+02  0.17513198624E+02  0.50528860159E+02  0.30000000940E+02 0.  0.
         12    1    1    2    0    0  0.33333495486E+02 -0.15340521673E+02 -0.17513198624E+02  0.40659139841E+02  0.00000000000E+00 0. -1.
         11    1    3    3    0    0 -0.44020737539E+01 -0.55535112360E+01  0.70329746830E+01  0.99841110538E+01  0.51100000000E-03 0. -1.
        -11    1    3    3    0    0 -0.69594862695E+01  0.14782670134E+02  0.50432001692E+01  0.17099580510E+02  0.51100000000E-03 0.  1.
        -12    1    3    3    0    0 -0.21971935463E+02  0.61113627747E+01  0.54370237719E+01  0.23445168595E+02  0.00000000000E+00 0.  1.
</event>
<event>
 7    1  0.6073302E-013  0.5052884E+02  0.7816164E-02  0.1300439E+00
        -11   -1    0    0    0    0  0.00000000000E+00  0.00000000000E+00  0.45593999997E+02  0.45594000000E+02  0.51100000000E-03 0.  1.
         11   -1    0    0    0    0 -0.00000000000E+00 -0.00000000000E+00 -0.45593999997E+02  0.45594000000E+02  0.51100000000E-03 0. -1.
    9900012    2    1    2    0    0  0.15457686097E+01  0.17972637238E+02  0.36438470325E+02  0.50528841014E+02  0.29999942745E+02 0.  0.
         12    1    1    2    0    0 -0.15457686097E+01 -0.17972637238E+02 -0.36438470325E+02  0.40659158986E+02  0.00000000000E+00 0. -1.
         11    1    3    3    0    0 -0.46613915100E+01 -0.34699327295E+01 -0.14397844004E+01  0.59868174632E+01  0.51100000000E-03 0. -1.
        -11    1    3    3    0    0  0.63014537474E+01  0.12509450845E+02  0.27398008297E+02  0.30770855345E+02  0.51100000000E-03 0.  1.
        -12    1    3    3    0    0 -0.94293627712E-01  0.89331191224E+01  0.10480246428E+02  0.13771168205E+02  0.00000000000E+00 0.  1.
</event>
<event>
 7    1  0.6073302E-013  0.5052886E+02  0.7816164E-02  0.1300439E+00
        -11   -1    0    0    0    0  0.00000000000E+00  0.00000000000E+00  0.45593999997E+02  0.45594000000E+02  0.51100000000E-03 0.  1.
         11   -1    0    0    0    0 -0.00000000000E+00 -0.00000000000E+00 -0.45593999997E+02  0.45594000000E+02  0.51100000000E-03 0. -1.
    9900012    2    1    2    0    0 -0.25799067528E+02 -0.13299503798E+02  0.28472735799E+02  0.50528863628E+02  0.30000011485E+02 0.  0.
         12    1    1    2    0    0  0.25799067528E+02  0.13299503798E+02 -0.28472735799E+02  0.40659136372E+02  0.00000000000E+00 0. -1.
         11    1    3    3    0    0 -0.59232614818E+00 -0.59405507596E+01 -0.41141015055E+01  0.72502982733E+01  0.51100000000E-03 0. -1.
        -11    1    3    3    0    0 -0.21373165492E+02 -0.78314579027E+01  0.32148422129E+02  0.39391178983E+02  0.51100000000E-03 0.  1.
        -12    1    3    3    0    0 -0.38335758885E+01  0.47250486387E+00  0.43841517483E+00  0.38873863719E+01  0.00000000000E+00 0.  1.
</event>
<event>
 7    1  0.6073302E-013  0.5052886E+02  0.7816164E-02  0.1300439E+00
        -11   -1    0    0    0    0  0.00000000000E+00  0.00000000000E+00  0.45593999997E+02  0.45594000000E+02  0.51100000000E-03 0.  1.
         11   -1    0    0    0    0 -0.00000000000E+00 -0.00000000000E+00 -0.45593999997E+02  0.45594000000E+02  0.51100000000E-03 0. -1.
    9900012    2    1    2    0    0 -0.33134520865E+02  0.16729801930E+02  0.16594661728E+02  0.50528861501E+02  0.30000005019E+02 0.  0.
         12    1    1    2    0    0  0.33134520865E+02 -0.16729801930E+02 -0.16594661728E+02  0.40659138499E+02  0.00000000000E+00 0. -1.
         11    1    3    3    0    0 -0.33579264991E+02  0.64066006221E+01  0.14070651059E+02  0.36967482878E+02  0.51100000000E-03 0. -1.
        -11    1    3    3    0    0 -0.27936731022E+01  0.42360906561E+00 -0.73489407589E-01  0.28265623992E+01  0.51100000000E-03 0.  1.
         12    1    3    3    0    0  0.32384172278E+01  0.98995922425E+01  0.25975000767E+01  0.10734816224E+02  0.00000000000E+00 0. -1.
</event>
<event>
 7    1  0.6073302E-013  0.5052885E+02  0.7816164E-02  0.1300439E+00
        -11   -1    0    0    0    0  0.00000000000E+00  0.00000000000E+00  0.45593999997E+02  0.45594000000E+02  0.51100000000E-03 0.  1.
         11   -1    0    0    0    0 -0.00000000000E+00 -0.00000000000E+00 -0.45593999997E+02  0.45594000000E+02  0.51100000000E-03 0. -1.
    9900012    2    1    2    0    0 -0.12903948004E+02 -0.33344334682E+02  0.19360008662E+02  0.50528850170E+02  0.29999970578E+02 0.  0.
         12    1    1    2    0    0  0.12903948004E+02  0.33344334682E+02 -0.19360008662E+02  0.40659149830E+02  0.00000000000E+00 0. -1.
         11    1    3    3    0    0  0.12180707387E+01 -0.18216106880E+02  0.21390692466E+00  0.18258039397E+02  0.51100000000E-03 0. -1.
        -11    1    3    3    0    0 -0.26374261963E+01 -0.56197185488E+01  0.15819914593E+02  0.16994321154E+02  0.51100000000E-03 0.  1.
        -12    1    3    3    0    0 -0.11484592546E+02 -0.95085092536E+01  0.33261871445E+01  0.15276489620E+02  0.00000000000E+00 0.  1.
</event>
<event>
 7    1  0.6073302E-013  0.5052886E+02  0.7816164E-02  0.1300439E+00
        -11   -1    0    0    0    0  0.00000000000E+00  0.00000000000E+00  0.45593999997E+02  0.45594000000E+02  0.51100000000E-03 0. -1.
         11   -1    0    0    0    0 -0.00000000000E+00 -0.00000000000E+00 -0.45593999997E+02  0.45594000000E+02  0.51100000000E-03 0.  1.
    9900012    2    1    2    0    0  0.26931509669E+02  0.77079241950E+01 -0.29469432227E+02  0.50528859032E+02  0.29999997515E+02 0.  0.
         12    1    1    2    0    0 -0.26931509669E+02 -0.77079241950E+01  0.29469432227E+02  0.40659140968E+02  0.00000000000E+00 0. -1.
         11    1    3    3    0    0  0.12701349014E+01  0.85707170259E+01  0.26000562843E+01  0.90460337136E+01  0.51100000000E-03 0. -1.
        -11    1    3    3    0    0  0.18994032501E+02 -0.89616721399E+00 -0.27364157365E+02  0.33322267253E+02  0.51100000000E-03 0.  1.
         12    1    3    3    0    0  0.66673422662E+01  0.33374383155E-01 -0.47053311466E+01  0.81605580657E+01  0.00000000000E+00 0. -1.
</event>
<event>
 7    1  0.6073302E-013  0.5052885E+02  0.7816164E-02  0.1300439E+00
        -11   -1    0    0    0    0  0.00000000000E+00  0.00000000000E+00  0.45593999997E+02  0.45594000000E+02  0.51100000000E-03 0.  1.
         11   -1    0    0    0    0 -0.00000000000E+00 -0.00000000000E+00 -0.45593999997E+02  0.45594000000E+02  0.51100000000E-03 0. -1.
    9900012    2    1    2    0    0  0.25484542185E+02 -0.30155432069E+02  0.97136192831E+01  0.50528851297E+02  0.29999974002E+02 0.  0.
         12    1    1    2    0    0 -0.25484542185E+02  0.30155432069E+02 -0.97136192831E+01  0.40659148703E+02  0.00000000000E+00 0. -1.
         11    1    3    3    0    0  0.41397106733E+01 -0.82190625992E+01 -0.10178843371E+02  0.13722209994E+02  0.51100000000E-03 0. -1.
        -11    1    3    3    0    0  0.18914807256E+02 -0.20120040828E+02  0.19362871273E+02  0.33726944134E+02  0.51100000000E-03 0.  1.
        -12    1    3    3    0    0  0.24300242561E+01 -0.18163286425E+01  0.52959138163E+00  0.30796971693E+01  0.00000000000E+00 0.  1.
</event>
<event>
 7    1  0.6073302E-013  0.5052885E+02  0.7816164E-02  0.1300439E+00
        -11   -1    0    0    0    0  0.00000000000E+00  0.00000000000E+00  0.45593999997E+02  0.45594000000E+02  0.51100000000E-03 0.  1.
         11   -1    0    0    0    0 -0.00000000000E+00 -0.00000000000E+00 -0.45593999997E+02  0.45594000000E+02  0.51100000000E-03 0. -1.
    9900012    2    1    2    0    0 -0.23467566795E+02 -0.87651316222E+01  0.32025186697E+02  0.50528845968E+02  0.29999957804E+02 0.  0.
         12    1    1    2    0    0  0.23467566795E+02  0.87651316222E+01 -0.32025186697E+02  0.40659154032E+02  0.00000000000E+00 0. -1.
         11    1    3    3    0    0 -0.16497334435E+02 -0.89492782097E+01  0.32561247865E+02  0.37583061168E+02  0.51100000000E-03 0.  1.
        -11    1    3    3    0    0 -0.73426971283E+01 -0.33191958022E+01 -0.30518971165E+01  0.86166314858E+01  0.51100000000E-03 0. -1.
         12    1    3    3    0    0  0.37246476811E+00  0.35033423898E+01  0.25158359481E+01  0.43291533146E+01  0.00000000000E+00 0. -1.
</event>
<event>
 7    1  0.6073302E-013  0.5052885E+02  0.7816164E-02  0.1300439E+00
        -11   -1    0    0    0    0  0.00000000000E+00  0.00000000000E+00  0.45593999997E+02  0.45594000000E+02  0.51100000000E-03 0.  1.
         11   -1    0    0    0    0 -0.00000000000E+00 -0.00000000000E+00 -0.45593999997E+02  0.45594000000E+02  0.51100000000E-03 0. -1.
    9900012    2    1    2    0    0  0.29825641773E+02  0.12972340210E+02  0.24399102824E+02  0.50528846832E+02  0.29999960432E+02 0.  0.
         12    1    1    2    0    0 -0.29825641773E+02 -0.12972340210E+02 -0.24399102824E+02  0.40659153168E+02  0.00000000000E+00 0. -1.
         11    1    3    3    0    0 -0.49754546049E+01 -0.12828261896E+01  0.25482930003E+01  0.57353804612E+01  0.51100000000E-03 0. -1.
        -11    1    3    3    0    0  0.20981152603E+02  0.48793963608E+01  0.76096651204E+01  0.22845662102E+02  0.51100000000E-03 0.  1.
         12    1    3    3    0    0  0.13819943775E+02  0.93757700385E+01  0.14241144703E+02  0.21947804269E+02  0.00000000000E+00 0. -1.
</event>
<event>
 7    1  0.6073302E-013  0.5052875E+02  0.7816164E-02  0.1300439E+00
        -11   -1    0    0    0    0  0.00000000000E+00  0.00000000000E+00  0.45593999997E+02  0.45594000000E+02  0.51100000000E-03 0. -1.
         11   -1    0    0    0    0 -0.00000000000E+00 -0.00000000000E+00 -0.45593999997E+02  0.45594000000E+02  0.51100000000E-03 0.  1.
    9900012    2    1    2    0    0 -0.24536146667E+02 -0.32411813653E+02  0.79157848703E+00  0.50528748235E+02  0.29999660735E+02 0.  0.
         12    1    1    2    0    0  0.24536146667E+02  0.32411813653E+02 -0.79157848703E+00  0.40659251765E+02  0.00000000000E+00 0. -1.
         11    1    3    3    0    0 -0.13279972980E+02 -0.14421501686E+01 -0.69030736672E+01  0.15036286303E+02  0.51100000000E-03 0. -1.
        -11    1    3    3    0    0 -0.11954546721E+02 -0.19067690375E+02  0.69187805830E+01  0.23544798333E+02  0.51100000000E-03 0.  1.
         12    1    3    3    0    0  0.69837303372E+00 -0.11901973109E+02  0.77587157129E+00  0.11947663599E+02  0.00000000000E+00 0. -1.
</event>
<event>
 7    1  0.6073302E-013  0.5052886E+02  0.7816164E-02  0.1300439E+00
        -11   -1    0    0    0    0  0.00000000000E+00  0.00000000000E+00  0.45593999997E+02  0.45594000000E+02  0.51100000000E-03 0.  1.
         11   -1    0    0    0    0 -0.00000000000E+00 -0.00000000000E+00 -0.45593999997E+02  0.45594000000E+02  0.51100000000E-03 0. -1.
    9900012    2    1    2    0    0  0.16400604475E+02  0.83383326910E+00  0.37195297890E+02  0.50528864616E+02  0.30000014487E+02 0.  0.
         12    1    1    2    0    0 -0.16400604475E+02 -0.83383326910E+00 -0.37195297890E+02  0.40659135384E+02  0.00000000000E+00 0. -1.
         11    1    3    3    0    0  0.47839503654E+01 -0.11372879212E+02  0.78395426074E+01  0.14618036504E+02  0.51100000000E-03 0. -1.
        -11    1    3    3    0    0  0.12587081517E+02  0.12167595771E+02  0.30007660949E+02  0.34741109997E+02  0.51100000000E-03 0.  1.
        -12    1    3    3    0    0 -0.97042740688E+00  0.39116710545E-01 -0.65190566681E+00  0.11697181145E+01  0.00000000000E+00 0.  1.
</event>
<event>
 7    1  0.6073302E-013  0.5052885E+02  0.7816164E-02  0.1300439E+00
        -11   -1    0    0    0    0  0.00000000000E+00  0.00000000000E+00  0.45593999997E+02  0.45594000000E+02  0.51100000000E-03 0.  1.
         11   -1    0    0    0    0 -0.00000000000E+00 -0.00000000000E+00 -0.45593999997E+02  0.45594000000E+02  0.51100000000E-03 0. -1.
    9900012    2    1    2    0    0  0.44392353279E+01  0.36504231720E+02  0.17346481631E+02  0.50528853812E+02  0.29999981648E+02 0.  0.
         12    1    1    2    0    0 -0.44392353279E+01 -0.36504231720E+02 -0.17346481631E+02  0.40659146188E+02  0.00000000000E+00 0. -1.
         11    1    3    3    0    0 -0.81906323734E+01  0.56302474829E+01  0.15059344868E+01  0.10052561083E+02  0.51100000000E-03 0. -1.
        -11    1    3    3    0    0  0.13752357231E+02  0.22299324495E+02  0.51063867544E+01  0.26691991089E+02  0.51100000000E-03 0.  1.
         12    1    3    3    0    0 -0.11224895300E+01  0.85746597419E+01  0.10734160390E+02  0.13784301640E+02  0.00000000000E+00 0. -1.
</event>
<event>
 7    1  0.6073302E-013  0.5052886E+02  0.7816164E-02  0.1300439E+00
        -11   -1    0    0    0    0  0.00000000000E+00  0.00000000000E+00  0.45593999997E+02  0.45594000000E+02  0.51100000000E-03 0.  1.
         11   -1    0    0    0    0 -0.00000000000E+00 -0.00000000000E+00 -0.45593999997E+02  0.45594000000E+02  0.51100000000E-03 0. -1.
    9900012    2    1    2    0    0  0.14560741383E+02  0.95199949509E+01  0.36749427479E+02  0.50528856951E+02  0.29999991187E+02 0.  0.
         12    1    1    2    0    0 -0.14560741383E+02 -0.95199949509E+01 -0.36749427479E+02  0.40659143049E+02  0.00000000000E+00 0. -1.
         11    1    3    3    0    0 -0.13699893975E+01  0.95793743938E+01  0.13796365545E+01  0.97746960060E+01  0.51100000000E-03 0. -1.
        -11    1    3    3    0    0  0.15043948041E+02  0.39089127580E+01  0.31569586309E+02  0.35188616790E+02  0.51100000000E-03 0.  1.
         12    1    3    3    0    0  0.88678274017E+00 -0.39682922009E+01  0.38002046151E+01  0.55655441546E+01  0.00000000000E+00 0. -1.
</event>
<event>
 7    1  0.6073302E-013  0.5052886E+02  0.7816164E-02  0.1300439E+00
        -11   -1    0    0    0    0  0.00000000000E+00  0.00000000000E+00  0.45593999997E+02  0.45594000000E+02  0.51100000000E-03 0.  1.
         11   -1    0    0    0    0 -0.00000000000E+00 -0.00000000000E+00 -0.45593999997E+02  0.45594000000E+02  0.51100000000E-03 0. -1.
    9900012    2    1    2    0    0  0.11489093846E+02  0.11349311967E+02  0.37314330371E+02  0.50528863136E+02  0.30000009988E+02 0.  0.
         12    1    1    2    0    0 -0.11489093846E+02 -0.11349311967E+02 -0.37314330371E+02  0.40659136864E+02  0.00000000000E+00 0. -1.
         11    1    3    3    0    0 -0.19526552342E+01 -0.41791264491E+00  0.83078964667E+00  0.21628049243E+01  0.51100000000E-03 0. -1.
        -11    1    3    3    0    0  0.17816344213E+02  0.32380922651E+01  0.11116010863E+02  0.21247895435E+02  0.51100000000E-03 0.  1.
        -12    1    3    3    0    0 -0.43745951328E+01  0.85291323469E+01  0.25367529861E+02  0.27118162777E+02  0.00000000000E+00 0.  1.
</event>
<event>
 7    1  0.6073302E-013  0.5052887E+02  0.7816164E-02  0.1300439E+00
        -11   -1    0    0    0    0  0.00000000000E+00  0.00000000000E+00  0.45593999997E+02  0.45594000000E+02  0.51100000000E-03 0. -1.
         11   -1    0    0    0    0 -0.00000000000E+00 -0.00000000000E+00 -0.45593999997E+02  0.45594000000E+02  0.51100000000E-03 0.  1.
    9900012    2    1    2    0    0  0.16702087932E+02  0.36922091733E+02 -0.33112876794E+01  0.50528865413E+02  0.30000016909E+02 0.  0.
         12    1    1    2    0    0 -0.16702087932E+02 -0.36922091733E+02  0.33112876794E+01  0.40659134587E+02  0.00000000000E+00 0. -1.
         11    1    3    3    0    0 -0.10145797383E+01  0.12319568032E+02  0.10641678916E+02  0.16310930659E+02  0.51100000000E-03 0. -1.
        -11    1    3    3    0    0  0.17773823418E+02  0.22672137653E+02 -0.11320414095E+02  0.30952970781E+02  0.51100000000E-03 0.  1.
        -12    1    3    3    0    0 -0.57155747478E-01  0.19303860492E+01 -0.26325525004E+01  0.32649639731E+01  0.00000000000E+00 0.  1.
</event>
<event>
 7    1  0.6073302E-013  0.5052885E+02  0.7816164E-02  0.1300439E+00
        -11   -1    0    0    0    0  0.00000000000E+00  0.00000000000E+00  0.45593999997E+02  0.45594000000E+02  0.51100000000E-03 0. -1.
         11   -1    0    0    0    0 -0.00000000000E+00 -0.00000000000E+00 -0.45593999997E+02  0.45594000000E+02  0.51100000000E-03 0.  1.
    9900012    2    1    2    0    0  0.36269918340E+02  0.99306246573E+01 -0.15460985675E+02  0.50528851454E+02  0.29999974479E+02 0.  0.
         12    1    1    2    0    0 -0.36269918340E+02 -0.99306246573E+01  0.15460985675E+02  0.40659148546E+02  0.00000000000E+00 0. -1.
         11    1    3    3    0    0  0.47426461246E+01  0.11577532552E+02 -0.13385496848E+01  0.12582673316E+02  0.51100000000E-03 0. -1.
        -11    1    3    3    0    0  0.20245578142E+02 -0.84919088425E+01 -0.76553874572E+01  0.23250825952E+02  0.51100000000E-03 0.  1.
        -12    1    3    3    0    0  0.11281694073E+02  0.68450009480E+01 -0.64670485331E+01  0.14695352186E+02  0.00000000000E+00 0.  1.
</event>
<event>
 7    1  0.6073302E-013  0.5052886E+02  0.7816164E-02  0.1300439E+00
        -11   -1    0    0    0    0  0.00000000000E+00  0.00000000000E+00  0.45593999997E+02  0.45594000000E+02  0.51100000000E-03 0.  1.
         11   -1    0    0    0    0 -0.00000000000E+00 -0.00000000000E+00 -0.45593999997E+02  0.45594000000E+02  0.51100000000E-03 0. -1.
    9900012    2    1    2    0    0 -0.37278869834E+02  0.10401961851E+01  0.16197819416E+02  0.50528862060E+02  0.30000006718E+02 0.  0.
         12    1    1    2    0    0  0.37278869834E+02 -0.10401961851E+01 -0.16197819416E+02  0.40659137940E+02  0.00000000000E+00 0. -1.
         11    1    3    3    0    0 -0.19889411978E+01 -0.61403806981E+00 -0.38607946060E+01  0.43861902706E+01  0.51100000000E-03 0. -1.
        -11    1    3    3    0    0 -0.16112089466E+02 -0.93886092349E+01  0.13629387422E+02  0.23097740411E+02  0.51100000000E-03 0.  1.
        -12    1    3    3    0    0 -0.19177839170E+02  0.11042843490E+02  0.64292265994E+01  0.23044931378E+02  0.00000000000E+00 0.  1.
</event>
<event>
 7    1  0.6073302E-013  0.5052886E+02  0.7816164E-02  0.1300439E+00
        -11   -1    0    0    0    0  0.00000000000E+00  0.00000000000E+00  0.45593999997E+02  0.45594000000E+02  0.51100000000E-03 0.  1.
         11   -1    0    0    0    0 -0.00000000000E+00 -0.00000000000E+00 -0.45593999997E+02  0.45594000000E+02  0.51100000000E-03 0. -1.
    9900012    2    1    2    0    0 -0.28668159325E+01  0.22151294096E+02  0.33974503900E+02  0.50528863524E+02  0.30000011168E+02 0.  0.
         12    1    1    2    0    0  0.28668159325E+01 -0.22151294096E+02 -0.33974503900E+02  0.40659136476E+02  0.00000000000E+00 0. -1.
         11    1    3    3    0    0 -0.56476568613E+01  0.38124974661E+01  0.14696791302E+02  0.16199593815E+02  0.51100000000E-03 0. -1.
        -11    1    3    3    0    0  0.51321294732E+01  0.13889063845E+02  0.42142923894E+00  0.14812914983E+02  0.51100000000E-03 0.  1.
        -12    1    3    3    0    0 -0.23512885445E+01  0.44497327848E+01  0.18856283359E+02  0.19516354726E+02  0.00000000000E+00 0.  1.
</event>
<event>
 7    1  0.7074219E-013  0.5052886E+02  0.7816164E-02  0.1300439E+00
        -11   -1    0    0    0    0  0.00000000000E+00  0.00000000000E+00  0.45593999997E+02  0.45594000000E+02  0.51100000000E-03 0. -1.
         11   -1    0    0    0    0 -0.00000000000E+00 -0.00000000000E+00 -0.45593999997E+02  0.45594000000E+02  0.51100000000E-03 0.  1.
    9900012    2    1    2    0    0 -0.20292917277E+02 -0.49939478946E+01 -0.34877265031E+02  0.50528860520E+02  0.30000002037E+02 0.  0.
         12    1    1    2    0    0  0.20292917277E+02  0.49939478946E+01  0.34877265031E+02  0.40659139480E+02  0.00000000000E+00 0. -1.
         11    1    3    3    0    0 -0.49507109126E+01  0.45176448098E+01  0.19103081105E+01  0.69690695581E+01  0.51100000000E-03 0. -1.
        -11    1    3    3    0    0 -0.12818300989E+02  0.34721177691E+00 -0.24060952870E+02  0.27264608003E+02  0.51100000000E-03 0.  1.
         12    1    3    3    0    0 -0.25239053758E+01 -0.98588044812E+01 -0.12726620272E+02  0.16295182959E+02  0.00000000000E+00 0. -1.
</event>
<event>
 7    1  0.6073302E-013  0.5052887E+02  0.7816164E-02  0.1300439E+00
        -11   -1    0    0    0    0  0.00000000000E+00  0.00000000000E+00  0.45593999997E+02  0.45594000000E+02  0.51100000000E-03 0.  1.
         11   -1    0    0    0    0 -0.00000000000E+00 -0.00000000000E+00 -0.45593999997E+02  0.45594000000E+02  0.51100000000E-03 0. -1.
    9900012    2    1    2    0    0  0.12251900926E+02 -0.88616183615E+01  0.37742911007E+02  0.50528872026E+02  0.30000037012E+02 0.  0.
         12    1    1    2    0    0 -0.12251900926E+02  0.88616183615E+01 -0.37742911007E+02  0.40659127974E+02  0.00000000000E+00 0. -1.
         11    1    3    3    0    0  0.61484356362E+01 -0.16430255890E+02  0.20137676258E+02  0.26707350575E+02  0.51100000000E-03 0. -1.
        -11    1    3    3    0    0  0.33339536955E+01  0.61171919773E+01  0.11367868622E+01  0.70588646086E+01  0.51100000000E-03 0.  1.
        -12    1    3    3    0    0  0.27695115944E+01  0.14514455507E+01  0.16468447886E+02  0.16762656843E+02  0.00000000000E+00 0.  1.
</event>
<event>
 7    1  0.6073302E-013  0.5052886E+02  0.7816164E-02  0.1300439E+00
        -11   -1    0    0    0    0  0.00000000000E+00  0.00000000000E+00  0.45593999997E+02  0.45594000000E+02  0.51100000000E-03 0. -1.
         11   -1    0    0    0    0 -0.00000000000E+00 -0.00000000000E+00 -0.45593999997E+02  0.45594000000E+02  0.51100000000E-03 0.  1.
    9900012    2    1    2    0    0 -0.39322773280E+02  0.51136490016E+01 -0.89853159154E+01  0.50528858265E+02  0.29999995183E+02 0.  0.
         12    1    1    2    0    0  0.39322773280E+02 -0.51136490016E+01  0.89853159154E+01  0.40659141735E+02  0.00000000000E+00 0. -1.
         11    1    3    3    0    0 -0.14559331837E+02 -0.13808423001E+01 -0.16935448717E+02  0.22376109862E+02  0.51100000000E-03 0. -1.
        -11    1    3    3    0    0 -0.20345011315E+02  0.73267507737E+01  0.36474373082E+01  0.21929536280E+02  0.51100000000E-03 0.  1.
         12    1    3    3    0    0 -0.44184301274E+01 -0.83225947197E+00  0.43026954939E+01  0.62232121234E+01  0.00000000000E+00 0. -1.
</event>
<event>
 7    1  0.6073302E-013  0.5052889E+02  0.7816164E-02  0.1300439E+00
        -11   -1    0    0    0    0  0.00000000000E+00  0.00000000000E+00  0.45593999997E+02  0.45594000000E+02  0.51100000000E-03 0.  1.
         11   -1    0    0    0    0 -0.00000000000E+00 -0.00000000000E+00 -0.45593999997E+02  0.45594000000E+02  0.51100000000E-03 0. -1.
    9900012    2    1    2    0    0 -0.75927811622E+01 -0.11966887756E+02  0.38109139907E+02  0.50528889425E+02  0.30000089896E+02 0.  0.
         12    1    1    2    0    0  0.75927811622E+01  0.11966887756E+02 -0.38109139907E+02  0.40659110575E+02  0.00000000000E+00 0. -1.
         11    1    3    3    0    0  0.63825941488E+01 -0.18805944927E+01  0.36323320322E+01  0.75807638116E+01  0.51100000000E-03 0. -1.
        -11    1    3    3    0    0 -0.99250006645E+01 -0.80360919472E+01  0.59964313085E+01  0.14108210399E+02  0.51100000000E-03 0.  1.
        -12    1    3    3    0    0 -0.40503746464E+01 -0.20502013162E+01  0.28480376566E+02  0.28839915214E+02  0.00000000000E+00 0.  1.
</event>
<event>
 7    1  0.6073302E-013  0.5052887E+02  0.7816164E-02  0.1300439E+00
        -11   -1    0    0    0    0  0.00000000000E+00  0.00000000000E+00  0.45593999997E+02  0.45594000000E+02  0.51100000000E-03 0.  1.
         11   -1    0    0    0    0 -0.00000000000E+00 -0.00000000000E+00 -0.45593999997E+02  0.45594000000E+02  0.51100000000E-03 0. -1.
    9900012    2    1    2    0    0  0.27122687974E+02  0.43975067891E+01  0.29969767450E+02  0.50528865357E+02  0.30000016739E+02 0.  0.
         12    1    1    2    0    0 -0.27122687974E+02 -0.43975067891E+01 -0.29969767450E+02  0.40659134643E+02  0.00000000000E+00 0. -1.
         11    1    3    3    0    0  0.16775407079E+02  0.13331566318E+02  0.14811120679E+02  0.26048305879E+02  0.51100000000E-03 0. -1.
        -11    1    3    3    0    0  0.19593457914E+01 -0.34368586316E+01  0.13805177829E+02  0.14360848455E+02  0.51100000000E-03 0.  1.
         12    1    3    3    0    0  0.83879351041E+01 -0.54972008975E+01  0.13534689425E+01  0.10119711023E+02  0.00000000000E+00 0. -1.
</event>
<event>
 7    1  0.6073302E-013  0.5052885E+02  0.7816164E-02  0.1300439E+00
        -11   -1    0    0    0    0  0.00000000000E+00  0.00000000000E+00  0.45593999997E+02  0.45594000000E+02  0.51100000000E-03 0.  1.
         11   -1    0    0    0    0 -0.00000000000E+00 -0.00000000000E+00 -0.45593999997E+02  0.45594000000E+02  0.51100000000E-03 0. -1.
    9900012    2    1    2    0    0 -0.16029211798E+02 -0.11052502223E+02  0.35694154995E+02  0.50528854202E+02  0.29999982831E+02 0.  0.
         12    1    1    2    0    0  0.16029211798E+02  0.11052502223E+02 -0.35694154995E+02  0.40659145798E+02  0.00000000000E+00 0. -1.
         11    1    3    3    0    0  0.52908552831E+01  0.79959885212E+00  0.16112443492E+01  0.55882570238E+01  0.51100000000E-03 0. -1.
        -11    1    3    3    0    0 -0.16140016641E+02 -0.15055320214E+02  0.31159737925E+02  0.38184971805E+02  0.51100000000E-03 0.  1.
        -12    1    3    3    0    0 -0.51800504400E+01  0.32032191396E+01  0.29231727204E+01  0.67556253723E+01  0.00000000000E+00 0.  1.
</event>
<event>
 7    1  0.6073302E-013  0.5052886E+02  0.7816164E-02  0.1300439E+00
        -11   -1    0    0    0    0  0.00000000000E+00  0.00000000000E+00  0.45593999997E+02  0.45594000000E+02  0.51100000000E-03 0.  1.
         11   -1    0    0    0    0 -0.00000000000E+00 -0.00000000000E+00 -0.45593999997E+02  0.45594000000E+02  0.51100000000E-03 0. -1.
    9900012    2    1    2    0    0  0.26574740178E+02 -0.88007648496E+01  0.29487204278E+02  0.50528862114E+02  0.30000006882E+02 0.  0.
         12    1    1    2    0    0 -0.26574740178E+02  0.88007648496E+01 -0.29487204278E+02  0.40659137886E+02  0.00000000000E+00 0. -1.
         11    1    3    3    0    0  0.27237068136E+02 -0.96581054487E+01  0.25795874503E+02  0.38737114285E+02  0.51100000000E-03 0. -1.
        -11    1    3    3    0    0 -0.10122991288E+01 -0.48139960837E+01  0.36225829154E+01  0.61092074003E+01  0.51100000000E-03 0.  1.
         12    1    3    3    0    0  0.34997117055E+00  0.56713366829E+01  0.68746860217E-01  0.56825404285E+01  0.00000000000E+00 0. -1.
</event>
<event>
 7    1  0.6073302E-013  0.5052886E+02  0.7816164E-02  0.1300439E+00
        -11   -1    0    0    0    0  0.00000000000E+00  0.00000000000E+00  0.45593999997E+02  0.45594000000E+02  0.51100000000E-03 0.  1.
         11   -1    0    0    0    0 -0.00000000000E+00 -0.00000000000E+00 -0.45593999997E+02  0.45594000000E+02  0.51100000000E-03 0. -1.
    9900012    2    1    2    0    0 -0.11493729720E+02  0.29843078900E+02  0.25108780684E+02  0.50528855291E+02  0.29999986141E+02 0.  0.
         12    1    1    2    0    0  0.11493729720E+02 -0.29843078900E+02 -0.25108780684E+02  0.40659144709E+02  0.00000000000E+00 0. -1.
         11    1    3    3    0    0 -0.11907424456E+02  0.17232094652E+02  0.54471362638E+00  0.20953008292E+02  0.51100000000E-03 0. -1.
        -11    1    3    3    0    0  0.43432714212E+01  0.15126758394E+01  0.55026004093E+01  0.71715274774E+01  0.51100000000E-03 0.  1.
         12    1    3    3    0    0 -0.39295766850E+01  0.11098308408E+02  0.19061466648E+02  0.22404319521E+02  0.00000000000E+00 0. -1.
</event>
<event>
 7    1  0.6073302E-013  0.5052885E+02  0.7816164E-02  0.1300439E+00
        -11   -1    0    0    0    0  0.00000000000E+00  0.00000000000E+00  0.45593999997E+02  0.45594000000E+02  0.51100000000E-03 0. -1.
         11   -1    0    0    0    0 -0.00000000000E+00 -0.00000000000E+00 -0.45593999997E+02  0.45594000000E+02  0.51100000000E-03 0.  1.
    9900012    2    1    2    0    0  0.38526432550E+02 -0.32614959219E+01 -0.12579473800E+02  0.50528849471E+02  0.29999968451E+02 0.  0.
         12    1    1    2    0    0 -0.38526432550E+02  0.32614959219E+01  0.12579473800E+02  0.40659150529E+02  0.00000000000E+00 0. -1.
         11    1    3    3    0    0 -0.28909509129E+01  0.15481586746E+01  0.17969354826E+01  0.37394344295E+01  0.51100000000E-03 0. -1.
        -11    1    3    3    0    0  0.23145279264E+02 -0.10295895926E+02 -0.65236601849E+01  0.26158508513E+02  0.51100000000E-03 0.  1.
        -12    1    3    3    0    0  0.18272104199E+02  0.54862413299E+01 -0.78527490979E+01  0.20630906528E+02  0.00000000000E+00 0.  1.
</event>
<event>
 7    1  0.6073302E-013  0.5052881E+02  0.7816164E-02  0.1300439E+00
        -11   -1    0    0    0    0  0.00000000000E+00  0.00000000000E+00  0.45593999997E+02  0.45594000000E+02  0.51100000000E-03 0.  1.
         11   -1    0    0    0    0 -0.00000000000E+00 -0.00000000000E+00 -0.45593999997E+02  0.45594000000E+02  0.51100000000E-03 0. -1.
    9900012    2    1    2    0    0  0.14785588548E+02 -0.26706630074E+02  0.26857248272E+02  0.50528812804E+02  0.29999857000E+02 0.  0.
         12    1    1    2    0    0 -0.14785588548E+02  0.26706630074E+02 -0.26857248272E+02  0.40659187196E+02  0.00000000000E+00 0. -1.
         11    1    3    3    0    0  0.10974521112E+02  0.10046901910E+01  0.16675617189E+02  0.19988139606E+02  0.51100000000E-03 0. -1.
        -11    1    3    3    0    0  0.34378376885E+01 -0.19966629622E+02  0.10420843320E+02  0.22783305340E+02  0.51100000000E-03 0.  1.
         12    1    3    3    0    0  0.37322974800E+00 -0.77446906432E+01 -0.23921223658E+00  0.77573678588E+01  0.00000000000E+00 0. -1.
</event>
<event>
 7    1  0.6073302E-013  0.5052887E+02  0.7816164E-02  0.1300439E+00
        -11   -1    0    0    0    0  0.00000000000E+00  0.00000000000E+00  0.45593999997E+02  0.45594000000E+02  0.51100000000E-03 0.  1.
         11   -1    0    0    0    0 -0.00000000000E+00 -0.00000000000E+00 -0.45593999997E+02  0.45594000000E+02  0.51100000000E-03 0. -1.
    9900012    2    1    2    0    0 -0.17342984202E+02 -0.36335650479E+02 -0.56662410090E+01  0.50528869612E+02  0.30000029673E+02 0.  0.
         12    1    1    2    0    0  0.17342984202E+02  0.36335650479E+02  0.56662410090E+01  0.40659130388E+02  0.00000000000E+00 0. -1.
         11    1    3    3    0    0  0.73264891915E+01 -0.84261850231E+01 -0.18093574967E+01  0.11311578702E+02  0.51100000000E-03 0. -1.
        -11    1    3    3    0    0 -0.21915967079E+02 -0.22821628644E+02  0.10105638374E+01  0.31656872658E+02  0.51100000000E-03 0.  1.
        -12    1    3    3    0    0 -0.27535063140E+01 -0.50878368117E+01 -0.48674473497E+01  0.75604182520E+01  0.00000000000E+00 0.  1.
</event>
<event>
 7    1  0.6073302E-013  0.5052885E+02  0.7816164E-02  0.1300439E+00
        -11   -1    0    0    0    0  0.00000000000E+00  0.00000000000E+00  0.45593999997E+02  0.45594000000E+02  0.51100000000E-03 0.  1.
         11   -1    0    0    0    0 -0.00000000000E+00 -0.00000000000E+00 -0.45593999997E+02  0.45594000000E+02  0.51100000000E-03 0. -1.
    9900012    2    1    2    0    0 -0.18549136246E+02  0.36151839863E+02 -0.14630418103E+01  0.50528850080E+02  0.29999970302E+02 0.  0.
         12    1    1    2    0    0  0.18549136246E+02 -0.36151839863E+02  0.14630418103E+01  0.40659149920E+02  0.00000000000E+00 0. -1.
         11    1    3    3    0    0 -0.10470419943E+02  0.11828912313E+01 -0.57092579114E+01  0.11984346106E+02  0.51100000000E-03 0. -1.
        -11    1    3    3    0    0 -0.73949091631E+01  0.18949771576E+02 -0.36587662083E+01  0.20667972681E+02  0.51100000000E-03 0.  1.
         12    1    3    3    0    0 -0.68380713981E+00  0.16019177055E+02  0.79049823095E+01  0.17876531292E+02  0.00000000000E+00 0. -1.
</event>
<event>
 7    1  0.6073302E-013  0.5052886E+02  0.7816164E-02  0.1300439E+00
        -11   -1    0    0    0    0  0.00000000000E+00  0.00000000000E+00  0.45593999997E+02  0.45594000000E+02  0.51100000000E-03 0.  1.
         11   -1    0    0    0    0 -0.00000000000E+00 -0.00000000000E+00 -0.45593999997E+02  0.45594000000E+02  0.51100000000E-03 0. -1.
    9900012    2    1    2    0    0  0.17563754004E+01  0.99078127018E+01  0.39394365922E+02  0.50528859902E+02  0.30000000159E+02 0.  0.
         12    1    1    2    0    0 -0.17563754004E+01 -0.99078127018E+01 -0.39394365922E+02  0.40659140098E+02  0.00000000000E+00 0. -1.
         11    1    3    3    0    0  0.46945501470E+01 -0.60647423748E+01  0.11401541485E+01  0.77536993042E+01  0.51100000000E-03 0. -1.
        -11    1    3    3    0    0  0.51692072980E+00  0.12260468349E+02  0.17263360286E+02  0.21180413117E+02  0.51100000000E-03 0.  1.
         12    1    3    3    0    0 -0.34550954764E+01  0.37120867280E+01  0.20990851487E+02  0.21594747481E+02  0.00000000000E+00 0. -1.
</event>
<event>
 7    1  0.6073302E-013  0.5052885E+02  0.7816164E-02  0.1300439E+00
        -11   -1    0    0    0    0  0.00000000000E+00  0.00000000000E+00  0.45593999997E+02  0.45594000000E+02  0.51100000000E-03 0. -1.
         11   -1    0    0    0    0 -0.00000000000E+00 -0.00000000000E+00 -0.45593999997E+02  0.45594000000E+02  0.51100000000E-03 0.  1.
    9900012    2    1    2    0    0  0.53544119517E+01  0.23477693051E+02 -0.32761172814E+02  0.50528852905E+02  0.29999978890E+02 0.  0.
         12    1    1    2    0    0 -0.53544119517E+01 -0.23477693051E+02  0.32761172814E+02  0.40659147095E+02  0.00000000000E+00 0. -1.
         11    1    3    3    0    0  0.23304614339E+01  0.48193637490E+00 -0.17913586923E+02  0.18070968704E+02  0.51100000000E-03 0. -1.
        -11    1    3    3    0    0 -0.37232367599E+01  0.21626883580E+02 -0.11956429592E+02  0.24990814197E+02  0.51100000000E-03 0.  1.
        -12    1    3    3    0    0  0.67471872777E+01  0.13688730962E+01 -0.28911562979E+01  0.74670700045E+01  0.00000000000E+00 0.  1.
</event>
<event>
 7    1  0.6073302E-013  0.5052886E+02  0.7816164E-02  0.1300439E+00
        -11   -1    0    0    0    0  0.00000000000E+00  0.00000000000E+00  0.45593999997E+02  0.45594000000E+02  0.51100000000E-03 0.  1.
         11   -1    0    0    0    0 -0.00000000000E+00 -0.00000000000E+00 -0.45593999997E+02  0.45594000000E+02  0.51100000000E-03 0. -1.
    9900012    2    1    2    0    0 -0.37981470023E+02  0.10486311753E+02  0.10030492390E+02  0.50528861090E+02  0.30000003771E+02 0.  0.
         12    1    1    2    0    0  0.37981470023E+02 -0.10486311753E+02 -0.10030492390E+02  0.40659138910E+02  0.00000000000E+00 0. -1.
         11    1    3    3    0    0 -0.13154487784E+02  0.15937103733E+02 -0.32311771012E+01  0.20915839213E+02  0.51100000000E-03 0. -1.
        -11    1    3    3    0    0 -0.17294941849E+02 -0.80180559025E+00  0.65750003508E+01  0.18519949666E+02  0.51100000000E-03 0.  1.
         12    1    3    3    0    0 -0.75320403896E+01 -0.46489863903E+01  0.66866691402E+01  0.11093072211E+02  0.00000000000E+00 0. -1.
</event>
<event>
 7    1  0.6073302E-013  0.5052887E+02  0.7816164E-02  0.1300439E+00
        -11   -1    0    0    0    0  0.00000000000E+00  0.00000000000E+00  0.45593999997E+02  0.45594000000E+02  0.51100000000E-03 0. -1.
         11   -1    0    0    0    0 -0.00000000000E+00 -0.00000000000E+00 -0.45593999997E+02  0.45594000000E+02  0.51100000000E-03 0.  1.
    9900012    2    1    2    0    0 -0.29075919534E+02  0.28384852808E+01 -0.28278950453E+02  0.50528866535E+02  0.30000020320E+02 0.  0.
         12    1    1    2    0    0  0.29075919534E+02 -0.28384852808E+01  0.28278950453E+02  0.40659133465E+02  0.00000000000E+00 0. -1.
         11    1    3    3    0    0  0.30005983098E+01  0.30413885226E+01 -0.41587647894E+01  0.59622947929E+01  0.51100000000E-03 0. -1.
        -11    1    3    3    0    0 -0.20285346665E+02 -0.12043633553E+01 -0.32561752616E+01  0.20580292953E+02  0.51100000000E-03 0.  1.
         12    1    3    3    0    0 -0.11791171178E+02  0.10014601134E+01 -0.20864010402E+02  0.23986278789E+02  0.00000000000E+00 0. -1.
</event>
<event>
 7    1  0.6073302E-013  0.5052886E+02  0.7816164E-02  0.1300439E+00
        -11   -1    0    0    0    0  0.00000000000E+00  0.00000000000E+00  0.45593999997E+02  0.45594000000E+02  0.51100000000E-03 0. -1.
         11   -1    0    0    0    0 -0.00000000000E+00 -0.00000000000E+00 -0.45593999997E+02  0.45594000000E+02  0.51100000000E-03 0.  1.
    9900012    2    1    2    0    0  0.39471439839E+02 -0.66668077274E+01  0.71221397283E+01  0.50528858807E+02  0.29999996829E+02 0.  0.
         12    1    1    2    0    0 -0.39471439839E+02  0.66668077274E+01 -0.71221397283E+01  0.40659141193E+02  0.00000000000E+00 0. -1.
         11    1    3    3    0    0  0.10285525156E+02 -0.97651414939E+01 -0.39668791716E+01  0.14727054925E+02  0.51100000000E-03 0. -1.
        -11    1    3    3    0    0  0.27347067171E+02  0.23104137661E+01  0.15096606063E+02  0.31322637333E+02  0.51100000000E-03 0.  1.
         12    1    3    3    0    0  0.18388475117E+01  0.78792000041E+00 -0.40075871631E+01  0.44791665484E+01  0.00000000000E+00 0. -1.
</event>
<event>
 7    1  0.6073302E-013  0.5052885E+02  0.7816164E-02  0.1300439E+00
        -11   -1    0    0    0    0  0.00000000000E+00  0.00000000000E+00  0.45593999997E+02  0.45594000000E+02  0.51100000000E-03 0.  1.
         11   -1    0    0    0    0 -0.00000000000E+00 -0.00000000000E+00 -0.45593999997E+02  0.45594000000E+02  0.51100000000E-03 0. -1.
    9900012    2    1    2    0    0 -0.25786514976E+02  0.12316588758E+02  0.28922714891E+02  0.50528854044E+02  0.29999982352E+02 0.  0.
         12    1    1    2    0    0  0.25786514976E+02 -0.12316588758E+02 -0.28922714891E+02  0.40659145956E+02  0.00000000000E+00 0. -1.
         11    1    3    3    0    0 -0.13402135538E+02  0.40789483514E+01 -0.33467957866E+01  0.14403336382E+02  0.51100000000E-03 0. -1.
        -11    1    3    3    0    0 -0.44916029356E+01  0.66371983409E+01  0.18719954643E+02  0.20363290522E+02  0.51100000000E-03 0.  1.
         12    1    3    3    0    0 -0.78927765023E+01  0.16004420659E+01  0.13549556034E+02  0.15762227141E+02  0.00000000000E+00 0. -1.
</event>
<event>
 7    1  0.6073302E-013  0.5052887E+02  0.7816164E-02  0.1300439E+00
        -11   -1    0    0    0    0  0.00000000000E+00  0.00000000000E+00  0.45593999997E+02  0.45594000000E+02  0.51100000000E-03 0. -1.
         11   -1    0    0    0    0 -0.00000000000E+00 -0.00000000000E+00 -0.45593999997E+02  0.45594000000E+02  0.51100000000E-03 0.  1.
    9900012    2    1    2    0    0  0.32320393403E+02  0.17524704472E+02  0.17362074588E+02  0.50528871498E+02  0.30000035404E+02 0.  0.
         12    1    1    2    0    0 -0.32320393403E+02 -0.17524704472E+02 -0.17362074588E+02  0.40659128502E+02  0.00000000000E+00 0. -1.
         11    1    3    3    0    0 -0.35869428409E+01 -0.69693633294E+00  0.82327620768E+01  0.90072332528E+01  0.51100000000E-03 0. -1.
        -11    1    3    3    0    0  0.25045195223E+02  0.14911332120E+02  0.67620254836E+01  0.29922142608E+02  0.51100000000E-03 0.  1.
         12    1    3    3    0    0  0.10862141022E+02  0.33103086850E+01  0.23672870278E+01  0.11599495637E+02  0.00000000000E+00 0. -1.
</event>
<event>
 7    1  0.6073302E-013  0.5052886E+02  0.7816164E-02  0.1300439E+00
        -11   -1    0    0    0    0  0.00000000000E+00  0.00000000000E+00  0.45593999997E+02  0.45594000000E+02  0.51100000000E-03 0.  1.
         11   -1    0    0    0    0 -0.00000000000E+00 -0.00000000000E+00 -0.45593999997E+02  0.45594000000E+02  0.51100000000E-03 0. -1.
    9900012    2    1    2    0    0  0.38500145622E+02 -0.76734981158E+01 -0.10584050607E+02  0.50528856951E+02  0.29999991188E+02 0.  0.
         12    1    1    2    0    0 -0.38500145622E+02  0.76734981158E+01  0.10584050607E+02  0.40659143049E+02  0.00000000000E+00 0. -1.
         11    1    3    3    0    0  0.82707264902E+01  0.10591321133E+02 -0.33022265460E+00  0.13442099809E+02  0.51100000000E-03 0. -1.
        -11    1    3    3    0    0  0.85150266522E+01 -0.77530857164E+01 -0.33800116837E+01  0.12001687225E+02  0.51100000000E-03 0.  1.
         12    1    3    3    0    0  0.21714392479E+02 -0.10511733532E+02 -0.68738162686E+01  0.25085069916E+02  0.00000000000E+00 0. -1.
</event>
<event>
 7    1  0.6073302E-013  0.5052886E+02  0.7816164E-02  0.1300439E+00
        -11   -1    0    0    0    0  0.00000000000E+00  0.00000000000E+00  0.45593999997E+02  0.45594000000E+02  0.51100000000E-03 0. -1.
         11   -1    0    0    0    0 -0.00000000000E+00 -0.00000000000E+00 -0.45593999997E+02  0.45594000000E+02  0.51100000000E-03 0.  1.
    9900012    2    1    2    0    0 -0.11111574985E+02  0.10556444734E+02 -0.37659788076E+02  0.50528864962E+02  0.30000015540E+02 0.  0.
         12    1    1    2    0    0  0.11111574985E+02 -0.10556444734E+02  0.37659788076E+02  0.40659135038E+02  0.00000000000E+00 0. -1.
         11    1    3    3    0    0  0.29046851534E+01  0.11134159635E+02 -0.39950670739E+01  0.12180610321E+02  0.51100000000E-03 0. -1.
        -11    1    3    3    0    0 -0.15331458572E+02  0.18508516275E+01 -0.30182812769E+02  0.33904003608E+02  0.51100000000E-03 0.  1.
        -12    1    3    3    0    0  0.13151984337E+01 -0.24285665288E+01 -0.34819082329E+01  0.44442510333E+01  0.00000000000E+00 0.  1.
</event>
<event>
 7    1  0.6073302E-013  0.5052886E+02  0.7816164E-02  0.1300439E+00
        -11   -1    0    0    0    0  0.00000000000E+00  0.00000000000E+00  0.45593999997E+02  0.45594000000E+02  0.51100000000E-03 0. -1.
         11   -1    0    0    0    0 -0.00000000000E+00 -0.00000000000E+00 -0.45593999997E+02  0.45594000000E+02  0.51100000000E-03 0.  1.
    9900012    2    1    2    0    0  0.88201333729E+01  0.31989827248E+02 -0.23495153913E+02  0.50528855181E+02  0.29999985807E+02 0.  0.
         12    1    1    2    0    0 -0.88201333729E+01 -0.31989827248E+02  0.23495153913E+02  0.40659144819E+02  0.00000000000E+00 0. -1.
         11    1    3    3    0    0 -0.17699047342E+01 -0.27257520924E+01 -0.50949736880E+01  0.60432643811E+01  0.51100000000E-03 0. -1.
        -11    1    3    3    0    0  0.97492220486E+01  0.16726629174E+02 -0.91052673095E+00  0.19381860418E+02  0.51100000000E-03 0.  1.
        -12    1    3    3    0    0  0.84081605862E+00  0.17988950166E+02 -0.17489653494E+02  0.25103730382E+02  0.00000000000E+00 0.  1.
</event>
<event>
 7    1  0.6073302E-013  0.5052887E+02  0.7816164E-02  0.1300439E+00
        -11   -1    0    0    0    0  0.00000000000E+00  0.00000000000E+00  0.45593999997E+02  0.45594000000E+02  0.51100000000E-03 0. -1.
         11   -1    0    0    0    0 -0.00000000000E+00 -0.00000000000E+00 -0.45593999997E+02  0.45594000000E+02  0.51100000000E-03 0.  1.
    9900012    2    1    2    0    0 -0.31444444782E+02  0.24299582170E+02 -0.85989677832E+01  0.50528867591E+02  0.30000023530E+02 0.  0.
         12    1    1    2    0    0  0.31444444782E+02 -0.24299582170E+02  0.85989677832E+01  0.40659132409E+02  0.00000000000E+00 0. -1.
         11    1    3    3    0    0  0.17295238514E+01 -0.55650852680E+00 -0.80783984441E+01  0.82801857573E+01  0.51100000000E-03 0. -1.
        -11    1    3    3    0    0 -0.24819918219E+02  0.20757559005E+02 -0.33344296948E+01  0.32527265761E+02  0.51100000000E-03 0.  1.
         12    1    3    3    0    0 -0.83540504146E+01  0.40985316924E+01  0.28138603556E+01  0.97214160729E+01  0.00000000000E+00 0. -1.
</event>
<event>
 7    1  0.6073302E-013  0.5052886E+02  0.7816164E-02  0.1300439E+00
        -11   -1    0    0    0    0  0.00000000000E+00  0.00000000000E+00  0.45593999997E+02  0.45594000000E+02  0.51100000000E-03 0. -1.
         11   -1    0    0    0    0 -0.00000000000E+00 -0.00000000000E+00 -0.45593999997E+02  0.45594000000E+02  0.51100000000E-03 0.  1.
    9900012    2    1    2    0    0 -0.12499627752E+01  0.21517437468E+02 -0.34476122123E+02  0.50528861805E+02  0.30000005942E+02 0.  0.
         12    1    1    2    0    0  0.12499627752E+01 -0.21517437468E+02  0.34476122123E+02  0.40659138195E+02  0.00000000000E+00 0. -1.
         11    1    3    3    0    0 -0.43611346569E+01 -0.62738614545E+01 -0.12659399616E+02  0.14786521969E+02  0.51100000000E-03 0. -1.
        -11    1    3    3    0    0 -0.11296350961E+01  0.70014048340E+01 -0.56313491721E+01  0.90558179564E+01  0.51100000000E-03 0.  1.
         12    1    3    3    0    0  0.42408069778E+01  0.20789894088E+02 -0.16185373335E+02  0.26686521879E+02  0.00000000000E+00 0. -1.
</event>
<event>
 7    1  0.6073302E-013  0.5052886E+02  0.7816164E-02  0.1300439E+00
        -11   -1    0    0    0    0  0.00000000000E+00  0.00000000000E+00  0.45593999997E+02  0.45594000000E+02  0.51100000000E-03 0.  1.
         11   -1    0    0    0    0 -0.00000000000E+00 -0.00000000000E+00 -0.45593999997E+02  0.45594000000E+02  0.51100000000E-03 0. -1.
    9900012    2    1    2    0    0 -0.17521934458E+01 -0.19265504286E+02  0.35762212320E+02  0.50528859979E+02  0.30000000392E+02 0.  0.
         12    1    1    2    0    0  0.17521934458E+01  0.19265504286E+02 -0.35762212320E+02  0.40659140021E+02  0.00000000000E+00 0. -1.
         11    1    3    3    0    0 -0.44113176448E+01 -0.87264231632E+01  0.85940340964E+00  0.98157403729E+01  0.51100000000E-03 0. -1.
        -11    1    3    3    0    0  0.70484346319E+01 -0.13741975367E+02  0.27342102233E+02  0.31402434182E+02  0.51100000000E-03 0.  1.
        -12    1    3    3    0    0 -0.43893104328E+01  0.32028942441E+01  0.75607066770E+01  0.93106854244E+01  0.00000000000E+00 0.  1.
</event>
<event>
 7    1  0.6073302E-013  0.5052886E+02  0.7816164E-02  0.1300439E+00
        -11   -1    0    0    0    0  0.00000000000E+00  0.00000000000E+00  0.45593999997E+02  0.45594000000E+02  0.51100000000E-03 0.  1.
         11   -1    0    0    0    0 -0.00000000000E+00 -0.00000000000E+00 -0.45593999997E+02  0.45594000000E+02  0.51100000000E-03 0. -1.
    9900012    2    1    2    0    0  0.22286828459E+02  0.31588098569E+02 -0.12595837121E+02  0.50528858264E+02  0.29999995178E+02 0.  0.
         12    1    1    2    0    0 -0.22286828459E+02 -0.31588098569E+02  0.12595837121E+02  0.40659141736E+02  0.00000000000E+00 0. -1.
         11    1    3    3    0    0 -0.28378290479E+01  0.22832111759E+01 -0.13423950596E+01  0.38817974877E+01  0.51100000000E-03 0. -1.
        -11    1    3    3    0    0  0.29182360916E+02  0.29004948429E+02 -0.95658575381E+01  0.42242192802E+02  0.51100000000E-03 0.  1.
        -12    1    3    3    0    0 -0.40577034097E+01  0.29993896394E+00 -0.16875845232E+01  0.44048679737E+01  0.00000000000E+00 0.  1.
</event>
<event>
 7    1  0.6073302E-013  0.5052887E+02  0.7816164E-02  0.1300439E+00
        -11   -1    0    0    0    0  0.00000000000E+00  0.00000000000E+00  0.45593999997E+02  0.45594000000E+02  0.51100000000E-03 0.  1.
         11   -1    0    0    0    0 -0.00000000000E+00 -0.00000000000E+00 -0.45593999997E+02  0.45594000000E+02  0.51100000000E-03 0. -1.
    9900012    2    1    2    0    0 -0.27546821918E+02 -0.25859554487E+02  0.15020685531E+02  0.50528868801E+02  0.30000027206E+02 0.  0.
         12    1    1    2    0    0  0.27546821918E+02  0.25859554487E+02 -0.15020685531E+02  0.40659131199E+02  0.00000000000E+00 0. -1.
         11    1    3    3    0    0 -0.11966178104E+02 -0.13448323736E+02 -0.34855309401E+01  0.18335641683E+02  0.51100000000E-03 0. -1.
        -11    1    3    3    0    0  0.11510258819E+01 -0.49462974506E+01  0.11511605486E+02  0.12582041971E+02  0.51100000000E-03 0.  1.
        -12    1    3    3    0    0 -0.16731669696E+02 -0.74649333007E+01  0.69946109856E+01  0.19611185146E+02  0.00000000000E+00 0.  1.
</event>
<event>
 7    1  0.6073302E-013  0.5052886E+02  0.7816164E-02  0.1300439E+00
        -11   -1    0    0    0    0  0.00000000000E+00  0.00000000000E+00  0.45593999997E+02  0.45594000000E+02  0.51100000000E-03 0.  1.
         11   -1    0    0    0    0 -0.00000000000E+00 -0.00000000000E+00 -0.45593999997E+02  0.45594000000E+02  0.51100000000E-03 0. -1.
    9900012    2    1    2    0    0 -0.38855081927E+02  0.11822414672E+02  0.19180518505E+01  0.50528858308E+02  0.29999995314E+02 0.  0.
         12    1    1    2    0    0  0.38855081927E+02 -0.11822414672E+02 -0.19180518505E+01  0.40659141692E+02  0.00000000000E+00 0. -1.
         11    1    3    3    0    0  0.16710946883E+01  0.10044476060E+01 -0.82567394424E+00  0.21173592453E+01  0.51100000000E-03 0. -1.
        -11    1    3    3    0    0 -0.34894056762E+02  0.15816364196E+02 -0.37148153173E+01  0.38490939542E+02  0.51100000000E-03 0.  1.
        -12    1    3    3    0    0 -0.56321198533E+01 -0.49983971307E+01  0.64585411120E+01  0.99205595212E+01  0.00000000000E+00 0.  1.
</event>
<event>
 7    1  0.6073302E-013  0.5052893E+02  0.7816164E-02  0.1300439E+00
        -11   -1    0    0    0    0  0.00000000000E+00  0.00000000000E+00  0.45593999997E+02  0.45594000000E+02  0.51100000000E-03 0.  1.
         11   -1    0    0    0    0 -0.00000000000E+00 -0.00000000000E+00 -0.45593999997E+02  0.45594000000E+02  0.51100000000E-03 0. -1.
    9900012    2    1    2    0    0  0.34311531559E+02  0.15419139213E+02  0.15431435205E+02  0.50528926665E+02  0.30000203089E+02 0.  0.
         12    1    1    2    0    0 -0.34311531559E+02 -0.15419139213E+02 -0.15431435205E+02  0.40659073335E+02  0.00000000000E+00 0. -1.
         11    1    3    3    0    0  0.63256205338E+01  0.15656949477E+02 -0.95824086561E+00  0.16913656254E+02  0.51100000000E-03 0. -1.
        -11    1    3    3    0    0  0.17763961284E+02 -0.32371824803E+01  0.13593944687E+02  0.22601615060E+02  0.51100000000E-03 0.  1.
         12    1    3    3    0    0  0.10221949741E+02  0.29993722159E+01  0.27957313836E+01  0.11013655350E+02  0.00000000000E+00 0. -1.
</event>
<event>
 7    1  0.6073302E-013  0.5052886E+02  0.7816164E-02  0.1300439E+00
        -11   -1    0    0    0    0  0.00000000000E+00  0.00000000000E+00  0.45593999997E+02  0.45594000000E+02  0.51100000000E-03 0.  1.
         11   -1    0    0    0    0 -0.00000000000E+00 -0.00000000000E+00 -0.45593999997E+02  0.45594000000E+02  0.51100000000E-03 0. -1.
    9900012    2    1    2    0    0 -0.71551058377E+01  0.36139671705E+02  0.17201569721E+02  0.50528863125E+02  0.30000009956E+02 0.  0.
         12    1    1    2    0    0  0.71551058377E+01 -0.36139671705E+02 -0.17201569721E+02  0.40659136875E+02  0.00000000000E+00 0. -1.
         11    1    3    3    0    0 -0.16096767239E+02  0.87929959741E+01  0.63019864464E+01  0.19394270473E+02  0.51100000000E-03 0. -1.
        -11    1    3    3    0    0  0.94948457675E+01  0.24965653469E+02  0.10205795450E+02  0.28593604360E+02  0.51100000000E-03 0.  1.
         12    1    3    3    0    0 -0.55318436651E+00  0.23810222623E+01  0.69378782432E+00  0.25409882924E+01  0.00000000000E+00 0. -1.
</event>
<event>
 7    1  0.6073302E-013  0.5052887E+02  0.7816164E-02  0.1300439E+00
        -11   -1    0    0    0    0  0.00000000000E+00  0.00000000000E+00  0.45593999997E+02  0.45594000000E+02  0.51100000000E-03 0.  1.
         11   -1    0    0    0    0 -0.00000000000E+00 -0.00000000000E+00 -0.45593999997E+02  0.45594000000E+02  0.51100000000E-03 0. -1.
    9900012    2    1    2    0    0 -0.97981556576E+01 -0.21357693629E+02  0.33181466867E+02  0.50528872183E+02  0.30000037486E+02 0.  0.
         12    1    1    2    0    0  0.97981556576E+01  0.21357693629E+02 -0.33181466867E+02  0.40659127817E+02  0.00000000000E+00 0. -1.
         11    1    3    3    0    0  0.56813774161E+01 -0.16073767410E+02  0.16633235746E+02  0.23818240483E+02  0.51100000000E-03 0. -1.
        -11    1    3    3    0    0 -0.71742824920E+01 -0.89494373829E+01  0.11837572112E+02  0.16483048035E+02  0.51100000000E-03 0.  1.
         12    1    3    3    0    0 -0.83052505816E+01  0.36655111635E+01  0.47106590089E+01  0.10227583664E+02  0.00000000000E+00 0. -1.
</event>
<event>
 7    1  0.6073302E-013  0.5052886E+02  0.7816164E-02  0.1300439E+00
        -11   -1    0    0    0    0  0.00000000000E+00  0.00000000000E+00  0.45593999997E+02  0.45594000000E+02  0.51100000000E-03 0.  1.
         11   -1    0    0    0    0 -0.00000000000E+00 -0.00000000000E+00 -0.45593999997E+02  0.45594000000E+02  0.51100000000E-03 0. -1.
    9900012    2    1    2    0    0 -0.19662055819E+02 -0.26930134370E+02  0.23266644712E+02  0.50528864097E+02  0.30000012908E+02 0.  0.
         12    1    1    2    0    0  0.19662055819E+02  0.26930134370E+02 -0.23266644712E+02  0.40659135903E+02  0.00000000000E+00 0. -1.
         11    1    3    3    0    0 -0.35817915339E+01 -0.22133094228E+02  0.16911801798E+02  0.28084019139E+02  0.51100000000E-03 0. -1.
        -11    1    3    3    0    0 -0.15567740177E+02 -0.83846929450E+01  0.40186765548E+01  0.18133046394E+02  0.51100000000E-03 0.  1.
         12    1    3    3    0    0 -0.51252410826E+00  0.35876528026E+01  0.23361663595E+01  0.43117985636E+01  0.00000000000E+00 0. -1.
</event>
<event>
 7    1  0.6073302E-013  0.5052878E+02  0.7816164E-02  0.1300439E+00
        -11   -1    0    0    0    0  0.00000000000E+00  0.00000000000E+00  0.45593999997E+02  0.45594000000E+02  0.51100000000E-03 0.  1.
         11   -1    0    0    0    0 -0.00000000000E+00 -0.00000000000E+00 -0.45593999997E+02  0.45594000000E+02  0.51100000000E-03 0. -1.
    9900012    2    1    2    0    0  0.42571113600E+01 -0.12786865647E+02  0.38360721690E+02  0.50528783348E+02  0.29999767463E+02 0.  0.
         12    1    1    2    0    0 -0.42571113600E+01  0.12786865647E+02 -0.38360721690E+02  0.40659216652E+02  0.00000000000E+00 0. -1.
         11    1    3    3    0    0 -0.10669334452E+02 -0.17372823874E+01  0.18507903807E+02  0.21433510009E+02  0.51100000000E-03 0. -1.
        -11    1    3    3    0    0  0.96367662593E+01 -0.40498704704E+01  0.44333211759E+01  0.11354428725E+02  0.51100000000E-03 0.  1.
         12    1    3    3    0    0  0.52896795525E+01 -0.69997127891E+01  0.15419496707E+02  0.17740844614E+02  0.00000000000E+00 0. -1.
</event>
<event>
 7    1  0.6073302E-013  0.5052886E+02  0.7816164E-02  0.1300439E+00
        -11   -1    0    0    0    0  0.00000000000E+00  0.00000000000E+00  0.45593999997E+02  0.45594000000E+02  0.51100000000E-03 0.  1.
         11   -1    0    0    0    0 -0.00000000000E+00 -0.00000000000E+00 -0.45593999997E+02  0.45594000000E+02  0.51100000000E-03 0. -1.
    9900012    2    1    2    0    0  0.22063662681E+02 -0.10256249047E+02  0.32575605280E+02  0.50528856935E+02  0.29999991139E+02 0.  0.
         12    1    1    2    0    0 -0.22063662681E+02  0.10256249047E+02 -0.32575605280E+02  0.40659143065E+02  0.00000000000E+00 0. -1.
         11    1    3    3    0    0  0.66782778251E+01 -0.13529689948E+02  0.10529132840E+02  0.18398764725E+02  0.51100000000E-03 0. -1.
        -11    1    3    3    0    0  0.15407846635E+02 -0.85838167004E+00  0.23178746085E+02  0.27845876308E+02  0.51100000000E-03 0.  1.
         12    1    3    3    0    0 -0.22461778504E-01  0.41318225710E+01 -0.11322736442E+01  0.42842159020E+01  0.00000000000E+00 0. -1.
</event>
<event>
 7    1  0.6073302E-013  0.5052892E+02  0.7816164E-02  0.1300439E+00
        -11   -1    0    0    0    0  0.00000000000E+00  0.00000000000E+00  0.45593999997E+02  0.45594000000E+02  0.51100000000E-03 0. -1.
         11   -1    0    0    0    0 -0.00000000000E+00 -0.00000000000E+00 -0.45593999997E+02  0.45594000000E+02  0.51100000000E-03 0.  1.
    9900012    2    1    2    0    0  0.97993786047E+01  0.12237213805E+02 -0.37515108186E+02  0.50528922724E+02  0.30000191110E+02 0.  0.
         12    1    1    2    0    0 -0.97993786047E+01 -0.12237213805E+02  0.37515108186E+02  0.40659077276E+02  0.00000000000E+00 0. -1.
         11    1    3    3    0    0 -0.41133552222E+01 -0.11936270913E+01  0.14894836565E+01  0.45346442684E+01  0.51100000000E-03 0. -1.
        -11    1    3    3    0    0  0.77183668576E+01  0.56404794751E-01 -0.22886726671E+02  0.24153232215E+02  0.51100000000E-03 0.  1.
         12    1    3    3    0    0  0.61943669693E+01  0.13374436102E+02 -0.16117865171E+02  0.21841046240E+02  0.00000000000E+00 0. -1.
</event>
<event>
 7    1  0.6073302E-013  0.5052886E+02  0.7816164E-02  0.1300439E+00
        -11   -1    0    0    0    0  0.00000000000E+00  0.00000000000E+00  0.45593999997E+02  0.45594000000E+02  0.51100000000E-03 0.  1.
         11   -1    0    0    0    0 -0.00000000000E+00 -0.00000000000E+00 -0.45593999997E+02  0.45594000000E+02  0.51100000000E-03 0. -1.
    9900012    2    1    2    0    0  0.34424658994E+02 -0.17001758634E+02  0.13380898989E+02  0.50528863250E+02  0.30000010335E+02 0.  0.
         12    1    1    2    0    0 -0.34424658994E+02  0.17001758634E+02 -0.13380898989E+02  0.40659136750E+02  0.00000000000E+00 0. -1.
         11    1    3    3    0    0  0.16561023852E+02  0.22594165717E+01 -0.89091002897E+00  0.16738165826E+02  0.51100000000E-03 0. -1.
        -11    1    3    3    0    0  0.28596541927E+01 -0.92551749343E+01  0.12288660311E+02  0.15647589517E+02  0.51100000000E-03 0.  1.
        -12    1    3    3    0    0  0.15003980949E+02 -0.10006000271E+02  0.19831487068E+01  0.18143107907E+02  0.00000000000E+00 0.  1.
</event>
<event>
 7    1  0.6073302E-013  0.5052886E+02  0.7816164E-02  0.1300439E+00
        -11   -1    0    0    0    0  0.00000000000E+00  0.00000000000E+00  0.45593999997E+02  0.45594000000E+02  0.51100000000E-03 0.  1.
         11   -1    0    0    0    0 -0.00000000000E+00 -0.00000000000E+00 -0.45593999997E+02  0.45594000000E+02  0.51100000000E-03 0. -1.
    9900012    2    1    2    0    0 -0.15121719467E+01  0.31590371954E+02  0.25552445119E+02  0.50528859383E+02  0.29999998581E+02 0.  0.
         12    1    1    2    0    0  0.15121719467E+01 -0.31590371954E+02 -0.25552445119E+02  0.40659140617E+02  0.00000000000E+00 0. -1.
         11    1    3    3    0    0  0.66161560528E+01  0.30581130093E+01 -0.12868222922E+01  0.74014517471E+01  0.51100000000E-03 0. -1.
        -11    1    3    3    0    0 -0.23719236661E+01  0.26757748091E+02  0.25320497415E+02  0.36915182437E+02  0.51100000000E-03 0.  1.
         12    1    3    3    0    0 -0.57564043334E+01  0.17745108535E+01  0.15187699958E+01  0.62122251986E+01  0.00000000000E+00 0. -1.
</event>
<event>
 7    1  0.6073302E-013  0.5052887E+02  0.7816164E-02  0.1300439E+00
        -11   -1    0    0    0    0  0.00000000000E+00  0.00000000000E+00  0.45593999997E+02  0.45594000000E+02  0.51100000000E-03 0. -1.
         11   -1    0    0    0    0 -0.00000000000E+00 -0.00000000000E+00 -0.45593999997E+02  0.45594000000E+02  0.51100000000E-03 0.  1.
    9900012    2    1    2    0    0 -0.14550471233E+02  0.99632596847E+01 -0.36635801235E+02  0.50528872012E+02  0.30000036967E+02 0.  0.
         12    1    1    2    0    0  0.14550471233E+02 -0.99632596847E+01  0.36635801235E+02  0.40659127988E+02  0.00000000000E+00 0. -1.
         11    1    3    3    0    0  0.39004485780E+01  0.41521183819E+01 -0.19454761478E+02  0.20271687907E+02  0.51100000000E-03 0. -1.
        -11    1    3    3    0    0 -0.18028821814E+02  0.74700824807E+01 -0.82901399128E+01  0.21202994324E+02  0.51100000000E-03 0.  1.
        -12    1    3    3    0    0 -0.42209799706E+00 -0.16589411780E+01 -0.88908998436E+01  0.90541897804E+01  0.00000000000E+00 0.  1.
</event>
<event>
 7    1  0.6073302E-013  0.5052887E+02  0.7816164E-02  0.1300439E+00
        -11   -1    0    0    0    0  0.00000000000E+00  0.00000000000E+00  0.45593999997E+02  0.45594000000E+02  0.51100000000E-03 0.  1.
         11   -1    0    0    0    0 -0.00000000000E+00 -0.00000000000E+00 -0.45593999997E+02  0.45594000000E+02  0.51100000000E-03 0. -1.
    9900012    2    1    2    0    0  0.20067730783E+02  0.28175329951E+02  0.21368247622E+02  0.50528867655E+02  0.30000023725E+02 0.  0.
         12    1    1    2    0    0 -0.20067730783E+02 -0.28175329951E+02 -0.21368247622E+02  0.40659132345E+02  0.00000000000E+00 0. -1.
         11    1    3    3    0    0  0.68581058719E+01 -0.80923644349E-01  0.41394698960E+01  0.80109535055E+01  0.51100000000E-03 0. -1.
        -11    1    3    3    0    0  0.19267436185E+02  0.24010929241E+02  0.16886168531E+02  0.35112697248E+02  0.51100000000E-03 0.  1.
        -12    1    3    3    0    0 -0.60578112733E+01  0.42453243544E+01  0.34260919483E+00  0.74052169015E+01  0.00000000000E+00 0.  1.
</event>
<event>
 7    1  0.6073302E-013  0.5052888E+02  0.7816164E-02  0.1300439E+00
        -11   -1    0    0    0    0  0.00000000000E+00  0.00000000000E+00  0.45593999997E+02  0.45594000000E+02  0.51100000000E-03 0.  1.
         11   -1    0    0    0    0 -0.00000000000E+00 -0.00000000000E+00 -0.45593999997E+02  0.45594000000E+02  0.51100000000E-03 0. -1.
    9900012    2    1    2    0    0  0.34943747899E+02  0.10975744798E+02  0.17653095828E+02  0.50528876997E+02  0.30000052120E+02 0.  0.
         12    1    1    2    0    0 -0.34943747899E+02 -0.10975744798E+02 -0.17653095828E+02  0.40659123003E+02  0.00000000000E+00 0. -1.
         11    1    3    3    0    0  0.23684725152E+02  0.10589483460E+02  0.59357449294E+01  0.26614590615E+02  0.51100000000E-03 0. -1.
        -11    1    3    3    0    0  0.10807040490E+02 -0.39916277196E+01  0.14641262602E+02  0.18630399535E+02  0.51100000000E-03 0.  1.
        -12    1    3    3    0    0  0.45198225702E+00  0.43778890572E+01 -0.29239117038E+01  0.52838868468E+01  0.00000000000E+00 0.  1.
</event>
<event>
 7    1  0.6073302E-013  0.5052887E+02  0.7816164E-02  0.1300439E+00
        -11   -1    0    0    0    0  0.00000000000E+00  0.00000000000E+00  0.45593999997E+02  0.45594000000E+02  0.51100000000E-03 0.  1.
         11   -1    0    0    0    0 -0.00000000000E+00 -0.00000000000E+00 -0.45593999997E+02  0.45594000000E+02  0.51100000000E-03 0. -1.
    9900012    2    1    2    0    0 -0.35116792734E+02  0.31785752003E+01  0.20245308282E+02  0.50528868435E+02  0.30000026094E+02 0.  0.
         12    1    1    2    0    0  0.35116792734E+02 -0.31785752003E+01 -0.20245308282E+02  0.40659131565E+02  0.00000000000E+00 0. -1.
         11    1    3    3    0    0 -0.64378136975E+01  0.78690249416E+00  0.53517969608E+00  0.65077706097E+01  0.51100000000E-03 0. -1.
        -11    1    3    3    0    0  0.78545659321E+00 -0.10156532849E-01  0.13864225782E+02  0.13886461105E+02  0.51100000000E-03 0.  1.
        -12    1    3    3    0    0 -0.29464435630E+02  0.24018292390E+01  0.58459028037E+01  0.30134636720E+02  0.00000000000E+00 0.  1.
</event>
<event>
 7    1  0.6073302E-013  0.5052886E+02  0.7816164E-02  0.1300439E+00
        -11   -1    0    0    0    0  0.00000000000E+00  0.00000000000E+00  0.45593999997E+02  0.45594000000E+02  0.51100000000E-03 0.  1.
         11   -1    0    0    0    0 -0.00000000000E+00 -0.00000000000E+00 -0.45593999997E+02  0.45594000000E+02  0.51100000000E-03 0. -1.
    9900012    2    1    2    0    0 -0.15807826486E+02 -0.99134000855E-01  0.37460222917E+02  0.50528861953E+02  0.30000006391E+02 0.  0.
         12    1    1    2    0    0  0.15807826486E+02  0.99134000855E-01 -0.37460222917E+02  0.40659138047E+02  0.00000000000E+00 0. -1.
         11    1    3    3    0    0 -0.59414010835E+01  0.84366848729E+01 -0.49797279579E+00  0.10330821635E+02  0.51100000000E-03 0. -1.
        -11    1    3    3    0    0 -0.64726219822E+01 -0.43413005955E+01  0.20840192921E+02  0.22249839717E+02  0.51100000000E-03 0.  1.
         12    1    3    3    0    0 -0.33938034207E+01 -0.41945182783E+01  0.17118002792E+02  0.17948200601E+02  0.00000000000E+00 0. -1.
</event>
<event>
 7    1  0.6073302E-013  0.5052885E+02  0.7816164E-02  0.1300439E+00
        -11   -1    0    0    0    0  0.00000000000E+00  0.00000000000E+00  0.45593999997E+02  0.45594000000E+02  0.51100000000E-03 0.  1.
         11   -1    0    0    0    0 -0.00000000000E+00 -0.00000000000E+00 -0.45593999997E+02  0.45594000000E+02  0.51100000000E-03 0. -1.
    9900012    2    1    2    0    0  0.45927208002E+01  0.38970836269E+02 -0.10646455847E+02  0.50528853600E+02  0.29999981003E+02 0.  0.
         12    1    1    2    0    0 -0.45927208002E+01 -0.38970836269E+02  0.10646455847E+02  0.40659146400E+02  0.00000000000E+00 0. -1.
         11    1    3    3    0    0  0.12169668140E+02  0.86108467417E+01 -0.84217406551E+01  0.17122301836E+02  0.51100000000E-03 0. -1.
        -11    1    3    3    0    0 -0.34074064829E+01  0.28214449326E+02 -0.32558094787E+01  0.28605346796E+02  0.51100000000E-03 0.  1.
        -12    1    3    3    0    0 -0.41695408570E+01  0.21455402016E+01  0.10310942868E+01  0.48012049678E+01  0.00000000000E+00 0.  1.
</event>
<event>
 7    1  0.6073302E-013  0.5052887E+02  0.7816164E-02  0.1300439E+00
        -11   -1    0    0    0    0  0.00000000000E+00  0.00000000000E+00  0.45593999997E+02  0.45594000000E+02  0.51100000000E-03 0. -1.
         11   -1    0    0    0    0 -0.00000000000E+00 -0.00000000000E+00 -0.45593999997E+02  0.45594000000E+02  0.51100000000E-03 0.  1.
    9900012    2    1    2    0    0 -0.38190410621E+02  0.13766764541E+02 -0.22657473332E+01  0.50528869657E+02  0.30000029809E+02 0.  0.
         12    1    1    2    0    0  0.38190410621E+02 -0.13766764541E+02  0.22657473332E+01  0.40659130343E+02  0.00000000000E+00 0. -1.
         11    1    3    3    0    0 -0.29521539862E+02  0.83627872539E+01 -0.42001108062E+01  0.30969314773E+02  0.51100000000E-03 0. -1.
        -11    1    3    3    0    0 -0.10684349316E-01  0.78759092580E+01  0.57792889261E+01  0.97688403380E+01  0.51100000000E-03 0.  1.
        -12    1    3    3    0    0 -0.86581864093E+01 -0.24719319715E+01 -0.38449254530E+01  0.97907145454E+01  0.00000000000E+00 0.  1.
</event>
<event>
 7    1  0.6073302E-013  0.5052887E+02  0.7816164E-02  0.1300439E+00
        -11   -1    0    0    0    0  0.00000000000E+00  0.00000000000E+00  0.45593999997E+02  0.45594000000E+02  0.51100000000E-03 0. -1.
         11   -1    0    0    0    0 -0.00000000000E+00 -0.00000000000E+00 -0.45593999997E+02  0.45594000000E+02  0.51100000000E-03 0.  1.
    9900012    2    1    2    0    0 -0.27770244236E+02  0.29644638851E+02  0.17815280615E+01  0.50528869171E+02  0.30000028333E+02 0.  0.
         12    1    1    2    0    0  0.27770244236E+02 -0.29644638851E+02 -0.17815280615E+01  0.40659130829E+02  0.00000000000E+00 0. -1.
         11    1    3    3    0    0 -0.12973006314E+02  0.22580132063E+02  0.43137215833E+01  0.26396390870E+02  0.51100000000E-03 0. -1.
        -11    1    3    3    0    0 -0.11375254095E+02 -0.33210058991E+01 -0.50988512592E+01  0.12900533722E+02  0.51100000000E-03 0.  1.
        -12    1    3    3    0    0 -0.34219838269E+01  0.10385512687E+02  0.25666577373E+01  0.11231944579E+02  0.00000000000E+00 0.  1.
</event>
<event>
 7    1  0.6073302E-013  0.5052887E+02  0.7816164E-02  0.1300439E+00
        -11   -1    0    0    0    0  0.00000000000E+00  0.00000000000E+00  0.45593999997E+02  0.45594000000E+02  0.51100000000E-03 0.  1.
         11   -1    0    0    0    0 -0.00000000000E+00 -0.00000000000E+00 -0.45593999997E+02  0.45594000000E+02  0.51100000000E-03 0. -1.
    9900012    2    1    2    0    0 -0.20580768763E+02 -0.28722222677E+02  0.20115426775E+02  0.50528874177E+02  0.30000043547E+02 0.  0.
         12    1    1    2    0    0  0.20580768763E+02  0.28722222677E+02 -0.20115426775E+02  0.40659125823E+02  0.00000000000E+00 0. -1.
         11    1    3    3    0    0  0.11252082390E+01  0.19408688172E+01 -0.10125074856E+01  0.24613486174E+01  0.51100000000E-03 0. -1.
        -11    1    3    3    0    0 -0.18069012713E+02 -0.24594809958E+02  0.56334843234E+01  0.31034336519E+02  0.51100000000E-03 0.  1.
        -12    1    3    3    0    0 -0.36369642891E+01 -0.60682815369E+01  0.15494449937E+02  0.17033189041E+02  0.00000000000E+00 0.  1.
</event>
<event>
 7    1  0.6073302E-013  0.5052887E+02  0.7816164E-02  0.1300439E+00
        -11   -1    0    0    0    0  0.00000000000E+00  0.00000000000E+00  0.45593999997E+02  0.45594000000E+02  0.51100000000E-03 0.  1.
         11   -1    0    0    0    0 -0.00000000000E+00 -0.00000000000E+00 -0.45593999997E+02  0.45594000000E+02  0.51100000000E-03 0. -1.
    9900012    2    1    2    0    0 -0.28194600939E+02  0.38503384377E+01  0.29041416188E+02  0.50528874549E+02  0.30000044680E+02 0.  0.
         12    1    1    2    0    0  0.28194600939E+02 -0.38503384377E+01 -0.29041416188E+02  0.40659125451E+02  0.00000000000E+00 0. -1.
         11    1    3    3    0    0 -0.86227454441E+01  0.10675322721E+02  0.22120227103E+01  0.13899902839E+02  0.51100000000E-03 0. -1.
        -11    1    3    3    0    0 -0.10648661809E+02 -0.37817255995E+01  0.24405214716E+02  0.26894422329E+02  0.51100000000E-03 0.  1.
        -12    1    3    3    0    0 -0.89231936867E+01 -0.30432586841E+01  0.24241787611E+01  0.97345493812E+01  0.00000000000E+00 0.  1.
</event>
<event>
 7    1  0.6073302E-013  0.5052884E+02  0.7816164E-02  0.1300439E+00
        -11   -1    0    0    0    0  0.00000000000E+00  0.00000000000E+00  0.45593999997E+02  0.45594000000E+02  0.51100000000E-03 0. -1.
         11   -1    0    0    0    0 -0.00000000000E+00 -0.00000000000E+00 -0.45593999997E+02  0.45594000000E+02  0.51100000000E-03 0.  1.
    9900012    2    1    2    0    0 -0.30310739111E+02 -0.25634055228E+02  0.87932513601E+01  0.50528844052E+02  0.29999951980E+02 0.  0.
         12    1    1    2    0    0  0.30310739111E+02  0.25634055228E+02 -0.87932513601E+01  0.40659155948E+02  0.00000000000E+00 0. -1.
         11    1    3    3    0    0 -0.10608039358E+02 -0.18010303517E+02  0.56179692965E+01  0.21644008665E+02  0.51100000000E-03 0. -1.
        -11    1    3    3    0    0 -0.17547069555E+02  0.21673801386E+01  0.56445983505E+01  0.18559597987E+02  0.51100000000E-03 0.  1.
        -12    1    3    3    0    0 -0.21556301982E+01 -0.97911318498E+01 -0.24693162869E+01  0.10325237400E+02  0.00000000000E+00 0.  1.
</event>
<event>
 7    1  0.6073302E-013  0.5052886E+02  0.7816164E-02  0.1300439E+00
        -11   -1    0    0    0    0  0.00000000000E+00  0.00000000000E+00  0.45593999997E+02  0.45594000000E+02  0.51100000000E-03 0.  1.
         11   -1    0    0    0    0 -0.00000000000E+00 -0.00000000000E+00 -0.45593999997E+02  0.45594000000E+02  0.51100000000E-03 0. -1.
    9900012    2    1    2    0    0  0.24296776800E+02  0.30718679571E+02  0.10917641065E+02  0.50528861742E+02  0.30000005751E+02 0.  0.
         12    1    1    2    0    0 -0.24296776800E+02 -0.30718679571E+02 -0.10917641065E+02  0.40659138258E+02  0.00000000000E+00 0. -1.
         11    1    3    3    0    0  0.15040325397E+02  0.30442697080E+02  0.78716859336E+00  0.33964523083E+02  0.51100000000E-03 0. -1.
        -11    1    3    3    0    0  0.93741492029E+01  0.31697966007E+01  0.92283630399E+01  0.13530889417E+02  0.51100000000E-03 0.  1.
         12    1    3    3    0    0 -0.11769779986E+00 -0.28938141100E+01  0.90210943195E+00  0.30334492418E+01  0.00000000000E+00 0. -1.
</event>
<event>
 7    1  0.6073302E-013  0.5052886E+02  0.7816164E-02  0.1300439E+00
        -11   -1    0    0    0    0  0.00000000000E+00  0.00000000000E+00  0.45593999997E+02  0.45594000000E+02  0.51100000000E-03 0.  1.
         11   -1    0    0    0    0 -0.00000000000E+00 -0.00000000000E+00 -0.45593999997E+02  0.45594000000E+02  0.51100000000E-03 0. -1.
    9900012    2    1    2    0    0 -0.47122446775E+01 -0.23013491898E+02  0.33186440714E+02  0.50528857037E+02  0.29999991450E+02 0.  0.
         12    1    1    2    0    0  0.47122446775E+01  0.23013491898E+02 -0.33186440714E+02  0.40659142963E+02  0.00000000000E+00 0. -1.
         11    1    3    3    0    0 -0.12851796703E+02 -0.18592179884E+02  0.22036263445E+02  0.31566354529E+02  0.51100000000E-03 0. -1.
        -11    1    3    3    0    0  0.71486869447E+01 -0.75491706545E+01  0.11682134869E+02  0.15638605372E+02  0.51100000000E-03 0.  1.
         12    1    3    3    0    0  0.99086508077E+00  0.31278586409E+01 -0.53195760112E+00  0.33238971366E+01  0.00000000000E+00 0. -1.
</event>
<event>
 7    1  0.6073302E-013  0.5052886E+02  0.7816164E-02  0.1300439E+00
        -11   -1    0    0    0    0  0.00000000000E+00  0.00000000000E+00  0.45593999997E+02  0.45594000000E+02  0.51100000000E-03 0. -1.
         11   -1    0    0    0    0 -0.00000000000E+00 -0.00000000000E+00 -0.45593999997E+02  0.45594000000E+02  0.51100000000E-03 0.  1.
    9900012    2    1    2    0    0 -0.16703634102E+02 -0.46314037114E+00 -0.37066694431E+02  0.50528859241E+02  0.29999998149E+02 0.  0.
         12    1    1    2    0    0  0.16703634102E+02  0.46314037114E+00  0.37066694431E+02  0.40659140759E+02  0.00000000000E+00 0. -1.
         11    1    3    3    0    0  0.94181014037E+00  0.46348269259E+00  0.26029040891E+01  0.28065873414E+01  0.51100000000E-03 0. -1.
        -11    1    3    3    0    0 -0.10642130631E+02  0.78703008404E+01 -0.30375826232E+02  0.33134383942E+02  0.51100000000E-03 0.  1.
        -12    1    3    3    0    0 -0.70033136119E+01 -0.87969239041E+01 -0.92937722883E+01  0.14587887958E+02  0.00000000000E+00 0.  1.
</event>
<event>
 7    1  0.6073302E-013  0.5052886E+02  0.7816164E-02  0.1300439E+00
        -11   -1    0    0    0    0  0.00000000000E+00  0.00000000000E+00  0.45593999997E+02  0.45594000000E+02  0.51100000000E-03 0. -1.
         11   -1    0    0    0    0 -0.00000000000E+00 -0.00000000000E+00 -0.45593999997E+02  0.45594000000E+02  0.51100000000E-03 0.  1.
    9900012    2    1    2    0    0 -0.32948294153E+02  0.20815110697E+02 -0.11589067352E+02  0.50528863228E+02  0.30000010269E+02 0.  0.
         12    1    1    2    0    0  0.32948294153E+02 -0.20815110697E+02  0.11589067352E+02  0.40659136772E+02  0.00000000000E+00 0. -1.
         11    1    3    3    0    0 -0.13424789683E+02  0.17315538132E+02  0.72200814172E+00  0.21922001160E+02  0.51100000000E-03 0. -1.
        -11    1    3    3    0    0 -0.28581323208E+01 -0.50336743180E+01  0.66537974419E+00  0.58266223465E+01  0.51100000000E-03 0.  1.
        -12    1    3    3    0    0 -0.16665372149E+02  0.85332468834E+01 -0.12976455238E+02  0.22780239722E+02  0.00000000000E+00 0.  1.
</event>
<event>
 7    1  0.6073302E-013  0.5052889E+02  0.7816164E-02  0.1300439E+00
        -11   -1    0    0    0    0  0.00000000000E+00  0.00000000000E+00  0.45593999997E+02  0.45594000000E+02  0.51100000000E-03 0.  1.
         11   -1    0    0    0    0 -0.00000000000E+00 -0.00000000000E+00 -0.45593999997E+02  0.45594000000E+02  0.51100000000E-03 0. -1.
    9900012    2    1    2    0    0  0.28532728965E+02  0.11375093199E+02  0.26639332829E+02  0.50528887601E+02  0.30000084353E+02 0.  0.
         12    1    1    2    0    0 -0.28532728965E+02 -0.11375093199E+02 -0.26639332829E+02  0.40659112399E+02  0.00000000000E+00 0. -1.
         11    1    3    3    0    0  0.13259884219E+02  0.13529148407E+02 -0.63450109223E+00  0.18954286534E+02  0.51100000000E-03 0. -1.
        -11    1    3    3    0    0  0.78611861357E+01 -0.29915741185E+01  0.13349709296E+02  0.15778545614E+02  0.51100000000E-03 0.  1.
         12    1    3    3    0    0  0.74116586102E+01  0.83751891037E+00  0.13924124626E+02  0.15796055453E+02  0.00000000000E+00 0. -1.
</event>
<event>
 7    1  0.6073302E-013  0.5052888E+02  0.7816164E-02  0.1300439E+00
        -11   -1    0    0    0    0  0.00000000000E+00  0.00000000000E+00  0.45593999997E+02  0.45594000000E+02  0.51100000000E-03 0. -1.
         11   -1    0    0    0    0 -0.00000000000E+00 -0.00000000000E+00 -0.45593999997E+02  0.45594000000E+02  0.51100000000E-03 0.  1.
    9900012    2    1    2    0    0 -0.18997688183E+01  0.17430440616E+02 -0.36684254009E+02  0.50528882033E+02  0.30000067427E+02 0.  0.
         12    1    1    2    0    0  0.18997688183E+01 -0.17430440616E+02  0.36684254009E+02  0.40659117967E+02  0.00000000000E+00 0. -1.
         11    1    3    3    0    0  0.11572330214E+02  0.68057512145E+01 -0.13259663230E+02  0.18869439457E+02  0.51100000000E-03 0. -1.
        -11    1    3    3    0    0 -0.11966588054E+02  0.30901716005E+01 -0.89079902186E+01  0.15234850841E+02  0.51100000000E-03 0.  1.
        -12    1    3    3    0    0 -0.15055109790E+01  0.75345178013E+01 -0.14516600561E+02  0.16424591734E+02  0.00000000000E+00 0.  1.
</event>
<event>
 7    1  0.6073302E-013  0.5052885E+02  0.7816164E-02  0.1300439E+00
        -11   -1    0    0    0    0  0.00000000000E+00  0.00000000000E+00  0.45593999997E+02  0.45594000000E+02  0.51100000000E-03 0.  1.
         11   -1    0    0    0    0 -0.00000000000E+00 -0.00000000000E+00 -0.45593999997E+02  0.45594000000E+02  0.51100000000E-03 0. -1.
    9900012    2    1    2    0    0 -0.14320875782E+02  0.37441418058E+02 -0.67984581204E+01  0.50528852171E+02  0.29999976660E+02 0.  0.
         12    1    1    2    0    0  0.14320875782E+02 -0.37441418058E+02  0.67984581204E+01  0.40659147829E+02  0.00000000000E+00 0. -1.
         11    1    3    3    0    0 -0.39204890462E+01  0.12548576889E+01 -0.50769106161E+01  0.65360480297E+01  0.51100000000E-03 0. -1.
        -11    1    3    3    0    0 -0.12612001318E+02  0.38624056440E+02 -0.20660960310E+01  0.40683523277E+02  0.51100000000E-03 0.  1.
        -12    1    3    3    0    0  0.22116145820E+01 -0.24374960713E+01  0.34454852671E+00  0.33092808651E+01  0.00000000000E+00 0.  1.
</event>
<event>
 7    1  0.6073302E-013  0.5052886E+02  0.7816164E-02  0.1300439E+00
        -11   -1    0    0    0    0  0.00000000000E+00  0.00000000000E+00  0.45593999997E+02  0.45594000000E+02  0.51100000000E-03 0. -1.
         11   -1    0    0    0    0 -0.00000000000E+00 -0.00000000000E+00 -0.45593999997E+02  0.45594000000E+02  0.51100000000E-03 0.  1.
    9900012    2    1    2    0    0 -0.66574569242E+01  0.38288777178E+02  0.11950443930E+02  0.50528864488E+02  0.30000014098E+02 0.  0.
         12    1    1    2    0    0  0.66574569242E+01 -0.38288777178E+02 -0.11950443930E+02  0.40659135512E+02  0.00000000000E+00 0. -1.
         11    1    3    3    0    0 -0.44011294917E+01  0.15381388802E+02  0.17679066986E+02  0.23843373755E+02  0.51100000000E-03 0. -1.
        -11    1    3    3    0    0 -0.50613997704E+00  0.23963213938E+02 -0.57192975665E+01  0.24641472457E+02  0.51100000000E-03 0.  1.
         12    1    3    3    0    0 -0.17501874554E+01 -0.10558255627E+01 -0.93254894198E-02  0.20440182760E+01  0.00000000000E+00 0. -1.
</event>
<event>
 7    1  0.6073302E-013  0.5052886E+02  0.7816164E-02  0.1300439E+00
        -11   -1    0    0    0    0  0.00000000000E+00  0.00000000000E+00  0.45593999997E+02  0.45594000000E+02  0.51100000000E-03 0. -1.
         11   -1    0    0    0    0 -0.00000000000E+00 -0.00000000000E+00 -0.45593999997E+02  0.45594000000E+02  0.51100000000E-03 0.  1.
    9900012    2    1    2    0    0  0.82840712346E+01 -0.35458576938E+02 -0.18089467009E+02  0.50528864109E+02  0.30000012947E+02 0.  0.
         12    1    1    2    0    0 -0.82840712346E+01  0.35458576938E+02  0.18089467009E+02  0.40659135891E+02  0.00000000000E+00 0. -1.
         11    1    3    3    0    0 -0.11553598455E+01 -0.17545967182E+02 -0.72334618340E+01  0.19013647496E+02  0.51100000000E-03 0. -1.
        -11    1    3    3    0    0  0.15896301530E+02 -0.88910341558E+01 -0.88153659350E+01  0.20234959044E+02  0.51100000000E-03 0.  1.
         12    1    3    3    0    0 -0.64568704500E+01 -0.90215755997E+01 -0.20406392405E+01  0.11280257569E+02  0.00000000000E+00 0. -1.
</event>
<event>
 7    1  0.6073302E-013  0.5052884E+02  0.7816164E-02  0.1300439E+00
        -11   -1    0    0    0    0  0.00000000000E+00  0.00000000000E+00  0.45593999997E+02  0.45594000000E+02  0.51100000000E-03 0.  1.
         11   -1    0    0    0    0 -0.00000000000E+00 -0.00000000000E+00 -0.45593999997E+02  0.45594000000E+02  0.51100000000E-03 0. -1.
    9900012    2    1    2    0    0 -0.22840221606E+02  0.16029332513E+02  0.29572826869E+02  0.50528839743E+02  0.29999938882E+02 0.  0.
         12    1    1    2    0    0  0.22840221606E+02 -0.16029332513E+02 -0.29572826869E+02  0.40659160257E+02  0.00000000000E+00 0. -1.
         11    1    3    3    0    0 -0.46458111702E+01 -0.36284338761E+01  0.15322203469E+02  0.16417034240E+02  0.51100000000E-03 0. -1.
        -11    1    3    3    0    0 -0.42736636562E+01  0.16045384055E+02  0.73039891966E+01  0.18140198702E+02  0.51100000000E-03 0.  1.
        -12    1    3    3    0    0 -0.13920746780E+02  0.36123823335E+01  0.69466342025E+01  0.15971606800E+02  0.00000000000E+00 0.  1.
</event>
<event>
 7    1  0.6073302E-013  0.5052882E+02  0.7816164E-02  0.1300439E+00
        -11   -1    0    0    0    0  0.00000000000E+00  0.00000000000E+00  0.45593999997E+02  0.45594000000E+02  0.51100000000E-03 0.  1.
         11   -1    0    0    0    0 -0.00000000000E+00 -0.00000000000E+00 -0.45593999997E+02  0.45594000000E+02  0.51100000000E-03 0. -1.
    9900012    2    1    2    0    0  0.10510518041E+02  0.38508838139E+02  0.77309209609E+01  0.50528822152E+02  0.29999885414E+02 0.  0.
         12    1    1    2    0    0 -0.10510518041E+02 -0.38508838139E+02 -0.77309209609E+01  0.40659177848E+02  0.00000000000E+00 0. -1.
         11    1    3    3    0    0 -0.12231829466E+01 -0.23452055437E+01 -0.18232392498E+01  0.32125328304E+01  0.51100000000E-03 0. -1.
        -11    1    3    3    0    0  0.16706482137E+02  0.30979879303E+02  0.60130868753E+01  0.35707375724E+02  0.51100000000E-03 0.  1.
        -12    1    3    3    0    0 -0.49727811496E+01  0.98741643801E+01  0.35410733355E+01  0.11608913598E+02  0.00000000000E+00 0.  1.
</event>
<event>
 7    1  0.6073302E-013  0.5052886E+02  0.7816164E-02  0.1300439E+00
        -11   -1    0    0    0    0  0.00000000000E+00  0.00000000000E+00  0.45593999997E+02  0.45594000000E+02  0.51100000000E-03 0.  1.
         11   -1    0    0    0    0 -0.00000000000E+00 -0.00000000000E+00 -0.45593999997E+02  0.45594000000E+02  0.51100000000E-03 0. -1.
    9900012    2    1    2    0    0  0.34934953851E+02  0.47155959039E+01  0.20260243119E+02  0.50528864537E+02  0.30000014247E+02 0.  0.
         12    1    1    2    0    0 -0.34934953851E+02 -0.47155959039E+01 -0.20260243119E+02  0.40659135463E+02  0.00000000000E+00 0. -1.
         11    1    3    3    0    0  0.28476021026E+02 -0.61146360018E+01  0.17842902313E+02  0.34156137225E+02  0.51100000000E-03 0. -1.
        -11    1    3    3    0    0  0.78050663546E+01  0.11995417619E+02  0.15576923083E+01  0.14395676790E+02  0.51100000000E-03 0.  1.
         12    1    3    3    0    0 -0.13461335296E+01 -0.11651857135E+01  0.85964849820E+00  0.19770505221E+01  0.00000000000E+00 0. -1.
</event>
<event>
 7    1  0.6073302E-013  0.5052886E+02  0.7816164E-02  0.1300439E+00
        -11   -1    0    0    0    0  0.00000000000E+00  0.00000000000E+00  0.45593999997E+02  0.45594000000E+02  0.51100000000E-03 0. -1.
         11   -1    0    0    0    0 -0.00000000000E+00 -0.00000000000E+00 -0.45593999997E+02  0.45594000000E+02  0.51100000000E-03 0.  1.
    9900012    2    1    2    0    0 -0.24871287051E+02 -0.25388750184E+02 -0.19748322490E+02  0.50528858387E+02  0.29999995554E+02 0.  0.
         12    1    1    2    0    0  0.24871287051E+02  0.25388750184E+02  0.19748322490E+02  0.40659141613E+02  0.00000000000E+00 0. -1.
         11    1    3    3    0    0 -0.17633501966E+02 -0.25265831797E+01 -0.19050186792E+02  0.26081288910E+02  0.51100000000E-03 0. -1.
        -11    1    3    3    0    0 -0.52909373531E+01 -0.92651272103E+01  0.31958484913E+00  0.10674208872E+02  0.51100000000E-03 0.  1.
         12    1    3    3    0    0 -0.19468477325E+01 -0.13597039794E+02 -0.10177205476E+01  0.13773360605E+02  0.00000000000E+00 0. -1.
</event>
<event>
 7    1  0.6073302E-013  0.5052887E+02  0.7816164E-02  0.1300439E+00
        -11   -1    0    0    0    0  0.00000000000E+00  0.00000000000E+00  0.45593999997E+02  0.45594000000E+02  0.51100000000E-03 0.  1.
         11   -1    0    0    0    0 -0.00000000000E+00 -0.00000000000E+00 -0.45593999997E+02  0.45594000000E+02  0.51100000000E-03 0. -1.
    9900012    2    1    2    0    0 -0.42783119113E+01 -0.40042731093E+02 -0.56071805189E+01  0.50528871387E+02  0.30000035069E+02 0.  0.
         12    1    1    2    0    0  0.42783119113E+01  0.40042731093E+02  0.56071805189E+01  0.40659128613E+02  0.00000000000E+00 0. -1.
         11    1    3    3    0    0  0.30224611001E+01  0.10742201344E+01  0.21236686370E+01  0.38469713723E+01  0.51100000000E-03 0. -1.
        -11    1    3    3    0    0  0.20102147877E+01 -0.29909096553E+02  0.43326756464E+00  0.29979705488E+02  0.51100000000E-03 0.  1.
        -12    1    3    3    0    0 -0.93109877990E+01 -0.11207854674E+02 -0.81641167206E+01  0.16702194527E+02  0.00000000000E+00 0.  1.
</event>
<event>
 7    1  0.6073302E-013  0.5052886E+02  0.7816164E-02  0.1300439E+00
        -11   -1    0    0    0    0  0.00000000000E+00  0.00000000000E+00  0.45593999997E+02  0.45594000000E+02  0.51100000000E-03 0.  1.
         11   -1    0    0    0    0 -0.00000000000E+00 -0.00000000000E+00 -0.45593999997E+02  0.45594000000E+02  0.51100000000E-03 0. -1.
    9900012    2    1    2    0    0  0.25427146262E+02  0.27294688828E+01  0.31609741402E+02  0.50528861803E+02  0.30000005936E+02 0.  0.
         12    1    1    2    0    0 -0.25427146262E+02 -0.27294688828E+01 -0.31609741402E+02  0.40659138197E+02  0.00000000000E+00 0. -1.
         11    1    3    3    0    0 -0.29589174700E+01 -0.25888242176E+01 -0.33424575837E+00  0.39457475733E+01  0.51100000000E-03 0. -1.
        -11    1    3    3    0    0  0.18134111355E+02  0.35974335485E+01  0.31065840018E+02  0.36150711460E+02  0.51100000000E-03 0.  1.
        -12    1    3    3    0    0  0.10251952377E+02  0.17208595519E+01  0.87814714234E+00  0.10432402769E+02  0.00000000000E+00 0.  1.
</event>
<event>
 7    1  0.6073302E-013  0.5052886E+02  0.7816164E-02  0.1300439E+00
        -11   -1    0    0    0    0  0.00000000000E+00  0.00000000000E+00  0.45593999997E+02  0.45594000000E+02  0.51100000000E-03 0.  1.
         11   -1    0    0    0    0 -0.00000000000E+00 -0.00000000000E+00 -0.45593999997E+02  0.45594000000E+02  0.51100000000E-03 0. -1.
    9900012    2    1    2    0    0  0.97927585937E+01  0.31699868523E+02  0.23502894292E+02  0.50528858034E+02  0.29999994481E+02 0.  0.
         12    1    1    2    0    0 -0.97927585937E+01 -0.31699868523E+02 -0.23502894292E+02  0.40659141966E+02  0.00000000000E+00 0. -1.
         11    1    3    3    0    0  0.85225473346E+01  0.14133928372E+02 -0.15103232936E+01  0.16573557886E+02  0.51100000000E-03 0. -1.
        -11    1    3    3    0    0 -0.13721662080E+01  0.14629274293E+02  0.26016850409E+02  0.29879340888E+02  0.51100000000E-03 0.  1.
        -12    1    3    3    0    0  0.26423774672E+01  0.29366658583E+01 -0.10036328236E+01  0.40759592598E+01  0.00000000000E+00 0.  1.
</event>
<event>
 7    1  0.6073302E-013  0.5052887E+02  0.7816164E-02  0.1300439E+00
        -11   -1    0    0    0    0  0.00000000000E+00  0.00000000000E+00  0.45593999997E+02  0.45594000000E+02  0.51100000000E-03 0.  1.
         11   -1    0    0    0    0 -0.00000000000E+00 -0.00000000000E+00 -0.45593999997E+02  0.45594000000E+02  0.51100000000E-03 0. -1.
    9900012    2    1    2    0    0  0.21731471778E+02 -0.22153053389E+01  0.34292867142E+02  0.50528865968E+02  0.30000018597E+02 0.  0.
         12    1    1    2    0    0 -0.21731471778E+02  0.22153053389E+01 -0.34292867142E+02  0.40659134032E+02  0.00000000000E+00 0. -1.
         11    1    3    3    0    0  0.38266486266E+01  0.10509908877E+02  0.14116161342E+02  0.18010203653E+02  0.51100000000E-03 0. -1.
        -11    1    3    3    0    0  0.75686854081E+01 -0.13118780084E+02  0.12498051972E+02  0.19636412429E+02  0.51100000000E-03 0.  1.
        -12    1    3    3    0    0  0.10336137744E+02  0.39356586852E+00  0.76786538274E+01  0.12882249887E+02  0.00000000000E+00 0.  1.
</event>
<event>
 7    1  0.6073302E-013  0.5052887E+02  0.7816164E-02  0.1300439E+00
        -11   -1    0    0    0    0  0.00000000000E+00  0.00000000000E+00  0.45593999997E+02  0.45594000000E+02  0.51100000000E-03 0.  1.
         11   -1    0    0    0    0 -0.00000000000E+00 -0.00000000000E+00 -0.45593999997E+02  0.45594000000E+02  0.51100000000E-03 0. -1.
    9900012    2    1    2    0    0 -0.76037684877E+01  0.37435164035E+02 -0.13926824441E+02  0.50528865226E+02  0.30000016340E+02 0.  0.
         12    1    1    2    0    0  0.76037684877E+01 -0.37435164035E+02  0.13926824441E+02  0.40659134774E+02  0.00000000000E+00 0. -1.
         11    1    3    3    0    0 -0.12182929702E+01  0.23388920262E+02 -0.17342073326E+02  0.29142294629E+02  0.51100000000E-03 0. -1.
        -11    1    3    3    0    0 -0.66298075812E+00  0.15249963717E+02  0.24549707695E+01  0.15460524525E+02  0.51100000000E-03 0.  1.
         12    1    3    3    0    0 -0.57224947594E+01 -0.12037199434E+01  0.96027811507E+00  0.59260460707E+01  0.00000000000E+00 0. -1.
</event>
<event>
 7    1  0.6073302E-013  0.5052886E+02  0.7816164E-02  0.1300439E+00
        -11   -1    0    0    0    0  0.00000000000E+00  0.00000000000E+00  0.45593999997E+02  0.45594000000E+02  0.51100000000E-03 0.  1.
         11   -1    0    0    0    0 -0.00000000000E+00 -0.00000000000E+00 -0.45593999997E+02  0.45594000000E+02  0.51100000000E-03 0. -1.
    9900012    2    1    2    0    0  0.28312673269E+02 -0.22838789064E+02  0.18164466866E+02  0.50528860682E+02  0.30000002528E+02 0.  0.
         12    1    1    2    0    0 -0.28312673269E+02  0.22838789064E+02 -0.18164466866E+02  0.40659139318E+02  0.00000000000E+00 0. -1.
         11    1    3    3    0    0  0.22903053710E+01  0.43354168579E+01 -0.96235276829E-01  0.49041410577E+01  0.51100000000E-03 0. -1.
        -11    1    3    3    0    0  0.25382818938E+02 -0.29728721961E+02  0.17794950114E+02  0.42950490760E+02  0.51100000000E-03 0.  1.
        -12    1    3    3    0    0  0.63954896041E+00  0.25545160390E+01  0.46575202897E+00  0.26742288643E+01  0.00000000000E+00 0.  1.
</event>
<event>
 7    1  0.6073302E-013  0.5052874E+02  0.7816164E-02  0.1300439E+00
        -11   -1    0    0    0    0  0.00000000000E+00  0.00000000000E+00  0.45593999997E+02  0.45594000000E+02  0.51100000000E-03 0. -1.
         11   -1    0    0    0    0 -0.00000000000E+00 -0.00000000000E+00 -0.45593999997E+02  0.45594000000E+02  0.51100000000E-03 0.  1.
    9900012    2    1    2    0    0 -0.25297175645E+02 -0.30606982392E+02 -0.87430430097E+01  0.50528741918E+02  0.29999641532E+02 0.  0.
         12    1    1    2    0    0  0.25297175645E+02  0.30606982392E+02  0.87430430097E+01  0.40659258082E+02  0.00000000000E+00 0. -1.
         11    1    3    3    0    0 -0.14176072324E+02 -0.81466424480E+00 -0.26664657812E+01  0.14447655325E+02  0.51100000000E-03 0. -1.
        -11    1    3    3    0    0 -0.83712289948E+01 -0.30660524895E+02 -0.77943305740E+01  0.32724560365E+02  0.51100000000E-03 0.  1.
        -12    1    3    3    0    0 -0.27498743260E+01  0.86820674794E+00  0.17177533455E+01  0.33565262284E+01  0.00000000000E+00 0.  1.
</event>
<event>
 7    1  0.6073302E-013  0.5052886E+02  0.7816164E-02  0.1300439E+00
        -11   -1    0    0    0    0  0.00000000000E+00  0.00000000000E+00  0.45593999997E+02  0.45594000000E+02  0.51100000000E-03 0. -1.
         11   -1    0    0    0    0 -0.00000000000E+00 -0.00000000000E+00 -0.45593999997E+02  0.45594000000E+02  0.51100000000E-03 0.  1.
    9900012    2    1    2    0    0  0.22067300974E+01 -0.19074535220E+02 -0.35839332065E+02  0.50528864810E+02  0.30000015076E+02 0.  0.
         12    1    1    2    0    0 -0.22067300974E+01  0.19074535220E+02  0.35839332065E+02  0.40659135190E+02  0.00000000000E+00 0. -1.
         11    1    3    3    0    0  0.14129049143E+02 -0.17287380290E+01 -0.13431165792E+02  0.19570763389E+02  0.51100000000E-03 0. -1.
        -11    1    3    3    0    0 -0.75426653676E+01 -0.12611740041E+02 -0.17512214658E+02  0.22861002826E+02  0.51100000000E-03 0.  1.
         12    1    3    3    0    0 -0.43796536778E+01 -0.47340571504E+01 -0.48959516150E+01  0.80970985950E+01  0.00000000000E+00 0. -1.
</event>
<event>
 7    1  0.6073302E-013  0.5052887E+02  0.7816164E-02  0.1300439E+00
        -11   -1    0    0    0    0  0.00000000000E+00  0.00000000000E+00  0.45593999997E+02  0.45594000000E+02  0.51100000000E-03 0.  1.
         11   -1    0    0    0    0 -0.00000000000E+00 -0.00000000000E+00 -0.45593999997E+02  0.45594000000E+02  0.51100000000E-03 0. -1.
    9900012    2    1    2    0    0 -0.12514569921E+02 -0.23834691057E+02  0.30470610281E+02  0.50528867582E+02  0.30000023503E+02 0.  0.
         12    1    1    2    0    0  0.12514569921E+02  0.23834691057E+02 -0.30470610281E+02  0.40659132418E+02  0.00000000000E+00 0. -1.
         11    1    3    3    0    0  0.38665547686E+01 -0.13606710377E+02  0.19287960519E+02  0.23918993171E+02  0.51100000000E-03 0. -1.
        -11    1    3    3    0    0 -0.13453796466E+02  0.41589179626E-01  0.57901821898E+01  0.14646930704E+02  0.51100000000E-03 0.  1.
        -12    1    3    3    0    0 -0.29273282240E+01 -0.10269569859E+02  0.53924675717E+01  0.11962943707E+02  0.00000000000E+00 0.  1.
</event>
<event>
 7    1  0.6073302E-013  0.5052889E+02  0.7816164E-02  0.1300439E+00
        -11   -1    0    0    0    0  0.00000000000E+00  0.00000000000E+00  0.45593999997E+02  0.45594000000E+02  0.51100000000E-03 0.  1.
         11   -1    0    0    0    0 -0.00000000000E+00 -0.00000000000E+00 -0.45593999997E+02  0.45594000000E+02  0.51100000000E-03 0. -1.
    9900012    2    1    2    0    0  0.38213773436E+02  0.13685253856E+02 -0.23632386575E+01  0.50528886013E+02  0.30000079524E+02 0.  0.
         12    1    1    2    0    0 -0.38213773436E+02 -0.13685253856E+02  0.23632386575E+01  0.40659113987E+02  0.00000000000E+00 0. -1.
         11    1    3    3    0    0  0.76840685078E+01 -0.35690256666E+01 -0.18057873148E+01  0.86627779106E+01  0.51100000000E-03 0. -1.
        -11    1    3    3    0    0  0.29414168756E+02  0.20265103405E+02  0.43691948370E+01  0.35985519357E+02  0.51100000000E-03 0.  1.
        -12    1    3    3    0    0  0.11155361720E+01 -0.30108238830E+01 -0.49266461797E+01  0.58805887448E+01  0.00000000000E+00 0.  1.
</event>
<event>
 7    1  0.6073302E-013  0.5052884E+02  0.7816164E-02  0.1300439E+00
        -11   -1    0    0    0    0  0.00000000000E+00  0.00000000000E+00  0.45593999997E+02  0.45594000000E+02  0.51100000000E-03 0.  1.
         11   -1    0    0    0    0 -0.00000000000E+00 -0.00000000000E+00 -0.45593999997E+02  0.45594000000E+02  0.51100000000E-03 0. -1.
    9900012    2    1    2    0    0  0.52859764199E+01  0.12515659182E+02  0.38322109219E+02  0.50528839575E+02  0.29999938373E+02 0.  0.
         12    1    1    2    0    0 -0.52859764199E+01 -0.12515659182E+02 -0.38322109219E+02  0.40659160425E+02  0.00000000000E+00 0. -1.
         11    1    3    3    0    0  0.39801231851E+00 -0.82529678737E+01  0.54000577977E+01  0.98706897940E+01  0.51100000000E-03 0. -1.
        -11    1    3    3    0    0 -0.73261925981E+00  0.13653638343E+02  0.13455809508E+02  0.19183779105E+02  0.51100000000E-03 0.  1.
         12    1    3    3    0    0  0.56205833612E+01  0.71149887124E+01  0.19466241914E+02  0.21474370676E+02  0.00000000000E+00 0. -1.
</event>
<event>
 7    1  0.6073302E-013  0.5052886E+02  0.7816164E-02  0.1300439E+00
        -11   -1    0    0    0    0  0.00000000000E+00  0.00000000000E+00  0.45593999997E+02  0.45594000000E+02  0.51100000000E-03 0.  1.
         11   -1    0    0    0    0 -0.00000000000E+00 -0.00000000000E+00 -0.45593999997E+02  0.45594000000E+02  0.51100000000E-03 0. -1.
    9900012    2    1    2    0    0 -0.81648818603E+01 -0.10751892611E+02  0.38352276446E+02  0.50528860817E+02  0.30000002939E+02 0.  0.
         12    1    1    2    0    0  0.81648818603E+01  0.10751892611E+02 -0.38352276446E+02  0.40659139183E+02  0.00000000000E+00 0. -1.
         11    1    3    3    0    0 -0.15286067187E+02  0.21537946438E+01  0.11758136862E+02  0.19405062848E+02  0.51100000000E-03 0. -1.
        -11    1    3    3    0    0  0.70134106462E+01 -0.81235040100E+01  0.13918689572E+02  0.17575811957E+02  0.51100000000E-03 0.  1.
         12    1    3    3    0    0  0.10777468007E+00 -0.47821832451E+01  0.12675450012E+02  0.13547986011E+02  0.00000000000E+00 0. -1.
</event>
<event>
 7    1  0.6073302E-013  0.5052886E+02  0.7816164E-02  0.1300439E+00
        -11   -1    0    0    0    0  0.00000000000E+00  0.00000000000E+00  0.45593999997E+02  0.45594000000E+02  0.51100000000E-03 0. -1.
         11   -1    0    0    0    0 -0.00000000000E+00 -0.00000000000E+00 -0.45593999997E+02  0.45594000000E+02  0.51100000000E-03 0.  1.
    9900012    2    1    2    0    0 -0.18744009542E+02  0.72122666402E+01 -0.35352664480E+02  0.50528861179E+02  0.30000004040E+02 0.  0.
         12    1    1    2    0    0  0.18744009542E+02 -0.72122666402E+01  0.35352664480E+02  0.40659138821E+02  0.00000000000E+00 0. -1.
         11    1    3    3    0    0 -0.30619021948E+01  0.21942356330E+01 -0.20918173731E+02  0.21254644377E+02  0.51100000000E-03 0. -1.
        -11    1    3    3    0    0 -0.74172011386E+01 -0.64402748177E+01 -0.11652616661E+01  0.98919081814E+01  0.51100000000E-03 0.  1.
        -12    1    3    3    0    0 -0.82649062091E+01  0.11458305825E+02 -0.13269229083E+02  0.19382308621E+02  0.00000000000E+00 0.  1.
</event>
<event>
 7    1  0.6073302E-013  0.5052887E+02  0.7816164E-02  0.1300439E+00
        -11   -1    0    0    0    0  0.00000000000E+00  0.00000000000E+00  0.45593999997E+02  0.45594000000E+02  0.51100000000E-03 0. -1.
         11   -1    0    0    0    0 -0.00000000000E+00 -0.00000000000E+00 -0.45593999997E+02  0.45594000000E+02  0.51100000000E-03 0.  1.
    9900012    2    1    2    0    0  0.39840549060E+02  0.80070350373E+01 -0.13353692941E+01  0.50528866086E+02  0.30000018955E+02 0.  0.
         12    1    1    2    0    0 -0.39840549060E+02 -0.80070350373E+01  0.13353692941E+01  0.40659133914E+02  0.00000000000E+00 0. -1.
         11    1    3    3    0    0  0.26553775745E+01  0.54324159121E+01 -0.10564383557E+01  0.61382599298E+01  0.51100000000E-03 0. -1.
        -11    1    3    3    0    0  0.10679312530E+02 -0.10238048833E+02  0.16582672519E+01  0.14886746137E+02  0.51100000000E-03 0.  1.
        -12    1    3    3    0    0  0.26505858956E+02  0.12812667958E+02 -0.19371981903E+01  0.29503860019E+02  0.00000000000E+00 0.  1.
</event>
<event>
 7    1  0.6073302E-013  0.5052885E+02  0.7816164E-02  0.1300439E+00
        -11   -1    0    0    0    0  0.00000000000E+00  0.00000000000E+00  0.45593999997E+02  0.45594000000E+02  0.51100000000E-03 0. -1.
         11   -1    0    0    0    0 -0.00000000000E+00 -0.00000000000E+00 -0.45593999997E+02  0.45594000000E+02  0.51100000000E-03 0.  1.
    9900012    2    1    2    0    0  0.17085984219E+01 -0.27766492467E+02 -0.29652468230E+02  0.50528852387E+02  0.29999977316E+02 0.  0.
         12    1    1    2    0    0 -0.17085984219E+01  0.27766492467E+02  0.29652468230E+02  0.40659147613E+02  0.00000000000E+00 0. -1.
         11    1    3    3    0    0  0.59496386743E+01 -0.40394423278E+01 -0.56690380408E+01  0.91571440550E+01  0.51100000000E-03 0. -1.
        -11    1    3    3    0    0 -0.70400590553E+01 -0.14806862596E+02 -0.84629030179E+00  0.16417119692E+02  0.51100000000E-03 0.  1.
        -12    1    3    3    0    0  0.27990188029E+01 -0.89201875432E+01 -0.23137139887E+02  0.24954588641E+02  0.00000000000E+00 0.  1.
</event>
<event>
 7    1  0.6073302E-013  0.5052886E+02  0.7816164E-02  0.1300439E+00
        -11   -1    0    0    0    0  0.00000000000E+00  0.00000000000E+00  0.45593999997E+02  0.45594000000E+02  0.51100000000E-03 0.  1.
         11   -1    0    0    0    0 -0.00000000000E+00 -0.00000000000E+00 -0.45593999997E+02  0.45594000000E+02  0.51100000000E-03 0. -1.
    9900012    2    1    2    0    0 -0.26034007799E+02 -0.14996488522E+02  0.27395278794E+02  0.50528861663E+02  0.30000005511E+02 0.  0.
         12    1    1    2    0    0  0.26034007799E+02  0.14996488522E+02 -0.27395278794E+02  0.40659138337E+02  0.00000000000E+00 0. -1.
         11    1    3    3    0    0 -0.23306237865E+02 -0.16030912368E+01  0.94428325906E+01  0.25197573545E+02  0.51100000000E-03 0. -1.
        -11    1    3    3    0    0  0.30116085072E+01 -0.10005025464E+02  0.72293303813E+01  0.12705649860E+02  0.51100000000E-03 0.  1.
         12    1    3    3    0    0 -0.57393784412E+01 -0.33883718214E+01  0.10723115823E+02  0.12625638259E+02  0.00000000000E+00 0. -1.
</event>
<event>
 7    1  0.6073302E-013  0.5052888E+02  0.7816164E-02  0.1300439E+00
        -11   -1    0    0    0    0  0.00000000000E+00  0.00000000000E+00  0.45593999997E+02  0.45594000000E+02  0.51100000000E-03 0.  1.
         11   -1    0    0    0    0 -0.00000000000E+00 -0.00000000000E+00 -0.45593999997E+02  0.45594000000E+02  0.51100000000E-03 0. -1.
    9900012    2    1    2    0    0  0.29894804486E+02 -0.21744014163E+02  0.16931120627E+02  0.50528876388E+02  0.30000050270E+02 0.  0.
         12    1    1    2    0    0 -0.29894804486E+02  0.21744014163E+02 -0.16931120627E+02  0.40659123612E+02  0.00000000000E+00 0. -1.
         11    1    3    3    0    0  0.16844805671E+02 -0.55096626968E+01 -0.55443592648E+01  0.18569969872E+02  0.51100000000E-03 0. -1.
        -11    1    3    3    0    0  0.43310328736E+01 -0.75501122824E+01  0.15596147795E+02  0.17860623380E+02  0.51100000000E-03 0.  1.
         12    1    3    3    0    0  0.87189659423E+01 -0.86842391837E+01  0.68793320970E+01  0.14098283137E+02  0.00000000000E+00 0. -1.
</event>
<event>
 7    1  0.6073302E-013  0.5052886E+02  0.7816164E-02  0.1300439E+00
        -11   -1    0    0    0    0  0.00000000000E+00  0.00000000000E+00  0.45593999997E+02  0.45594000000E+02  0.51100000000E-03 0.  1.
         11   -1    0    0    0    0 -0.00000000000E+00 -0.00000000000E+00 -0.45593999997E+02  0.45594000000E+02  0.51100000000E-03 0. -1.
    9900012    2    1    2    0    0 -0.14504580994E+02  0.14037982920E+02  0.35294731495E+02  0.50528857048E+02  0.29999991483E+02 0.  0.
         12    1    1    2    0    0  0.14504580994E+02 -0.14037982920E+02 -0.35294731495E+02  0.40659142952E+02  0.00000000000E+00 0. -1.
         11    1    3    3    0    0 -0.27669797537E+01 -0.44332843087E+01 -0.23358795673E+01  0.57242047773E+01  0.51100000000E-03 0. -1.
        -11    1    3    3    0    0 -0.73918581275E+01  0.70704273099E+01  0.26035485028E+02  0.27972790169E+02  0.51100000000E-03 0.  1.
         12    1    3    3    0    0 -0.43457431127E+01  0.11400839919E+02  0.11595126034E+02  0.16831862102E+02  0.00000000000E+00 0. -1.
</event>
<event>
 7    1  0.6073302E-013  0.5052886E+02  0.7816164E-02  0.1300439E+00
        -11   -1    0    0    0    0  0.00000000000E+00  0.00000000000E+00  0.45593999997E+02  0.45594000000E+02  0.51100000000E-03 0. -1.
         11   -1    0    0    0    0 -0.00000000000E+00 -0.00000000000E+00 -0.45593999997E+02  0.45594000000E+02  0.51100000000E-03 0.  1.
    9900012    2    1    2    0    0  0.38740574643E+02 -0.11284205368E+02  0.50000158147E+01  0.50528861143E+02  0.30000003930E+02 0.  0.
         12    1    1    2    0    0 -0.38740574643E+02  0.11284205368E+02 -0.50000158147E+01  0.40659138857E+02  0.00000000000E+00 0. -1.
         11    1    3    3    0    0  0.16130862317E+02 -0.65666670353E+01  0.73766602185E+01  0.18914041115E+02  0.51100000000E-03 0. -1.
        -11    1    3    3    0    0  0.11927535819E+02  0.84066739788E+01 -0.15162558537E+01  0.14670968277E+02  0.51100000000E-03 0.  1.
        -12    1    3    3    0    0  0.10682176506E+02 -0.13124212312E+02 -0.86038855004E+00  0.16943851751E+02  0.00000000000E+00 0.  1.
</event>
<event>
 7    1  0.6073302E-013  0.5052885E+02  0.7816164E-02  0.1300439E+00
        -11   -1    0    0    0    0  0.00000000000E+00  0.00000000000E+00  0.45593999997E+02  0.45594000000E+02  0.51100000000E-03 0.  1.
         11   -1    0    0    0    0 -0.00000000000E+00 -0.00000000000E+00 -0.45593999997E+02  0.45594000000E+02  0.51100000000E-03 0. -1.
    9900012    2    1    2    0    0  0.32845052192E+02 -0.50337296003E+01  0.23431405967E+02  0.50528847614E+02  0.29999962807E+02 0.  0.
         12    1    1    2    0    0 -0.32845052192E+02  0.50337296003E+01 -0.23431405967E+02  0.40659152386E+02  0.00000000000E+00 0. -1.
         11    1    3    3    0    0  0.11627694690E+02  0.35961831782E+00 -0.38376251728E+01  0.12249896994E+02  0.51100000000E-03 0. -1.
        -11    1    3    3    0    0  0.47151218741E+01  0.31182877766E+01  0.14983717542E+02  0.16014614719E+02  0.51100000000E-03 0.  1.
        -12    1    3    3    0    0  0.16502235628E+02 -0.85116356947E+01  0.12285313598E+02  0.22264335901E+02  0.00000000000E+00 0.  1.
</event>
<event>
 7    1  0.6073302E-013  0.5052884E+02  0.7816164E-02  0.1300439E+00
        -11   -1    0    0    0    0  0.00000000000E+00  0.00000000000E+00  0.45593999997E+02  0.45594000000E+02  0.51100000000E-03 0. -1.
         11   -1    0    0    0    0 -0.00000000000E+00 -0.00000000000E+00 -0.45593999997E+02  0.45594000000E+02  0.51100000000E-03 0.  1.
    9900012    2    1    2    0    0  0.17632059428E+02 -0.23766281404E+02 -0.27882637076E+02  0.50528842338E+02  0.29999946770E+02 0.  0.
         12    1    1    2    0    0 -0.17632059428E+02  0.23766281404E+02  0.27882637076E+02  0.40659157662E+02  0.00000000000E+00 0. -1.
         11    1    3    3    0    0  0.14405865789E+02 -0.15709222185E+02 -0.13032625000E+02  0.24983153232E+02  0.51100000000E-03 0. -1.
        -11    1    3    3    0    0  0.74455307781E+01 -0.12254606424E+02 -0.78138695810E+01  0.16329968318E+02  0.51100000000E-03 0.  1.
         12    1    3    3    0    0 -0.42193371388E+01  0.41975472043E+01 -0.70361424955E+01  0.92157207879E+01  0.00000000000E+00 0. -1.
</event>
<event>
 7    1  0.6073302E-013  0.5052887E+02  0.7816164E-02  0.1300439E+00
        -11   -1    0    0    0    0  0.00000000000E+00  0.00000000000E+00  0.45593999997E+02  0.45594000000E+02  0.51100000000E-03 0.  1.
         11   -1    0    0    0    0 -0.00000000000E+00 -0.00000000000E+00 -0.45593999997E+02  0.45594000000E+02  0.51100000000E-03 0. -1.
    9900012    2    1    2    0    0  0.84826493144E+01  0.91687368910E+01  0.38692945601E+02  0.50528866772E+02  0.30000021041E+02 0.  0.
         12    1    1    2    0    0 -0.84826493144E+01 -0.91687368910E+01 -0.38692945601E+02  0.40659133228E+02  0.00000000000E+00 0. -1.
         11    1    3    3    0    0 -0.35993988010E+01  0.11762169231E+02  0.73683600608E+01  0.14338654993E+02  0.51100000000E-03 0. -1.
        -11    1    3    3    0    0  0.11623280528E+02 -0.63653148979E+01  0.18113968355E+02  0.22444013318E+02  0.51100000000E-03 0.  1.
        -12    1    3    3    0    0  0.45876758708E+00  0.37718825574E+01  0.13210617185E+02  0.13746198461E+02  0.00000000000E+00 0.  1.
</event>
<event>
 7    1  0.6073302E-013  0.5052886E+02  0.7816164E-02  0.1300439E+00
        -11   -1    0    0    0    0  0.00000000000E+00  0.00000000000E+00  0.45593999997E+02  0.45594000000E+02  0.51100000000E-03 0.  1.
         11   -1    0    0    0    0 -0.00000000000E+00 -0.00000000000E+00 -0.45593999997E+02  0.45594000000E+02  0.51100000000E-03 0. -1.
    9900012    2    1    2    0    0  0.87279605475E+01 -0.28830573972E+02  0.27309096462E+02  0.50528855390E+02  0.29999986443E+02 0.  0.
         12    1    1    2    0    0 -0.87279605475E+01  0.28830573972E+02 -0.27309096462E+02  0.40659144610E+02  0.00000000000E+00 0. -1.
         11    1    3    3    0    0  0.70017084788E+01  0.48971779678E+01  0.69274073040E+01  0.10999783902E+02  0.51100000000E-03 0. -1.
        -11    1    3    3    0    0 -0.66610332741E+00 -0.73677074352E+01  0.46788702089E+01  0.87532070229E+01  0.51100000000E-03 0.  1.
         12    1    3    3    0    0  0.23923553961E+01 -0.26360044505E+02  0.15702818949E+02  0.30775864465E+02  0.00000000000E+00 0. -1.
</event>
<event>
 7    1  0.6073302E-013  0.5052886E+02  0.7816164E-02  0.1300439E+00
        -11   -1    0    0    0    0  0.00000000000E+00  0.00000000000E+00  0.45593999997E+02  0.45594000000E+02  0.51100000000E-03 0. -1.
         11   -1    0    0    0    0 -0.00000000000E+00 -0.00000000000E+00 -0.45593999997E+02  0.45594000000E+02  0.51100000000E-03 0.  1.
    9900012    2    1    2    0    0 -0.27920765821E+02 -0.84002020194E+01 -0.28337835983E+02  0.50528861960E+02  0.30000006412E+02 0.  0.
         12    1    1    2    0    0  0.27920765821E+02  0.84002020194E+01  0.28337835983E+02  0.40659138040E+02  0.00000000000E+00 0. -1.
         11    1    3    3    0    0 -0.23667819959E+02 -0.11539756902E+02 -0.16111281096E+02  0.30869160497E+02  0.51100000000E-03 0. -1.
        -11    1    3    3    0    0 -0.10333170344E+01 -0.56217237469E+01 -0.67208846010E+01  0.88228006926E+01  0.51100000000E-03 0.  1.
         12    1    3    3    0    0 -0.32196288278E+01  0.87612786293E+01 -0.55056702860E+01  0.10836900770E+02  0.00000000000E+00 0. -1.
</event>
<event>
 7    1  0.6073302E-013  0.5052885E+02  0.7816164E-02  0.1300439E+00
        -11   -1    0    0    0    0  0.00000000000E+00  0.00000000000E+00  0.45593999997E+02  0.45594000000E+02  0.51100000000E-03 0.  1.
         11   -1    0    0    0    0 -0.00000000000E+00 -0.00000000000E+00 -0.45593999997E+02  0.45594000000E+02  0.51100000000E-03 0. -1.
    9900012    2    1    2    0    0  0.58309408997E+01 -0.25568638832E+02 -0.31071067776E+02  0.50528850769E+02  0.29999972396E+02 0.  0.
         12    1    1    2    0    0 -0.58309408997E+01  0.25568638832E+02  0.31071067776E+02  0.40659149231E+02  0.00000000000E+00 0. -1.
         11    1    3    3    0    0 -0.16546270646E+01  0.21924540806E+01 -0.27009073805E+01  0.38522132025E+01  0.51100000000E-03 0. -1.
        -11    1    3    3    0    0 -0.67947623236E+01 -0.18713771949E+02 -0.12623613504E+02  0.23573919355E+02  0.51100000000E-03 0.  1.
        -12    1    3    3    0    0  0.14280330288E+02 -0.90473209639E+01 -0.15746546891E+02  0.23102718211E+02  0.00000000000E+00 0.  1.
</event>
<event>
 7    1  0.6073302E-013  0.5052886E+02  0.7816164E-02  0.1300439E+00
        -11   -1    0    0    0    0  0.00000000000E+00  0.00000000000E+00  0.45593999997E+02  0.45594000000E+02  0.51100000000E-03 0.  1.
         11   -1    0    0    0    0 -0.00000000000E+00 -0.00000000000E+00 -0.45593999997E+02  0.45594000000E+02  0.51100000000E-03 0. -1.
    9900012    2    1    2    0    0 -0.12060979896E+02 -0.26092199473E+02  0.28755797869E+02  0.50528855635E+02  0.29999987189E+02 0.  0.
         12    1    1    2    0    0  0.12060979896E+02  0.26092199473E+02 -0.28755797869E+02  0.40659144365E+02  0.00000000000E+00 0. -1.
         11    1    3    3    0    0  0.63004427252E+01  0.20084535319E+01  0.60229633286E+01  0.89445822509E+01  0.51100000000E-03 0. -1.
        -11    1    3    3    0    0 -0.31813723063E+01 -0.61229741772E+01  0.65619016629E+00  0.69312717680E+01  0.51100000000E-03 0.  1.
         12    1    3    3    0    0 -0.15180050315E+02 -0.21977678828E+02  0.22076644374E+02  0.34653001617E+02  0.00000000000E+00 0. -1.
</event>
<event>
 7    1  0.6073302E-013  0.5052887E+02  0.7816164E-02  0.1300439E+00
        -11   -1    0    0    0    0  0.00000000000E+00  0.00000000000E+00  0.45593999997E+02  0.45594000000E+02  0.51100000000E-03 0.  1.
         11   -1    0    0    0    0 -0.00000000000E+00 -0.00000000000E+00 -0.45593999997E+02  0.45594000000E+02  0.51100000000E-03 0. -1.
    9900012    2    1    2    0    0  0.16592853077E+02 -0.15563225176E+02  0.33699080347E+02  0.50528871045E+02  0.30000034029E+02 0.  0.
         12    1    1    2    0    0 -0.16592853077E+02  0.15563225176E+02 -0.33699080347E+02  0.40659128955E+02  0.00000000000E+00 0. -1.
         11    1    3    3    0    0  0.17855190346E+02 -0.77180407841E+01  0.12468945194E+02  0.23105206564E+02  0.51100000000E-03 0. -1.
        -11    1    3    3    0    0  0.33978684479E+01 -0.64784651826E+01  0.21347085509E+02  0.22565772335E+02  0.51100000000E-03 0.  1.
         12    1    3    3    0    0 -0.46602057170E+01 -0.13667192093E+01 -0.11695035516E+00  0.48578921465E+01  0.00000000000E+00 0. -1.
</event>
<event>
 7    1  0.6073302E-013  0.5052883E+02  0.7816164E-02  0.1300439E+00
        -11   -1    0    0    0    0  0.00000000000E+00  0.00000000000E+00  0.45593999997E+02  0.45594000000E+02  0.51100000000E-03 0. -1.
         11   -1    0    0    0    0 -0.00000000000E+00 -0.00000000000E+00 -0.45593999997E+02  0.45594000000E+02  0.51100000000E-03 0.  1.
    9900012    2    1    2    0    0  0.39273872281E+02  0.97672868102E+01 -0.39155038753E+01  0.50528829987E+02  0.29999909227E+02 0.  0.
         12    1    1    2    0    0 -0.39273872281E+02 -0.97672868102E+01  0.39155038753E+01  0.40659170013E+02  0.00000000000E+00 0. -1.
         11    1    3    3    0    0  0.23688536572E+01  0.67218105694E+01 -0.37557279572E+01  0.80560348640E+01  0.51100000000E-03 0. -1.
        -11    1    3    3    0    0  0.20505856570E+02 -0.80983585804E+01  0.34628700178E+01  0.22317370687E+02  0.51100000000E-03 0.  1.
        -12    1    3    3    0    0  0.16399162054E+02  0.11143834821E+02 -0.36226459359E+01  0.20155424436E+02  0.00000000000E+00 0.  1.
</event>
<event>
 7    1  0.6073302E-013  0.5052885E+02  0.7816164E-02  0.1300439E+00
        -11   -1    0    0    0    0  0.00000000000E+00  0.00000000000E+00  0.45593999997E+02  0.45594000000E+02  0.51100000000E-03 0.  1.
         11   -1    0    0    0    0 -0.00000000000E+00 -0.00000000000E+00 -0.45593999997E+02  0.45594000000E+02  0.51100000000E-03 0. -1.
    9900012    2    1    2    0    0  0.35394653935E+01  0.36151429118E+01  0.40343144644E+02  0.50528851050E+02  0.29999973251E+02 0.  0.
         12    1    1    2    0    0 -0.35394653935E+01 -0.36151429118E+01 -0.40343144644E+02  0.40659148950E+02  0.00000000000E+00 0. -1.
         11    1    3    3    0    0  0.10026110239E+02 -0.50749216323E+01  0.30619424768E+01  0.11647025719E+02  0.51100000000E-03 0. -1.
        -11    1    3    3    0    0 -0.58875441923E+01  0.65481857431E+01  0.29033867331E+02  0.30339864297E+02  0.51100000000E-03 0.  1.
         12    1    3    3    0    0 -0.59910065331E+00  0.21418788009E+01  0.82473348371E+01  0.85419610340E+01  0.00000000000E+00 0. -1.
</event>
<event>
 7    1  0.6073302E-013  0.5052886E+02  0.7816164E-02  0.1300439E+00
        -11   -1    0    0    0    0  0.00000000000E+00  0.00000000000E+00  0.45593999997E+02  0.45594000000E+02  0.51100000000E-03 0.  1.
         11   -1    0    0    0    0 -0.00000000000E+00 -0.00000000000E+00 -0.45593999997E+02  0.45594000000E+02  0.51100000000E-03 0. -1.
    9900012    2    1    2    0    0  0.61391700983E+01  0.30437146224E+02  0.26249883039E+02  0.50528860323E+02  0.30000001437E+02 0.  0.
         12    1    1    2    0    0 -0.61391700983E+01 -0.30437146224E+02 -0.26249883039E+02  0.40659139677E+02  0.00000000000E+00 0. -1.
         11    1    3    3    0    0 -0.72690245364E+00  0.26432756809E+02  0.81482942659E+01  0.27669725683E+02  0.51100000000E-03 0. -1.
        -11    1    3    3    0    0  0.77181471289E+00 -0.27654069356E+01  0.10829184105E+02  0.11203321030E+02  0.51100000000E-03 0.  1.
        -12    1    3    3    0    0  0.60942578391E+01  0.67697963508E+01  0.72724046679E+01  0.11655813609E+02  0.00000000000E+00 0.  1.
</event>
<event>
 7    1  0.6073302E-013  0.5052886E+02  0.7816164E-02  0.1300439E+00
        -11   -1    0    0    0    0  0.00000000000E+00  0.00000000000E+00  0.45593999997E+02  0.45594000000E+02  0.51100000000E-03 0.  1.
         11   -1    0    0    0    0 -0.00000000000E+00 -0.00000000000E+00 -0.45593999997E+02  0.45594000000E+02  0.51100000000E-03 0. -1.
    9900012    2    1    2    0    0 -0.24420328387E+02  0.28028541550E+02  0.16468577854E+02  0.50528860357E+02  0.30000001542E+02 0.  0.
         12    1    1    2    0    0  0.24420328387E+02 -0.28028541550E+02 -0.16468577854E+02  0.40659139643E+02  0.00000000000E+00 0. -1.
         11    1    3    3    0    0 -0.94578184939E+01  0.66027535681E+01 -0.44100525423E+01  0.12348896673E+02  0.51100000000E-03 0. -1.
        -11    1    3    3    0    0 -0.16278126637E+02  0.21555514244E+02  0.23135110608E+02  0.35564742994E+02  0.51100000000E-03 0.  1.
        -12    1    3    3    0    0  0.13156167434E+01 -0.12972626184E+00 -0.22564802112E+01  0.26152206909E+01  0.00000000000E+00 0.  1.
</event>
<event>
 7    1  0.6073302E-013  0.5052887E+02  0.7816164E-02  0.1300439E+00
        -11   -1    0    0    0    0  0.00000000000E+00  0.00000000000E+00  0.45593999997E+02  0.45594000000E+02  0.51100000000E-03 0. -1.
         11   -1    0    0    0    0 -0.00000000000E+00 -0.00000000000E+00 -0.45593999997E+02  0.45594000000E+02  0.51100000000E-03 0.  1.
    9900012    2    1    2    0    0  0.30878644604E+02 -0.77852717116E+01 -0.25279713476E+02  0.50528867426E+02  0.30000023029E+02 0.  0.
         12    1    1    2    0    0 -0.30878644604E+02  0.77852717116E+01  0.25279713476E+02  0.40659132574E+02  0.00000000000E+00 0. -1.
         11    1    3    3    0    0 -0.30702761259E+01  0.10834800624E+01  0.35646800525E+01  0.48277809263E+01  0.51100000000E-03 0. -1.
        -11    1    3    3    0    0  0.18981352158E+02 -0.25064055504E+01 -0.14530929893E+02  0.24035842451E+02  0.51100000000E-03 0.  1.
         12    1    3    3    0    0  0.14967568572E+02 -0.63623462236E+01 -0.14313463635E+02  0.21665244048E+02  0.00000000000E+00 0. -1.
</event>
<event>
 7    1  0.6073302E-013  0.5052886E+02  0.7816164E-02  0.1300439E+00
        -11   -1    0    0    0    0  0.00000000000E+00  0.00000000000E+00  0.45593999997E+02  0.45594000000E+02  0.51100000000E-03 0.  1.
         11   -1    0    0    0    0 -0.00000000000E+00 -0.00000000000E+00 -0.45593999997E+02  0.45594000000E+02  0.51100000000E-03 0. -1.
    9900012    2    1    2    0    0 -0.25857754729E+02 -0.30841234912E+02 -0.57758677821E+01  0.50528857127E+02  0.29999991723E+02 0.  0.
         12    1    1    2    0    0  0.25857754729E+02  0.30841234912E+02  0.57758677821E+01  0.40659142873E+02  0.00000000000E+00 0. -1.
         11    1    3    3    0    0 -0.57764238433E+01  0.17108016524E+01 -0.78583545612E+01  0.99019014024E+01  0.51100000000E-03 0. -1.
        -11    1    3    3    0    0 -0.20844243641E+02 -0.23433720742E+02  0.68149969010E+00  0.31370148276E+02  0.51100000000E-03 0.  1.
         12    1    3    3    0    0  0.76291275495E+00 -0.91183158229E+01  0.14009870890E+01  0.92568074486E+01  0.00000000000E+00 0. -1.
</event>
<event>
 7    1  0.6073302E-013  0.5052886E+02  0.7816164E-02  0.1300439E+00
        -11   -1    0    0    0    0  0.00000000000E+00  0.00000000000E+00  0.45593999997E+02  0.45594000000E+02  0.51100000000E-03 0.  1.
         11   -1    0    0    0    0 -0.00000000000E+00 -0.00000000000E+00 -0.45593999997E+02  0.45594000000E+02  0.51100000000E-03 0. -1.
    9900012    2    1    2    0    0 -0.19009751502E+02  0.35931365111E+02  0.85578214659E+00  0.50528855716E+02  0.29999987433E+02 0.  0.
         12    1    1    2    0    0  0.19009751502E+02 -0.35931365111E+02 -0.85578214659E+00  0.40659144284E+02  0.00000000000E+00 0. -1.
         11    1    3    3    0    0 -0.53245912838E+01  0.19412895476E+02 -0.66695041873E+01  0.21205991358E+02  0.51100000000E-03 0. -1.
        -11    1    3    3    0    0 -0.28745432859E+01 -0.25439316937E+01  0.62960541412E+01  0.73739328432E+01  0.51100000000E-03 0.  1.
        -12    1    3    3    0    0 -0.10810616932E+02  0.19062401328E+02  0.12292321927E+01  0.21948931515E+02  0.00000000000E+00 0.  1.
</event>
<event>
 7    1  0.6073302E-013  0.5052886E+02  0.7816164E-02  0.1300439E+00
        -11   -1    0    0    0    0  0.00000000000E+00  0.00000000000E+00  0.45593999997E+02  0.45594000000E+02  0.51100000000E-03 0.  1.
         11   -1    0    0    0    0 -0.00000000000E+00 -0.00000000000E+00 -0.45593999997E+02  0.45594000000E+02  0.51100000000E-03 0. -1.
    9900012    2    1    2    0    0  0.95765308357E+01 -0.38035291366E+02  0.10713179573E+02  0.50528861437E+02  0.30000004823E+02 0.  0.
         12    1    1    2    0    0 -0.95765308357E+01  0.38035291366E+02 -0.10713179573E+02  0.40659138563E+02  0.00000000000E+00 0. -1.
         11    1    3    3    0    0  0.22488473408E+01 -0.19530494164E+02 -0.13799071689E+01  0.19707908583E+02  0.51100000000E-03 0.  1.
        -11    1    3    3    0    0  0.13714083363E+02 -0.98106474058E+01  0.10633915220E+02  0.19935020396E+02  0.51100000000E-03 0. -1.
        -12    1    3    3    0    0 -0.63863998679E+01 -0.86941497959E+01  0.14591715210E+01  0.10885932458E+02  0.00000000000E+00 0.  1.
</event>
<event>
 7    1  0.6073302E-013  0.5052887E+02  0.7816164E-02  0.1300439E+00
        -11   -1    0    0    0    0  0.00000000000E+00  0.00000000000E+00  0.45593999997E+02  0.45594000000E+02  0.51100000000E-03 0. -1.
         11   -1    0    0    0    0 -0.00000000000E+00 -0.00000000000E+00 -0.45593999997E+02  0.45594000000E+02  0.51100000000E-03 0.  1.
    9900012    2    1    2    0    0  0.37100403807E+02  0.16135197907E+02 -0.40472886752E+01  0.50528866711E+02  0.30000020856E+02 0.  0.
         12    1    1    2    0    0 -0.37100403807E+02 -0.16135197907E+02  0.40472886752E+01  0.40659133289E+02  0.00000000000E+00 0. -1.
         11    1    3    3    0    0  0.48836295033E+01 -0.82860785754E+01  0.12830415122E+01  0.97033566907E+01  0.51100000000E-03 0. -1.
        -11    1    3    3    0    0  0.24680784575E+02  0.19739468368E+02 -0.40742700042E+01  0.31865144202E+02  0.51100000000E-03 0.  1.
         12    1    3    3    0    0  0.75359897294E+01  0.46818081149E+01 -0.12560601832E+01  0.89603658189E+01  0.00000000000E+00 0. -1.
</event>
<event>
 7    1  0.6073302E-013  0.5052884E+02  0.7816164E-02  0.1300439E+00
        -11   -1    0    0    0    0  0.00000000000E+00  0.00000000000E+00  0.45593999997E+02  0.45594000000E+02  0.51100000000E-03 0.  1.
         11   -1    0    0    0    0 -0.00000000000E+00 -0.00000000000E+00 -0.45593999997E+02  0.45594000000E+02  0.51100000000E-03 0. -1.
    9900012    2    1    2    0    0  0.37579688571E+01  0.21977545099E+02  0.34000482090E+02  0.50528836201E+02  0.29999928117E+02 0.  0.
         12    1    1    2    0    0 -0.37579688571E+01 -0.21977545099E+02 -0.34000482090E+02  0.40659163799E+02  0.00000000000E+00 0. -1.
         11    1    3    3    0    0  0.19995137936E+01 -0.53813465984E+01  0.18226299519E+01  0.60231990524E+01  0.51100000000E-03 0. -1.
        -11    1    3    3    0    0 -0.20070637492E+01  0.22037421642E+02  0.16737867625E+02  0.27745855013E+02  0.51100000000E-03 0.  1.
         12    1    3    3    0    0  0.37655188128E+01  0.53214700554E+01  0.15439984512E+02  0.16759782135E+02  0.00000000000E+00 0. -1.
</event>
<event>
 7    1  0.6073302E-013  0.5052886E+02  0.7816164E-02  0.1300439E+00
        -11   -1    0    0    0    0  0.00000000000E+00  0.00000000000E+00  0.45593999997E+02  0.45594000000E+02  0.51100000000E-03 0.  1.
         11   -1    0    0    0    0 -0.00000000000E+00 -0.00000000000E+00 -0.45593999997E+02  0.45594000000E+02  0.51100000000E-03 0. -1.
    9900012    2    1    2    0    0 -0.26073200126E+02  0.23455861258E+02 -0.20571256844E+02  0.50528858343E+02  0.29999995420E+02 0.  0.
         12    1    1    2    0    0  0.26073200126E+02 -0.23455861258E+02  0.20571256844E+02  0.40659141657E+02  0.00000000000E+00 0. -1.
         11    1    3    3    0    0 -0.50249444511E+01  0.21093115650E+02 -0.55917984986E+01  0.22392806998E+02  0.51100000000E-03 0.  1.
        -11    1    3    3    0    0 -0.22877697420E+01 -0.34826435396E+01 -0.25800710936E+01  0.49009655707E+01  0.51100000000E-03 0. -1.
        -12    1    3    3    0    0 -0.18760485932E+02  0.58453891479E+01 -0.12399387252E+02  0.23235085774E+02  0.00000000000E+00 0.  1.
</event>
<event>
 7    1  0.6073302E-013  0.5052883E+02  0.7816164E-02  0.1300439E+00
        -11   -1    0    0    0    0  0.00000000000E+00  0.00000000000E+00  0.45593999997E+02  0.45594000000E+02  0.51100000000E-03 0. -1.
         11   -1    0    0    0    0 -0.00000000000E+00 -0.00000000000E+00 -0.45593999997E+02  0.45594000000E+02  0.51100000000E-03 0.  1.
    9900012    2    1    2    0    0 -0.76192409183E+01  0.20103349517E+02 -0.34510438302E+02  0.50528833189E+02  0.29999918961E+02 0.  0.
         12    1    1    2    0    0  0.76192409183E+01 -0.20103349517E+02  0.34510438302E+02  0.40659166811E+02  0.00000000000E+00 0. -1.
         11    1    3    3    0    0  0.45660800495E+01  0.65834367268E+01 -0.16245550237E+02  0.18113769042E+02  0.51100000000E-03 0. -1.
        -11    1    3    3    0    0 -0.15882205564E+02  0.45580634005E+01 -0.14604974077E+02  0.22052792648E+02  0.51100000000E-03 0.  1.
        -12    1    3    3    0    0  0.36968845963E+01  0.89618493900E+01 -0.36599139878E+01  0.10362271498E+02  0.00000000000E+00 0.  1.
</event>
<event>
 7    1  0.6073302E-013  0.5052888E+02  0.7816164E-02  0.1300439E+00
        -11   -1    0    0    0    0  0.00000000000E+00  0.00000000000E+00  0.45593999997E+02  0.45594000000E+02  0.51100000000E-03 0.  1.
         11   -1    0    0    0    0 -0.00000000000E+00 -0.00000000000E+00 -0.45593999997E+02  0.45594000000E+02  0.51100000000E-03 0. -1.
    9900012    2    1    2    0    0  0.36504146164E+02 -0.65209657071E+01  0.16675979470E+02  0.50528880823E+02  0.30000063751E+02 0.  0.
         12    1    1    2    0    0 -0.36504146164E+02  0.65209657071E+01 -0.16675979470E+02  0.40659119177E+02  0.00000000000E+00 0. -1.
         11    1    3    3    0    0  0.23546455386E+01 -0.29234543330E-01 -0.14147216978E+01  0.27471163089E+01  0.51100000000E-03 0. -1.
        -11    1    3    3    0    0  0.35855684146E+02 -0.84847425544E+01  0.84661538051E+01  0.37806040553E+02  0.51100000000E-03 0.  1.
        -12    1    3    3    0    0 -0.17061835207E+01  0.19930113907E+01  0.96245473628E+01  0.99757239611E+01  0.00000000000E+00 0.  1.
</event>
<event>
 7    1  0.6073302E-013  0.5052885E+02  0.7816164E-02  0.1300439E+00
        -11   -1    0    0    0    0  0.00000000000E+00  0.00000000000E+00  0.45593999997E+02  0.45594000000E+02  0.51100000000E-03 0.  1.
         11   -1    0    0    0    0 -0.00000000000E+00 -0.00000000000E+00 -0.45593999997E+02  0.45594000000E+02  0.51100000000E-03 0. -1.
    9900012    2    1    2    0    0 -0.23591394089E+02 -0.15030711029E+02  0.29507458151E+02  0.50528852990E+02  0.29999979148E+02 0.  0.
         12    1    1    2    0    0  0.23591394089E+02  0.15030711029E+02 -0.29507458151E+02  0.40659147010E+02  0.00000000000E+00 0. -1.
         11    1    3    3    0    0 -0.24686841788E+01  0.27380685482E+01  0.19290101989E+02  0.19639232571E+02  0.51100000000E-03 0. -1.
        -11    1    3    3    0    0 -0.24662639533E+01 -0.74098825057E+01  0.25790662518E+01  0.82243783734E+01  0.51100000000E-03 0.  1.
         12    1    3    3    0    0 -0.18656445956E+02 -0.10358897071E+02  0.76382899096E+01  0.22665242046E+02  0.00000000000E+00 0. -1.
</event>
<event>
 7    1  0.6073302E-013  0.5052885E+02  0.7816164E-02  0.1300439E+00
        -11   -1    0    0    0    0  0.00000000000E+00  0.00000000000E+00  0.45593999997E+02  0.45594000000E+02  0.51100000000E-03 0.  1.
         11   -1    0    0    0    0 -0.00000000000E+00 -0.00000000000E+00 -0.45593999997E+02  0.45594000000E+02  0.51100000000E-03 0. -1.
    9900012    2    1    2    0    0 -0.47112412146E+01 -0.12662425335E+02  0.38348836537E+02  0.50528854991E+02  0.29999985231E+02 0.  0.
         12    1    1    2    0    0  0.47112412146E+01  0.12662425335E+02 -0.38348836537E+02  0.40659145009E+02  0.00000000000E+00 0. -1.
         11    1    3    3    0    0  0.84401744818E+01  0.29718176144E+01  0.48169282927E+01  0.10162236154E+02  0.51100000000E-03 0. -1.
        -11    1    3    3    0    0 -0.13967261972E+02 -0.14604759040E+02  0.27118418670E+02  0.33819994456E+02  0.51100000000E-03 0.  1.
        -12    1    3    3    0    0  0.81584627537E+00 -0.10294839094E+01  0.64134895739E+01  0.65466243805E+01  0.00000000000E+00 0.  1.
</event>
<event>
 7    1  0.6073302E-013  0.5052886E+02  0.7816164E-02  0.1300439E+00
        -11   -1    0    0    0    0  0.00000000000E+00  0.00000000000E+00  0.45593999997E+02  0.45594000000E+02  0.51100000000E-03 0.  1.
         11   -1    0    0    0    0 -0.00000000000E+00 -0.00000000000E+00 -0.45593999997E+02  0.45594000000E+02  0.51100000000E-03 0. -1.
    9900012    2    1    2    0    0  0.23495619381E+02  0.27998804827E+02  0.17809790460E+02  0.50528857878E+02  0.29999994006E+02 0.  0.
         12    1    1    2    0    0 -0.23495619381E+02 -0.27998804827E+02 -0.17809790460E+02  0.40659142122E+02  0.00000000000E+00 0. -1.
         11    1    3    3    0    0 -0.31428213172E+01  0.15363593322E+02  0.46563101492E+01  0.16358439720E+02  0.51100000000E-03 0. -1.
        -11    1    3    3    0    0  0.22369946709E+02  0.14165739741E+02  0.13305918232E+02  0.29633261016E+02  0.51100000000E-03 0.  1.
         12    1    3    3    0    0  0.42684939886E+01 -0.15305282362E+01 -0.15243792075E+00  0.45371571421E+01  0.00000000000E+00 0. -1.
</event>
<event>
 7    1  0.6073302E-013  0.5052886E+02  0.7816164E-02  0.1300439E+00
        -11   -1    0    0    0    0  0.00000000000E+00  0.00000000000E+00  0.45593999997E+02  0.45594000000E+02  0.51100000000E-03 0. -1.
         11   -1    0    0    0    0 -0.00000000000E+00 -0.00000000000E+00 -0.45593999997E+02  0.45594000000E+02  0.51100000000E-03 0.  1.
    9900012    2    1    2    0    0 -0.24843823235E+02  0.12878096770E+02 -0.29497533166E+02  0.50528863361E+02  0.30000010672E+02 0.  0.
         12    1    1    2    0    0  0.24843823235E+02 -0.12878096770E+02  0.29497533166E+02  0.40659136639E+02  0.00000000000E+00 0. -1.
         11    1    3    3    0    0  0.95164614584E+00 -0.39389940928E+01 -0.48661582491E+01  0.63325193420E+01  0.51100000000E-03 0. -1.
        -11    1    3    3    0    0 -0.14504151061E+02  0.10662899696E+02 -0.19291110735E+01  0.18104952298E+02  0.51100000000E-03 0.  1.
        -12    1    3    3    0    0 -0.11291318319E+02  0.61541911668E+01 -0.22702263844E+02  0.26091391721E+02  0.00000000000E+00 0.  1.
</event>
<event>
 7    1  0.6073302E-013  0.5052891E+02  0.7816164E-02  0.1300439E+00
        -11   -1    0    0    0    0  0.00000000000E+00  0.00000000000E+00  0.45593999997E+02  0.45594000000E+02  0.51100000000E-03 0.  1.
         11   -1    0    0    0    0 -0.00000000000E+00 -0.00000000000E+00 -0.45593999997E+02  0.45594000000E+02  0.51100000000E-03 0. -1.
    9900012    2    1    2    0    0 -0.64631962666E+01  0.32199705877E+02  0.23970140587E+02  0.50528909942E+02  0.30000152260E+02 0.  0.
         12    1    1    2    0    0  0.64631962666E+01 -0.32199705877E+02 -0.23970140587E+02  0.40659090058E+02  0.00000000000E+00 0. -1.
         11    1    3    3    0    0  0.37227972067E+01  0.18957396041E+02  0.54186705540E+01  0.20064996250E+02  0.51100000000E-03 0. -1.
        -11    1    3    3    0    0 -0.68417560768E+01  0.14486268736E+02  0.20793861034E+02  0.26249690761E+02  0.51100000000E-03 0.  1.
        -12    1    3    3    0    0 -0.33442373965E+01 -0.12439588999E+01 -0.22423910004E+01  0.42142229304E+01  0.00000000000E+00 0.  1.
</event>
<event>
 7    1  0.6073302E-013  0.5052886E+02  0.7816164E-02  0.1300439E+00
        -11   -1    0    0    0    0  0.00000000000E+00  0.00000000000E+00  0.45593999997E+02  0.45594000000E+02  0.51100000000E-03 0.  1.
         11   -1    0    0    0    0 -0.00000000000E+00 -0.00000000000E+00 -0.45593999997E+02  0.45594000000E+02  0.51100000000E-03 0. -1.
    9900012    2    1    2    0    0  0.41868706876E+01 -0.24339055591E+02  0.32299316236E+02  0.50528863972E+02  0.30000012530E+02 0.  0.
         12    1    1    2    0    0 -0.41868706876E+01  0.24339055591E+02 -0.32299316236E+02  0.40659136028E+02  0.00000000000E+00 0. -1.
         11    1    3    3    0    0  0.93754201143E+01 -0.23028821497E+02  0.33544988918E+02  0.41755136254E+02  0.51100000000E-03 0. -1.
        -11    1    3    3    0    0 -0.32897559383E+01 -0.10833234418E+01  0.26983334098E+01  0.43905679889E+01  0.51100000000E-03 0.  1.
         12    1    3    3    0    0 -0.18987934884E+01 -0.22691065246E+00 -0.39440060921E+01  0.43831597290E+01  0.00000000000E+00 0. -1.
</event>
<event>
 7    1  0.6073302E-013  0.5052884E+02  0.7816164E-02  0.1300439E+00
        -11   -1    0    0    0    0  0.00000000000E+00  0.00000000000E+00  0.45593999997E+02  0.45594000000E+02  0.51100000000E-03 0.  1.
         11   -1    0    0    0    0 -0.00000000000E+00 -0.00000000000E+00 -0.45593999997E+02  0.45594000000E+02  0.51100000000E-03 0. -1.
    9900012    2    1    2    0    0 -0.77703309151E+01 -0.28290776526E+02  0.28149977527E+02  0.50528839732E+02  0.29999938848E+02 0.  0.
         12    1    1    2    0    0  0.77703309151E+01  0.28290776526E+02 -0.28149977527E+02  0.40659160268E+02  0.00000000000E+00 0. -1.
         11    1    3    3    0    0 -0.44685827098E+01 -0.11353240847E+02  0.41431564763E+01  0.12885265035E+02  0.51100000000E-03 0.  1.
        -11    1    3    3    0    0  0.78221436892E+01 -0.14975066634E+02  0.18576950398E+02  0.25110588184E+02  0.51100000000E-03 0. -1.
        -12    1    3    3    0    0 -0.11123891895E+02 -0.19624690447E+01  0.54298706525E+01  0.12532986513E+02  0.00000000000E+00 0.  1.
</event>
<event>
 7    1  0.6073302E-013  0.5052886E+02  0.7816164E-02  0.1300439E+00
        -11   -1    0    0    0    0  0.00000000000E+00  0.00000000000E+00  0.45593999997E+02  0.45594000000E+02  0.51100000000E-03 0.  1.
         11   -1    0    0    0    0 -0.00000000000E+00 -0.00000000000E+00 -0.45593999997E+02  0.45594000000E+02  0.51100000000E-03 0. -1.
    9900012    2    1    2    0    0  0.20767455574E+00 -0.23638092255E+02  0.33081162242E+02  0.50528857985E+02  0.29999994330E+02 0.  0.
         12    1    1    2    0    0 -0.20767455574E+00  0.23638092255E+02 -0.33081162242E+02  0.40659142015E+02  0.00000000000E+00 0. -1.
         11    1    3    3    0    0 -0.67979095245E+01 -0.51230641030E+01 -0.94694110432E+00  0.85646983264E+01  0.51100000000E-03 0. -1.
        -11    1    3    3    0    0  0.52637827516E+01 -0.19750869376E+02  0.34177303448E+02  0.39823263568E+02  0.51100000000E-03 0.  1.
        -12    1    3    3    0    0  0.17418013287E+01  0.12358412241E+01 -0.14920010188E+00  0.21408960904E+01  0.00000000000E+00 0.  1.
</event>
<event>
 7    1  0.6073302E-013  0.5052886E+02  0.7816164E-02  0.1300439E+00
        -11   -1    0    0    0    0  0.00000000000E+00  0.00000000000E+00  0.45593999997E+02  0.45594000000E+02  0.51100000000E-03 0. -1.
         11   -1    0    0    0    0 -0.00000000000E+00 -0.00000000000E+00 -0.45593999997E+02  0.45594000000E+02  0.51100000000E-03 0.  1.
    9900012    2    1    2    0    0  0.66523317151E+01  0.38621362956E+02 -0.10830611960E+02  0.50528863889E+02  0.30000012278E+02 0.  0.
         12    1    1    2    0    0 -0.66523317151E+01 -0.38621362956E+02  0.10830611960E+02  0.40659136111E+02  0.00000000000E+00 0. -1.
         11    1    3    3    0    0  0.91418354354E+01  0.31628414091E+02  0.25645022222E+00  0.32924086927E+02  0.51100000000E-03 0. -1.
        -11    1    3    3    0    0 -0.54238282470E+01 -0.47278585118E+00 -0.30094725450E+01  0.62208009592E+01  0.51100000000E-03 0.  1.
        -12    1    3    3    0    0  0.29343245267E+01  0.74657347167E+01 -0.80775896371E+01  0.11383976003E+02  0.00000000000E+00 0.  1.
</event>
<event>
 7    1  0.6073302E-013  0.5052887E+02  0.7816164E-02  0.1300439E+00
        -11   -1    0    0    0    0  0.00000000000E+00  0.00000000000E+00  0.45593999997E+02  0.45594000000E+02  0.51100000000E-03 0.  1.
         11   -1    0    0    0    0 -0.00000000000E+00 -0.00000000000E+00 -0.45593999997E+02  0.45594000000E+02  0.51100000000E-03 0. -1.
    9900012    2    1    2    0    0 -0.12697606478E+02  0.15239273170E+02  0.35492260821E+02  0.50528865292E+02  0.30000016542E+02 0.  0.
         12    1    1    2    0    0  0.12697606478E+02 -0.15239273170E+02 -0.35492260821E+02  0.40659134708E+02  0.00000000000E+00 0. -1.
         11    1    3    3    0    0  0.53686289754E+01  0.51489503978E+01 -0.96913904201E+00  0.75015397098E+01  0.51100000000E-03 0. -1.
        -11    1    3    3    0    0 -0.15410009661E+02  0.41512287708E+01  0.29206835866E+02  0.33282733656E+02  0.51100000000E-03 0.  1.
         12    1    3    3    0    0 -0.26562257925E+01  0.59390940015E+01  0.72545639965E+01  0.97445919257E+01  0.00000000000E+00 0. -1.
</event>
<event>
 7    1  0.6073302E-013  0.5052886E+02  0.7816164E-02  0.1300439E+00
        -11   -1    0    0    0    0  0.00000000000E+00  0.00000000000E+00  0.45593999997E+02  0.45594000000E+02  0.51100000000E-03 0. -1.
         11   -1    0    0    0    0 -0.00000000000E+00 -0.00000000000E+00 -0.45593999997E+02  0.45594000000E+02  0.51100000000E-03 0.  1.
    9900012    2    1    2    0    0  0.27718731609E+02  0.16214833684E+02 -0.24938261979E+02  0.50528858052E+02  0.29999994536E+02 0.  0.
         12    1    1    2    0    0 -0.27718731609E+02 -0.16214833684E+02  0.24938261979E+02  0.40659141948E+02  0.00000000000E+00 0. -1.
         11    1    3    3    0    0  0.15689159707E+02  0.20111278612E+02 -0.20344900725E+02  0.32627109058E+02  0.51100000000E-03 0. -1.
        -11    1    3    3    0    0  0.30209758688E+01 -0.50076700635E+01 -0.63754854811E+01  0.86515819389E+01  0.51100000000E-03 0.  1.
         12    1    3    3    0    0  0.90085960329E+01  0.11112251357E+01  0.17821242277E+01  0.92501670552E+01  0.00000000000E+00 0. -1.
</event>
<event>
 7    1  0.6073302E-013  0.5052885E+02  0.7816164E-02  0.1300439E+00
        -11   -1    0    0    0    0  0.00000000000E+00  0.00000000000E+00  0.45593999997E+02  0.45594000000E+02  0.51100000000E-03 0.  1.
         11   -1    0    0    0    0 -0.00000000000E+00 -0.00000000000E+00 -0.45593999997E+02  0.45594000000E+02  0.51100000000E-03 0. -1.
    9900012    2    1    2    0    0 -0.28308042693E+02  0.29014074291E+02  0.31629992737E+01  0.50528851552E+02  0.29999974778E+02 0.  0.
         12    1    1    2    0    0  0.28308042693E+02 -0.29014074291E+02 -0.31629992737E+01  0.40659148448E+02  0.00000000000E+00 0. -1.
         11    1    3    3    0    0 -0.18125466443E+02  0.28987163449E+02 -0.42386254352E+01  0.34449297880E+02  0.51100000000E-03 0. -1.
        -11    1    3    3    0    0 -0.19758575341E+01  0.24100837286E+00  0.76113931162E+01  0.78673631835E+01  0.51100000000E-03 0.  1.
         12    1    3    3    0    0 -0.82067187162E+01 -0.21409753030E+00 -0.20976840731E+00  0.82121904887E+01  0.00000000000E+00 0. -1.
</event>
<event>
 7    1  0.6073302E-013  0.5052886E+02  0.7816164E-02  0.1300439E+00
        -11   -1    0    0    0    0  0.00000000000E+00  0.00000000000E+00  0.45593999997E+02  0.45594000000E+02  0.51100000000E-03 0. -1.
         11   -1    0    0    0    0 -0.00000000000E+00 -0.00000000000E+00 -0.45593999997E+02  0.45594000000E+02  0.51100000000E-03 0.  1.
    9900012    2    1    2    0    0  0.18081757568E+02  0.35761208261E+02 -0.68812440625E+01  0.50528862123E+02  0.30000006911E+02 0.  0.
         12    1    1    2    0    0 -0.18081757568E+02 -0.35761208261E+02  0.68812440625E+01  0.40659137877E+02  0.00000000000E+00 0. -1.
         11    1    3    3    0    0 -0.22971672742E+01  0.16668206921E+01  0.55389549219E+01  0.62237681988E+01  0.51100000000E-03 0. -1.
        -11    1    3    3    0    0  0.20731962037E+02  0.27214031859E+02 -0.57038510405E+01  0.34683594060E+02  0.51100000000E-03 0.  1.
        -12    1    3    3    0    0 -0.35303719498E+00  0.68803557095E+01 -0.67163479439E+01  0.96214998651E+01  0.00000000000E+00 0.  1.
</event>
<event>
 7    1  0.6073302E-013  0.5052885E+02  0.7816164E-02  0.1300439E+00
        -11   -1    0    0    0    0  0.00000000000E+00  0.00000000000E+00  0.45593999997E+02  0.45594000000E+02  0.51100000000E-03 0.  1.
         11   -1    0    0    0    0 -0.00000000000E+00 -0.00000000000E+00 -0.45593999997E+02  0.45594000000E+02  0.51100000000E-03 0. -1.
    9900012    2    1    2    0    0  0.77781923698E+01 -0.16990103499E+02  0.36110977694E+02  0.50528848466E+02  0.29999965397E+02 0.  0.
         12    1    1    2    0    0 -0.77781923698E+01  0.16990103499E+02 -0.36110977694E+02  0.40659151534E+02  0.00000000000E+00 0. -1.
         11    1    3    3    0    0  0.52290277085E+01  0.18500299488E+01 -0.41361096823E+00  0.55620514095E+01  0.51100000000E-03 0. -1.
        -11    1    3    3    0    0 -0.21222663653E+01 -0.20697203047E+02  0.25971765178E+02  0.33277782607E+02  0.51100000000E-03 0.  1.
        -12    1    3    3    0    0  0.46714310266E+01  0.18570695983E+01  0.10552823484E+02  0.11689014450E+02  0.00000000000E+00 0.  1.
</event>
<event>
 7    1  0.6073302E-013  0.5052887E+02  0.7816164E-02  0.1300439E+00
        -11   -1    0    0    0    0  0.00000000000E+00  0.00000000000E+00  0.45593999997E+02  0.45594000000E+02  0.51100000000E-03 0. -1.
         11   -1    0    0    0    0 -0.00000000000E+00 -0.00000000000E+00 -0.45593999997E+02  0.45594000000E+02  0.51100000000E-03 0.  1.
    9900012    2    1    2    0    0  0.32964369064E+02 -0.23237611758E+02  0.51506086644E+01  0.50528868213E+02  0.30000025422E+02 0.  0.
         12    1    1    2    0    0 -0.32964369064E+02  0.23237611758E+02 -0.51506086644E+01  0.40659131787E+02  0.00000000000E+00 0. -1.
         11    1    3    3    0    0  0.10638628936E+02  0.43114697794E+01  0.73849683957E+01  0.13649430602E+02  0.51100000000E-03 0. -1.
        -11    1    3    3    0    0  0.19778133204E+02 -0.17549378567E+02 -0.73331691550E+00  0.26451710627E+02  0.51100000000E-03 0.  1.
         12    1    3    3    0    0  0.25476069249E+01 -0.99997029700E+01 -0.15010428158E+01  0.10427726985E+02  0.00000000000E+00 0. -1.
</event>
<event>
 7    1  0.6073302E-013  0.5052890E+02  0.7816164E-02  0.1300439E+00
        -11   -1    0    0    0    0  0.00000000000E+00  0.00000000000E+00  0.45593999997E+02  0.45594000000E+02  0.51100000000E-03 0.  1.
         11   -1    0    0    0    0 -0.00000000000E+00 -0.00000000000E+00 -0.45593999997E+02  0.45594000000E+02  0.51100000000E-03 0. -1.
    9900012    2    1    2    0    0  0.14175616893E+02 -0.30444919923E+02  0.22919881381E+02  0.50528902298E+02  0.30000129024E+02 0.  0.
         12    1    1    2    0    0 -0.14175616893E+02  0.30444919923E+02 -0.22919881381E+02  0.40659097702E+02  0.00000000000E+00 0. -1.
         11    1    3    3    0    0  0.55171334807E+01 -0.51939725564E+00  0.13880647136E+02  0.14945932575E+02  0.51100000000E-03 0. -1.
        -11    1    3    3    0    0  0.55387283296E+01 -0.27736825041E+02  0.30016686512E+01  0.28443259128E+02  0.51100000000E-03 0.  1.
        -12    1    3    3    0    0  0.31197550823E+01 -0.21886976265E+01  0.60375655939E+01  0.71397105946E+01  0.00000000000E+00 0.  1.
</event>
<event>
 7    1  0.6073302E-013  0.5052886E+02  0.7816164E-02  0.1300439E+00
        -11   -1    0    0    0    0  0.00000000000E+00  0.00000000000E+00  0.45593999997E+02  0.45594000000E+02  0.51100000000E-03 0. -1.
         11   -1    0    0    0    0 -0.00000000000E+00 -0.00000000000E+00 -0.45593999997E+02  0.45594000000E+02  0.51100000000E-03 0.  1.
    9900012    2    1    2    0    0 -0.38027733754E+02 -0.11400504191E+02  0.87798384917E+01  0.50528860877E+02  0.30000003122E+02 0.  0.
         12    1    1    2    0    0  0.38027733754E+02  0.11400504191E+02 -0.87798384917E+01  0.40659139123E+02  0.00000000000E+00 0. -1.
         11    1    3    3    0    0 -0.43757094130E+01 -0.12441491355E+02  0.57300431313E+01  0.14379531792E+02  0.51100000000E-03 0. -1.
        -11    1    3    3    0    0 -0.28101612769E+02  0.33462691726E+01  0.67467014579E+01  0.29093231832E+02  0.51100000000E-03 0.  1.
        -12    1    3    3    0    0 -0.55504115722E+01 -0.23052820087E+01 -0.36969060975E+01  0.70560972537E+01  0.00000000000E+00 0.  1.
</event>
<event>
 7    1  0.6073302E-013  0.5052886E+02  0.7816164E-02  0.1300439E+00
        -11   -1    0    0    0    0  0.00000000000E+00  0.00000000000E+00  0.45593999997E+02  0.45594000000E+02  0.51100000000E-03 0.  1.
         11   -1    0    0    0    0 -0.00000000000E+00 -0.00000000000E+00 -0.45593999997E+02  0.45594000000E+02  0.51100000000E-03 0. -1.
    9900012    2    1    2    0    0 -0.12950521576E+02  0.37279130956E+02  0.97834598587E+01  0.50528859567E+02  0.29999999140E+02 0.  0.
         12    1    1    2    0    0  0.12950521576E+02 -0.37279130956E+02 -0.97834598587E+01  0.40659140433E+02  0.00000000000E+00 0. -1.
         11    1    3    3    0    0  0.17294696079E+01  0.22612675709E+02  0.35402154106E+01  0.22953372155E+02  0.51100000000E-03 0.  1.
        -11    1    3    3    0    0 -0.10318327965E+02  0.27565433906E+01 -0.38637038329E+01  0.11357580333E+02  0.51100000000E-03 0. -1.
        -12    1    3    3    0    0 -0.43616632190E+01  0.11909911856E+02  0.10106948281E+02  0.16217907079E+02  0.00000000000E+00 0.  1.
</event>
<event>
 7    1  0.6073302E-013  0.5052886E+02  0.7816164E-02  0.1300439E+00
        -11   -1    0    0    0    0  0.00000000000E+00  0.00000000000E+00  0.45593999997E+02  0.45594000000E+02  0.51100000000E-03 0.  1.
         11   -1    0    0    0    0 -0.00000000000E+00 -0.00000000000E+00 -0.45593999997E+02  0.45594000000E+02  0.51100000000E-03 0. -1.
    9900012    2    1    2    0    0 -0.18303043740E+02 -0.33414404683E+02  0.14200071194E+02  0.50528857457E+02  0.29999992725E+02 0.  0.
         12    1    1    2    0    0  0.18303043740E+02  0.33414404683E+02 -0.14200071194E+02  0.40659142543E+02  0.00000000000E+00 0. -1.
         11    1    3    3    0    0 -0.59072078454E+00 -0.15963924639E+02 -0.21728770395E+01  0.16121948884E+02  0.51100000000E-03 0. -1.
        -11    1    3    3    0    0 -0.92278876048E+01 -0.13300872553E+02  0.18645472821E+02  0.24692524725E+02  0.51100000000E-03 0.  1.
        -12    1    3    3    0    0 -0.84844353503E+01 -0.41496074902E+01 -0.22725245868E+01  0.97143838473E+01  0.00000000000E+00 0.  1.
</event>
<event>
 7    1  0.6073302E-013  0.5052895E+02  0.7816164E-02  0.1300438E+00
        -11   -1    0    0    0    0  0.00000000000E+00  0.00000000000E+00  0.45593999997E+02  0.45594000000E+02  0.51100000000E-03 0. -1.
         11   -1    0    0    0    0 -0.00000000000E+00 -0.00000000000E+00 -0.45593999997E+02  0.45594000000E+02  0.51100000000E-03 0.  1.
    9900012    2    1    2    0    0  0.33076991905E+02 -0.17925777134E+02  0.15418738675E+02  0.50528949573E+02  0.30000272720E+02 0.  0.
         12    1    1    2    0    0 -0.33076991905E+02  0.17925777134E+02 -0.15418738675E+02  0.40659050427E+02  0.00000000000E+00 0. -1.
         11    1    3    3    0    0 -0.33160295642E+01 -0.38436129542E+01  0.24644901566E-01  0.50764180526E+01  0.51100000000E-03 0. -1.
        -11    1    3    3    0    0  0.29359793616E+02 -0.84851646993E+01  0.38215825917E+01  0.30799350560E+02  0.51100000000E-03 0.  1.
        -12    1    3    3    0    0  0.70332278534E+01 -0.55969994802E+01  0.11572511181E+02  0.14653180960E+02  0.00000000000E+00 0.  1.
</event>
<event>
 7    1  0.6073302E-013  0.5052886E+02  0.7816164E-02  0.1300439E+00
        -11   -1    0    0    0    0  0.00000000000E+00  0.00000000000E+00  0.45593999997E+02  0.45594000000E+02  0.51100000000E-03 0. -1.
         11   -1    0    0    0    0 -0.00000000000E+00 -0.00000000000E+00 -0.45593999997E+02  0.45594000000E+02  0.51100000000E-03 0.  1.
    9900012    2    1    2    0    0 -0.26499818138E+02  0.23886897608E+00 -0.30836146940E+02  0.50528863538E+02  0.30000011209E+02 0.  0.
         12    1    1    2    0    0  0.26499818138E+02 -0.23886897608E+00  0.30836146940E+02  0.40659136462E+02  0.00000000000E+00 0. -1.
         11    1    3    3    0    0 -0.13372015323E+02  0.13516987570E+01 -0.17674981329E+01  0.13555881869E+02  0.51100000000E-03 0. -1.
        -11    1    3    3    0    0 -0.17120236108E+02 -0.28738347350E+01 -0.27105768038E+02  0.32188259842E+02  0.51100000000E-03 0.  1.
        -12    1    3    3    0    0  0.39924332926E+01  0.17610049540E+01 -0.19628807692E+01  0.47847218266E+01  0.00000000000E+00 0.  1.
</event>
<event>
 7    1  0.6073302E-013  0.5052882E+02  0.7816164E-02  0.1300439E+00
        -11   -1    0    0    0    0  0.00000000000E+00  0.00000000000E+00  0.45593999997E+02  0.45594000000E+02  0.51100000000E-03 0. -1.
         11   -1    0    0    0    0 -0.00000000000E+00 -0.00000000000E+00 -0.45593999997E+02  0.45594000000E+02  0.51100000000E-03 0.  1.
    9900012    2    1    2    0    0 -0.25187922285E+02 -0.78348177565E+01 -0.30941122975E+02  0.50528820357E+02  0.29999879957E+02 0.  0.
         12    1    1    2    0    0  0.25187922285E+02  0.78348177565E+01  0.30941122975E+02  0.40659179643E+02  0.00000000000E+00 0. -1.
         11    1    3    3    0    0 -0.12993522897E+02  0.58629265370E+01 -0.12179228762E+02  0.18749377546E+02  0.51100000000E-03 0. -1.
        -11    1    3    3    0    0 -0.91952892699E+01 -0.15002297084E+02 -0.21308282653E+02  0.27634492440E+02  0.51100000000E-03 0.  1.
         12    1    3    3    0    0 -0.29991101176E+01  0.13045527909E+01  0.25463884405E+01  0.41449503703E+01  0.00000000000E+00 0. -1.
</event>
<event>
 7    1  0.6073302E-013  0.5052887E+02  0.7816164E-02  0.1300439E+00
        -11   -1    0    0    0    0  0.00000000000E+00  0.00000000000E+00  0.45593999997E+02  0.45594000000E+02  0.51100000000E-03 0.  1.
         11   -1    0    0    0    0 -0.00000000000E+00 -0.00000000000E+00 -0.45593999997E+02  0.45594000000E+02  0.51100000000E-03 0. -1.
    9900012    2    1    2    0    0  0.34779420303E+02 -0.17879050831E+02  0.11130867691E+02  0.50528871249E+02  0.30000034648E+02 0.  0.
         12    1    1    2    0    0 -0.34779420303E+02  0.17879050831E+02 -0.11130867691E+02  0.40659128751E+02  0.00000000000E+00 0. -1.
         11    1    3    3    0    0  0.19892923081E+02 -0.17242871960E+02 -0.48382043295E+01  0.26766644233E+02  0.51100000000E-03 0. -1.
        -11    1    3    3    0    0  0.15460406720E+02  0.11741091265E+01  0.12979841854E+02  0.20220756737E+02  0.51100000000E-03 0.  1.
         12    1    3    3    0    0 -0.57390949749E+00 -0.18102879978E+01  0.29892301665E+01  0.35414702786E+01  0.00000000000E+00 0. -1.
</event>
<event>
 7    1  0.6073302E-013  0.5052886E+02  0.7816164E-02  0.1300439E+00
        -11   -1    0    0    0    0  0.00000000000E+00  0.00000000000E+00  0.45593999997E+02  0.45594000000E+02  0.51100000000E-03 0. -1.
         11   -1    0    0    0    0 -0.00000000000E+00 -0.00000000000E+00 -0.45593999997E+02  0.45594000000E+02  0.51100000000E-03 0.  1.
    9900012    2    1    2    0    0 -0.15092852140E+02 -0.73932669893E+01 -0.37023111260E+02  0.50528863882E+02  0.30000012257E+02 0.  0.
         12    1    1    2    0    0  0.15092852140E+02  0.73932669893E+01  0.37023111260E+02  0.40659136118E+02  0.00000000000E+00 0. -1.
         11    1    3    3    0    0  0.51049013460E+01 -0.55893127596E+01 -0.17584908817E+02  0.19144958951E+02  0.51100000000E-03 0. -1.
        -11    1    3    3    0    0 -0.15909216755E+02 -0.73428985876E+01 -0.12494742935E+02  0.21520686297E+02  0.51100000000E-03 0.  1.
         12    1    3    3    0    0 -0.42885367316E+01  0.55389443578E+01 -0.69434595070E+01  0.98632186341E+01  0.00000000000E+00 0. -1.
</event>
<event>
 7    1  0.6073302E-013  0.5052887E+02  0.7816164E-02  0.1300439E+00
        -11   -1    0    0    0    0  0.00000000000E+00  0.00000000000E+00  0.45593999997E+02  0.45594000000E+02  0.51100000000E-03 0.  1.
         11   -1    0    0    0    0 -0.00000000000E+00 -0.00000000000E+00 -0.45593999997E+02  0.45594000000E+02  0.51100000000E-03 0. -1.
    9900012    2    1    2    0    0  0.31991453598E+02 -0.15547531373E+02  0.19697363002E+02  0.50528868869E+02  0.30000027414E+02 0.  0.
         12    1    1    2    0    0 -0.31991453598E+02  0.15547531373E+02 -0.19697363002E+02  0.40659131131E+02  0.00000000000E+00 0. -1.
         11    1    3    3    0    0 -0.38365320299E+01  0.11312212844E+01  0.23753937346E+01  0.46520033605E+01  0.51100000000E-03 0. -1.
        -11    1    3    3    0    0  0.30037706484E+02 -0.18164425572E+02  0.18655333469E+02  0.39752127418E+02  0.51100000000E-03 0.  1.
         12    1    3    3    0    0  0.57902791440E+01  0.14856729153E+01 -0.13333642018E+01  0.61247380901E+01  0.00000000000E+00 0. -1.
</event>
<event>
 7    1  0.6073302E-013  0.5052890E+02  0.7816164E-02  0.1300439E+00
        -11   -1    0    0    0    0  0.00000000000E+00  0.00000000000E+00  0.45593999997E+02  0.45594000000E+02  0.51100000000E-03 0.  1.
         11   -1    0    0    0    0 -0.00000000000E+00 -0.00000000000E+00 -0.45593999997E+02  0.45594000000E+02  0.51100000000E-03 0. -1.
    9900012    2    1    2    0    0 -0.70224000280E+01  0.43713284955E+01  0.39808788249E+02  0.50528902165E+02  0.30000128619E+02 0.  0.
         12    1    1    2    0    0  0.70224000280E+01 -0.43713284955E+01 -0.39808788249E+02  0.40659097835E+02  0.00000000000E+00 0. -1.
         11    1    3    3    0    0  0.27909382169E+01  0.72995873234E+01  0.83452958328E+00  0.78593734552E+01  0.51100000000E-03 0. -1.
        -11    1    3    3    0    0 -0.78847261636E+00 -0.37879916288E+01  0.28732205388E+02  0.28991553880E+02  0.51100000000E-03 0.  1.
         12    1    3    3    0    0 -0.90248656285E+01  0.85973280082E+00  0.10242053277E+02  0.13677974830E+02  0.00000000000E+00 0. -1.
</event>
<event>
 7    1  0.6073302E-013  0.5052886E+02  0.7816164E-02  0.1300439E+00
        -11   -1    0    0    0    0  0.00000000000E+00  0.00000000000E+00  0.45593999997E+02  0.45594000000E+02  0.51100000000E-03 0. -1.
         11   -1    0    0    0    0 -0.00000000000E+00 -0.00000000000E+00 -0.45593999997E+02  0.45594000000E+02  0.51100000000E-03 0.  1.
    9900012    2    1    2    0    0 -0.16501121917E+02  0.35933360871E+02 -0.94695299837E+01  0.50528862698E+02  0.30000008658E+02 0.  0.
         12    1    1    2    0    0  0.16501121917E+02 -0.35933360871E+02  0.94695299837E+01  0.40659137302E+02  0.00000000000E+00 0. -1.
         11    1    3    3    0    0  0.53526142133E+00 -0.16058437597E+01  0.84971095317E+00  0.18940031507E+01  0.51100000000E-03 0. -1.
        -11    1    3    3    0    0 -0.18401320923E+02  0.20300987707E+02 -0.14276142310E+02  0.30895743285E+02  0.51100000000E-03 0.  1.
        -12    1    3    3    0    0  0.13649375848E+01  0.17238216923E+02  0.39569013734E+01  0.17739116262E+02  0.00000000000E+00 0.  1.
</event>
<event>
 7    1  0.6073302E-013  0.5052886E+02  0.7816164E-02  0.1300439E+00
        -11   -1    0    0    0    0  0.00000000000E+00  0.00000000000E+00  0.45593999997E+02  0.45594000000E+02  0.51100000000E-03 0.  1.
         11   -1    0    0    0    0 -0.00000000000E+00 -0.00000000000E+00 -0.45593999997E+02  0.45594000000E+02  0.51100000000E-03 0. -1.
    9900012    2    1    2    0    0 -0.29111570402E+02 -0.37320379996E+01  0.28138125267E+02  0.50528859177E+02  0.29999997955E+02 0.  0.
         12    1    1    2    0    0  0.29111570402E+02  0.37320379996E+01 -0.28138125267E+02  0.40659140823E+02  0.00000000000E+00 0. -1.
         11    1    3    3    0    0 -0.11574247278E+02 -0.51176932760E+00 -0.26799305189E+01  0.11891473237E+02  0.51100000000E-03 0. -1.
        -11    1    3    3    0    0 -0.19156004798E+02  0.16106725363E+00  0.28092661956E+02  0.34002589879E+02  0.51100000000E-03 0.  1.
         12    1    3    3    0    0  0.16186816732E+01 -0.33813359256E+01  0.27253938297E+01  0.46347960611E+01  0.00000000000E+00 0. -1.
</event>
<event>
 7    1  0.6073302E-013  0.5052886E+02  0.7816164E-02  0.1300439E+00
        -11   -1    0    0    0    0  0.00000000000E+00  0.00000000000E+00  0.45593999997E+02  0.45594000000E+02  0.51100000000E-03 0. -1.
         11   -1    0    0    0    0 -0.00000000000E+00 -0.00000000000E+00 -0.45593999997E+02  0.45594000000E+02  0.51100000000E-03 0.  1.
    9900012    2    1    2    0    0 -0.37122776214E+02 -0.27496762486E+01 -0.16355556633E+02  0.50528862452E+02  0.30000007910E+02 0.  0.
         12    1    1    2    0    0  0.37122776214E+02  0.27496762486E+01  0.16355556633E+02  0.40659137548E+02  0.00000000000E+00 0. -1.
         11    1    3    3    0    0  0.29827144779E+01 -0.52257802843E+01 -0.36854586339E+01  0.70560591579E+01  0.51100000000E-03 0. -1.
        -11    1    3    3    0    0 -0.31265555393E+02 -0.22032612068E+01 -0.75644065400E+01  0.32242976918E+02  0.51100000000E-03 0.  1.
         12    1    3    3    0    0 -0.88399352988E+01  0.46793652425E+01 -0.51056914594E+01  0.11229826376E+02  0.00000000000E+00 0. -1.
</event>
<event>
 7    1  0.6073302E-013  0.5052886E+02  0.7816164E-02  0.1300439E+00
        -11   -1    0    0    0    0  0.00000000000E+00  0.00000000000E+00  0.45593999997E+02  0.45594000000E+02  0.51100000000E-03 0. -1.
         11   -1    0    0    0    0 -0.00000000000E+00 -0.00000000000E+00 -0.45593999997E+02  0.45594000000E+02  0.51100000000E-03 0.  1.
    9900012    2    1    2    0    0  0.38538907662E+02  0.10821318968E+02  0.71286308834E+01  0.50528859254E+02  0.29999998187E+02 0.  0.
         12    1    1    2    0    0 -0.38538907662E+02 -0.10821318968E+02 -0.71286308834E+01  0.40659140746E+02  0.00000000000E+00 0. -1.
         11    1    3    3    0    0  0.82692529172E+01 -0.98544185430E+00  0.10338288855E+02  0.13275234693E+02  0.51100000000E-03 0. -1.
        -11    1    3    3    0    0  0.29661057586E+02  0.86844898330E+01 -0.76047508110E+01  0.31828146913E+02  0.51100000000E-03 0.  1.
        -12    1    3    3    0    0  0.60859715875E+00  0.31222709889E+01  0.43950928398E+01  0.54254776472E+01  0.00000000000E+00 0.  1.
</event>
<event>
 7    1  0.6073302E-013  0.5052883E+02  0.7816164E-02  0.1300439E+00
        -11   -1    0    0    0    0  0.00000000000E+00  0.00000000000E+00  0.45593999997E+02  0.45594000000E+02  0.51100000000E-03 0. -1.
         11   -1    0    0    0    0 -0.00000000000E+00 -0.00000000000E+00 -0.45593999997E+02  0.45594000000E+02  0.51100000000E-03 0.  1.
    9900012    2    1    2    0    0 -0.28053821008E+02  0.29203205773E+02  0.36502196783E+01  0.50528828781E+02  0.29999905562E+02 0.  0.
         12    1    1    2    0    0  0.28053821008E+02 -0.29203205773E+02 -0.36502196783E+01  0.40659171219E+02  0.00000000000E+00 0. -1.
         11    1    3    3    0    0 -0.11402903310E+02  0.54771192302E+01  0.13056588541E+02  0.18179646409E+02  0.51100000000E-03 0. -1.
        -11    1    3    3    0    0  0.66576488855E+00  0.59290275830E+01 -0.57474023533E+00  0.59939083715E+01  0.51100000000E-03 0.  1.
         12    1    3    3    0    0 -0.17316682586E+02  0.17797058959E+02 -0.88316286279E+01  0.26355274000E+02  0.00000000000E+00 0. -1.
</event>
<event>
 7    1  0.6073302E-013  0.5052885E+02  0.7816164E-02  0.1300439E+00
        -11   -1    0    0    0    0  0.00000000000E+00  0.00000000000E+00  0.45593999997E+02  0.45594000000E+02  0.51100000000E-03 0.  1.
         11   -1    0    0    0    0 -0.00000000000E+00 -0.00000000000E+00 -0.45593999997E+02  0.45594000000E+02  0.51100000000E-03 0. -1.
    9900012    2    1    2    0    0  0.16223860548E+02 -0.20484306081E+02  0.31150381107E+02  0.50528847404E+02  0.29999962168E+02 0.  0.
         12    1    1    2    0    0 -0.16223860548E+02  0.20484306081E+02 -0.31150381107E+02  0.40659152596E+02  0.00000000000E+00 0. -1.
         11    1    3    3    0    0 -0.61004041326E+01 -0.46791078767E+01  0.85436626089E+01  0.11493613537E+02  0.51100000000E-03 0. -1.
        -11    1    3    3    0    0  0.21828068198E+02 -0.69084163623E+01  0.15696674220E+02  0.27759257190E+02  0.51100000000E-03 0.  1.
         12    1    3    3    0    0  0.49619648343E+00 -0.88967818423E+01  0.69100442778E+01  0.11275976677E+02  0.00000000000E+00 0. -1.
</event>
<event>
 7    1  0.6073302E-013  0.5052886E+02  0.7816164E-02  0.1300439E+00
        -11   -1    0    0    0    0  0.00000000000E+00  0.00000000000E+00  0.45593999997E+02  0.45594000000E+02  0.51100000000E-03 0. -1.
         11   -1    0    0    0    0 -0.00000000000E+00 -0.00000000000E+00 -0.45593999997E+02  0.45594000000E+02  0.51100000000E-03 0.  1.
    9900012    2    1    2    0    0 -0.39741484858E+02  0.31968601363E+01 -0.79724701442E+01  0.50528858178E+02  0.29999994919E+02 0.  0.
         12    1    1    2    0    0  0.39741484858E+02 -0.31968601363E+01  0.79724701442E+01  0.40659141822E+02  0.00000000000E+00 0. -1.
         11    1    3    3    0    0 -0.38026882234E+00  0.41669686920E+01  0.13704707018E+01  0.44030015515E+01  0.51100000000E-03 0. -1.
        -11    1    3    3    0    0 -0.35942048202E+02 -0.78705049816E+01 -0.45967440065E+01  0.37079721322E+02  0.51100000000E-03 0.  1.
        -12    1    3    3    0    0 -0.34191678342E+01  0.69003964259E+01 -0.47461968395E+01  0.90461353048E+01  0.00000000000E+00 0.  1.
</event>
<event>
 7    1  0.6073302E-013  0.5052886E+02  0.7816164E-02  0.1300439E+00
        -11   -1    0    0    0    0  0.00000000000E+00  0.00000000000E+00  0.45593999997E+02  0.45594000000E+02  0.51100000000E-03 0.  1.
         11   -1    0    0    0    0 -0.00000000000E+00 -0.00000000000E+00 -0.45593999997E+02  0.45594000000E+02  0.51100000000E-03 0. -1.
    9900012    2    1    2    0    0  0.18871712719E+02 -0.62312868007E+01  0.35471047835E+02  0.50528859445E+02  0.29999998768E+02 0.  0.
         12    1    1    2    0    0 -0.18871712719E+02  0.62312868007E+01 -0.35471047835E+02  0.40659140555E+02  0.00000000000E+00 0. -1.
         11    1    3    3    0    0 -0.81195396652E+00 -0.11563046428E+00  0.55514892706E+01  0.56117442057E+01  0.51100000000E-03 0. -1.
        -11    1    3    3    0    0  0.17378033435E+02 -0.13571639103E+02  0.11404260938E+02  0.24824234163E+02  0.51100000000E-03 0.  1.
        -12    1    3    3    0    0  0.23056332512E+01  0.74559827666E+01  0.18515297627E+02  0.20092881076E+02  0.00000000000E+00 0.  1.
</event>
<event>
 7    1  0.6073302E-013  0.5052886E+02  0.7816164E-02  0.1300439E+00
        -11   -1    0    0    0    0  0.00000000000E+00  0.00000000000E+00  0.45593999997E+02  0.45594000000E+02  0.51100000000E-03 0.  1.
         11   -1    0    0    0    0 -0.00000000000E+00 -0.00000000000E+00 -0.45593999997E+02  0.45594000000E+02  0.51100000000E-03 0. -1.
    9900012    2    1    2    0    0 -0.36435973077E+02  0.25927925600E+01  0.17856735840E+02  0.50528859304E+02  0.29999998339E+02 0.  0.
         12    1    1    2    0    0  0.36435973077E+02 -0.25927925600E+01 -0.17856735840E+02  0.40659140696E+02  0.00000000000E+00 0. -1.
         11    1    3    3    0    0 -0.78019191315E+01 -0.11827403691E+02  0.80585807722E+01  0.16300249830E+02  0.51100000000E-03 0. -1.
        -11    1    3    3    0    0 -0.89458488559E+01  0.17424081894E+01  0.82453579970E+00  0.91511779350E+01  0.51100000000E-03 0.  1.
         12    1    3    3    0    0 -0.19688205089E+02  0.12677788062E+02  0.89736192685E+01  0.25077431538E+02  0.00000000000E+00 0. -1.
</event>
<event>
 7    1  0.6073302E-013  0.5052886E+02  0.7816164E-02  0.1300439E+00
        -11   -1    0    0    0    0  0.00000000000E+00  0.00000000000E+00  0.45593999997E+02  0.45594000000E+02  0.51100000000E-03 0. -1.
         11   -1    0    0    0    0 -0.00000000000E+00 -0.00000000000E+00 -0.45593999997E+02  0.45594000000E+02  0.51100000000E-03 0.  1.
    9900012    2    1    2    0    0 -0.14357161424E+02  0.24798798200E+02 -0.28845405335E+02  0.50528857298E+02  0.29999992243E+02 0.  0.
         12    1    1    2    0    0  0.14357161424E+02 -0.24798798200E+02  0.28845405335E+02  0.40659142702E+02  0.00000000000E+00 0. -1.
         11    1    3    3    0    0 -0.21051152029E+01  0.35806937121E+01 -0.11863820280E+02  0.12569928773E+02  0.51100000000E-03 0. -1.
        -11    1    3    3    0    0 -0.47447462766E+01 -0.16217626472E+01  0.37110880528E+01  0.62381813143E+01  0.51100000000E-03 0.  1.
        -12    1    3    3    0    0 -0.75072999444E+01  0.22839867135E+02 -0.20692673109E+02  0.31720747210E+02  0.00000000000E+00 0.  1.
</event>
<event>
 7    1  0.6073302E-013  0.5052888E+02  0.7816164E-02  0.1300439E+00
        -11   -1    0    0    0    0  0.00000000000E+00  0.00000000000E+00  0.45593999997E+02  0.45594000000E+02  0.51100000000E-03 0. -1.
         11   -1    0    0    0    0 -0.00000000000E+00 -0.00000000000E+00 -0.45593999997E+02  0.45594000000E+02  0.51100000000E-03 0.  1.
    9900012    2    1    2    0    0 -0.83113117079E+01  0.13440977498E+02 -0.37462331029E+02  0.50528880180E+02  0.30000061795E+02 0.  0.
         12    1    1    2    0    0  0.83113117079E+01 -0.13440977498E+02  0.37462331029E+02  0.40659119820E+02  0.00000000000E+00 0. -1.
         11    1    3    3    0    0 -0.71281612957E+01 -0.40183575748E+01 -0.48457757663E+00  0.81971151478E+01  0.51100000000E-03 0. -1.
        -11    1    3    3    0    0  0.33104817405E+01  0.10573790698E+02 -0.28229895897E+02  0.30326413598E+02  0.51100000000E-03 0.  1.
        -12    1    3    3    0    0 -0.44936321526E+01  0.68855443743E+01 -0.87478575557E+01  0.12005351435E+02  0.00000000000E+00 0.  1.
</event>
<event>
 7    1  0.6073302E-013  0.5052889E+02  0.7816164E-02  0.1300439E+00
        -11   -1    0    0    0    0  0.00000000000E+00  0.00000000000E+00  0.45593999997E+02  0.45594000000E+02  0.51100000000E-03 0.  1.
         11   -1    0    0    0    0 -0.00000000000E+00 -0.00000000000E+00 -0.45593999997E+02  0.45594000000E+02  0.51100000000E-03 0. -1.
    9900012    2    1    2    0    0  0.14899292903E+02  0.23783487834E+02  0.29419722220E+02  0.50528889359E+02  0.30000089696E+02 0.  0.
         12    1    1    2    0    0 -0.14899292903E+02 -0.23783487834E+02 -0.29419722220E+02  0.40659110641E+02  0.00000000000E+00 0. -1.
         11    1    3    3    0    0  0.65645475570E+00  0.13411939111E+02  0.26662518659E+02  0.29852988880E+02  0.51100000000E-03 0. -1.
        -11    1    3    3    0    0  0.92640335348E+01  0.53307659409E+01  0.66536500926E+01  0.12590093036E+02  0.51100000000E-03 0.  1.
         12    1    3    3    0    0  0.49788046129E+01  0.50407827826E+01 -0.38964465313E+01  0.80858074431E+01  0.00000000000E+00 0. -1.
</event>
<event>
 7    1  0.6073302E-013  0.5052886E+02  0.7816164E-02  0.1300439E+00
        -11   -1    0    0    0    0  0.00000000000E+00  0.00000000000E+00  0.45593999997E+02  0.45594000000E+02  0.51100000000E-03 0.  1.
         11   -1    0    0    0    0 -0.00000000000E+00 -0.00000000000E+00 -0.45593999997E+02  0.45594000000E+02  0.51100000000E-03 0. -1.
    9900012    2    1    2    0    0 -0.21395154656E+02  0.11276161606E+01  0.34556357167E+02  0.50528856113E+02  0.29999988641E+02 0.  0.
         12    1    1    2    0    0  0.21395154656E+02 -0.11276161606E+01 -0.34556357167E+02  0.40659143887E+02  0.00000000000E+00 0. -1.
         11    1    3    3    0    0 -0.29814813527E+01  0.10956760828E+02  0.13647127805E+02  0.17753420416E+02  0.51100000000E-03 0. -1.
        -11    1    3    3    0    0 -0.96000480586E+01 -0.69280016051E+01  0.20270712755E+02  0.23474665596E+02  0.51100000000E-03 0.  1.
         12    1    3    3    0    0 -0.88136252443E+01 -0.29011430622E+01  0.63851660735E+00  0.93007701010E+01  0.00000000000E+00 0. -1.
</event>
<event>
 7    1  0.6073302E-013  0.5052886E+02  0.7816164E-02  0.1300439E+00
        -11   -1    0    0    0    0  0.00000000000E+00  0.00000000000E+00  0.45593999997E+02  0.45594000000E+02  0.51100000000E-03 0.  1.
         11   -1    0    0    0    0 -0.00000000000E+00 -0.00000000000E+00 -0.45593999997E+02  0.45594000000E+02  0.51100000000E-03 0. -1.
    9900012    2    1    2    0    0  0.19086087398E+02 -0.32731718402E+02  0.14748621879E+02  0.50528856268E+02  0.29999989111E+02 0.  0.
         12    1    1    2    0    0 -0.19086087398E+02  0.32731718402E+02 -0.14748621879E+02  0.40659143732E+02  0.00000000000E+00 0. -1.
         11    1    3    3    0    0  0.14215132507E+01  0.23193439410E+01  0.39326488701E+01  0.47818180262E+01  0.51100000000E-03 0. -1.
        -11    1    3    3    0    0  0.17012402892E+02 -0.13780885575E+02  0.39438619347E-01  0.21893748310E+02  0.51100000000E-03 0.  1.
        -12    1    3    3    0    0  0.65217125498E+00 -0.21270176769E+02  0.10776534390E+02  0.23853289932E+02  0.00000000000E+00 0.  1.
</event>
<event>
 7    1  0.6073302E-013  0.5052886E+02  0.7816164E-02  0.1300439E+00
        -11   -1    0    0    0    0  0.00000000000E+00  0.00000000000E+00  0.45593999997E+02  0.45594000000E+02  0.51100000000E-03 0.  1.
         11   -1    0    0    0    0 -0.00000000000E+00 -0.00000000000E+00 -0.45593999997E+02  0.45594000000E+02  0.51100000000E-03 0. -1.
    9900012    2    1    2    0    0  0.10342299670E+02 -0.21710863768E+02  0.32784770724E+02  0.50528856386E+02  0.29999989471E+02 0.  0.
         12    1    1    2    0    0 -0.10342299670E+02  0.21710863768E+02 -0.32784770724E+02  0.40659143614E+02  0.00000000000E+00 0. -1.
         11    1    3    3    0    0 -0.16790484659E+01  0.58912921825E-01  0.19711841354E+01  0.25900273435E+01  0.51100000000E-03 0. -1.
        -11    1    3    3    0    0  0.19137256490E+02 -0.22504313591E+02  0.25548697328E+02  0.39056557088E+02  0.51100000000E-03 0.  1.
        -12    1    3    3    0    0 -0.71159083531E+01  0.73453690140E+00  0.52648892605E+01  0.88822719546E+01  0.00000000000E+00 0.  1.
</event>
<event>
 7    1  0.6073302E-013  0.5052885E+02  0.7816164E-02  0.1300439E+00
        -11   -1    0    0    0    0  0.00000000000E+00  0.00000000000E+00  0.45593999997E+02  0.45594000000E+02  0.51100000000E-03 0.  1.
         11   -1    0    0    0    0 -0.00000000000E+00 -0.00000000000E+00 -0.45593999997E+02  0.45594000000E+02  0.51100000000E-03 0. -1.
    9900012    2    1    2    0    0  0.31204173174E+02 -0.15277030049E+02  0.21120558772E+02  0.50528854984E+02  0.29999985209E+02 0.  0.
         12    1    1    2    0    0 -0.31204173174E+02  0.15277030049E+02 -0.21120558772E+02  0.40659145016E+02  0.00000000000E+00 0. -1.
         11    1    3    3    0    0  0.93213656673E+01  0.27702162063E+01 -0.31260817004E+01  0.10214418378E+02  0.51100000000E-03 0. -1.
        -11    1    3    3    0    0  0.11217822268E+02 -0.18383071758E+02  0.16436243307E+02  0.27091086320E+02  0.51100000000E-03 0.  1.
        -12    1    3    3    0    0  0.10664985239E+02  0.33582550260E+00  0.78103971654E+01  0.13223350286E+02  0.00000000000E+00 0.  1.
</event>
<event>
 7    1  0.6073302E-013  0.5052886E+02  0.7816164E-02  0.1300439E+00
        -11   -1    0    0    0    0  0.00000000000E+00  0.00000000000E+00  0.45593999997E+02  0.45594000000E+02  0.51100000000E-03 0. -1.
         11   -1    0    0    0    0 -0.00000000000E+00 -0.00000000000E+00 -0.45593999997E+02  0.45594000000E+02  0.51100000000E-03 0.  1.
    9900012    2    1    2    0    0  0.23809868368E+02 -0.32919934597E+02  0.15917824453E+01  0.50528859614E+02  0.29999999283E+02 0.  0.
         12    1    1    2    0    0 -0.23809868368E+02  0.32919934597E+02 -0.15917824453E+01  0.40659140386E+02  0.00000000000E+00 0. -1.
         11    1    3    3    0    0  0.16189041446E+02 -0.63861039831E+01 -0.49316576377E+00  0.17410071791E+02  0.51100000000E-03 0.  1.
        -11    1    3    3    0    0 -0.56323269061E+01 -0.12709638114E+02  0.78382671892E+00  0.13923806661E+02  0.51100000000E-03 0. -1.
         12    1    3    3    0    0  0.13253153828E+02 -0.13824192500E+02  0.13011214902E+01  0.19194981162E+02  0.00000000000E+00 0. -1.
</event>
<event>
 7    1  0.6073302E-013  0.5052888E+02  0.7816164E-02  0.1300439E+00
        -11   -1    0    0    0    0  0.00000000000E+00  0.00000000000E+00  0.45593999997E+02  0.45594000000E+02  0.51100000000E-03 0.  1.
         11   -1    0    0    0    0 -0.00000000000E+00 -0.00000000000E+00 -0.45593999997E+02  0.45594000000E+02  0.51100000000E-03 0. -1.
    9900012    2    1    2    0    0 -0.14328322402E+02  0.35626202342E+02 -0.13365505288E+02  0.50528882353E+02  0.30000068402E+02 0.  0.
         12    1    1    2    0    0  0.14328322402E+02 -0.35626202342E+02  0.13365505288E+02  0.40659117647E+02  0.00000000000E+00 0. -1.
         11    1    3    3    0    0  0.27303550921E+01 -0.21076944487E+01 -0.12098013974E+01  0.36552475293E+01  0.51100000000E-03 0. -1.
        -11    1    3    3    0    0 -0.88087854744E+01  0.35312967647E+02 -0.77430061332E+01  0.37209602656E+02  0.51100000000E-03 0.  1.
         12    1    3    3    0    0 -0.82498920193E+01  0.24209291442E+01 -0.44126977575E+01  0.96640321684E+01  0.00000000000E+00 0. -1.
</event>
<event>
 7    1  0.6073302E-013  0.5052884E+02  0.7816164E-02  0.1300439E+00
        -11   -1    0    0    0    0  0.00000000000E+00  0.00000000000E+00  0.45593999997E+02  0.45594000000E+02  0.51100000000E-03 0. -1.
         11   -1    0    0    0    0 -0.00000000000E+00 -0.00000000000E+00 -0.45593999997E+02  0.45594000000E+02  0.51100000000E-03 0.  1.
    9900012    2    1    2    0    0 -0.32792423919E+02  0.21730119259E+02 -0.10277438701E+02  0.50528844872E+02  0.29999954474E+02 0.  0.
         12    1    1    2    0    0  0.32792423919E+02 -0.21730119259E+02  0.10277438701E+02  0.40659155128E+02  0.00000000000E+00 0. -1.
         11    1    3    3    0    0 -0.31492024058E+01 -0.14361819042E+01  0.66163020488E+01  0.74669637281E+01  0.51100000000E-03 0. -1.
        -11    1    3    3    0    0 -0.22018018825E+02  0.20394546639E+02 -0.80767049617E+01  0.31079958959E+02  0.51100000000E-03 0.  1.
         12    1    3    3    0    0 -0.76252026874E+01  0.27717545240E+01 -0.88170357878E+01  0.11981922185E+02  0.00000000000E+00 0. -1.
</event>
<event>
 7    1  0.6073302E-013  0.5052886E+02  0.7816164E-02  0.1300439E+00
        -11   -1    0    0    0    0  0.00000000000E+00  0.00000000000E+00  0.45593999997E+02  0.45594000000E+02  0.51100000000E-03 0.  1.
         11   -1    0    0    0    0 -0.00000000000E+00 -0.00000000000E+00 -0.45593999997E+02  0.45594000000E+02  0.51100000000E-03 0. -1.
    9900012    2    1    2    0    0  0.25474990465E+02  0.97930838662E+01  0.30137779091E+02  0.50528863765E+02  0.30000011901E+02 0.  0.
         12    1    1    2    0    0 -0.25474990465E+02 -0.97930838662E+01 -0.30137779091E+02  0.40659136235E+02  0.00000000000E+00 0. -1.
         11    1    3    3    0    0  0.79356606126E+01 -0.39545695491E+01  0.47171293494E+01  0.10043138914E+02  0.51100000000E-03 0. -1.
        -11    1    3    3    0    0  0.21435814141E+01  0.15140728930E+02  0.82264125839E+01  0.17364057075E+02  0.51100000000E-03 0.  1.
        -12    1    3    3    0    0  0.15395748438E+02 -0.13930755151E+01  0.17194237158E+02  0.23121667777E+02  0.00000000000E+00 0.  1.
</event>
<event>
 7    1  0.6073302E-013  0.5052886E+02  0.7816164E-02  0.1300439E+00
        -11   -1    0    0    0    0  0.00000000000E+00  0.00000000000E+00  0.45593999997E+02  0.45594000000E+02  0.51100000000E-03 0.  1.
         11   -1    0    0    0    0 -0.00000000000E+00 -0.00000000000E+00 -0.45593999997E+02  0.45594000000E+02  0.51100000000E-03 0. -1.
    9900012    2    1    2    0    0 -0.39619519631E+02 -0.90867237083E+01  0.94370824712E+00  0.50528862420E+02  0.30000007811E+02 0.  0.
         12    1    1    2    0    0  0.39619519631E+02  0.90867237083E+01 -0.94370824712E+00  0.40659137580E+02  0.00000000000E+00 0. -1.
         11    1    3    3    0    0 -0.12055849082E+02  0.78635995956E+01  0.84879242219E+01  0.16710013571E+02  0.51100000000E-03 0. -1.
        -11    1    3    3    0    0 -0.14352131091E+02 -0.51715315006E+01 -0.39349793434E+01  0.15754760157E+02  0.51100000000E-03 0.  1.
         12    1    3    3    0    0 -0.13211539458E+02 -0.11778791803E+02 -0.36092366314E+01  0.18064088692E+02  0.00000000000E+00 0. -1.
</event>
<event>
 7    1  0.6073302E-013  0.5052886E+02  0.7816164E-02  0.1300439E+00
        -11   -1    0    0    0    0  0.00000000000E+00  0.00000000000E+00  0.45593999997E+02  0.45594000000E+02  0.51100000000E-03 0.  1.
         11   -1    0    0    0    0 -0.00000000000E+00 -0.00000000000E+00 -0.45593999997E+02  0.45594000000E+02  0.51100000000E-03 0. -1.
    9900012    2    1    2    0    0  0.13284819682E+02 -0.22414937852E+02  0.31212970897E+02  0.50528862957E+02  0.30000009443E+02 0.  0.
         12    1    1    2    0    0 -0.13284819682E+02  0.22414937852E+02 -0.31212970897E+02  0.40659137043E+02  0.00000000000E+00 0. -1.
         11    1    3    3    0    0  0.22455535059E+02 -0.18853427476E+02  0.21524409464E+02  0.36373107997E+02  0.51100000000E-03 0. -1.
        -11    1    3    3    0    0 -0.56945450990E+01 -0.90261471386E+00  0.41858861746E+01  0.71249000368E+01  0.51100000000E-03 0.  1.
         12    1    3    3    0    0 -0.34761702777E+01 -0.26588956629E+01  0.55026752585E+01  0.70308549229E+01  0.00000000000E+00 0. -1.
</event>
<event>
 7    1  0.6073302E-013  0.5052885E+02  0.7816164E-02  0.1300439E+00
        -11   -1    0    0    0    0  0.00000000000E+00  0.00000000000E+00  0.45593999997E+02  0.45594000000E+02  0.51100000000E-03 0.  1.
         11   -1    0    0    0    0 -0.00000000000E+00 -0.00000000000E+00 -0.45593999997E+02  0.45594000000E+02  0.51100000000E-03 0. -1.
    9900012    2    1    2    0    0 -0.28578012364E+02  0.54999703867E+01  0.28393904354E+02  0.50528852574E+02  0.29999977883E+02 0.  0.
         12    1    1    2    0    0  0.28578012364E+02 -0.54999703867E+01 -0.28393904354E+02  0.40659147426E+02  0.00000000000E+00 0. -1.
         11    1    3    3    0    0 -0.14594424917E+02  0.55247879112E+00  0.86321447041E+01  0.16965152340E+02  0.51100000000E-03 0. -1.
        -11    1    3    3    0    0  0.22736391477E+01  0.96938001526E+00 -0.38781078774E+01  0.45987882705E+01  0.51100000000E-03 0.  1.
        -12    1    3    3    0    0 -0.16257226595E+02  0.39781115803E+01  0.23639867528E+02  0.28964911963E+02  0.00000000000E+00 0.  1.
</event>
<event>
 7    1  0.6073302E-013  0.5052887E+02  0.7816164E-02  0.1300439E+00
        -11   -1    0    0    0    0  0.00000000000E+00  0.00000000000E+00  0.45593999997E+02  0.45594000000E+02  0.51100000000E-03 0.  1.
         11   -1    0    0    0    0 -0.00000000000E+00 -0.00000000000E+00 -0.45593999997E+02  0.45594000000E+02  0.51100000000E-03 0. -1.
    9900012    2    1    2    0    0 -0.30802318543E+02 -0.52932517066E+01  0.26006994813E+02  0.50528866703E+02  0.30000020830E+02 0.  0.
         12    1    1    2    0    0  0.30802318543E+02  0.52932517066E+01 -0.26006994813E+02  0.40659133297E+02  0.00000000000E+00 0. -1.
         11    1    3    3    0    0 -0.17060033086E+02 -0.34891171561E+01 -0.12899035818E+01  0.17460885400E+02  0.51100000000E-03 0. -1.
        -11    1    3    3    0    0  0.14225579847E+01 -0.75691111104E+00  0.96198787417E+01  0.97539044960E+01  0.51100000000E-03 0.  1.
         12    1    3    3    0    0 -0.15164843442E+02 -0.10472234394E+01  0.17677019653E+02  0.23314076807E+02  0.00000000000E+00 0. -1.
</event>
<event>
 7    1  0.6073302E-013  0.5052887E+02  0.7816164E-02  0.1300439E+00
        -11   -1    0    0    0    0  0.00000000000E+00  0.00000000000E+00  0.45593999997E+02  0.45594000000E+02  0.51100000000E-03 0. -1.
         11   -1    0    0    0    0 -0.00000000000E+00 -0.00000000000E+00 -0.45593999997E+02  0.45594000000E+02  0.51100000000E-03 0.  1.
    9900012    2    1    2    0    0 -0.25311276259E+02  0.11777855258E+02 -0.29559882192E+02  0.50528865534E+02  0.30000017277E+02 0.  0.
         12    1    1    2    0    0  0.25311276259E+02 -0.11777855258E+02  0.29559882192E+02  0.40659134466E+02  0.00000000000E+00 0. -1.
         11    1    3    3    0    0 -0.13828042492E+02  0.31804754556E+01 -0.66482257543E+01  0.15669367863E+02  0.51100000000E-03 0. -1.
        -11    1    3    3    0    0 -0.58561128155E+01  0.93579081904E+01 -0.26106203551E+02  0.28344282794E+02  0.51100000000E-03 0.  1.
        -12    1    3    3    0    0 -0.56271209516E+01 -0.76052838817E+00  0.31945471136E+01  0.65152148771E+01  0.00000000000E+00 0.  1.
</event>
<event>
 7    1  0.6073302E-013  0.5052886E+02  0.7816164E-02  0.1300439E+00
        -11   -1    0    0    0    0  0.00000000000E+00  0.00000000000E+00  0.45593999997E+02  0.45594000000E+02  0.51100000000E-03 0. -1.
         11   -1    0    0    0    0 -0.00000000000E+00 -0.00000000000E+00 -0.45593999997E+02  0.45594000000E+02  0.51100000000E-03 0.  1.
    9900012    2    1    2    0    0  0.77483472074E+01 -0.32051034735E+02 -0.23787809677E+02  0.50528860790E+02  0.30000002858E+02 0.  0.
         12    1    1    2    0    0 -0.77483472074E+01  0.32051034735E+02  0.23787809677E+02  0.40659139210E+02  0.00000000000E+00 0. -1.
         11    1    3    3    0    0  0.13546424099E+00  0.15502067487E+01 -0.55440607109E+01  0.57583071255E+01  0.51100000000E-03 0. -1.
        -11    1    3    3    0    0  0.13112119842E+02 -0.32273976991E+02 -0.13403973622E+02  0.37325645161E+02  0.51100000000E-03 0.  1.
        -12    1    3    3    0    0 -0.54992368754E+01 -0.13272644927E+01 -0.48397753439E+01  0.74449085034E+01  0.00000000000E+00 0.  1.
</event>
<event>
 7    1  0.6073302E-013  0.5052885E+02  0.7816164E-02  0.1300439E+00
        -11   -1    0    0    0    0  0.00000000000E+00  0.00000000000E+00  0.45593999997E+02  0.45594000000E+02  0.51100000000E-03 0. -1.
         11   -1    0    0    0    0 -0.00000000000E+00 -0.00000000000E+00 -0.45593999997E+02  0.45594000000E+02  0.51100000000E-03 0.  1.
    9900012    2    1    2    0    0  0.25321802151E+02 -0.28516631829E+02  0.14098728972E+02  0.50528854489E+02  0.29999983706E+02 0.  0.
         12    1    1    2    0    0 -0.25321802151E+02  0.28516631829E+02 -0.14098728972E+02  0.40659145511E+02  0.00000000000E+00 0. -1.
         11    1    3    3    0    0  0.17266576006E+02 -0.11302969562E+02  0.18247987160E+02  0.27547791264E+02  0.51100000000E-03 0. -1.
        -11    1    3    3    0    0  0.86286604310E+01 -0.15879538623E+02  0.53145885993E+00  0.18080264835E+02  0.51100000000E-03 0.  1.
         12    1    3    3    0    0 -0.57343428600E+00 -0.13341236440E+01 -0.46807170479E+01  0.49007983901E+01  0.00000000000E+00 0. -1.
</event>
<event>
 7    1  0.6073302E-013  0.5052885E+02  0.7816164E-02  0.1300439E+00
        -11   -1    0    0    0    0  0.00000000000E+00  0.00000000000E+00  0.45593999997E+02  0.45594000000E+02  0.51100000000E-03 0. -1.
         11   -1    0    0    0    0 -0.00000000000E+00 -0.00000000000E+00 -0.45593999997E+02  0.45594000000E+02  0.51100000000E-03 0.  1.
    9900012    2    1    2    0    0 -0.10676987221E+02  0.26707031861E+02 -0.28738525154E+02  0.50528850538E+02  0.29999971696E+02 0.  0.
         12    1    1    2    0    0  0.10676987221E+02 -0.26707031861E+02  0.28738525154E+02  0.40659149462E+02  0.00000000000E+00 0. -1.
         11    1    3    3    0    0 -0.82211083478E+01  0.19808039744E+02 -0.22961051389E+01  0.21568893343E+02  0.51100000000E-03 0. -1.
        -11    1    3    3    0    0  0.83642970074E-01  0.57895853279E+01 -0.25313977506E+02  0.25967744450E+02  0.51100000000E-03 0.  1.
         12    1    3    3    0    0 -0.25395218429E+01  0.11094067893E+01 -0.11284425093E+01  0.29922127450E+01  0.00000000000E+00 0. -1.
</event>
<event>
 7    1  0.6073302E-013  0.5052886E+02  0.7816164E-02  0.1300439E+00
        -11   -1    0    0    0    0  0.00000000000E+00  0.00000000000E+00  0.45593999997E+02  0.45594000000E+02  0.51100000000E-03 0. -1.
         11   -1    0    0    0    0 -0.00000000000E+00 -0.00000000000E+00 -0.45593999997E+02  0.45594000000E+02  0.51100000000E-03 0.  1.
    9900012    2    1    2    0    0 -0.86591969071E+01 -0.35333856645E+02 -0.18157711181E+02  0.50528860907E+02  0.30000003212E+02 0.  0.
         12    1    1    2    0    0  0.86591969071E+01  0.35333856645E+02  0.18157711181E+02  0.40659139093E+02  0.00000000000E+00 0. -1.
         11    1    3    3    0    0  0.93133618933E+01 -0.10924655106E+02 -0.37805099748E+01  0.14845169412E+02  0.51100000000E-03 0. -1.
        -11    1    3    3    0    0 -0.32161255253E+01 -0.12369226111E+02 -0.19138265128E+01  0.12923000819E+02  0.51100000000E-03 0.  1.
         12    1    3    3    0    0 -0.14756433275E+02 -0.12039975428E+02 -0.12463374693E+02  0.22760690676E+02  0.00000000000E+00 0. -1.
</event>
<event>
 7    1  0.6073302E-013  0.5052886E+02  0.7816164E-02  0.1300439E+00
        -11   -1    0    0    0    0  0.00000000000E+00  0.00000000000E+00  0.45593999997E+02  0.45594000000E+02  0.51100000000E-03 0.  1.
         11   -1    0    0    0    0 -0.00000000000E+00 -0.00000000000E+00 -0.45593999997E+02  0.45594000000E+02  0.51100000000E-03 0. -1.
    9900012    2    1    2    0    0  0.23710949580E+02 -0.25168024473E+02  0.21389885916E+02  0.50528858280E+02  0.29999995228E+02 0.  0.
         12    1    1    2    0    0 -0.23710949580E+02  0.25168024473E+02 -0.21389885916E+02  0.40659141720E+02  0.00000000000E+00 0. -1.
         11    1    3    3    0    0  0.14357251606E+01 -0.84983734731E+01  0.68170911552E+00  0.86457148926E+01  0.51100000000E-03 0. -1.
        -11    1    3    3    0    0  0.10126961441E+02  0.30591821412E+01  0.14404423018E+02  0.17871803103E+02  0.51100000000E-03 0.  1.
        -12    1    3    3    0    0  0.12148262979E+02 -0.19728833141E+02  0.63037537828E+01  0.24011340285E+02  0.00000000000E+00 0.  1.
</event>
<event>
 7    1  0.6073302E-013  0.5052896E+02  0.7816164E-02  0.1300438E+00
        -11   -1    0    0    0    0  0.00000000000E+00  0.00000000000E+00  0.45593999997E+02  0.45594000000E+02  0.51100000000E-03 0. -1.
         11   -1    0    0    0    0 -0.00000000000E+00 -0.00000000000E+00 -0.45593999997E+02  0.45594000000E+02  0.51100000000E-03 0.  1.
    9900012    2    1    2    0    0  0.15082306731E+02  0.37642366188E+02  0.29552396507E+01  0.50528964719E+02  0.30000318759E+02 0.  0.
         12    1    1    2    0    0 -0.15082306731E+02 -0.37642366188E+02 -0.29552396507E+01  0.40659035281E+02  0.00000000000E+00 0. -1.
         11    1    3    3    0    0 -0.57043334546E+01  0.30619626540E+01 -0.11514562150E+01  0.65757803440E+01  0.51100000000E-03 0. -1.
        -11    1    3    3    0    0  0.20500739716E+02  0.19627044875E+02  0.55800435895E+01  0.28924697166E+02  0.51100000000E-03 0.  1.
        -12    1    3    3    0    0  0.28590046946E+00  0.14953358660E+02 -0.14733477238E+01  0.15028487209E+02  0.00000000000E+00 0.  1.
</event>
<event>
 7    1  0.6073302E-013  0.5052886E+02  0.7816164E-02  0.1300439E+00
        -11   -1    0    0    0    0  0.00000000000E+00  0.00000000000E+00  0.45593999997E+02  0.45594000000E+02  0.51100000000E-03 0. -1.
         11   -1    0    0    0    0 -0.00000000000E+00 -0.00000000000E+00 -0.45593999997E+02  0.45594000000E+02  0.51100000000E-03 0.  1.
    9900012    2    1    2    0    0  0.96205926900E+01  0.39503450625E+02  0.29580542423E+00  0.50528856922E+02  0.29999991102E+02 0.  0.
         12    1    1    2    0    0 -0.96205926900E+01 -0.39503450625E+02 -0.29580542423E+00  0.40659143078E+02  0.00000000000E+00 0. -1.
         11    1    3    3    0    0 -0.95964822206E+01  0.18052081006E+02  0.50658312496E+01  0.21062591155E+02  0.51100000000E-03 0. -1.
        -11    1    3    3    0    0  0.14026277514E+02  0.16033073951E+02 -0.17377611525E+01  0.21373248123E+02  0.51100000000E-03 0.  1.
         12    1    3    3    0    0  0.51907973964E+01  0.54182956668E+01 -0.30322646729E+01  0.80930176442E+01  0.00000000000E+00 0. -1.
</event>
<event>
 7    1  0.6073302E-013  0.5052886E+02  0.7816164E-02  0.1300439E+00
        -11   -1    0    0    0    0  0.00000000000E+00  0.00000000000E+00  0.45593999997E+02  0.45594000000E+02  0.51100000000E-03 0.  1.
         11   -1    0    0    0    0 -0.00000000000E+00 -0.00000000000E+00 -0.45593999997E+02  0.45594000000E+02  0.51100000000E-03 0. -1.
    9900012    2    1    2    0    0 -0.38333718741E+02  0.87433457918E+01  0.10355957624E+02  0.50528856546E+02  0.29999989957E+02 0.  0.
         12    1    1    2    0    0  0.38333718741E+02 -0.87433457918E+01 -0.10355957624E+02  0.40659143454E+02  0.00000000000E+00 0. -1.
         11    1    3    3    0    0 -0.19905541138E+02  0.18522338932E+02  0.11607255605E+02  0.29564099690E+02  0.51100000000E-03 0.  1.
        -11    1    3    3    0    0 -0.11191067715E+02 -0.50539323227E+01 -0.96020484368E+00  0.12316826788E+02  0.51100000000E-03 0. -1.
        -12    1    3    3    0    0 -0.72371098868E+01 -0.47250608172E+01 -0.29109313803E+00  0.86479300677E+01  0.00000000000E+00 0.  1.
</event>
<event>
 7    1  0.6073302E-013  0.5052886E+02  0.7816164E-02  0.1300439E+00
        -11   -1    0    0    0    0  0.00000000000E+00  0.00000000000E+00  0.45593999997E+02  0.45594000000E+02  0.51100000000E-03 0. -1.
         11   -1    0    0    0    0 -0.00000000000E+00 -0.00000000000E+00 -0.45593999997E+02  0.45594000000E+02  0.51100000000E-03 0.  1.
    9900012    2    1    2    0    0 -0.27358006796E+02 -0.16929019286E+02  0.24861892895E+02  0.50528856525E+02  0.29999989893E+02 0.  0.
         12    1    1    2    0    0  0.27358006796E+02  0.16929019286E+02 -0.24861892895E+02  0.40659143475E+02  0.00000000000E+00 0. -1.
         11    1    3    3    0    0  0.24325595011E+01  0.72126968499E+00  0.12017849118E+02  0.12282763263E+02  0.51100000000E-03 0. -1.
        -11    1    3    3    0    0 -0.68327759108E+01 -0.91607606794E+01  0.55536902273E+01  0.12706291287E+02  0.51100000000E-03 0.  1.
         12    1    3    3    0    0 -0.22957790386E+02 -0.84895282916E+01  0.72903535493E+01  0.25539801975E+02  0.00000000000E+00 0. -1.
</event>
<event>
 7    1  0.6073302E-013  0.5052887E+02  0.7816164E-02  0.1300439E+00
        -11   -1    0    0    0    0  0.00000000000E+00  0.00000000000E+00  0.45593999997E+02  0.45594000000E+02  0.51100000000E-03 0.  1.
         11   -1    0    0    0    0 -0.00000000000E+00 -0.00000000000E+00 -0.45593999997E+02  0.45594000000E+02  0.51100000000E-03 0. -1.
    9900012    2    1    2    0    0 -0.29040307696E+02  0.20741277138E+02  0.19483952378E+02  0.50528874964E+02  0.30000045940E+02 0.  0.
         12    1    1    2    0    0  0.29040307696E+02 -0.20741277138E+02 -0.19483952378E+02  0.40659125036E+02  0.00000000000E+00 0. -1.
         11    1    3    3    0    0 -0.93130231080E+01 -0.58336629918E+01  0.80514626015E+01  0.13623144776E+02  0.51100000000E-03 0. -1.
        -11    1    3    3    0    0 -0.23189970357E+01  0.97697316794E+01 -0.23346330224E+00  0.10043899129E+02  0.51100000000E-03 0.  1.
         12    1    3    3    0    0 -0.17408287553E+02  0.16805208451E+02  0.11665953078E+02  0.26861831059E+02  0.00000000000E+00 0. -1.
</event>
<event>
 7    1  0.6073302E-013  0.5052886E+02  0.7816164E-02  0.1300439E+00
        -11   -1    0    0    0    0  0.00000000000E+00  0.00000000000E+00  0.45593999997E+02  0.45594000000E+02  0.51100000000E-03 0. -1.
         11   -1    0    0    0    0 -0.00000000000E+00 -0.00000000000E+00 -0.45593999997E+02  0.45594000000E+02  0.51100000000E-03 0.  1.
    9900012    2    1    2    0    0 -0.35521003166E+02  0.15449231613E+02 -0.12359010510E+02  0.50528861247E+02  0.30000004247E+02 0.  0.
         12    1    1    2    0    0  0.35521003166E+02 -0.15449231613E+02  0.12359010510E+02  0.40659138753E+02  0.00000000000E+00 0. -1.
         11    1    3    3    0    0 -0.19927379256E+02  0.12254773767E+02  0.66651222239E+00  0.23403507491E+02  0.51100000000E-03 0. -1.
        -11    1    3    3    0    0 -0.17472768328E+02  0.44930307040E+01 -0.15480216398E+02  0.23772296017E+02  0.51100000000E-03 0.  1.
        -12    1    3    3    0    0  0.18791444178E+01 -0.12985728578E+01  0.24546936654E+01  0.33530577390E+01  0.00000000000E+00 0.  1.
</event>
<event>
 7    1  0.6073302E-013  0.5052886E+02  0.7816164E-02  0.1300439E+00
        -11   -1    0    0    0    0  0.00000000000E+00  0.00000000000E+00  0.45593999997E+02  0.45594000000E+02  0.51100000000E-03 0.  1.
         11   -1    0    0    0    0 -0.00000000000E+00 -0.00000000000E+00 -0.45593999997E+02  0.45594000000E+02  0.51100000000E-03 0. -1.
    9900012    2    1    2    0    0  0.29675968575E+01  0.31443892911E+02  0.25605476752E+02  0.50528862378E+02  0.30000007683E+02 0.  0.
         12    1    1    2    0    0 -0.29675968575E+01 -0.31443892911E+02 -0.25605476752E+02  0.40659137622E+02  0.00000000000E+00 0. -1.
         11    1    3    3    0    0  0.25926697404E+01  0.39925596362E+01  0.55617385694E+01  0.73208882662E+01  0.51100000000E-03 0. -1.
        -11    1    3    3    0    0  0.22446590094E+01 -0.35934067680E+01 -0.23861117176E+01  0.48625708899E+01  0.51100000000E-03 0.  1.
        -12    1    3    3    0    0 -0.18697318923E+01  0.31044740042E+02  0.22429849901E+02  0.38345403221E+02  0.00000000000E+00 0.  1.
</event>
<event>
 7    1  0.6073302E-013  0.5052889E+02  0.7816164E-02  0.1300439E+00
        -11   -1    0    0    0    0  0.00000000000E+00  0.00000000000E+00  0.45593999997E+02  0.45594000000E+02  0.51100000000E-03 0.  1.
         11   -1    0    0    0    0 -0.00000000000E+00 -0.00000000000E+00 -0.45593999997E+02  0.45594000000E+02  0.51100000000E-03 0. -1.
    9900012    2    1    2    0    0  0.62968993458E+01  0.28474563881E+02  0.28332161809E+02  0.50528891275E+02  0.30000095518E+02 0.  0.
         12    1    1    2    0    0 -0.62968993458E+01 -0.28474563881E+02 -0.28332161809E+02  0.40659108725E+02  0.00000000000E+00 0. -1.
         11    1    3    3    0    0 -0.13098858854E+00  0.39725743357E+01 -0.52149561993E+01  0.65570018518E+01  0.51100000000E-03 0. -1.
        -11    1    3    3    0    0  0.74584494081E+01  0.21233574926E+02  0.20365442997E+02  0.30352008837E+02  0.51100000000E-03 0.  1.
         12    1    3    3    0    0 -0.10305614738E+01  0.32684146195E+01  0.13181675011E+02  0.13619880586E+02  0.00000000000E+00 0. -1.
</event>
<event>
 7    1  0.6073302E-013  0.5052886E+02  0.7816164E-02  0.1300439E+00
        -11   -1    0    0    0    0  0.00000000000E+00  0.00000000000E+00  0.45593999997E+02  0.45594000000E+02  0.51100000000E-03 0. -1.
         11   -1    0    0    0    0 -0.00000000000E+00 -0.00000000000E+00 -0.45593999997E+02  0.45594000000E+02  0.51100000000E-03 0.  1.
    9900012    2    1    2    0    0  0.27500414233E+01 -0.31714777719E+02  0.25293794924E+02  0.50528856929E+02  0.29999991121E+02 0.  0.
         12    1    1    2    0    0 -0.27500414233E+01  0.31714777719E+02 -0.25293794924E+02  0.40659143071E+02  0.00000000000E+00 0. -1.
         11    1    3    3    0    0 -0.83825871172E+01 -0.34235076651E+01  0.52670795318E+00  0.90700382049E+01  0.51100000000E-03 0. -1.
        -11    1    3    3    0    0  0.11681368703E+02 -0.11674330260E+02  0.14003750695E+02  0.21652930416E+02  0.51100000000E-03 0.  1.
        -12    1    3    3    0    0 -0.54874016294E+00 -0.16616939794E+02  0.10763336277E+02  0.19805888308E+02  0.00000000000E+00 0.  1.
</event>
<event>
 7    1  0.6073302E-013  0.5052885E+02  0.7816164E-02  0.1300439E+00
        -11   -1    0    0    0    0  0.00000000000E+00  0.00000000000E+00  0.45593999997E+02  0.45594000000E+02  0.51100000000E-03 0.  1.
         11   -1    0    0    0    0 -0.00000000000E+00 -0.00000000000E+00 -0.45593999997E+02  0.45594000000E+02  0.51100000000E-03 0. -1.
    9900012    2    1    2    0    0  0.24459599804E+02 -0.19610552574E+02  0.25890544260E+02  0.50528854942E+02  0.29999985081E+02 0.  0.
         12    1    1    2    0    0 -0.24459599804E+02  0.19610552574E+02 -0.25890544260E+02  0.40659145058E+02  0.00000000000E+00 0. -1.
         11    1    3    3    0    0  0.24676007782E+01  0.17515011537E+01 -0.33721490607E+01  0.45308056062E+01  0.51100000000E-03 0. -1.
        -11    1    3    3    0    0  0.16378666689E+02 -0.17461567913E+02  0.30781660249E+02  0.38995867530E+02  0.51100000000E-03 0.  1.
        -12    1    3    3    0    0  0.56133323363E+01 -0.39004858145E+01 -0.15189669282E+01  0.70021818054E+01  0.00000000000E+00 0.  1.
</event>
<event>
 7    1  0.6073302E-013  0.5052887E+02  0.7816164E-02  0.1300439E+00
        -11   -1    0    0    0    0  0.00000000000E+00  0.00000000000E+00  0.45593999997E+02  0.45594000000E+02  0.51100000000E-03 0.  1.
         11   -1    0    0    0    0 -0.00000000000E+00 -0.00000000000E+00 -0.45593999997E+02  0.45594000000E+02  0.51100000000E-03 0. -1.
    9900012    2    1    2    0    0  0.24298024301E+02 -0.30658108860E+02 -0.11083834335E+02  0.50528868094E+02  0.30000025057E+02 0.  0.
         12    1    1    2    0    0 -0.24298024301E+02  0.30658108860E+02  0.11083834335E+02  0.40659131906E+02  0.00000000000E+00 0. -1.
         11    1    3    3    0    0  0.15257922777E+02 -0.10036703307E+02 -0.15742444192E+02  0.24111494564E+02  0.51100000000E-03 0. -1.
        -11    1    3    3    0    0  0.90610656145E+01 -0.21073697928E+02  0.12439580381E+01  0.22972833658E+02  0.51100000000E-03 0.  1.
         12    1    3    3    0    0 -0.20964090555E-01  0.45229237423E+00  0.34146518182E+01  0.34445398713E+01  0.00000000000E+00 0. -1.
</event>
<event>
 7    1  0.6073302E-013  0.5052887E+02  0.7816164E-02  0.1300439E+00
        -11   -1    0    0    0    0  0.00000000000E+00  0.00000000000E+00  0.45593999997E+02  0.45594000000E+02  0.51100000000E-03 0. -1.
         11   -1    0    0    0    0 -0.00000000000E+00 -0.00000000000E+00 -0.45593999997E+02  0.45594000000E+02  0.51100000000E-03 0.  1.
    9900012    2    1    2    0    0  0.28053436170E+02  0.20971698255E+02 -0.20648427554E+02  0.50528868564E+02  0.30000026487E+02 0.  0.
         12    1    1    2    0    0 -0.28053436170E+02 -0.20971698255E+02  0.20648427554E+02  0.40659131436E+02  0.00000000000E+00 0. -1.
         11    1    3    3    0    0  0.15911538233E+02  0.17389502803E+02 -0.24924282219E+02  0.34304397693E+02  0.51100000000E-03 0.  1.
        -11    1    3    3    0    0  0.11794469332E+02 -0.15967631644E+00  0.40043160486E+01  0.12456707054E+02  0.51100000000E-03 0. -1.
        -12    1    3    3    0    0  0.34742860587E+00  0.37418717679E+01  0.27153861630E+00  0.37677638174E+01  0.00000000000E+00 0.  1.
</event>
<event>
 7    1  0.6073302E-013  0.5052886E+02  0.7816164E-02  0.1300439E+00
        -11   -1    0    0    0    0  0.00000000000E+00  0.00000000000E+00  0.45593999997E+02  0.45594000000E+02  0.51100000000E-03 0.  1.
         11   -1    0    0    0    0 -0.00000000000E+00 -0.00000000000E+00 -0.45593999997E+02  0.45594000000E+02  0.51100000000E-03 0. -1.
    9900012    2    1    2    0    0 -0.33873610514E+02 -0.18249034995E+02  0.13142172064E+02  0.50528862601E+02  0.30000008361E+02 0.  0.
         12    1    1    2    0    0  0.33873610514E+02  0.18249034995E+02 -0.13142172064E+02  0.40659137399E+02  0.00000000000E+00 0. -1.
         11    1    3    3    0    0 -0.24114066421E+01 -0.66603102342E+01  0.34248266802E+01  0.78679128401E+01  0.51100000000E-03 0. -1.
        -11    1    3    3    0    0 -0.71489267751E+01  0.30687056935E+01 -0.63478856567E+01  0.10040904404E+02  0.51100000000E-03 0.  1.
        -12    1    3    3    0    0 -0.24313277097E+02 -0.14657430454E+02  0.16065231041E+02  0.32620045357E+02  0.00000000000E+00 0.  1.
</event>
<event>
 7    1  0.6073302E-013  0.5052877E+02  0.7816164E-02  0.1300439E+00
        -11   -1    0    0    0    0  0.00000000000E+00  0.00000000000E+00  0.45593999997E+02  0.45594000000E+02  0.51100000000E-03 0.  1.
         11   -1    0    0    0    0 -0.00000000000E+00 -0.00000000000E+00 -0.45593999997E+02  0.45594000000E+02  0.51100000000E-03 0. -1.
    9900012    2    1    2    0    0  0.31381618540E+02  0.25827503979E+02 -0.11430843303E+01  0.50528774900E+02  0.29999741784E+02 0.  0.
         12    1    1    2    0    0 -0.31381618540E+02 -0.25827503979E+02  0.11430843303E+01  0.40659225100E+02  0.00000000000E+00 0. -1.
         11    1    3    3    0    0  0.26789603825E+02  0.15270681483E+02 -0.11672722335E+01  0.30858371811E+02  0.51100000000E-03 0. -1.
        -11    1    3    3    0    0  0.39843478891E+01  0.14527044147E+02 -0.19600991230E+01  0.15190524303E+02  0.51100000000E-03 0.  1.
         12    1    3    3    0    0  0.60766682620E+00 -0.39702216520E+01  0.19842870262E+01  0.44798787863E+01  0.00000000000E+00 0. -1.
</event>
<event>
 7    1  0.6073302E-013  0.5052883E+02  0.7816164E-02  0.1300439E+00
        -11   -1    0    0    0    0  0.00000000000E+00  0.00000000000E+00  0.45593999997E+02  0.45594000000E+02  0.51100000000E-03 0.  1.
         11   -1    0    0    0    0 -0.00000000000E+00 -0.00000000000E+00 -0.45593999997E+02  0.45594000000E+02  0.51100000000E-03 0. -1.
    9900012    2    1    2    0    0 -0.34041414246E+02 -0.22164365054E+02 -0.17580723137E+01  0.50528833993E+02  0.29999921406E+02 0.  0.
         12    1    1    2    0    0  0.34041414246E+02  0.22164365054E+02  0.17580723137E+01  0.40659166007E+02  0.00000000000E+00 0. -1.
         11    1    3    3    0    0 -0.10133757794E+02 -0.11748972016E+02  0.11607307501E+02  0.19376815480E+02  0.51100000000E-03 0. -1.
        -11    1    3    3    0    0 -0.15715658019E+02 -0.11681070923E+02 -0.73720855370E+01  0.20923120472E+02  0.51100000000E-03 0.  1.
         12    1    3    3    0    0 -0.81919984330E+01  0.12656778857E+01 -0.59932942774E+01  0.10228898041E+02  0.00000000000E+00 0. -1.
</event>
<event>
 7    1  0.6073302E-013  0.5052892E+02  0.7816164E-02  0.1300439E+00
        -11   -1    0    0    0    0  0.00000000000E+00  0.00000000000E+00  0.45593999997E+02  0.45594000000E+02  0.51100000000E-03 0. -1.
         11   -1    0    0    0    0 -0.00000000000E+00 -0.00000000000E+00 -0.45593999997E+02  0.45594000000E+02  0.51100000000E-03 0.  1.
    9900012    2    1    2    0    0  0.13880292754E+02  0.25808343812E+02  0.28185599273E+02  0.50528915608E+02  0.30000169481E+02 0.  0.
         12    1    1    2    0    0 -0.13880292754E+02 -0.25808343812E+02 -0.28185599273E+02  0.40659084392E+02  0.00000000000E+00 0. -1.
         11    1    3    3    0    0 -0.32198890158E+01  0.64637094370E+01 -0.41899407624E+01  0.83488220016E+01  0.51100000000E-03 0. -1.
        -11    1    3    3    0    0  0.19476138311E+01  0.59895328766E+00  0.30356917716E+00  0.20601211572E+01  0.51100000000E-03 0.  1.
         12    1    3    3    0    0  0.15152567939E+02  0.18745681087E+02  0.32071970859E+02  0.40119972449E+02  0.00000000000E+00 0. -1.
</event>
<event>
 7    1  0.6073302E-013  0.5052886E+02  0.7816164E-02  0.1300439E+00
        -11   -1    0    0    0    0  0.00000000000E+00  0.00000000000E+00  0.45593999997E+02  0.45594000000E+02  0.51100000000E-03 0. -1.
         11   -1    0    0    0    0 -0.00000000000E+00 -0.00000000000E+00 -0.45593999997E+02  0.45594000000E+02  0.51100000000E-03 0.  1.
    9900012    2    1    2    0    0 -0.15190537474E+02  0.35959881595E+02 -0.11371033282E+02  0.50528856982E+02  0.29999991282E+02 0.  0.
         12    1    1    2    0    0  0.15190537474E+02 -0.35959881595E+02  0.11371033282E+02  0.40659143018E+02  0.00000000000E+00 0. -1.
         11    1    3    3    0    0 -0.11262163517E+02  0.26215649351E+02 -0.16697783814E+02  0.33059228402E+02  0.51100000000E-03 0. -1.
        -11    1    3    3    0    0 -0.77404297554E+00  0.12454288762E+02  0.40677982534E+01  0.13124611765E+02  0.51100000000E-03 0.  1.
         12    1    3    3    0    0 -0.31543309815E+01 -0.27100565184E+01  0.12589522792E+01  0.43450168141E+01  0.00000000000E+00 0. -1.
</event>
<event>
 7    1  0.6073302E-013  0.5052886E+02  0.7816164E-02  0.1300439E+00
        -11   -1    0    0    0    0  0.00000000000E+00  0.00000000000E+00  0.45593999997E+02  0.45594000000E+02  0.51100000000E-03 0. -1.
         11   -1    0    0    0    0 -0.00000000000E+00 -0.00000000000E+00 -0.45593999997E+02  0.45594000000E+02  0.51100000000E-03 0.  1.
    9900012    2    1    2    0    0 -0.28035267988E+02  0.58699361745E+01  0.28857114280E+02  0.50528862695E+02  0.30000008647E+02 0.  0.
         12    1    1    2    0    0  0.28035267988E+02 -0.58699361745E+01 -0.28857114280E+02  0.40659137305E+02  0.00000000000E+00 0. -1.
         11    1    3    3    0    0 -0.28262055112E+01 -0.34550952303E+01  0.15798075313E+02  0.16416586262E+02  0.51100000000E-03 0. -1.
        -11    1    3    3    0    0 -0.23174915685E+02  0.13914040610E+01  0.83995270730E+01  0.24689365678E+02  0.51100000000E-03 0.  1.
        -12    1    3    3    0    0 -0.20341467919E+01  0.79336273438E+01  0.46595118938E+01  0.94229107547E+01  0.00000000000E+00 0.  1.
</event>
<event>
 7    1  0.6073302E-013  0.5052887E+02  0.7816164E-02  0.1300439E+00
        -11   -1    0    0    0    0  0.00000000000E+00  0.00000000000E+00  0.45593999997E+02  0.45594000000E+02  0.51100000000E-03 0.  1.
         11   -1    0    0    0    0 -0.00000000000E+00 -0.00000000000E+00 -0.45593999997E+02  0.45594000000E+02  0.51100000000E-03 0. -1.
    9900012    2    1    2    0    0 -0.24775207794E+02  0.27427782504E+02  0.16943171397E+02  0.50528865340E+02  0.30000016687E+02 0.  0.
         12    1    1    2    0    0  0.24775207794E+02 -0.27427782504E+02 -0.16943171397E+02  0.40659134660E+02  0.00000000000E+00 0. -1.
         11    1    3    3    0    0  0.38430909504E+00 -0.25135058659E+01 -0.24734573678E+01  0.35473083923E+01  0.51100000000E-03 0. -1.
        -11    1    3    3    0    0 -0.27713413250E+02  0.26194782587E+02  0.16254737729E+02  0.41453786409E+02  0.51100000000E-03 0.  1.
        -12    1    3    3    0    0  0.25538963608E+01  0.37465057825E+01  0.31618910365E+01  0.55277705386E+01  0.00000000000E+00 0.  1.
</event>
<event>
 7    1  0.6073302E-013  0.5052887E+02  0.7816164E-02  0.1300439E+00
        -11   -1    0    0    0    0  0.00000000000E+00  0.00000000000E+00  0.45593999997E+02  0.45594000000E+02  0.51100000000E-03 0.  1.
         11   -1    0    0    0    0 -0.00000000000E+00 -0.00000000000E+00 -0.45593999997E+02  0.45594000000E+02  0.51100000000E-03 0. -1.
    9900012    2    1    2    0    0  0.20862943891E+02 -0.15375572019E+02  0.31328804062E+02  0.50528873022E+02  0.30000040037E+02 0.  0.
         12    1    1    2    0    0 -0.20862943891E+02  0.15375572019E+02 -0.31328804062E+02  0.40659126978E+02  0.00000000000E+00 0. -1.
         11    1    3    3    0    0  0.91967431266E+01 -0.42039840336E+01 -0.36907863953E+01  0.10764546919E+02  0.51100000000E-03 0. -1.
        -11    1    3    3    0    0  0.41771597453E+01 -0.15383302222E+01  0.19609405023E+02  0.20108303981E+02  0.51100000000E-03 0.  1.
        -12    1    3    3    0    0  0.74890410196E+01 -0.96332577627E+01  0.15410185434E+02  0.19656022121E+02  0.00000000000E+00 0.  1.
</event>
<event>
 7    1  0.6073302E-013  0.5052886E+02  0.7816164E-02  0.1300439E+00
        -11   -1    0    0    0    0  0.00000000000E+00  0.00000000000E+00  0.45593999997E+02  0.45594000000E+02  0.51100000000E-03 0.  1.
         11   -1    0    0    0    0 -0.00000000000E+00 -0.00000000000E+00 -0.45593999997E+02  0.45594000000E+02  0.51100000000E-03 0. -1.
    9900012    2    1    2    0    0 -0.23936638817E+02  0.27771503492E+02  0.17576875107E+02  0.50528860529E+02  0.30000002063E+02 0.  0.
         12    1    1    2    0    0  0.23936638817E+02 -0.27771503492E+02 -0.17576875107E+02  0.40659139471E+02  0.00000000000E+00 0. -1.
         11    1    3    3    0    0 -0.86111680216E+00  0.92166818550E+01 -0.41813929406E+01  0.10157400935E+02  0.51100000000E-03 0. -1.
        -11    1    3    3    0    0 -0.81698926392E+01  0.95671700446E+01  0.18942204865E+02  0.22739503376E+02  0.51100000000E-03 0.  1.
         12    1    3    3    0    0 -0.14905629375E+02  0.89876515920E+01  0.28160631830E+01  0.17631956218E+02  0.00000000000E+00 0. -1.
</event>
<event>
 7    1  0.6073302E-013  0.5052886E+02  0.7816164E-02  0.1300439E+00
        -11   -1    0    0    0    0  0.00000000000E+00  0.00000000000E+00  0.45593999997E+02  0.45594000000E+02  0.51100000000E-03 0.  1.
         11   -1    0    0    0    0 -0.00000000000E+00 -0.00000000000E+00 -0.45593999997E+02  0.45594000000E+02  0.51100000000E-03 0. -1.
    9900012    2    1    2    0    0  0.16945224759E+01 -0.22465506785E+02  0.33846645795E+02  0.50528857939E+02  0.29999994192E+02 0.  0.
         12    1    1    2    0    0 -0.16945224759E+01  0.22465506785E+02 -0.33846645795E+02  0.40659142061E+02  0.00000000000E+00 0. -1.
         11    1    3    3    0    0 -0.70986767373E+01 -0.80167351444E+01  0.13556608660E+02  0.17275441888E+02  0.51100000000E-03 0. -1.
        -11    1    3    3    0    0  0.27776430005E+01 -0.67290300466E+01 -0.30894128168E+01  0.79081994044E+01  0.51100000000E-03 0.  1.
        -12    1    3    3    0    0  0.60155562126E+01 -0.77197415938E+01  0.23379449952E+02  0.25345216647E+02  0.00000000000E+00 0.  1.
</event>
<event>
 7    1  0.6073302E-013  0.5052886E+02  0.7816164E-02  0.1300439E+00
        -11   -1    0    0    0    0  0.00000000000E+00  0.00000000000E+00  0.45593999997E+02  0.45594000000E+02  0.51100000000E-03 0.  1.
         11   -1    0    0    0    0 -0.00000000000E+00 -0.00000000000E+00 -0.45593999997E+02  0.45594000000E+02  0.51100000000E-03 0. -1.
    9900012    2    1    2    0    0 -0.33098121516E+02 -0.26308745007E+01  0.23468241964E+02  0.50528861674E+02  0.30000005545E+02 0.  0.
         12    1    1    2    0    0  0.33098121516E+02  0.26308745007E+01 -0.23468241964E+02  0.40659138326E+02  0.00000000000E+00 0. -1.
         11    1    3    3    0    0  0.82056603013E+00  0.27680118279E+01  0.31691069938E+01  0.42870103206E+01  0.51100000000E-03 0. -1.
        -11    1    3    3    0    0 -0.37078252932E+02 -0.38353972458E+01  0.20791363536E+02  0.42682407506E+02  0.51100000000E-03 0.  1.
        -12    1    3    3    0    0  0.31595653867E+01 -0.15634890828E+01 -0.49222856541E+00  0.35594438478E+01  0.00000000000E+00 0.  1.
</event>
<event>
 7    1  0.6073302E-013  0.5052886E+02  0.7816164E-02  0.1300439E+00
        -11   -1    0    0    0    0  0.00000000000E+00  0.00000000000E+00  0.45593999997E+02  0.45594000000E+02  0.51100000000E-03 0.  1.
         11   -1    0    0    0    0 -0.00000000000E+00 -0.00000000000E+00 -0.45593999997E+02  0.45594000000E+02  0.51100000000E-03 0. -1.
    9900012    2    1    2    0    0  0.22574061565E+02  0.20221930706E+02  0.27104439798E+02  0.50528863342E+02  0.30000010614E+02 0.  0.
         12    1    1    2    0    0 -0.22574061565E+02 -0.20221930706E+02 -0.27104439798E+02  0.40659136658E+02  0.00000000000E+00 0. -1.
         11    1    3    3    0    0  0.19074382279E+02  0.32464214642E+01  0.27280302446E+01  0.19540047618E+02  0.51100000000E-03 0. -1.
        -11    1    3    3    0    0  0.54039614214E+01  0.10541156885E+02  0.19001068221E+02  0.22391055833E+02  0.51100000000E-03 0.  1.
         12    1    3    3    0    0 -0.19042821347E+01  0.64343523570E+01  0.53753413326E+01  0.85977598910E+01  0.00000000000E+00 0. -1.
</event>
<event>
 7    1  0.6073302E-013  0.5052885E+02  0.7816164E-02  0.1300439E+00
        -11   -1    0    0    0    0  0.00000000000E+00  0.00000000000E+00  0.45593999997E+02  0.45594000000E+02  0.51100000000E-03 0.  1.
         11   -1    0    0    0    0 -0.00000000000E+00 -0.00000000000E+00 -0.45593999997E+02  0.45594000000E+02  0.51100000000E-03 0. -1.
    9900012    2    1    2    0    0 -0.75720646465E+01  0.32324914584E+02  0.23471895555E+02  0.50528854082E+02  0.29999982467E+02 0.  0.
         12    1    1    2    0    0  0.75720646465E+01 -0.32324914584E+02 -0.23471895555E+02  0.40659145918E+02  0.00000000000E+00 0. -1.
         11    1    3    3    0    0 -0.64856563678E+01  0.44110066581E+01  0.12912378032E+02  0.15107952375E+02  0.51100000000E-03 0. -1.
        -11    1    3    3    0    0 -0.63382467928E+01  0.26187803749E+02  0.46741710706E+01  0.27346340030E+02  0.51100000000E-03 0.  1.
        -12    1    3    3    0    0  0.52518385142E+01  0.17261041770E+01  0.58853464523E+01  0.80745616768E+01  0.00000000000E+00 0.  1.
</event>
<event>
 7    1  0.6073302E-013  0.5052886E+02  0.7816164E-02  0.1300439E+00
        -11   -1    0    0    0    0  0.00000000000E+00  0.00000000000E+00  0.45593999997E+02  0.45594000000E+02  0.51100000000E-03 0.  1.
         11   -1    0    0    0    0 -0.00000000000E+00 -0.00000000000E+00 -0.45593999997E+02  0.45594000000E+02  0.51100000000E-03 0. -1.
    9900012    2    1    2    0    0  0.36197486861E+02 -0.17653843420E+02  0.55901044207E+01  0.50528861913E+02  0.30000006272E+02 0.  0.
         12    1    1    2    0    0 -0.36197486861E+02  0.17653843420E+02 -0.55901044207E+01  0.40659138087E+02  0.00000000000E+00 0. -1.
         11    1    3    3    0    0  0.40436571563E+01 -0.42289692846E+01 -0.55919228201E+01  0.80935125561E+01  0.51100000000E-03 0. -1.
        -11    1    3    3    0    0  0.40039411126E+01 -0.69919574918E+01  0.10904698061E+02  0.13558445857E+02  0.51100000000E-03 0.  1.
        -12    1    3    3    0    0  0.28149888592E+02 -0.64329166432E+01  0.27732917970E+00  0.28876903500E+02  0.00000000000E+00 0.  1.
</event>
<event>
 7    1  0.6073302E-013  0.5052888E+02  0.7816164E-02  0.1300439E+00
        -11   -1    0    0    0    0  0.00000000000E+00  0.00000000000E+00  0.45593999997E+02  0.45594000000E+02  0.51100000000E-03 0.  1.
         11   -1    0    0    0    0 -0.00000000000E+00 -0.00000000000E+00 -0.45593999997E+02  0.45594000000E+02  0.51100000000E-03 0. -1.
    9900012    2    1    2    0    0  0.22117872927E+02  0.19076748218E+02  0.28285003458E+02  0.50528879916E+02  0.30000060993E+02 0.  0.
         12    1    1    2    0    0 -0.22117872927E+02 -0.19076748218E+02 -0.28285003458E+02  0.40659120084E+02  0.00000000000E+00 0. -1.
         11    1    3    3    0    0  0.90060388155E+01  0.12456542236E+02  0.13603583537E+01  0.15431291415E+02  0.51100000000E-03 0. -1.
        -11    1    3    3    0    0  0.88680861755E+01  0.11484889185E+02  0.23920077126E+02  0.27977057064E+02  0.51100000000E-03 0.  1.
         12    1    3    3    0    0  0.42437479363E+01 -0.48646832027E+01  0.30045679780E+01  0.71205314369E+01  0.00000000000E+00 0. -1.
</event>
<event>
 7    1  0.6073302E-013  0.5052885E+02  0.7816164E-02  0.1300439E+00
        -11   -1    0    0    0    0  0.00000000000E+00  0.00000000000E+00  0.45593999997E+02  0.45594000000E+02  0.51100000000E-03 0. -1.
         11   -1    0    0    0    0 -0.00000000000E+00 -0.00000000000E+00 -0.45593999997E+02  0.45594000000E+02  0.51100000000E-03 0.  1.
    9900012    2    1    2    0    0  0.30546193545E+02  0.25859282584E+02 -0.71689435768E+01  0.50528853577E+02  0.29999980932E+02 0.  0.
         12    1    1    2    0    0 -0.30546193545E+02 -0.25859282584E+02  0.71689435768E+01  0.40659146423E+02  0.00000000000E+00 0. -1.
         11    1    3    3    0    0  0.62102446094E+01  0.17776139676E+01  0.99281941326E+01  0.11844664981E+02  0.51100000000E-03 0. -1.
        -11    1    3    3    0    0  0.86496694999E+01  0.55399005045E+01 -0.35093197832E+01  0.10854612184E+02  0.51100000000E-03 0.  1.
         12    1    3    3    0    0  0.15686279436E+02  0.18541768112E+02 -0.13587817926E+02  0.27829576412E+02  0.00000000000E+00 0. -1.
</event>
<event>
 7    1  0.6073302E-013  0.5052887E+02  0.7816164E-02  0.1300439E+00
        -11   -1    0    0    0    0  0.00000000000E+00  0.00000000000E+00  0.45593999997E+02  0.45594000000E+02  0.51100000000E-03 0.  1.
         11   -1    0    0    0    0 -0.00000000000E+00 -0.00000000000E+00 -0.45593999997E+02  0.45594000000E+02  0.51100000000E-03 0. -1.
    9900012    2    1    2    0    0  0.41317572336E+01 -0.24911999016E+02  0.31866689260E+02  0.50528868219E+02  0.30000025439E+02 0.  0.
         12    1    1    2    0    0 -0.41317572336E+01  0.24911999016E+02 -0.31866689260E+02  0.40659131781E+02  0.00000000000E+00 0. -1.
         11    1    3    3    0    0  0.15361177016E+02 -0.16769790354E+02  0.25319145020E+02  0.34033082914E+02  0.51100000000E-03 0. -1.
        -11    1    3    3    0    0 -0.78616228399E+01 -0.84509855019E+01  0.61836487546E+01  0.13094341595E+02  0.51100000000E-03 0.  1.
         12    1    3    3    0    0 -0.33677969429E+01  0.30877684043E+00  0.36389548526E+00  0.34014437096E+01  0.00000000000E+00 0. -1.
</event>
<event>
 7    1  0.6073302E-013  0.5052887E+02  0.7816164E-02  0.1300439E+00
        -11   -1    0    0    0    0  0.00000000000E+00  0.00000000000E+00  0.45593999997E+02  0.45594000000E+02  0.51100000000E-03 0.  1.
         11   -1    0    0    0    0 -0.00000000000E+00 -0.00000000000E+00 -0.45593999997E+02  0.45594000000E+02  0.51100000000E-03 0. -1.
    9900012    2    1    2    0    0 -0.64399872943E+01 -0.31141501945E+02  0.25335719288E+02  0.50528865090E+02  0.30000015928E+02 0.  0.
         12    1    1    2    0    0  0.64399872943E+01  0.31141501945E+02 -0.25335719288E+02  0.40659134910E+02  0.00000000000E+00 0. -1.
         11    1    3    3    0    0  0.39271612715E+01  0.19692682473E+01  0.62854600239E+01  0.76686127204E+01  0.51100000000E-03 0. -1.
        -11    1    3    3    0    0 -0.47921071116E+01 -0.31883085753E+02  0.13682506435E+02  0.35024369092E+02  0.51100000000E-03 0.  1.
        -12    1    3    3    0    0 -0.55750414542E+01 -0.12276844396E+01  0.53677528291E+01  0.78358832772E+01  0.00000000000E+00 0.  1.
</event>
<event>
 7    1  0.6073302E-013  0.5052886E+02  0.7816164E-02  0.1300439E+00
        -11   -1    0    0    0    0  0.00000000000E+00  0.00000000000E+00  0.45593999997E+02  0.45594000000E+02  0.51100000000E-03 0.  1.
         11   -1    0    0    0    0 -0.00000000000E+00 -0.00000000000E+00 -0.45593999997E+02  0.45594000000E+02  0.51100000000E-03 0. -1.
    9900012    2    1    2    0    0 -0.20931141908E+02  0.29008100385E+02  0.19328292653E+02  0.50528862202E+02  0.30000007150E+02 0.  0.
         12    1    1    2    0    0  0.20931141908E+02 -0.29008100385E+02 -0.19328292653E+02  0.40659137798E+02  0.00000000000E+00 0. -1.
         11    1    3    3    0    0 -0.14154497457E+01  0.10207350242E+00  0.14430078005E+02  0.14499692013E+02  0.51100000000E-03 0. -1.
        -11    1    3    3    0    0 -0.12323747531E+01  0.51070028682E+01 -0.12369976962E+01  0.53972575804E+01  0.51100000000E-03 0.  1.
         12    1    3    3    0    0 -0.18283317410E+02  0.23799024015E+02  0.61352123447E+01  0.30631912609E+02  0.00000000000E+00 0. -1.
</event>
<event>
 7    1  0.6073302E-013  0.5052886E+02  0.7816164E-02  0.1300439E+00
        -11   -1    0    0    0    0  0.00000000000E+00  0.00000000000E+00  0.45593999997E+02  0.45594000000E+02  0.51100000000E-03 0.  1.
         11   -1    0    0    0    0 -0.00000000000E+00 -0.00000000000E+00 -0.45593999997E+02  0.45594000000E+02  0.51100000000E-03 0. -1.
    9900012    2    1    2    0    0  0.17837902079E+02  0.27993130986E+02  0.23481051944E+02  0.50528856706E+02  0.29999990445E+02 0.  0.
         12    1    1    2    0    0 -0.17837902079E+02 -0.27993130986E+02 -0.23481051944E+02  0.40659143294E+02  0.00000000000E+00 0. -1.
         11    1    3    3    0    0 -0.16989933881E+01  0.81783234472E+01 -0.15054088240E+01  0.84875089943E+01  0.51100000000E-03 0. -1.
        -11    1    3    3    0    0  0.16791312321E+02  0.19412340337E+02  0.27973334427E+02  0.37964385495E+02  0.51100000000E-03 0.  1.
        -12    1    3    3    0    0  0.27455831463E+01  0.40246720209E+00 -0.29868736591E+01  0.40769622168E+01  0.00000000000E+00 0.  1.
</event>
<event>
 7    1  0.6073302E-013  0.5052885E+02  0.7816164E-02  0.1300439E+00
        -11   -1    0    0    0    0  0.00000000000E+00  0.00000000000E+00  0.45593999997E+02  0.45594000000E+02  0.51100000000E-03 0.  1.
         11   -1    0    0    0    0 -0.00000000000E+00 -0.00000000000E+00 -0.45593999997E+02  0.45594000000E+02  0.51100000000E-03 0. -1.
    9900012    2    1    2    0    0  0.28664072752E+02  0.22686813706E+02  0.17800162020E+02  0.50528851573E+02  0.29999974840E+02 0.  0.
         12    1    1    2    0    0 -0.28664072752E+02 -0.22686813706E+02 -0.17800162020E+02  0.40659148427E+02  0.00000000000E+00 0. -1.
         11    1    3    3    0    0  0.83068370792E+01  0.10240433452E+02  0.19258348840E+02  0.23339966149E+02  0.51100000000E-03 0.  1.
        -11    1    3    3    0    0  0.19867919664E+02  0.14562430319E+02 -0.25374377774E+01  0.24763626538E+02  0.51100000000E-03 0. -1.
        -12    1    3    3    0    0  0.48931600888E+00 -0.21160500646E+01  0.10792509570E+01  0.24252588853E+01  0.00000000000E+00 0.  1.
</event>
<event>
 7    1  0.6073302E-013  0.5052886E+02  0.7816164E-02  0.1300439E+00
        -11   -1    0    0    0    0  0.00000000000E+00  0.00000000000E+00  0.45593999997E+02  0.45594000000E+02  0.51100000000E-03 0. -1.
         11   -1    0    0    0    0 -0.00000000000E+00 -0.00000000000E+00 -0.45593999997E+02  0.45594000000E+02  0.51100000000E-03 0.  1.
    9900012    2    1    2    0    0  0.27371656947E+02 -0.29760204390E+02  0.42764965723E+01  0.50528858441E+02  0.29999995719E+02 0.  0.
         12    1    1    2    0    0 -0.27371656947E+02  0.29760204390E+02 -0.42764965723E+01  0.40659141559E+02  0.00000000000E+00 0. -1.
         11    1    3    3    0    0  0.13473270282E+01  0.49157627263E+01  0.15188513716E+01  0.53185452008E+01  0.51100000000E-03 0. -1.
        -11    1    3    3    0    0  0.23195536583E+02 -0.21464441622E+02  0.24103793669E+01  0.31694874987E+02  0.51100000000E-03 0.  1.
         12    1    3    3    0    0  0.28287933359E+01 -0.13211525494E+02  0.34726583383E+00  0.13515438253E+02  0.00000000000E+00 0. -1.
</event>
<event>
 7    1  0.6073302E-013  0.5052886E+02  0.7816164E-02  0.1300439E+00
        -11   -1    0    0    0    0  0.00000000000E+00  0.00000000000E+00  0.45593999997E+02  0.45594000000E+02  0.51100000000E-03 0. -1.
         11   -1    0    0    0    0 -0.00000000000E+00 -0.00000000000E+00 -0.45593999997E+02  0.45594000000E+02  0.51100000000E-03 0.  1.
    9900012    2    1    2    0    0  0.28301303857E+02  0.27099549971E+01 -0.29066446829E+02  0.50528856043E+02  0.29999988427E+02 0.  0.
         12    1    1    2    0    0 -0.28301303857E+02 -0.27099549971E+01  0.29066446829E+02  0.40659143957E+02  0.00000000000E+00 0. -1.
         11    1    3    3    0    0  0.85994178657E+01 -0.86862536686E+01 -0.13275439663E+02  0.18045450643E+02  0.51100000000E-03 0. -1.
        -11    1    3    3    0    0  0.22811965563E+02  0.95017281271E+01 -0.13220147977E+02  0.28025718957E+02  0.51100000000E-03 0.  1.
         12    1    3    3    0    0 -0.31100795714E+01  0.18944805386E+01 -0.25708591890E+01  0.44576864426E+01  0.00000000000E+00 0. -1.
</event>
<event>
 7    1  0.6073302E-013  0.5052886E+02  0.7816164E-02  0.1300439E+00
        -11   -1    0    0    0    0  0.00000000000E+00  0.00000000000E+00  0.45593999997E+02  0.45594000000E+02  0.51100000000E-03 0.  1.
         11   -1    0    0    0    0 -0.00000000000E+00 -0.00000000000E+00 -0.45593999997E+02  0.45594000000E+02  0.51100000000E-03 0. -1.
    9900012    2    1    2    0    0 -0.29220604008E+02 -0.39450351431E+01  0.27995693781E+02  0.50528857472E+02  0.29999992771E+02 0.  0.
         12    1    1    2    0    0  0.29220604008E+02  0.39450351431E+01 -0.27995693781E+02  0.40659142528E+02  0.00000000000E+00 0. -1.
         11    1    3    3    0    0 -0.19167274814E+02 -0.33655621756E+01  0.22028544569E+01  0.19584790031E+02  0.51100000000E-03 0. -1.
        -11    1    3    3    0    0 -0.46114116962E+01  0.66202071674E+01  0.12455061895E+02  0.14839839212E+02  0.51100000000E-03 0.  1.
         12    1    3    3    0    0 -0.54419174978E+01 -0.71996801349E+01  0.13337777429E+02  0.16104228228E+02  0.00000000000E+00 0. -1.
</event>
<event>
 7    1  0.6073302E-013  0.5052888E+02  0.7816164E-02  0.1300439E+00
        -11   -1    0    0    0    0  0.00000000000E+00  0.00000000000E+00  0.45593999997E+02  0.45594000000E+02  0.51100000000E-03 0.  1.
         11   -1    0    0    0    0 -0.00000000000E+00 -0.00000000000E+00 -0.45593999997E+02  0.45594000000E+02  0.51100000000E-03 0. -1.
    9900012    2    1    2    0    0 -0.33290381251E+01  0.39799090284E+02  0.76232731707E+01  0.50528875857E+02  0.30000048654E+02 0.  0.
         12    1    1    2    0    0  0.33290381251E+01 -0.39799090284E+02 -0.76232731707E+01  0.40659124143E+02  0.00000000000E+00 0. -1.
         11    1    3    3    0    0  0.10073499361E+02  0.96311245996E+01  0.61248857335E+01  0.15223277438E+02  0.51100000000E-03 0. -1.
        -11    1    3    3    0    0 -0.13527104017E+02  0.15685413034E+02  0.20362864332E+01  0.20812524783E+02  0.51100000000E-03 0.  1.
         12    1    3    3    0    0  0.12456653085E+00  0.14482552650E+02 -0.53789899595E+00  0.14493073636E+02  0.00000000000E+00 0. -1.
</event>
<event>
 7    1  0.6073302E-013  0.5052885E+02  0.7816164E-02  0.1300439E+00
        -11   -1    0    0    0    0  0.00000000000E+00  0.00000000000E+00  0.45593999997E+02  0.45594000000E+02  0.51100000000E-03 0.  1.
         11   -1    0    0    0    0 -0.00000000000E+00 -0.00000000000E+00 -0.45593999997E+02  0.45594000000E+02  0.51100000000E-03 0. -1.
    9900012    2    1    2    0    0  0.32564929362E+02 -0.23476211012E+02 -0.64466383120E+01  0.50528852772E+02  0.29999978486E+02 0.  0.
         12    1    1    2    0    0 -0.32564929362E+02  0.23476211012E+02  0.64466383120E+01  0.40659147228E+02  0.00000000000E+00 0. -1.
         11    1    3    3    0    0  0.98543581625E+01  0.19190557071E+00 -0.49359628671E+01  0.11023109009E+02  0.51100000000E-03 0. -1.
        -11    1    3    3    0    0  0.19834429571E+02 -0.27213541511E+02 -0.46086270148E+01  0.33988540439E+02  0.51100000000E-03 0.  1.
        -12    1    3    3    0    0  0.28761416281E+01  0.35454249283E+01  0.30979515698E+01  0.55172033238E+01  0.00000000000E+00 0.  1.
</event>
<event>
 7    1  0.6073302E-013  0.5052885E+02  0.7816164E-02  0.1300439E+00
        -11   -1    0    0    0    0  0.00000000000E+00  0.00000000000E+00  0.45593999997E+02  0.45594000000E+02  0.51100000000E-03 0. -1.
         11   -1    0    0    0    0 -0.00000000000E+00 -0.00000000000E+00 -0.45593999997E+02  0.45594000000E+02  0.51100000000E-03 0.  1.
    9900012    2    1    2    0    0 -0.15731993454E+02 -0.26672261028E+02 -0.26348832212E+02  0.50528854838E+02  0.29999984765E+02 0.  0.
         12    1    1    2    0    0  0.15731993454E+02  0.26672261028E+02  0.26348832212E+02  0.40659145162E+02  0.00000000000E+00 0. -1.
         11    1    3    3    0    0 -0.10311111086E+02 -0.90937494831E+00 -0.13573618601E+02  0.17070122929E+02  0.51100000000E-03 0. -1.
        -11    1    3    3    0    0  0.10164617118E+01 -0.18843658303E+02 -0.14567461953E+02  0.23839622494E+02  0.51100000000E-03 0.  1.
         12    1    3    3    0    0 -0.64373440793E+01 -0.69192277771E+01  0.17922483414E+01  0.96191094153E+01  0.00000000000E+00 0. -1.
</event>
<event>
 7    1  0.6073302E-013  0.5052886E+02  0.7816164E-02  0.1300439E+00
        -11   -1    0    0    0    0  0.00000000000E+00  0.00000000000E+00  0.45593999997E+02  0.45594000000E+02  0.51100000000E-03 0.  1.
         11   -1    0    0    0    0 -0.00000000000E+00 -0.00000000000E+00 -0.45593999997E+02  0.45594000000E+02  0.51100000000E-03 0. -1.
    9900012    2    1    2    0    0 -0.52156195376E+01 -0.34352508456E+02 -0.21115594254E+02  0.50528857792E+02  0.29999993745E+02 0.  0.
         12    1    1    2    0    0  0.52156195376E+01  0.34352508456E+02  0.21115594254E+02  0.40659142208E+02  0.00000000000E+00 0. -1.
         11    1    3    3    0    0 -0.62913751473E+01 -0.21387875930E+02 -0.26640292522E+02  0.34737988197E+02  0.51100000000E-03 0. -1.
        -11    1    3    3    0    0 -0.25794412649E+01 -0.68608394345E+01  0.10977601505E+01  0.74114581962E+01  0.51100000000E-03 0.  1.
         12    1    3    3    0    0  0.36551968746E+01 -0.61037930913E+01  0.44269381180E+01  0.83794113990E+01  0.00000000000E+00 0. -1.
</event>
<event>
 7    1  0.6073302E-013  0.5052885E+02  0.7816164E-02  0.1300439E+00
        -11   -1    0    0    0    0  0.00000000000E+00  0.00000000000E+00  0.45593999997E+02  0.45594000000E+02  0.51100000000E-03 0.  1.
         11   -1    0    0    0    0 -0.00000000000E+00 -0.00000000000E+00 -0.45593999997E+02  0.45594000000E+02  0.51100000000E-03 0. -1.
    9900012    2    1    2    0    0  0.33602422204E+02 -0.22465304905E+02  0.43992838987E+01  0.50528850952E+02  0.29999972955E+02 0.  0.
         12    1    1    2    0    0 -0.33602422204E+02  0.22465304905E+02 -0.43992838987E+01  0.40659149048E+02  0.00000000000E+00 0. -1.
         11    1    3    3    0    0 -0.23144877662E+01 -0.10448216512E+02  0.50410059298E+01  0.11829362745E+02  0.51100000000E-03 0. -1.
        -11    1    3    3    0    0  0.21406715505E+02 -0.10313004066E+02 -0.28196080508E+01  0.23928136396E+02  0.51100000000E-03 0.  1.
        -12    1    3    3    0    0  0.14510194466E+02 -0.17040843270E+01  0.21778860197E+01  0.14771351812E+02  0.00000000000E+00 0.  1.
</event>
<event>
 7    1  0.6073302E-013  0.5052885E+02  0.7816164E-02  0.1300439E+00
        -11   -1    0    0    0    0  0.00000000000E+00  0.00000000000E+00  0.45593999997E+02  0.45594000000E+02  0.51100000000E-03 0.  1.
         11   -1    0    0    0    0 -0.00000000000E+00 -0.00000000000E+00 -0.45593999997E+02  0.45594000000E+02  0.51100000000E-03 0. -1.
    9900012    2    1    2    0    0  0.23362422440E+02  0.12421960935E+02  0.30871642677E+02  0.50528853215E+02  0.29999979832E+02 0.  0.
         12    1    1    2    0    0 -0.23362422440E+02 -0.12421960935E+02 -0.30871642677E+02  0.40659146785E+02  0.00000000000E+00 0. -1.
         11    1    3    3    0    0 -0.36033696165E+01 -0.60339604274E+01  0.52140678823E+01  0.87509688135E+01  0.51100000000E-03 0. -1.
        -11    1    3    3    0    0  0.63133660311E+01  0.58825578361E+01  0.86375085603E+01  0.12209407509E+02  0.51100000000E-03 0.  1.
         12    1    3    3    0    0  0.20652426025E+02  0.12573363526E+02  0.17020066235E+02  0.29568476892E+02  0.00000000000E+00 0. -1.
</event>
<event>
 7    1  0.6073302E-013  0.5052886E+02  0.7816164E-02  0.1300439E+00
        -11   -1    0    0    0    0  0.00000000000E+00  0.00000000000E+00  0.45593999997E+02  0.45594000000E+02  0.51100000000E-03 0.  1.
         11   -1    0    0    0    0 -0.00000000000E+00 -0.00000000000E+00 -0.45593999997E+02  0.45594000000E+02  0.51100000000E-03 0. -1.
    9900012    2    1    2    0    0 -0.31593800419E+02  0.33399263154E+01  0.25374049880E+02  0.50528859084E+02  0.29999997672E+02 0.  0.
         12    1    1    2    0    0  0.31593800419E+02 -0.33399263154E+01 -0.25374049880E+02  0.40659140916E+02  0.00000000000E+00 0. -1.
         11    1    3    3    0    0  0.47191823689E+01  0.14691784804E+01  0.88548928704E+01  0.10140921834E+02  0.51100000000E-03 0. -1.
        -11    1    3    3    0    0 -0.25049818449E+02 -0.10740651777E+00  0.13930917431E+02  0.28663136626E+02  0.51100000000E-03 0.  1.
         12    1    3    3    0    0 -0.11263164339E+02  0.19781543527E+01  0.25882395786E+01  0.11724800624E+02  0.00000000000E+00 0. -1.
</event>
<event>
 7    1  0.6073302E-013  0.5052885E+02  0.7816164E-02  0.1300439E+00
        -11   -1    0    0    0    0  0.00000000000E+00  0.00000000000E+00  0.45593999997E+02  0.45594000000E+02  0.51100000000E-03 0.  1.
         11   -1    0    0    0    0 -0.00000000000E+00 -0.00000000000E+00 -0.45593999997E+02  0.45594000000E+02  0.51100000000E-03 0. -1.
    9900012    2    1    2    0    0  0.74351944253E+01  0.39967706110E+02  0.68354111218E+00  0.50528845111E+02  0.29999955198E+02 0.  0.
         12    1    1    2    0    0 -0.74351944253E+01 -0.39967706110E+02 -0.68354111218E+00  0.40659154889E+02  0.00000000000E+00 0. -1.
         11    1    3    3    0    0 -0.23906802925E+01  0.10335066505E+01  0.58334764626E+01  0.63885003059E+01  0.51100000000E-03 0. -1.
        -11    1    3    3    0    0  0.26120454299E+01  0.35896820302E+02 -0.37181477008E+01  0.36183271158E+02  0.51100000000E-03 0.  1.
        -12    1    3    3    0    0  0.72138292879E+01  0.30373791581E+01 -0.14317876496E+01  0.79570736467E+01  0.00000000000E+00 0.  1.
</event>
<event>
 7    1  0.6073302E-013  0.5052888E+02  0.7816164E-02  0.1300439E+00
        -11   -1    0    0    0    0  0.00000000000E+00  0.00000000000E+00  0.45593999997E+02  0.45594000000E+02  0.51100000000E-03 0. -1.
         11   -1    0    0    0    0 -0.00000000000E+00 -0.00000000000E+00 -0.45593999997E+02  0.45594000000E+02  0.51100000000E-03 0.  1.
    9900012    2    1    2    0    0  0.23431796064E+02 -0.28757885029E+02 -0.16646303182E+02  0.50528875222E+02  0.30000046724E+02 0.  0.
         12    1    1    2    0    0 -0.23431796064E+02  0.28757885029E+02  0.16646303182E+02  0.40659124778E+02  0.00000000000E+00 0. -1.
         11    1    3    3    0    0 -0.51715906299E+01 -0.67665408911E+01 -0.27500362139E+01  0.89495320946E+01  0.51100000000E-03 0. -1.
        -11    1    3    3    0    0  0.22030864563E+02 -0.17450538572E+02 -0.17182647056E+02  0.32941215065E+02  0.51100000000E-03 0.  1.
        -12    1    3    3    0    0  0.65725221306E+01 -0.45408055659E+01  0.32863800872E+01  0.86381280623E+01  0.00000000000E+00 0.  1.
</event>
<event>
 7    1  0.6073302E-013  0.5052888E+02  0.7816164E-02  0.1300439E+00
        -11   -1    0    0    0    0  0.00000000000E+00  0.00000000000E+00  0.45593999997E+02  0.45594000000E+02  0.51100000000E-03 0.  1.
         11   -1    0    0    0    0 -0.00000000000E+00 -0.00000000000E+00 -0.45593999997E+02  0.45594000000E+02  0.51100000000E-03 0. -1.
    9900012    2    1    2    0    0  0.25424380917E+02  0.11570465790E+02  0.29544697527E+02  0.50528880782E+02  0.30000063625E+02 0.  0.
         12    1    1    2    0    0 -0.25424380917E+02 -0.11570465790E+02 -0.29544697527E+02  0.40659119218E+02  0.00000000000E+00 0. -1.
         11    1    3    3    0    0 -0.29909148992E+01  0.31406204653E+01  0.34696125085E+01  0.55540327746E+01  0.51100000000E-03 0. -1.
        -11    1    3    3    0    0  0.28094594745E+02  0.12883490982E+02  0.26184613866E+02  0.40508327506E+02  0.51100000000E-03 0.  1.
        -12    1    3    3    0    0  0.32070107183E+00 -0.44536456574E+01 -0.10952884786E+00  0.44665205012E+01  0.00000000000E+00 0.  1.
</event>
<event>
 7    1  0.6073302E-013  0.5052886E+02  0.7816164E-02  0.1300439E+00
        -11   -1    0    0    0    0  0.00000000000E+00  0.00000000000E+00  0.45593999997E+02  0.45594000000E+02  0.51100000000E-03 0.  1.
         11   -1    0    0    0    0 -0.00000000000E+00 -0.00000000000E+00 -0.45593999997E+02  0.45594000000E+02  0.51100000000E-03 0. -1.
    9900012    2    1    2    0    0  0.31956199218E+02 -0.25044215432E+02  0.21803770787E+01  0.50528862782E+02  0.30000008913E+02 0.  0.
         12    1    1    2    0    0 -0.31956199218E+02  0.25044215432E+02 -0.21803770787E+01  0.40659137218E+02  0.00000000000E+00 0. -1.
         11    1    3    3    0    0  0.26090130195E+02 -0.10365886901E+02 -0.47295378855E+01  0.28469545724E+02  0.51100000000E-03 0. -1.
        -11    1    3    3    0    0 -0.39606161408E+01 -0.83270975526E+01  0.36088250718E+01  0.99020529450E+01  0.51100000000E-03 0.  1.
         12    1    3    3    0    0  0.98266851636E+01 -0.63512309787E+01  0.33010898925E+01  0.12157264114E+02  0.00000000000E+00 0. -1.
</event>
<event>
 7    1  0.6073302E-013  0.5052886E+02  0.7816164E-02  0.1300439E+00
        -11   -1    0    0    0    0  0.00000000000E+00  0.00000000000E+00  0.45593999997E+02  0.45594000000E+02  0.51100000000E-03 0.  1.
         11   -1    0    0    0    0 -0.00000000000E+00 -0.00000000000E+00 -0.45593999997E+02  0.45594000000E+02  0.51100000000E-03 0. -1.
    9900012    2    1    2    0    0  0.12331121828E+01 -0.23073748450E+02  0.33455148645E+02  0.50528863215E+02  0.30000010229E+02 0.  0.
         12    1    1    2    0    0 -0.12331121828E+01  0.23073748450E+02 -0.33455148645E+02  0.40659136785E+02  0.00000000000E+00 0. -1.
         11    1    3    3    0    0 -0.88510326611E+01 -0.14895812497E+02  0.53451903938E+01  0.18132762330E+02  0.51100000000E-03 0. -1.
        -11    1    3    3    0    0  0.48463524797E+01 -0.94689847210E+01  0.17160735751E+02  0.20190088058E+02  0.51100000000E-03 0.  1.
         12    1    3    3    0    0  0.52377923642E+01  0.12910487683E+01  0.10949222500E+02  0.12206012827E+02  0.00000000000E+00 0. -1.
</event>
<event>
 7    1  0.6073302E-013  0.5052887E+02  0.7816164E-02  0.1300439E+00
        -11   -1    0    0    0    0  0.00000000000E+00  0.00000000000E+00  0.45593999997E+02  0.45594000000E+02  0.51100000000E-03 0.  1.
         11   -1    0    0    0    0 -0.00000000000E+00 -0.00000000000E+00 -0.45593999997E+02  0.45594000000E+02  0.51100000000E-03 0. -1.
    9900012    2    1    2    0    0 -0.24171194507E+02  0.22274851090E+02  0.23932186614E+02  0.50528865834E+02  0.30000018190E+02 0.  0.
         12    1    1    2    0    0  0.24171194507E+02 -0.22274851090E+02 -0.23932186614E+02  0.40659134166E+02  0.00000000000E+00 0. -1.
         11    1    3    3    0    0 -0.24341776288E+01  0.10404589720E+02  0.14314145894E+02  0.17862684034E+02  0.51100000000E-03 0. -1.
        -11    1    3    3    0    0 -0.22377884177E+02  0.33796999188E+01  0.59914086866E+01  0.23411301760E+02  0.51100000000E-03 0.  1.
        -12    1    3    3    0    0  0.64086729875E+00  0.84905614518E+01  0.36266320341E+01  0.92548800409E+01  0.00000000000E+00 0.  1.
</event>
<event>
 7    1  0.6073302E-013  0.5052886E+02  0.7816164E-02  0.1300439E+00
        -11   -1    0    0    0    0  0.00000000000E+00  0.00000000000E+00  0.45593999997E+02  0.45594000000E+02  0.51100000000E-03 0.  1.
         11   -1    0    0    0    0 -0.00000000000E+00 -0.00000000000E+00 -0.45593999997E+02  0.45594000000E+02  0.51100000000E-03 0. -1.
    9900012    2    1    2    0    0  0.11537872177E+02  0.38825175218E+02 -0.35565526165E+01  0.50528858450E+02  0.29999995744E+02 0.  0.
         12    1    1    2    0    0 -0.11537872177E+02 -0.38825175218E+02  0.35565526165E+01  0.40659141550E+02  0.00000000000E+00 0. -1.
         11    1    3    3    0    0 -0.38332667760E+01  0.22141322212E+01 -0.14577185702E+01  0.46606071879E+01  0.51100000000E-03 0. -1.
        -11    1    3    3    0    0  0.21041394091E+02  0.32806899008E+02 -0.22345466090E+01  0.39038776705E+02  0.51100000000E-03 0.  1.
        -12    1    3    3    0    0 -0.56702551385E+01  0.38041439890E+01  0.13571256263E+00  0.68294745570E+01  0.00000000000E+00 0.  1.
</event>
<event>
 7    1  0.6073302E-013  0.5052886E+02  0.7816164E-02  0.1300439E+00
        -11   -1    0    0    0    0  0.00000000000E+00  0.00000000000E+00  0.45593999997E+02  0.45594000000E+02  0.51100000000E-03 0.  1.
         11   -1    0    0    0    0 -0.00000000000E+00 -0.00000000000E+00 -0.45593999997E+02  0.45594000000E+02  0.51100000000E-03 0. -1.
    9900012    2    1    2    0    0  0.18319869083E+02  0.34772126440E+02  0.10413794554E+02  0.50528862068E+02  0.30000006741E+02 0.  0.
         12    1    1    2    0    0 -0.18319869083E+02 -0.34772126440E+02 -0.10413794554E+02  0.40659137932E+02  0.00000000000E+00 0. -1.
         11    1    3    3    0    0  0.42084860099E+01  0.28944226313E+01  0.29108463906E+01  0.58789509129E+01  0.51100000000E-03 0. -1.
        -11    1    3    3    0    0  0.17360852639E+02  0.98621133393E+01 -0.27365142570E+01  0.20153138575E+02  0.51100000000E-03 0.  1.
        -12    1    3    3    0    0 -0.32494695660E+01  0.22015590469E+02  0.10239462420E+02  0.24496772580E+02  0.00000000000E+00 0.  1.
</event>
<event>
 7    1  0.6073302E-013  0.5052885E+02  0.7816164E-02  0.1300439E+00
        -11   -1    0    0    0    0  0.00000000000E+00  0.00000000000E+00  0.45593999997E+02  0.45594000000E+02  0.51100000000E-03 0. -1.
         11   -1    0    0    0    0 -0.00000000000E+00 -0.00000000000E+00 -0.45593999997E+02  0.45594000000E+02  0.51100000000E-03 0.  1.
    9900012    2    1    2    0    0 -0.24373439864E+02  0.32508897872E+02  0.15077413255E+01  0.50528852253E+02  0.29999976907E+02 0.  0.
         12    1    1    2    0    0  0.24373439864E+02 -0.32508897872E+02 -0.15077413255E+01  0.40659147747E+02  0.00000000000E+00 0. -1.
         11    1    3    3    0    0 -0.46439043529E+01 -0.24279886558E+00  0.40084442836E+01  0.61394156695E+01  0.51100000000E-03 0. -1.
        -11    1    3    3    0    0 -0.14422731916E+02  0.27568554405E+02 -0.11098755573E+02  0.33033661066E+02  0.51100000000E-03 0.  1.
        -12    1    3    3    0    0 -0.53068035948E+01  0.51831423325E+01  0.85980526146E+01  0.11355775517E+02  0.00000000000E+00 0.  1.
</event>
<event>
 7    1  0.6073302E-013  0.5052887E+02  0.7816164E-02  0.1300439E+00
        -11   -1    0    0    0    0  0.00000000000E+00  0.00000000000E+00  0.45593999997E+02  0.45594000000E+02  0.51100000000E-03 0.  1.
         11   -1    0    0    0    0 -0.00000000000E+00 -0.00000000000E+00 -0.45593999997E+02  0.45594000000E+02  0.51100000000E-03 0. -1.
    9900012    2    1    2    0    0  0.28397776392E+01 -0.33358934437E+02  0.23071231516E+02  0.50528873503E+02  0.30000041501E+02 0.  0.
         12    1    1    2    0    0 -0.28397776392E+01  0.33358934437E+02 -0.23071231516E+02  0.40659126497E+02  0.00000000000E+00 0. -1.
         11    1    3    3    0    0 -0.22597991608E+01 -0.42019162423E+01  0.13517715566E+01  0.49588384685E+01  0.51100000000E-03 0. -1.
        -11    1    3    3    0    0  0.12034353434E+02 -0.25489993487E+01  0.91789070649E+01  0.15348465572E+02  0.51100000000E-03 0.  1.
        -12    1    3    3    0    0 -0.69347766343E+01 -0.26608018846E+02  0.12540552894E+02  0.30221569463E+02  0.00000000000E+00 0.  1.
</event>
<event>
 7    1  0.6073302E-013  0.5052886E+02  0.7816164E-02  0.1300439E+00
        -11   -1    0    0    0    0  0.00000000000E+00  0.00000000000E+00  0.45593999997E+02  0.45594000000E+02  0.51100000000E-03 0. -1.
         11   -1    0    0    0    0 -0.00000000000E+00 -0.00000000000E+00 -0.45593999997E+02  0.45594000000E+02  0.51100000000E-03 0.  1.
    9900012    2    1    2    0    0  0.21301034423E+02  0.11572241288E+01 -0.34613470995E+02  0.50528860690E+02  0.30000002552E+02 0.  0.
         12    1    1    2    0    0 -0.21301034423E+02 -0.11572241288E+01  0.34613470995E+02  0.40659139310E+02  0.00000000000E+00 0. -1.
         11    1    3    3    0    0  0.60681139847E+01  0.76243930453E-01  0.16709363231E+00  0.60708929336E+01  0.51100000000E-03 0. -1.
        -11    1    3    3    0    0 -0.54564821694E+01  0.18776313906E+01 -0.13910541611E+02  0.15059942413E+02  0.51100000000E-03 0.  1.
         12    1    3    3    0    0  0.20689402608E+02 -0.79665119223E+00 -0.20870023016E+02  0.29398025343E+02  0.00000000000E+00 0. -1.
</event>
<event>
 7    1  0.6073302E-013  0.5052893E+02  0.7816164E-02  0.1300439E+00
        -11   -1    0    0    0    0  0.00000000000E+00  0.00000000000E+00  0.45593999997E+02  0.45594000000E+02  0.51100000000E-03 0. -1.
         11   -1    0    0    0    0 -0.00000000000E+00 -0.00000000000E+00 -0.45593999997E+02  0.45594000000E+02  0.51100000000E-03 0.  1.
    9900012    2    1    2    0    0  0.17451031497E+02 -0.31664749649E+02 -0.18600137668E+02  0.50528929771E+02  0.30000212530E+02 0.  0.
         12    1    1    2    0    0 -0.17451031497E+02  0.31664749649E+02  0.18600137668E+02  0.40659070229E+02  0.00000000000E+00 0. -1.
         11    1    3    3    0    0  0.78522888847E+01 -0.14549266440E+02  0.45032177355E+01  0.17135301716E+02  0.51100000000E-03 0. -1.
        -11    1    3    3    0    0  0.36309459457E+01  0.50067138420E+00 -0.99760913762E+01  0.10628115529E+02  0.51100000000E-03 0.  1.
         12    1    3    3    0    0  0.59677966667E+01 -0.17616154594E+02 -0.13127264027E+02  0.22765512526E+02  0.00000000000E+00 0. -1.
</event>
<event>
 7    1  0.6073302E-013  0.5052886E+02  0.7816164E-02  0.1300439E+00
        -11   -1    0    0    0    0  0.00000000000E+00  0.00000000000E+00  0.45593999997E+02  0.45594000000E+02  0.51100000000E-03 0. -1.
         11   -1    0    0    0    0 -0.00000000000E+00 -0.00000000000E+00 -0.45593999997E+02  0.45594000000E+02  0.51100000000E-03 0.  1.
    9900012    2    1    2    0    0 -0.25992343917E+02  0.35796263523E+01 -0.31060418488E+02  0.50528864941E+02  0.30000015475E+02 0.  0.
         12    1    1    2    0    0  0.25992343917E+02 -0.35796263523E+01  0.31060418488E+02  0.40659135059E+02  0.00000000000E+00 0. -1.
         11    1    3    3    0    0  0.19435597942E+01  0.27499788088E+01 -0.33941137085E+00  0.33845248503E+01  0.51100000000E-03 0. -1.
        -11    1    3    3    0    0 -0.31074765131E+02 -0.24951494049E+01 -0.26353971349E+02  0.40821545839E+02  0.51100000000E-03 0.  1.
        -12    1    3    3    0    0  0.31388614199E+01  0.33247969484E+01 -0.43670357673E+01  0.63227942521E+01  0.00000000000E+00 0.  1.
</event>
<event>
 7    1  0.6073302E-013  0.5052886E+02  0.7816164E-02  0.1300439E+00
        -11   -1    0    0    0    0  0.00000000000E+00  0.00000000000E+00  0.45593999997E+02  0.45594000000E+02  0.51100000000E-03 0. -1.
         11   -1    0    0    0    0 -0.00000000000E+00 -0.00000000000E+00 -0.45593999997E+02  0.45594000000E+02  0.51100000000E-03 0.  1.
    9900012    2    1    2    0    0 -0.25880345742E+02  0.25983169059E+02  0.17557000212E+02  0.50528860480E+02  0.30000001914E+02 0.  0.
         12    1    1    2    0    0  0.25880345742E+02 -0.25983169059E+02 -0.17557000212E+02  0.40659139520E+02  0.00000000000E+00 0. -1.
         11    1    3    3    0    0 -0.10510468526E+02  0.92971424001E+01  0.19393980593E+02  0.23938113730E+02  0.51100000000E-03 0. -1.
        -11    1    3    3    0    0 -0.19316959595E+01  0.72261496121E+01 -0.60557336112E+01  0.96239595452E+01  0.51100000000E-03 0.  1.
        -12    1    3    3    0    0 -0.13438181257E+02  0.94598770465E+01  0.42187532302E+01  0.16966787205E+02  0.00000000000E+00 0.  1.
</event>
<event>
 7    1  0.6073302E-013  0.5052885E+02  0.7816164E-02  0.1300439E+00
        -11   -1    0    0    0    0  0.00000000000E+00  0.00000000000E+00  0.45593999997E+02  0.45594000000E+02  0.51100000000E-03 0. -1.
         11   -1    0    0    0    0 -0.00000000000E+00 -0.00000000000E+00 -0.45593999997E+02  0.45594000000E+02  0.51100000000E-03 0.  1.
    9900012    2    1    2    0    0  0.25580464546E+02  0.27871219124E+02 -0.14899718313E+02  0.50528848168E+02  0.29999964492E+02 0.  0.
         12    1    1    2    0    0 -0.25580464546E+02 -0.27871219124E+02  0.14899718313E+02  0.40659151832E+02  0.00000000000E+00 0. -1.
         11    1    3    3    0    0 -0.48913419052E+00  0.45224196245E+01  0.51808339025E+01  0.68943869708E+01  0.51100000000E-03 0. -1.
        -11    1    3    3    0    0  0.18378568716E+02  0.24234690727E+02 -0.18883611818E+02  0.35800598015E+02  0.51100000000E-03 0.  1.
        -12    1    3    3    0    0  0.76910300204E+01 -0.88589122770E+00 -0.11969403978E+01  0.78338631823E+01  0.00000000000E+00 0.  1.
</event>
<event>
 7    1  0.6073302E-013  0.5052886E+02  0.7816164E-02  0.1300439E+00
        -11   -1    0    0    0    0  0.00000000000E+00  0.00000000000E+00  0.45593999997E+02  0.45594000000E+02  0.51100000000E-03 0. -1.
         11   -1    0    0    0    0 -0.00000000000E+00 -0.00000000000E+00 -0.45593999997E+02  0.45594000000E+02  0.51100000000E-03 0.  1.
    9900012    2    1    2    0    0 -0.74683270150E+01  0.56918952176E+01 -0.39559984271E+02  0.50528856685E+02  0.29999990379E+02 0.  0.
         12    1    1    2    0    0  0.74683270150E+01 -0.56918952176E+01  0.39559984271E+02  0.40659143315E+02  0.00000000000E+00 0. -1.
         11    1    3    3    0    0  0.30455335804E+01  0.65650625251E+01 -0.11228560734E+02  0.13358738607E+02  0.51100000000E-03 0. -1.
        -11    1    3    3    0    0 -0.90999767203E+01 -0.80290895242E+01 -0.27205440953E+02  0.29789459085E+02  0.51100000000E-03 0.  1.
        -12    1    3    3    0    0 -0.14138838752E+01  0.71559222166E+01 -0.11259825843E+01  0.73806589925E+01  0.00000000000E+00 0.  1.
</event>
<event>
 7    1  0.6073302E-013  0.5052887E+02  0.7816164E-02  0.1300439E+00
        -11   -1    0    0    0    0  0.00000000000E+00  0.00000000000E+00  0.45593999997E+02  0.45594000000E+02  0.51100000000E-03 0.  1.
         11   -1    0    0    0    0 -0.00000000000E+00 -0.00000000000E+00 -0.45593999997E+02  0.45594000000E+02  0.51100000000E-03 0. -1.
    9900012    2    1    2    0    0  0.13659547069E+02 -0.36005077974E+02 -0.13046680918E+02  0.50528871270E+02  0.30000034714E+02 0.  0.
         12    1    1    2    0    0 -0.13659547069E+02  0.36005077974E+02  0.13046680918E+02  0.40659128730E+02  0.00000000000E+00 0. -1.
         11    1    3    3    0    0  0.12774258061E+02 -0.24797277322E+02 -0.15447958694E+02  0.31886142126E+02  0.51100000000E-03 0.  1.
        -11    1    3    3    0    0 -0.59002316002E+01 -0.74571140544E+00  0.18438889105E-01  0.59471975493E+01  0.51100000000E-03 0. -1.
         12    1    3    3    0    0  0.67855206080E+01 -0.10462089246E+02  0.23828388866E+01  0.12695531595E+02  0.00000000000E+00 0. -1.
</event>
<event>
 7    1  0.6073302E-013  0.5052887E+02  0.7816164E-02  0.1300439E+00
        -11   -1    0    0    0    0  0.00000000000E+00  0.00000000000E+00  0.45593999997E+02  0.45594000000E+02  0.51100000000E-03 0.  1.
         11   -1    0    0    0    0 -0.00000000000E+00 -0.00000000000E+00 -0.45593999997E+02  0.45594000000E+02  0.51100000000E-03 0. -1.
    9900012    2    1    2    0    0  0.18993994121E+02  0.35709307343E+02 -0.41519401581E+01  0.50528867562E+02  0.30000023440E+02 0.  0.
         12    1    1    2    0    0 -0.18993994121E+02 -0.35709307343E+02  0.41519401581E+01  0.40659132438E+02  0.00000000000E+00 0. -1.
         11    1    3    3    0    0 -0.13749772978E+00  0.49263457966E-01  0.10928619742E+00  0.18241778437E+00  0.51100000000E-03 0. -1.
        -11    1    3    3    0    0  0.52042332226E+01  0.29707686140E+02 -0.13019851287E+02  0.32850375752E+02  0.51100000000E-03 0.  1.
        -12    1    3    3    0    0  0.13927258629E+02  0.59523577445E+01  0.87586249310E+01  0.17496074026E+02  0.00000000000E+00 0.  1.
</event>
<event>
 7    1  0.6073302E-013  0.5052882E+02  0.7816164E-02  0.1300439E+00
        -11   -1    0    0    0    0  0.00000000000E+00  0.00000000000E+00  0.45593999997E+02  0.45594000000E+02  0.51100000000E-03 0. -1.
         11   -1    0    0    0    0 -0.00000000000E+00 -0.00000000000E+00 -0.45593999997E+02  0.45594000000E+02  0.51100000000E-03 0.  1.
    9900012    2    1    2    0    0 -0.18043660956E+02  0.19937418318E+02 -0.30497446485E+02  0.50528824012E+02  0.29999891068E+02 0.  0.
         12    1    1    2    0    0  0.18043660956E+02 -0.19937418318E+02  0.30497446485E+02  0.40659175988E+02  0.00000000000E+00 0. -1.
         11    1    3    3    0    0  0.45623728623E+01 -0.81626652784E+00 -0.73620592221E+01  0.86995088040E+01  0.51100000000E-03 0. -1.
        -11    1    3    3    0    0 -0.16438229890E+02  0.50535756599E+01 -0.16083555479E+02  0.23546438924E+02  0.51100000000E-03 0.  1.
        -12    1    3    3    0    0 -0.61678039281E+01  0.15700109186E+02 -0.70518317838E+01  0.18282876285E+02  0.00000000000E+00 0.  1.
</event>
<event>
 7    1  0.6073302E-013  0.5052887E+02  0.7816164E-02  0.1300439E+00
        -11   -1    0    0    0    0  0.00000000000E+00  0.00000000000E+00  0.45593999997E+02  0.45594000000E+02  0.51100000000E-03 0.  1.
         11   -1    0    0    0    0 -0.00000000000E+00 -0.00000000000E+00 -0.45593999997E+02  0.45594000000E+02  0.51100000000E-03 0. -1.
    9900012    2    1    2    0    0 -0.39484158355E+01 -0.34221687562E+02  0.21597477062E+02  0.50528869382E+02  0.30000028972E+02 0.  0.
         12    1    1    2    0    0  0.39484158355E+01  0.34221687562E+02 -0.21597477062E+02  0.40659130618E+02  0.00000000000E+00 0. -1.
         11    1    3    3    0    0  0.11970059914E+01 -0.48219071957E+01  0.89685464505E+01  0.10252728322E+02  0.51100000000E-03 0. -1.
        -11    1    3    3    0    0 -0.39650187692E+01 -0.32469120581E+02  0.15231166910E+02  0.36082594292E+02  0.51100000000E-03 0.  1.
        -12    1    3    3    0    0 -0.11804030577E+01  0.30693402150E+01 -0.26022362988E+01  0.41935467672E+01  0.00000000000E+00 0.  1.
</event>
<event>
 7    1  0.6073302E-013  0.5052885E+02  0.7816164E-02  0.1300439E+00
        -11   -1    0    0    0    0  0.00000000000E+00  0.00000000000E+00  0.45593999997E+02  0.45594000000E+02  0.51100000000E-03 0.  1.
         11   -1    0    0    0    0 -0.00000000000E+00 -0.00000000000E+00 -0.45593999997E+02  0.45594000000E+02  0.51100000000E-03 0. -1.
    9900012    2    1    2    0    0  0.26743728493E+02  0.52072761025E+01  0.30179855406E+02  0.50528850839E+02  0.29999972611E+02 0.  0.
         12    1    1    2    0    0 -0.26743728493E+02 -0.52072761025E+01 -0.30179855406E+02  0.40659149161E+02  0.00000000000E+00 0. -1.
         11    1    3    3    0    0  0.53335648971E+01 -0.43785500584E+01 -0.36712946941E+01  0.78164582847E+01  0.51100000000E-03 0. -1.
        -11    1    3    3    0    0  0.11951003074E+02  0.11278331685E+02  0.20948772404E+02  0.26624768649E+02  0.51100000000E-03 0.  1.
        -12    1    3    3    0    0  0.94591605222E+01 -0.16925055245E+01  0.12902377696E+02  0.16087623906E+02  0.00000000000E+00 0.  1.
</event>
<event>
 7    1  0.6073302E-013  0.5052886E+02  0.7816164E-02  0.1300439E+00
        -11   -1    0    0    0    0  0.00000000000E+00  0.00000000000E+00  0.45593999997E+02  0.45594000000E+02  0.51100000000E-03 0. -1.
         11   -1    0    0    0    0 -0.00000000000E+00 -0.00000000000E+00 -0.45593999997E+02  0.45594000000E+02  0.51100000000E-03 0.  1.
    9900012    2    1    2    0    0  0.34411851743E+02  0.97790112984E+01 -0.19322545219E+02  0.50528863805E+02  0.30000012022E+02 0.  0.
         12    1    1    2    0    0 -0.34411851743E+02 -0.97790112984E+01  0.19322545219E+02  0.40659136195E+02  0.00000000000E+00 0. -1.
         11    1    3    3    0    0  0.11060343341E+01 -0.33354748741E+01  0.53732469453E+01  0.64203183395E+01  0.51100000000E-03 0. -1.
        -11    1    3    3    0    0  0.52581065778E+01  0.52164304556E+01 -0.51810172857E+01  0.90389032442E+01  0.51100000000E-03 0.  1.
         12    1    3    3    0    0  0.28047710832E+02  0.78980557168E+01 -0.19514774878E+02  0.35069642221E+02  0.00000000000E+00 0. -1.
</event>
<event>
 7    1  0.6073302E-013  0.5052886E+02  0.7816164E-02  0.1300439E+00
        -11   -1    0    0    0    0  0.00000000000E+00  0.00000000000E+00  0.45593999997E+02  0.45594000000E+02  0.51100000000E-03 0.  1.
         11   -1    0    0    0    0 -0.00000000000E+00 -0.00000000000E+00 -0.45593999997E+02  0.45594000000E+02  0.51100000000E-03 0. -1.
    9900012    2    1    2    0    0 -0.14931732651E+02 -0.13153324238E+02  0.35457000421E+02  0.50528862560E+02  0.30000008238E+02 0.  0.
         12    1    1    2    0    0  0.14931732651E+02  0.13153324238E+02 -0.35457000421E+02  0.40659137440E+02  0.00000000000E+00 0. -1.
         11    1    3    3    0    0 -0.69722617280E+01  0.38451537239E+01 -0.14144676428E+01  0.80869252338E+01  0.51100000000E-03 0. -1.
        -11    1    3    3    0    0 -0.55049927867E+01 -0.52756599434E+01  0.22370935270E+02  0.23634641493E+02  0.51100000000E-03 0.  1.
         12    1    3    3    0    0 -0.24544781365E+01 -0.11722818019E+02  0.14500532794E+02  0.18807295833E+02  0.00000000000E+00 0. -1.
</event>
<event>
 7    1  0.6073302E-013  0.5052886E+02  0.7816164E-02  0.1300439E+00
        -11   -1    0    0    0    0  0.00000000000E+00  0.00000000000E+00  0.45593999997E+02  0.45594000000E+02  0.51100000000E-03 0.  1.
         11   -1    0    0    0    0 -0.00000000000E+00 -0.00000000000E+00 -0.45593999997E+02  0.45594000000E+02  0.51100000000E-03 0. -1.
    9900012    2    1    2    0    0  0.31274857421E+02  0.21762073959E+02  0.14193701509E+02  0.50528859181E+02  0.29999997965E+02 0.  0.
         12    1    1    2    0    0 -0.31274857421E+02 -0.21762073959E+02 -0.14193701509E+02  0.40659140819E+02  0.00000000000E+00 0. -1.
         11    1    3    3    0    0  0.19056542665E+02  0.13784425564E+02  0.78471559391E+01  0.24793952147E+02  0.51100000000E-03 0. -1.
        -11    1    3    3    0    0  0.11958485289E+02 -0.30912204192E+01 -0.10866226864E+01  0.12399264623E+02  0.51100000000E-03 0.  1.
         12    1    3    3    0    0  0.25982946666E+00  0.11068868813E+02  0.74331682560E+01  0.13335642410E+02  0.00000000000E+00 0. -1.
</event>
<event>
 7    1  0.6073302E-013  0.5052886E+02  0.7816164E-02  0.1300439E+00
        -11   -1    0    0    0    0  0.00000000000E+00  0.00000000000E+00  0.45593999997E+02  0.45594000000E+02  0.51100000000E-03 0.  1.
         11   -1    0    0    0    0 -0.00000000000E+00 -0.00000000000E+00 -0.45593999997E+02  0.45594000000E+02  0.51100000000E-03 0. -1.
    9900012    2    1    2    0    0  0.11328518014E+02 -0.10114952930E+02  0.37716280277E+02  0.50528863374E+02  0.30000010713E+02 0.  0.
         12    1    1    2    0    0 -0.11328518014E+02  0.10114952930E+02 -0.37716280277E+02  0.40659136626E+02  0.00000000000E+00 0. -1.
         11    1    3    3    0    0  0.88630436460E+01  0.16318726024E+01  0.30236531726E+02  0.31550980998E+02  0.51100000000E-03 0. -1.
        -11    1    3    3    0    0  0.23524293376E+01 -0.14456870547E+02  0.56154204858E+01  0.15686554028E+02  0.51100000000E-03 0.  1.
         12    1    3    3    0    0  0.11304503058E+00  0.27100450143E+01  0.18643280657E+01  0.32913283481E+01  0.00000000000E+00 0. -1.
</event>
<event>
 7    1  0.6073302E-013  0.5052887E+02  0.7816164E-02  0.1300439E+00
        -11   -1    0    0    0    0  0.00000000000E+00  0.00000000000E+00  0.45593999997E+02  0.45594000000E+02  0.51100000000E-03 0. -1.
         11   -1    0    0    0    0 -0.00000000000E+00 -0.00000000000E+00 -0.45593999997E+02  0.45594000000E+02  0.51100000000E-03 0.  1.
    9900012    2    1    2    0    0 -0.23107097727E+02 -0.24248340201E+02 -0.23048748341E+02  0.50528871037E+02  0.30000034005E+02 0.  0.
         12    1    1    2    0    0  0.23107097727E+02  0.24248340201E+02  0.23048748341E+02  0.40659128963E+02  0.00000000000E+00 0. -1.
         11    1    3    3    0    0 -0.24434805068E+02 -0.19373612755E+02 -0.11249796122E+02  0.33150482394E+02  0.51100000000E-03 0.  1.
        -11    1    3    3    0    0  0.13892626450E+01  0.38119353142E+01 -0.41532657646E+01  0.58060759820E+01  0.51100000000E-03 0. -1.
         12    1    3    3    0    0 -0.61555304278E-01 -0.86866627608E+01 -0.76456864543E+01  0.11572312661E+02  0.00000000000E+00 0. -1.
</event>
<event>
 7    1  0.6073302E-013  0.5052886E+02  0.7816164E-02  0.1300439E+00
        -11   -1    0    0    0    0  0.00000000000E+00  0.00000000000E+00  0.45593999997E+02  0.45594000000E+02  0.51100000000E-03 0.  1.
         11   -1    0    0    0    0 -0.00000000000E+00 -0.00000000000E+00 -0.45593999997E+02  0.45594000000E+02  0.51100000000E-03 0. -1.
    9900012    2    1    2    0    0 -0.19506703848E+02 -0.15144959758E+01  0.35642111852E+02  0.50528864122E+02  0.30000012987E+02 0.  0.
         12    1    1    2    0    0  0.19506703848E+02  0.15144959758E+01 -0.35642111852E+02  0.40659135878E+02  0.00000000000E+00 0. -1.
         11    1    3    3    0    0 -0.40226261790E+00  0.11102665126E+02  0.58616335008E+01  0.12561438439E+02  0.51100000000E-03 0. -1.
        -11    1    3    3    0    0 -0.65331277748E+01 -0.42100155865E+01  0.14596905982E+02  0.16537099331E+02  0.51100000000E-03 0.  1.
         12    1    3    3    0    0 -0.12571313455E+02 -0.84071455150E+01  0.15183572369E+02  0.21430326352E+02  0.00000000000E+00 0. -1.
</event>
<event>
 7    1  0.6073302E-013  0.5052888E+02  0.7816164E-02  0.1300439E+00
        -11   -1    0    0    0    0  0.00000000000E+00  0.00000000000E+00  0.45593999997E+02  0.45594000000E+02  0.51100000000E-03 0.  1.
         11   -1    0    0    0    0 -0.00000000000E+00 -0.00000000000E+00 -0.45593999997E+02  0.45594000000E+02  0.51100000000E-03 0. -1.
    9900012    2    1    2    0    0 -0.95766885050E+01 -0.10525870612E+02  0.38087487907E+02  0.50528884786E+02  0.30000075797E+02 0.  0.
         12    1    1    2    0    0  0.95766885050E+01  0.10525870612E+02 -0.38087487907E+02  0.40659115214E+02  0.00000000000E+00 0. -1.
         11    1    3    3    0    0 -0.11557774628E+01  0.10352927924E+01 -0.31863104377E+01  0.35440410799E+01  0.51100000000E-03 0. -1.
        -11    1    3    3    0    0 -0.95187371828E+00 -0.84014431501E+01  0.36726238754E+02  0.37686959600E+02  0.51100000000E-03 0.  1.
         12    1    3    3    0    0 -0.74690373239E+01 -0.31597202543E+01  0.45475595908E+01  0.92978841068E+01  0.00000000000E+00 0. -1.
</event>
<event>
 7    1  0.6073302E-013  0.5052885E+02  0.7816164E-02  0.1300439E+00
        -11   -1    0    0    0    0  0.00000000000E+00  0.00000000000E+00  0.45593999997E+02  0.45594000000E+02  0.51100000000E-03 0.  1.
         11   -1    0    0    0    0 -0.00000000000E+00 -0.00000000000E+00 -0.45593999997E+02  0.45594000000E+02  0.51100000000E-03 0. -1.
    9900012    2    1    2    0    0  0.21879364459E+02  0.31514592615E+02 -0.13464401080E+02  0.50528853019E+02  0.29999979235E+02 0.  0.
         12    1    1    2    0    0 -0.21879364459E+02 -0.31514592615E+02  0.13464401080E+02  0.40659146981E+02  0.00000000000E+00 0. -1.
         11    1    3    3    0    0  0.60630539984E+01  0.25919689624E+01  0.10249683427E+01  0.66730418292E+01  0.51100000000E-03 0. -1.
        -11    1    3    3    0    0  0.10288731749E+02  0.28457459044E+02 -0.19811232466E+02  0.36168631552E+02  0.51100000000E-03 0.  1.
        -12    1    3    3    0    0  0.55275787110E+01  0.46516460862E+00  0.53218630437E+01  0.76871796373E+01  0.00000000000E+00 0.  1.
</event>
<event>
 7    1  0.6073302E-013  0.5052885E+02  0.7816164E-02  0.1300439E+00
        -11   -1    0    0    0    0  0.00000000000E+00  0.00000000000E+00  0.45593999997E+02  0.45594000000E+02  0.51100000000E-03 0. -1.
         11   -1    0    0    0    0 -0.00000000000E+00 -0.00000000000E+00 -0.45593999997E+02  0.45594000000E+02  0.51100000000E-03 0.  1.
    9900012    2    1    2    0    0  0.44854245065E+01 -0.74135719134E+01 -0.39725131295E+02  0.50528854191E+02  0.29999982798E+02 0.  0.
         12    1    1    2    0    0 -0.44854245065E+01  0.74135719134E+01  0.39725131295E+02  0.40659145809E+02  0.00000000000E+00 0. -1.
         11    1    3    3    0    0 -0.80683458655E+01 -0.57195124398E+01 -0.44252605402E+01  0.10834849268E+02  0.51100000000E-03 0. -1.
        -11    1    3    3    0    0  0.51001462593E+01 -0.20317756868E+01 -0.30107232876E+02  0.30603677492E+02  0.51100000000E-03 0.  1.
        -12    1    3    3    0    0  0.74536241127E+01  0.33771621313E+00 -0.51926378793E+01  0.90903274308E+01  0.00000000000E+00 0.  1.
</event>
<event>
 7    1  0.6073302E-013  0.5052886E+02  0.7816164E-02  0.1300439E+00
        -11   -1    0    0    0    0  0.00000000000E+00  0.00000000000E+00  0.45593999997E+02  0.45594000000E+02  0.51100000000E-03 0. -1.
         11   -1    0    0    0    0 -0.00000000000E+00 -0.00000000000E+00 -0.45593999997E+02  0.45594000000E+02  0.51100000000E-03 0.  1.
    9900012    2    1    2    0    0 -0.25986801024E+02  0.25760502323E+02 -0.17727060007E+02  0.50528856331E+02  0.29999989305E+02 0.  0.
         12    1    1    2    0    0  0.25986801024E+02 -0.25760502323E+02  0.17727060007E+02  0.40659143669E+02  0.00000000000E+00 0. -1.
         11    1    3    3    0    0 -0.64214448284E+01  0.12773667832E+02  0.68575039409E+01  0.15856446768E+02  0.51100000000E-03 0. -1.
        -11    1    3    3    0    0 -0.12597798655E+02  0.11282195965E+02 -0.19852945000E+02  0.26079338607E+02  0.51100000000E-03 0.  1.
         12    1    3    3    0    0 -0.69675575404E+01  0.17046385263E+01 -0.47316189477E+01  0.85930709557E+01  0.00000000000E+00 0. -1.
</event>
<event>
 7    1  0.6073302E-013  0.5052886E+02  0.7816164E-02  0.1300439E+00
        -11   -1    0    0    0    0  0.00000000000E+00  0.00000000000E+00  0.45593999997E+02  0.45594000000E+02  0.51100000000E-03 0. -1.
         11   -1    0    0    0    0 -0.00000000000E+00 -0.00000000000E+00 -0.45593999997E+02  0.45594000000E+02  0.51100000000E-03 0.  1.
    9900012    2    1    2    0    0  0.23145537275E+02 -0.28313798604E+02  0.17770158119E+02  0.50528860723E+02  0.30000002654E+02 0.  0.
         12    1    1    2    0    0 -0.23145537275E+02  0.28313798604E+02 -0.17770158119E+02  0.40659139277E+02  0.00000000000E+00 0. -1.
         11    1    3    3    0    0  0.79029542375E+01  0.33963578403E-01  0.15847392706E+02  0.17708689817E+02  0.51100000000E-03 0. -1.
        -11    1    3    3    0    0  0.68589870131E+01 -0.17285677157E+02  0.32433471473E+01  0.18877490262E+02  0.51100000000E-03 0.  1.
         12    1    3    3    0    0  0.83835960242E+01 -0.11062085026E+02 -0.13205817338E+01  0.13942680644E+02  0.00000000000E+00 0. -1.
</event>
<event>
 7    1  0.6073302E-013  0.5052886E+02  0.7816164E-02  0.1300439E+00
        -11   -1    0    0    0    0  0.00000000000E+00  0.00000000000E+00  0.45593999997E+02  0.45594000000E+02  0.51100000000E-03 0. -1.
         11   -1    0    0    0    0 -0.00000000000E+00 -0.00000000000E+00 -0.45593999997E+02  0.45594000000E+02  0.51100000000E-03 0.  1.
    9900012    2    1    2    0    0 -0.35336451856E+02  0.95798417727E+01 -0.17684106621E+02  0.50528858037E+02  0.29999994490E+02 0.  0.
         12    1    1    2    0    0  0.35336451856E+02 -0.95798417727E+01  0.17684106621E+02  0.40659141963E+02  0.00000000000E+00 0. -1.
         11    1    3    3    0    0 -0.20636417304E+02  0.24228173831E+01 -0.16781105385E+02  0.26708374369E+02  0.51100000000E-03 0.  1.
        -11    1    3    3    0    0 -0.85701551981E+01 -0.17506552684E+01  0.63422791608E+01  0.10804483292E+02  0.51100000000E-03 0. -1.
         12    1    3    3    0    0 -0.61298793536E+01  0.89076796580E+01 -0.72452803966E+01  0.13016000377E+02  0.00000000000E+00 0. -1.
</event>
<event>
 7    1  0.6073302E-013  0.5052885E+02  0.7816164E-02  0.1300439E+00
        -11   -1    0    0    0    0  0.00000000000E+00  0.00000000000E+00  0.45593999997E+02  0.45594000000E+02  0.51100000000E-03 0. -1.
         11   -1    0    0    0    0 -0.00000000000E+00 -0.00000000000E+00 -0.45593999997E+02  0.45594000000E+02  0.51100000000E-03 0.  1.
    9900012    2    1    2    0    0 -0.20278991696E+02  0.19561941583E+02 -0.29313133352E+02  0.50528845439E+02  0.29999956197E+02 0.  0.
         12    1    1    2    0    0  0.20278991696E+02 -0.19561941583E+02  0.29313133352E+02  0.40659154561E+02  0.00000000000E+00 0. -1.
         11    1    3    3    0    0 -0.25539304525E+01  0.11915851387E+02 -0.64834327329E+01  0.13803802929E+02  0.51100000000E-03 0.  1.
        -11    1    3    3    0    0 -0.47529689512E+01 -0.64484724877E+01 -0.12806663724E+02  0.15105765366E+02  0.51100000000E-03 0. -1.
         12    1    3    3    0    0 -0.12972092292E+02  0.14094562683E+02 -0.10023036895E+02  0.21619277145E+02  0.00000000000E+00 0. -1.
</event>
<event>
 7    1  0.6073302E-013  0.5052885E+02  0.7816164E-02  0.1300439E+00
        -11   -1    0    0    0    0  0.00000000000E+00  0.00000000000E+00  0.45593999997E+02  0.45594000000E+02  0.51100000000E-03 0.  1.
         11   -1    0    0    0    0 -0.00000000000E+00 -0.00000000000E+00 -0.45593999997E+02  0.45594000000E+02  0.51100000000E-03 0. -1.
    9900012    2    1    2    0    0  0.20710402529E+02 -0.23258010510E+02  0.26140206937E+02  0.50528852881E+02  0.29999978816E+02 0.  0.
         12    1    1    2    0    0 -0.20710402529E+02  0.23258010510E+02 -0.26140206937E+02  0.40659147119E+02  0.00000000000E+00 0. -1.
         11    1    3    3    0    0 -0.49284618316E+01 -0.65257410724E+01 -0.12831455379E+01  0.82777711555E+01  0.51100000000E-03 0. -1.
        -11    1    3    3    0    0  0.20807227021E+02 -0.15566798225E+02  0.26648062055E+02  0.37220761878E+02  0.51100000000E-03 0.  1.
        -12    1    3    3    0    0  0.48316373396E+01 -0.11654712120E+01  0.77529042006E+00  0.50303198469E+01  0.00000000000E+00 0.  1.
</event>
<event>
 7    1  0.6073302E-013  0.5052887E+02  0.7816164E-02  0.1300439E+00
        -11   -1    0    0    0    0  0.00000000000E+00  0.00000000000E+00  0.45593999997E+02  0.45594000000E+02  0.51100000000E-03 0. -1.
         11   -1    0    0    0    0 -0.00000000000E+00 -0.00000000000E+00 -0.45593999997E+02  0.45594000000E+02  0.51100000000E-03 0.  1.
    9900012    2    1    2    0    0  0.59276612413E+00 -0.12349250492E+02 -0.38733833522E+02  0.50528865495E+02  0.30000017158E+02 0.  0.
         12    1    1    2    0    0 -0.59276612413E+00  0.12349250492E+02  0.38733833522E+02  0.40659134505E+02  0.00000000000E+00 0. -1.
         11    1    3    3    0    0  0.96203124935E+01  0.30258860152E+01 -0.45461268742E+01  0.11062263262E+02  0.51100000000E-03 0. -1.
        -11    1    3    3    0    0 -0.35293299353E+01 -0.95682193110E+01 -0.26412094810E+02  0.28312642814E+02  0.51100000000E-03 0.  1.
         12    1    3    3    0    0 -0.54982164341E+01 -0.58069171963E+01 -0.77756118378E+01  0.11153959420E+02  0.00000000000E+00 0. -1.
</event>
<event>
 7    1  0.6073302E-013  0.5052885E+02  0.7816164E-02  0.1300439E+00
        -11   -1    0    0    0    0  0.00000000000E+00  0.00000000000E+00  0.45593999997E+02  0.45594000000E+02  0.51100000000E-03 0. -1.
         11   -1    0    0    0    0 -0.00000000000E+00 -0.00000000000E+00 -0.45593999997E+02  0.45594000000E+02  0.51100000000E-03 0.  1.
    9900012    2    1    2    0    0 -0.26533231849E+02 -0.30344214141E+02 -0.53275244928E+01  0.50528852919E+02  0.29999978931E+02 0.  0.
         12    1    1    2    0    0  0.26533231849E+02  0.30344214141E+02  0.53275244928E+01  0.40659147081E+02  0.00000000000E+00 0. -1.
         11    1    3    3    0    0 -0.21210463595E+02 -0.58750310650E+01 -0.34724803522E+01  0.22281334700E+02  0.51100000000E-03 0. -1.
        -11    1    3    3    0    0 -0.36274308321E+01 -0.21523670263E+02 -0.62382031234E+01  0.22701141260E+02  0.51100000000E-03 0.  1.
         12    1    3    3    0    0 -0.16953374218E+01 -0.29455128123E+01  0.43831589828E+01  0.55463769589E+01  0.00000000000E+00 0. -1.
</event>
<event>
 7    1  0.6073302E-013  0.5052884E+02  0.7816164E-02  0.1300439E+00
        -11   -1    0    0    0    0  0.00000000000E+00  0.00000000000E+00  0.45593999997E+02  0.45594000000E+02  0.51100000000E-03 0. -1.
         11   -1    0    0    0    0 -0.00000000000E+00 -0.00000000000E+00 -0.45593999997E+02  0.45594000000E+02  0.51100000000E-03 0.  1.
    9900012    2    1    2    0    0 -0.39955833494E+02 -0.75239817767E+01  0.29720504733E+00  0.50528840358E+02  0.29999940751E+02 0.  0.
         12    1    1    2    0    0  0.39955833494E+02  0.75239817767E+01 -0.29720504733E+00  0.40659159642E+02  0.00000000000E+00 0. -1.
         11    1    3    3    0    0 -0.13788408672E+02  0.76977991438E+01 -0.51285570065E+00  0.15799979323E+02  0.51100000000E-03 0.  1.
        -11    1    3    3    0    0 -0.23824176362E+02 -0.16819091587E+02 -0.37047817885E+01  0.29397255476E+02  0.51100000000E-03 0. -1.
         12    1    3    3    0    0 -0.23432484593E+01  0.15973106664E+01  0.45148425365E+01  0.53316055590E+01  0.00000000000E+00 0. -1.
</event>
<event>
 7    1  0.6073302E-013  0.5052885E+02  0.7816164E-02  0.1300439E+00
        -11   -1    0    0    0    0  0.00000000000E+00  0.00000000000E+00  0.45593999997E+02  0.45594000000E+02  0.51100000000E-03 0.  1.
         11   -1    0    0    0    0 -0.00000000000E+00 -0.00000000000E+00 -0.45593999997E+02  0.45594000000E+02  0.51100000000E-03 0. -1.
    9900012    2    1    2    0    0  0.27042611516E+02  0.24136599459E+02  0.18419778661E+02  0.50528849529E+02  0.29999968629E+02 0.  0.
         12    1    1    2    0    0 -0.27042611516E+02 -0.24136599459E+02 -0.18419778661E+02  0.40659150471E+02  0.00000000000E+00 0. -1.
         11    1    3    3    0    0  0.20666298159E+01  0.21574058630E+02  0.91600576324E+01  0.23529080319E+02  0.51100000000E-03 0. -1.
        -11    1    3    3    0    0  0.13320793251E+02  0.18813163843E+00  0.63309728087E+01  0.14749920112E+02  0.51100000000E-03 0.  1.
         12    1    3    3    0    0  0.11655188449E+02  0.23744091911E+01  0.29287482203E+01  0.12249849098E+02  0.00000000000E+00 0. -1.
</event>
<event>
 7    1  0.6073302E-013  0.5052886E+02  0.7816164E-02  0.1300439E+00
        -11   -1    0    0    0    0  0.00000000000E+00  0.00000000000E+00  0.45593999997E+02  0.45594000000E+02  0.51100000000E-03 0.  1.
         11   -1    0    0    0    0 -0.00000000000E+00 -0.00000000000E+00 -0.45593999997E+02  0.45594000000E+02  0.51100000000E-03 0. -1.
    9900012    2    1    2    0    0  0.24997382001E+02 -0.30877469360E+02  0.86532129389E+01  0.50528864308E+02  0.30000013551E+02 0.  0.
         12    1    1    2    0    0 -0.24997382001E+02  0.30877469360E+02 -0.86532129389E+01  0.40659135692E+02  0.00000000000E+00 0. -1.
         11    1    3    3    0    0  0.16150254451E+02 -0.84964068703E+01  0.10845311015E+02  0.21228292909E+02  0.51100000000E-03 0. -1.
        -11    1    3    3    0    0 -0.38011821057E+01 -0.31827827226E+01 -0.38111815383E+01  0.62533348094E+01  0.51100000000E-03 0.  1.
        -12    1    3    3    0    0  0.12648309656E+02 -0.19198279768E+02  0.16190834624E+01  0.23047236590E+02  0.00000000000E+00 0.  1.
</event>
<event>
 7    1  0.6073302E-013  0.5052886E+02  0.7816164E-02  0.1300439E+00
        -11   -1    0    0    0    0  0.00000000000E+00  0.00000000000E+00  0.45593999997E+02  0.45594000000E+02  0.51100000000E-03 0.  1.
         11   -1    0    0    0    0 -0.00000000000E+00 -0.00000000000E+00 -0.45593999997E+02  0.45594000000E+02  0.51100000000E-03 0. -1.
    9900012    2    1    2    0    0 -0.36022760675E+02  0.17872709040E+01  0.18770516490E+02  0.50528856954E+02  0.29999991197E+02 0.  0.
         12    1    1    2    0    0  0.36022760675E+02 -0.17872709040E+01 -0.18770516490E+02  0.40659143046E+02  0.00000000000E+00 0. -1.
         11    1    3    3    0    0 -0.45091031677E+01 -0.77438266482E+01 -0.12022769125E+01  0.90412572449E+01  0.51100000000E-03 0. -1.
        -11    1    3    3    0    0 -0.24656344095E+02  0.10162884334E+02  0.82921202541E+01  0.27928100198E+02  0.51100000000E-03 0.  1.
        -12    1    3    3    0    0 -0.68573134128E+01 -0.63178678226E+00  0.11680673149E+02  0.13559499511E+02  0.00000000000E+00 0.  1.
</event>
<event>
 7    1  0.6073302E-013  0.5052886E+02  0.7816164E-02  0.1300439E+00
        -11   -1    0    0    0    0  0.00000000000E+00  0.00000000000E+00  0.45593999997E+02  0.45594000000E+02  0.51100000000E-03 0.  1.
         11   -1    0    0    0    0 -0.00000000000E+00 -0.00000000000E+00 -0.45593999997E+02  0.45594000000E+02  0.51100000000E-03 0. -1.
    9900012    2    1    2    0    0 -0.39079223525E+02  0.13574793950E+01  0.11141693894E+02  0.50528858292E+02  0.29999995263E+02 0.  0.
         12    1    1    2    0    0  0.39079223525E+02 -0.13574793950E+01 -0.11141693894E+02  0.40659141708E+02  0.00000000000E+00 0. -1.
         11    1    3    3    0    0 -0.80872500466E+01  0.84689337510E+01 -0.44273881247E+01  0.12519114109E+02  0.51100000000E-03 0. -1.
        -11    1    3    3    0    0 -0.91241215698E+01 -0.55840515490E+01  0.11514658136E+02  0.15716824691E+02  0.51100000000E-03 0.  1.
         12    1    3    3    0    0 -0.21867851909E+02 -0.15274028070E+01  0.40544238824E+01  0.22292919492E+02  0.00000000000E+00 0. -1.
</event>
<event>
 7    1  0.6073302E-013  0.5052882E+02  0.7816164E-02  0.1300439E+00
        -11   -1    0    0    0    0  0.00000000000E+00  0.00000000000E+00  0.45593999997E+02  0.45594000000E+02  0.51100000000E-03 0.  1.
         11   -1    0    0    0    0 -0.00000000000E+00 -0.00000000000E+00 -0.45593999997E+02  0.45594000000E+02  0.51100000000E-03 0. -1.
    9900012    2    1    2    0    0  0.75724951208E+01 -0.21452781518E+02 -0.33698724944E+02  0.50528824159E+02  0.29999891514E+02 0.  0.
         12    1    1    2    0    0 -0.75724951208E+01  0.21452781518E+02  0.33698724944E+02  0.40659175841E+02  0.00000000000E+00 0. -1.
         11    1    3    3    0    0  0.12759784721E+02 -0.23077855375E+02 -0.32605307620E+02  0.41934539464E+02  0.51100000000E-03 0. -1.
        -11    1    3    3    0    0 -0.17100556462E+01  0.34296737307E+01  0.12478262655E+01  0.40303874332E+01  0.51100000000E-03 0.  1.
         12    1    3    3    0    0 -0.34772339535E+01 -0.18045998736E+01 -0.23412435890E+01  0.45638972616E+01  0.00000000000E+00 0. -1.
</event>
<event>
 7    1  0.6073302E-013  0.5052886E+02  0.7816164E-02  0.1300439E+00
        -11   -1    0    0    0    0  0.00000000000E+00  0.00000000000E+00  0.45593999997E+02  0.45594000000E+02  0.51100000000E-03 0. -1.
         11   -1    0    0    0    0 -0.00000000000E+00 -0.00000000000E+00 -0.45593999997E+02  0.45594000000E+02  0.51100000000E-03 0.  1.
    9900012    2    1    2    0    0 -0.13272752940E+02  0.26396546660E+02 -0.27932458116E+02  0.50528857576E+02  0.29999993089E+02 0.  0.
         12    1    1    2    0    0  0.13272752940E+02 -0.26396546660E+02  0.27932458116E+02  0.40659142424E+02  0.00000000000E+00 0. -1.
         11    1    3    3    0    0  0.32393536220E+01  0.85449057863E+01 -0.34534740718E+01  0.97690997646E+01  0.51100000000E-03 0. -1.
        -11    1    3    3    0    0 -0.51107319671E+01  0.32701018291E+01 -0.21085972291E+02  0.21941544498E+02  0.51100000000E-03 0.  1.
        -12    1    3    3    0    0 -0.11401374595E+02  0.14581539045E+02 -0.33930117530E+01  0.18818213314E+02  0.00000000000E+00 0.  1.
</event>
<event>
 7    1  0.6073302E-013  0.5052885E+02  0.7816164E-02  0.1300439E+00
        -11   -1    0    0    0    0  0.00000000000E+00  0.00000000000E+00  0.45593999997E+02  0.45594000000E+02  0.51100000000E-03 0. -1.
         11   -1    0    0    0    0 -0.00000000000E+00 -0.00000000000E+00 -0.45593999997E+02  0.45594000000E+02  0.51100000000E-03 0.  1.
    9900012    2    1    2    0    0  0.36355437026E+02 -0.16093729519E+02 -0.85111825574E+01  0.50528853923E+02  0.29999981985E+02 0.  0.
         12    1    1    2    0    0 -0.36355437026E+02  0.16093729519E+02  0.85111825574E+01  0.40659146077E+02  0.00000000000E+00 0. -1.
         11    1    3    3    0    0 -0.36381970744E+01 -0.50820720386E+01  0.30412587228E+01  0.69507689530E+01  0.51100000000E-03 0. -1.
        -11    1    3    3    0    0  0.18330376093E+02 -0.75522973698E+01 -0.78859428691E+01  0.21336072236E+02  0.51100000000E-03 0.  1.
         12    1    3    3    0    0  0.21663258007E+02 -0.34593601110E+01 -0.36664984111E+01  0.22242012734E+02  0.00000000000E+00 0. -1.
</event>
<event>
 7    1  0.6073302E-013  0.5052884E+02  0.7816164E-02  0.1300439E+00
        -11   -1    0    0    0    0  0.00000000000E+00  0.00000000000E+00  0.45593999997E+02  0.45594000000E+02  0.51100000000E-03 0.  1.
         11   -1    0    0    0    0 -0.00000000000E+00 -0.00000000000E+00 -0.45593999997E+02  0.45594000000E+02  0.51100000000E-03 0. -1.
    9900012    2    1    2    0    0 -0.32667561220E+02  0.16826016005E+01  0.24148846989E+02  0.50528837255E+02  0.29999931319E+02 0.  0.
         12    1    1    2    0    0  0.32667561220E+02 -0.16826016005E+01 -0.24148846989E+02  0.40659162745E+02  0.00000000000E+00 0. -1.
         11    1    3    3    0    0 -0.17766638804E+02 -0.29239935247E+01  0.49963797759E+01  0.18686010908E+02  0.51100000000E-03 0. -1.
        -11    1    3    3    0    0 -0.60585632867E+01  0.58455547700E+01  0.21088274760E+02  0.22706651719E+02  0.51100000000E-03 0.  1.
         12    1    3    3    0    0 -0.88423591296E+01 -0.12389596448E+01 -0.19358075462E+01  0.91361746281E+01  0.00000000000E+00 0. -1.
</event>
<event>
 7    1  0.6073302E-013  0.5052884E+02  0.7816164E-02  0.1300439E+00
        -11   -1    0    0    0    0  0.00000000000E+00  0.00000000000E+00  0.45593999997E+02  0.45594000000E+02  0.51100000000E-03 0.  1.
         11   -1    0    0    0    0 -0.00000000000E+00 -0.00000000000E+00 -0.45593999997E+02  0.45594000000E+02  0.51100000000E-03 0. -1.
    9900012    2    1    2    0    0 -0.19830707134E+02 -0.21439606707E+02  0.28288753207E+02  0.50528840648E+02  0.29999941634E+02 0.  0.
         12    1    1    2    0    0  0.19830707134E+02  0.21439606707E+02 -0.28288753207E+02  0.40659159352E+02  0.00000000000E+00 0. -1.
         11    1    3    3    0    0 -0.20546365823E+01  0.32963038085E+01  0.38735732657E+01  0.54855920728E+01  0.51100000000E-03 0. -1.
        -11    1    3    3    0    0 -0.18968170262E+02 -0.18284030915E+02  0.82658341173E+01  0.27611977174E+02  0.51100000000E-03 0.  1.
        -12    1    3    3    0    0  0.11920997100E+01 -0.64518796007E+01  0.16149345824E+02  0.17431271401E+02  0.00000000000E+00 0.  1.
</event>
<event>
 7    1  0.6073302E-013  0.5052886E+02  0.7816164E-02  0.1300439E+00
        -11   -1    0    0    0    0  0.00000000000E+00  0.00000000000E+00  0.45593999997E+02  0.45594000000E+02  0.51100000000E-03 0.  1.
         11   -1    0    0    0    0 -0.00000000000E+00 -0.00000000000E+00 -0.45593999997E+02  0.45594000000E+02  0.51100000000E-03 0. -1.
    9900012    2    1    2    0    0 -0.19841164113E+01  0.33511053385E+02  0.22939884260E+02  0.50528859493E+02  0.29999998915E+02 0.  0.
         12    1    1    2    0    0  0.19841164113E+01 -0.33511053385E+02 -0.22939884260E+02  0.40659140507E+02  0.00000000000E+00 0. -1.
         11    1    3    3    0    0 -0.27067864558E+01  0.31391981617E+01 -0.63518778295E+01  0.75846957907E+01  0.51100000000E-03 0. -1.
        -11    1    3    3    0    0  0.18046437692E+01  0.26408615156E+02  0.28234178353E+02  0.38701944668E+02  0.51100000000E-03 0.  1.
        -12    1    3    3    0    0 -0.10819737247E+01  0.39632400674E+01  0.10575837366E+01  0.42422190340E+01  0.00000000000E+00 0.  1.
</event>
<event>
 7    1  0.6073302E-013  0.5052886E+02  0.7816164E-02  0.1300439E+00
        -11   -1    0    0    0    0  0.00000000000E+00  0.00000000000E+00  0.45593999997E+02  0.45594000000E+02  0.51100000000E-03 0. -1.
         11   -1    0    0    0    0 -0.00000000000E+00 -0.00000000000E+00 -0.45593999997E+02  0.45594000000E+02  0.51100000000E-03 0.  1.
    9900012    2    1    2    0    0  0.65254424879E+01 -0.91616157037E+01 -0.39072356684E+02  0.50528860083E+02  0.30000000708E+02 0.  0.
         12    1    1    2    0    0 -0.65254424879E+01  0.91616157037E+01  0.39072356684E+02  0.40659139917E+02  0.00000000000E+00 0. -1.
         11    1    3    3    0    0  0.50568519464E+00 -0.96513048738E+01  0.79941228607E+00  0.96975493579E+01  0.51100000000E-03 0. -1.
        -11    1    3    3    0    0  0.44417782135E+01 -0.75825244592E+00 -0.37275183988E+02  0.37546553531E+02  0.51100000000E-03 0.  1.
         12    1    3    3    0    0  0.15779790797E+01  0.12479416160E+01 -0.25965849821E+01  0.32847571938E+01  0.00000000000E+00 0. -1.
</event>
<event>
 7    1  0.6073302E-013  0.5052886E+02  0.7816164E-02  0.1300439E+00
        -11   -1    0    0    0    0  0.00000000000E+00  0.00000000000E+00  0.45593999997E+02  0.45594000000E+02  0.51100000000E-03 0.  1.
         11   -1    0    0    0    0 -0.00000000000E+00 -0.00000000000E+00 -0.45593999997E+02  0.45594000000E+02  0.51100000000E-03 0. -1.
    9900012    2    1    2    0    0  0.31722303266E+02  0.16696364103E+02 -0.19185738008E+02  0.50528860293E+02  0.30000001347E+02 0.  0.
         12    1    1    2    0    0 -0.31722303266E+02 -0.16696364103E+02  0.19185738008E+02  0.40659139707E+02  0.00000000000E+00 0. -1.
         11    1    3    3    0    0  0.71705032698E+01  0.13018237611E+02 -0.47778747937E+01  0.15611493056E+02  0.51100000000E-03 0. -1.
        -11    1    3    3    0    0  0.23620407578E+02 -0.24966931995E+01 -0.60973099146E+01  0.24522118985E+02  0.51100000000E-03 0.  1.
        -12    1    3    3    0    0  0.93139241853E+00  0.61748196918E+01 -0.83105533000E+01  0.10395248252E+02  0.00000000000E+00 0.  1.
</event>
<event>
 7    1  0.6073302E-013  0.5052885E+02  0.7816164E-02  0.1300439E+00
        -11   -1    0    0    0    0  0.00000000000E+00  0.00000000000E+00  0.45593999997E+02  0.45594000000E+02  0.51100000000E-03 0.  1.
         11   -1    0    0    0    0 -0.00000000000E+00 -0.00000000000E+00 -0.45593999997E+02  0.45594000000E+02  0.51100000000E-03 0. -1.
    9900012    2    1    2    0    0  0.99129508236E+01  0.35325865354E+02  0.17520924513E+02  0.50528854007E+02  0.29999982241E+02 0.  0.
         12    1    1    2    0    0 -0.99129508236E+01 -0.35325865354E+02 -0.17520924513E+02  0.40659145993E+02  0.00000000000E+00 0. -1.
         11    1    3    3    0    0  0.13606942967E+01  0.22283730390E+02  0.54527397465E+01  0.22981481677E+02  0.51100000000E-03 0. -1.
        -11    1    3    3    0    0  0.67689284927E+01  0.12390353381E+02  0.17096382437E+02  0.22172630483E+02  0.51100000000E-03 0.  1.
         12    1    3    3    0    0  0.17833280341E+01  0.65178158367E+00 -0.50281976709E+01  0.53747418476E+01  0.00000000000E+00 0. -1.
</event>
<event>
 7    1  0.6073302E-013  0.5052887E+02  0.7816164E-02  0.1300439E+00
        -11   -1    0    0    0    0  0.00000000000E+00  0.00000000000E+00  0.45593999997E+02  0.45594000000E+02  0.51100000000E-03 0.  1.
         11   -1    0    0    0    0 -0.00000000000E+00 -0.00000000000E+00 -0.45593999997E+02  0.45594000000E+02  0.51100000000E-03 0. -1.
    9900012    2    1    2    0    0  0.25792480078E+02 -0.19496391163E+02 -0.24653678628E+02  0.50528866132E+02  0.30000019096E+02 0.  0.
         12    1    1    2    0    0 -0.25792480078E+02  0.19496391163E+02  0.24653678628E+02  0.40659133868E+02  0.00000000000E+00 0. -1.
         11    1    3    3    0    0  0.18071725199E+02  0.85518925493E+00 -0.20443700736E+02  0.27299514654E+02  0.51100000000E-03 0. -1.
        -11    1    3    3    0    0  0.29562280715E+01 -0.11417960095E+02 -0.55162798129E+01  0.13020692776E+02  0.51100000000E-03 0.  1.
         12    1    3    3    0    0  0.47645268075E+01 -0.89336203234E+01  0.13063019205E+01  0.10208658702E+02  0.00000000000E+00 0. -1.
</event>
<event>
 7    1  0.6073302E-013  0.5052885E+02  0.7816164E-02  0.1300439E+00
        -11   -1    0    0    0    0  0.00000000000E+00  0.00000000000E+00  0.45593999997E+02  0.45594000000E+02  0.51100000000E-03 0. -1.
         11   -1    0    0    0    0 -0.00000000000E+00 -0.00000000000E+00 -0.45593999997E+02  0.45594000000E+02  0.51100000000E-03 0.  1.
    9900012    2    1    2    0    0  0.34834326817E+02  0.41599058345E+01 -0.20553134367E+02  0.50528850063E+02  0.29999970250E+02 0.  0.
         12    1    1    2    0    0 -0.34834326817E+02 -0.41599058345E+01  0.20553134367E+02  0.40659149937E+02  0.00000000000E+00 0. -1.
         11    1    3    3    0    0  0.71218931061E+01  0.12475785470E+02 -0.13740489821E+02  0.19878824042E+02  0.51100000000E-03 0. -1.
        -11    1    3    3    0    0  0.91394017153E+01  0.76233092367E+00 -0.28212431332E+01  0.95952709826E+01  0.51100000000E-03 0.  1.
         12    1    3    3    0    0  0.18573031995E+02 -0.90782105595E+01 -0.39914014129E+01  0.21054755038E+02  0.00000000000E+00 0. -1.
</event>
<event>
 7    1  0.6073302E-013  0.5052887E+02  0.7816164E-02  0.1300439E+00
        -11   -1    0    0    0    0  0.00000000000E+00  0.00000000000E+00  0.45593999997E+02  0.45594000000E+02  0.51100000000E-03 0.  1.
         11   -1    0    0    0    0 -0.00000000000E+00 -0.00000000000E+00 -0.45593999997E+02  0.45594000000E+02  0.51100000000E-03 0. -1.
    9900012    2    1    2    0    0  0.49459520804E+01 -0.32648642494E+02  0.23722749676E+02  0.50528866329E+02  0.30000019694E+02 0.  0.
         12    1    1    2    0    0 -0.49459520804E+01  0.32648642494E+02 -0.23722749676E+02  0.40659133671E+02  0.00000000000E+00 0. -1.
         11    1    3    3    0    0 -0.46856877000E+01 -0.82273716401E+01 -0.10172943671E+01  0.95226152615E+01  0.51100000000E-03 0. -1.
        -11    1    3    3    0    0  0.72548440486E+01 -0.26738295064E+02  0.25440700939E+02  0.37613806635E+02  0.51100000000E-03 0.  1.
        -12    1    3    3    0    0  0.23767957318E+01  0.23170242099E+01 -0.70065689604E+00  0.33924444323E+01  0.00000000000E+00 0.  1.
</event>
<event>
 7    1  0.6073302E-013  0.5052886E+02  0.7816164E-02  0.1300439E+00
        -11   -1    0    0    0    0  0.00000000000E+00  0.00000000000E+00  0.45593999997E+02  0.45594000000E+02  0.51100000000E-03 0.  1.
         11   -1    0    0    0    0 -0.00000000000E+00 -0.00000000000E+00 -0.45593999997E+02  0.45594000000E+02  0.51100000000E-03 0. -1.
    9900012    2    1    2    0    0  0.68075497071E+01 -0.19750392859E+01  0.40036512188E+02  0.50528858084E+02  0.29999994632E+02 0.  0.
         12    1    1    2    0    0 -0.68075497071E+01  0.19750392859E+01 -0.40036512188E+02  0.40659141916E+02  0.00000000000E+00 0. -1.
         11    1    3    3    0    0  0.10691491638E+02 -0.15507305543E+01  0.26311471199E+02  0.28443035626E+02  0.51100000000E-03 0. -1.
        -11    1    3    3    0    0  0.67613787414E+00  0.76563232820E+01  0.40782273173E+01  0.87010566563E+01  0.51100000000E-03 0.  1.
         12    1    3    3    0    0 -0.45600798047E+01 -0.80806320136E+01  0.96468136708E+01  0.13384765802E+02  0.00000000000E+00 0. -1.
</event>
<event>
 7    1  0.6073302E-013  0.5052886E+02  0.7816164E-02  0.1300439E+00
        -11   -1    0    0    0    0  0.00000000000E+00  0.00000000000E+00  0.45593999997E+02  0.45594000000E+02  0.51100000000E-03 0.  1.
         11   -1    0    0    0    0 -0.00000000000E+00 -0.00000000000E+00 -0.45593999997E+02  0.45594000000E+02  0.51100000000E-03 0. -1.
    9900012    2    1    2    0    0  0.38875155853E+02 -0.91280114441E+01  0.76529537850E+01  0.50528855431E+02  0.29999986567E+02 0.  0.
         12    1    1    2    0    0 -0.38875155853E+02  0.91280114441E+01 -0.76529537850E+01  0.40659144569E+02  0.00000000000E+00 0. -1.
         11    1    3    3    0    0  0.24931593476E+02  0.27903866141E+01  0.11404988938E+02  0.27558018500E+02  0.51100000000E-03 0. -1.
        -11    1    3    3    0    0  0.25280065192E+01 -0.10739135596E+02 -0.50587158696E+00  0.11044263517E+02  0.51100000000E-03 0.  1.
         12    1    3    3    0    0  0.11415555858E+02 -0.11792624618E+01 -0.32461635658E+01  0.11926573414E+02  0.00000000000E+00 0. -1.
</event>
<event>
 7    1  0.6073302E-013  0.5052886E+02  0.7816164E-02  0.1300439E+00
        -11   -1    0    0    0    0  0.00000000000E+00  0.00000000000E+00  0.45593999997E+02  0.45594000000E+02  0.51100000000E-03 0. -1.
         11   -1    0    0    0    0 -0.00000000000E+00 -0.00000000000E+00 -0.45593999997E+02  0.45594000000E+02  0.51100000000E-03 0.  1.
    9900012    2    1    2    0    0  0.42561520853E+00  0.34987356737E+02 -0.20709162657E+02  0.50528859604E+02  0.29999999253E+02 0.  0.
         12    1    1    2    0    0 -0.42561520853E+00 -0.34987356737E+02  0.20709162657E+02  0.40659140396E+02  0.00000000000E+00 0. -1.
         11    1    3    3    0    0  0.11045531258E+02  0.95972062125E+01 -0.35097382282E+01  0.15047537691E+02  0.51100000000E-03 0. -1.
        -11    1    3    3    0    0 -0.83701052643E+01  0.39230333426E+01 -0.70721830034E+01  0.11638927160E+02  0.51100000000E-03 0.  1.
         12    1    3    3    0    0 -0.22498107857E+01  0.21467117182E+02 -0.10127241425E+02  0.23842394753E+02  0.00000000000E+00 0. -1.
</event>
<event>
 7    1  0.6073302E-013  0.5052886E+02  0.7816164E-02  0.1300439E+00
        -11   -1    0    0    0    0  0.00000000000E+00  0.00000000000E+00  0.45593999997E+02  0.45594000000E+02  0.51100000000E-03 0.  1.
         11   -1    0    0    0    0 -0.00000000000E+00 -0.00000000000E+00 -0.45593999997E+02  0.45594000000E+02  0.51100000000E-03 0. -1.
    9900012    2    1    2    0    0  0.16122159393E+01 -0.18630063273E+01  0.40584422772E+02  0.50528863209E+02  0.30000010211E+02 0.  0.
         12    1    1    2    0    0 -0.16122159393E+01  0.18630063273E+01 -0.40584422772E+02  0.40659136791E+02  0.00000000000E+00 0. -1.
         11    1    3    3    0    0  0.20189005102E+01  0.15618969054E+01 -0.40310049057E+01  0.47712138942E+01  0.51100000000E-03 0. -1.
        -11    1    3    3    0    0 -0.13954877700E+01  0.21783438569E+00  0.52632463820E+00  0.15072676676E+01  0.51100000000E-03 0.  1.
         12    1    3    3    0    0  0.98880319915E+00 -0.36427376184E+01  0.44089103040E+02  0.44250381648E+02  0.00000000000E+00 0. -1.
</event>
<event>
 7    1  0.6073302E-013  0.5052885E+02  0.7816164E-02  0.1300439E+00
        -11   -1    0    0    0    0  0.00000000000E+00  0.00000000000E+00  0.45593999997E+02  0.45594000000E+02  0.51100000000E-03 0.  1.
         11   -1    0    0    0    0 -0.00000000000E+00 -0.00000000000E+00 -0.45593999997E+02  0.45594000000E+02  0.51100000000E-03 0. -1.
    9900012    2    1    2    0    0  0.38929518171E+02 -0.83008146808E+00 -0.11703405154E+02  0.50528854504E+02  0.29999983750E+02 0.  0.
         12    1    1    2    0    0 -0.38929518171E+02  0.83008146808E+00  0.11703405154E+02  0.40659145496E+02  0.00000000000E+00 0. -1.
         11    1    3    3    0    0  0.32243959749E+02 -0.10077632017E+02 -0.75961239968E+01  0.34625607683E+02  0.51100000000E-03 0.  1.
        -11    1    3    3    0    0  0.68951730259E+01  0.74461087494E+01  0.12708485655E+01  0.10227560946E+02  0.51100000000E-03 0. -1.
         12    1    3    3    0    0 -0.20961460363E+00  0.18014417998E+01 -0.53781297230E+01  0.56756858755E+01  0.00000000000E+00 0. -1.
</event>
<event>
 7    1  0.6073302E-013  0.5052886E+02  0.7816164E-02  0.1300439E+00
        -11   -1    0    0    0    0  0.00000000000E+00  0.00000000000E+00  0.45593999997E+02  0.45594000000E+02  0.51100000000E-03 0.  1.
         11   -1    0    0    0    0 -0.00000000000E+00 -0.00000000000E+00 -0.45593999997E+02  0.45594000000E+02  0.51100000000E-03 0. -1.
    9900012    2    1    2    0    0  0.10114212919E+02  0.34929195820E+02  0.18188456791E+02  0.50528856083E+02  0.29999988550E+02 0.  0.
         12    1    1    2    0    0 -0.10114212919E+02 -0.34929195820E+02 -0.18188456791E+02  0.40659143917E+02  0.00000000000E+00 0. -1.
         11    1    3    3    0    0 -0.70036431078E+01  0.53336172289E+01  0.48646949427E+01  0.10058019023E+02  0.51100000000E-03 0. -1.
        -11    1    3    3    0    0  0.93141561219E+01  0.21926642881E+02  0.16615819001E+02  0.29045078992E+02  0.51100000000E-03 0.  1.
        -12    1    3    3    0    0  0.78036999049E+01  0.76689357103E+01 -0.32920571524E+01  0.11425758068E+02  0.00000000000E+00 0.  1.
</event>
<event>
 7    1  0.6073302E-013  0.5052886E+02  0.7816164E-02  0.1300439E+00
        -11   -1    0    0    0    0  0.00000000000E+00  0.00000000000E+00  0.45593999997E+02  0.45594000000E+02  0.51100000000E-03 0. -1.
         11   -1    0    0    0    0 -0.00000000000E+00 -0.00000000000E+00 -0.45593999997E+02  0.45594000000E+02  0.51100000000E-03 0.  1.
    9900012    2    1    2    0    0 -0.11641599511E+02 -0.36865395900E+02 -0.12592900750E+02  0.50528863225E+02  0.30000010258E+02 0.  0.
         12    1    1    2    0    0  0.11641599511E+02  0.36865395900E+02  0.12592900750E+02  0.40659136775E+02  0.00000000000E+00 0. -1.
         11    1    3    3    0    0 -0.89826515502E+01 -0.10518629433E+02 -0.30711254973E+00  0.13835603073E+02  0.51100000000E-03 0. -1.
        -11    1    3    3    0    0 -0.77307732827E+01 -0.15506675317E+02 -0.16576731175E+02  0.23979363037E+02  0.51100000000E-03 0.  1.
        -12    1    3    3    0    0  0.50718253218E+01 -0.10840091150E+02  0.42909429749E+01  0.12713897115E+02  0.00000000000E+00 0.  1.
</event>
<event>
 7    1  0.6073302E-013  0.5052887E+02  0.7816164E-02  0.1300439E+00
        -11   -1    0    0    0    0  0.00000000000E+00  0.00000000000E+00  0.45593999997E+02  0.45594000000E+02  0.51100000000E-03 0.  1.
         11   -1    0    0    0    0 -0.00000000000E+00 -0.00000000000E+00 -0.45593999997E+02  0.45594000000E+02  0.51100000000E-03 0. -1.
    9900012    2    1    2    0    0 -0.10215266766E+00  0.18480265930E+02  0.36216494966E+02  0.50528866074E+02  0.30000018918E+02 0.  0.
         12    1    1    2    0    0  0.10215266766E+00 -0.18480265930E+02 -0.36216494966E+02  0.40659133926E+02  0.00000000000E+00 0. -1.
         11    1    3    3    0    0 -0.29939681248E+01  0.13770203976E+01  0.17012447798E+01  0.37086742065E+01  0.51100000000E-03 0. -1.
        -11    1    3    3    0    0  0.13387186658E+02  0.12223647860E+02  0.28497882472E+02  0.33775192661E+02  0.51100000000E-03 0.  1.
        -12    1    3    3    0    0 -0.10495371201E+02  0.48795976727E+01  0.60173677137E+01  0.13044999206E+02  0.00000000000E+00 0.  1.
</event>
<event>
 7    1  0.6073302E-013  0.5052887E+02  0.7816164E-02  0.1300439E+00
        -11   -1    0    0    0    0  0.00000000000E+00  0.00000000000E+00  0.45593999997E+02  0.45594000000E+02  0.51100000000E-03 0. -1.
         11   -1    0    0    0    0 -0.00000000000E+00 -0.00000000000E+00 -0.45593999997E+02  0.45594000000E+02  0.51100000000E-03 0.  1.
    9900012    2    1    2    0    0 -0.26348649056E+02 -0.21124428749E+02 -0.22642270842E+02  0.50528865406E+02  0.30000016889E+02 0.  0.
         12    1    1    2    0    0  0.26348649056E+02  0.21124428749E+02  0.22642270842E+02  0.40659134594E+02  0.00000000000E+00 0. -1.
         11    1    3    3    0    0 -0.12410413185E+01 -0.12750667585E+01 -0.12941618136E+02  0.13063363236E+02  0.51100000000E-03 0. -1.
        -11    1    3    3    0    0 -0.23506416706E+02 -0.22681311987E+02 -0.10093082210E+02  0.34188650874E+02  0.51100000000E-03 0.  1.
         12    1    3    3    0    0 -0.16011910319E+01  0.28319499970E+01  0.39242950416E+00  0.32768512968E+01  0.00000000000E+00 0. -1.
</event>
<event>
 7    1  0.6073302E-013  0.5052886E+02  0.7816164E-02  0.1300439E+00
        -11   -1    0    0    0    0  0.00000000000E+00  0.00000000000E+00  0.45593999997E+02  0.45594000000E+02  0.51100000000E-03 0.  1.
         11   -1    0    0    0    0 -0.00000000000E+00 -0.00000000000E+00 -0.45593999997E+02  0.45594000000E+02  0.51100000000E-03 0. -1.
    9900012    2    1    2    0    0 -0.27171484309E+02 -0.17899772157E+02  0.24381837102E+02  0.50528863471E+02  0.30000011006E+02 0.  0.
         12    1    1    2    0    0  0.27171484309E+02  0.17899772157E+02 -0.24381837102E+02  0.40659136529E+02  0.00000000000E+00 0. -1.
         11    1    3    3    0    0 -0.17691868771E+02  0.29833376250E+01  0.28467469606E+01  0.18166080824E+02  0.51100000000E-03 0. -1.
        -11    1    3    3    0    0 -0.54734097489E+01 -0.16783823252E+02  0.12382091476E+02  0.21563189162E+02  0.51100000000E-03 0.  1.
         12    1    3    3    0    0 -0.40062057898E+01 -0.40992865300E+01  0.91529986651E+01  0.10799593485E+02  0.00000000000E+00 0. -1.
</event>
<event>
 7    1  0.6073302E-013  0.5052871E+02  0.7816164E-02  0.1300439E+00
        -11   -1    0    0    0    0  0.00000000000E+00  0.00000000000E+00  0.45593999997E+02  0.45594000000E+02  0.51100000000E-03 0.  1.
         11   -1    0    0    0    0 -0.00000000000E+00 -0.00000000000E+00 -0.45593999997E+02  0.45594000000E+02  0.51100000000E-03 0. -1.
    9900012    2    1    2    0    0  0.20611034050E+02  0.63880640894E+01  0.34460926742E+02  0.50528713737E+02  0.29999555873E+02 0.  0.
         12    1    1    2    0    0 -0.20611034050E+02 -0.63880640894E+01 -0.34460926742E+02  0.40659286263E+02  0.00000000000E+00 0. -1.
         11    1    3    3    0    0  0.35807194542E+01 -0.61580015699E+01  0.25109592097E+02  0.26100462653E+02  0.51100000000E-03 0. -1.
        -11    1    3    3    0    0  0.11788904387E+02  0.50667734095E+01  0.81878523248E+01  0.15221412069E+02  0.51100000000E-03 0.  1.
         12    1    3    3    0    0  0.52414102091E+01  0.74792922498E+01  0.11634823203E+01  0.92068390150E+01  0.00000000000E+00 0. -1.
</event>
<event>
 7    1  0.6073302E-013  0.5052886E+02  0.7816164E-02  0.1300439E+00
        -11   -1    0    0    0    0  0.00000000000E+00  0.00000000000E+00  0.45593999997E+02  0.45594000000E+02  0.51100000000E-03 0. -1.
         11   -1    0    0    0    0 -0.00000000000E+00 -0.00000000000E+00 -0.45593999997E+02  0.45594000000E+02  0.51100000000E-03 0.  1.
    9900012    2    1    2    0    0 -0.15436419798E+02 -0.36826785921E+02 -0.76596703131E+01  0.50528858755E+02  0.29999996672E+02 0.  0.
         12    1    1    2    0    0  0.15436419798E+02  0.36826785921E+02  0.76596703131E+01  0.40659141245E+02  0.00000000000E+00 0. -1.
         11    1    3    3    0    0 -0.59899649250E+01  0.18252287624E+01 -0.18380321767E+01  0.65260633143E+01  0.51100000000E-03 0. -1.
        -11    1    3    3    0    0  0.34767923584E+01 -0.20211948898E+02 -0.63797852636E+01  0.21478189487E+02  0.51100000000E-03 0.  1.
        -12    1    3    3    0    0 -0.12923247231E+02 -0.18440065786E+02  0.55814712727E+00  0.22524605954E+02  0.00000000000E+00 0.  1.
</event>
<event>
 7    1  0.6073302E-013  0.5052885E+02  0.7816164E-02  0.1300439E+00
        -11   -1    0    0    0    0  0.00000000000E+00  0.00000000000E+00  0.45593999997E+02  0.45594000000E+02  0.51100000000E-03 0.  1.
         11   -1    0    0    0    0 -0.00000000000E+00 -0.00000000000E+00 -0.45593999997E+02  0.45594000000E+02  0.51100000000E-03 0. -1.
    9900012    2    1    2    0    0 -0.31419795036E+02  0.14573710157E+01 -0.25765069107E+02  0.50528852979E+02  0.29999979114E+02 0.  0.
         12    1    1    2    0    0  0.31419795036E+02 -0.14573710157E+01  0.25765069107E+02  0.40659147021E+02  0.00000000000E+00 0. -1.
         11    1    3    3    0    0 -0.84596495101E+00  0.90319869397E+01 -0.33152326151E+01  0.96583234741E+01  0.51100000000E-03 0. -1.
        -11    1    3    3    0    0 -0.12031206077E+02 -0.96754334289E+01 -0.90411850832E+01  0.17891533184E+02  0.51100000000E-03 0.  1.
         12    1    3    3    0    0 -0.18542624009E+02  0.21008175049E+01 -0.13408651409E+02  0.22978996321E+02  0.00000000000E+00 0. -1.
</event>
<event>
 7    1  0.6073302E-013  0.5052884E+02  0.7816164E-02  0.1300439E+00
        -11   -1    0    0    0    0  0.00000000000E+00  0.00000000000E+00  0.45593999997E+02  0.45594000000E+02  0.51100000000E-03 0.  1.
         11   -1    0    0    0    0 -0.00000000000E+00 -0.00000000000E+00 -0.45593999997E+02  0.45594000000E+02  0.51100000000E-03 0. -1.
    9900012    2    1    2    0    0  0.32854451876E+02 -0.20063950974E+02  0.13083957877E+02  0.50528842478E+02  0.29999947195E+02 0.  0.
         12    1    1    2    0    0 -0.32854451876E+02  0.20063950974E+02 -0.13083957877E+02  0.40659157522E+02  0.00000000000E+00 0. -1.
         11    1    3    3    0    0 -0.51140129651E+01 -0.40154055014E+01  0.33252217661E+01  0.73029932222E+01  0.51100000000E-03 0. -1.
        -11    1    3    3    0    0  0.18183316772E+02 -0.40696968510E+01  0.16064770811E+01  0.18702304943E+02  0.51100000000E-03 0.  1.
         12    1    3    3    0    0  0.19785148068E+02 -0.11978848621E+02  0.81522590295E+01  0.24523544313E+02  0.00000000000E+00 0. -1.
</event>
<event>
 7    1  0.6073302E-013  0.5052885E+02  0.7816164E-02  0.1300439E+00
        -11   -1    0    0    0    0  0.00000000000E+00  0.00000000000E+00  0.45593999997E+02  0.45594000000E+02  0.51100000000E-03 0.  1.
         11   -1    0    0    0    0 -0.00000000000E+00 -0.00000000000E+00 -0.45593999997E+02  0.45594000000E+02  0.51100000000E-03 0. -1.
    9900012    2    1    2    0    0 -0.26160780308E+02  0.15043748941E+02  0.27248225256E+02  0.50528848654E+02  0.29999965970E+02 0.  0.
         12    1    1    2    0    0  0.26160780308E+02 -0.15043748941E+02 -0.27248225256E+02  0.40659151346E+02  0.00000000000E+00 0. -1.
         11    1    3    3    0    0 -0.56863202574E+01 -0.42211767485E+01  0.69112405879E-01  0.70821852558E+01  0.51100000000E-03 0. -1.
        -11    1    3    3    0    0 -0.20627726807E+02  0.20870166098E+02  0.18655905446E+02  0.34772255528E+02  0.51100000000E-03 0.  1.
        -12    1    3    3    0    0  0.15326675634E+00 -0.16052404083E+01  0.85232074037E+01  0.86744078711E+01  0.00000000000E+00 0.  1.
</event>
<event>
 7    1  0.6073302E-013  0.5052886E+02  0.7816164E-02  0.1300439E+00
        -11   -1    0    0    0    0  0.00000000000E+00  0.00000000000E+00  0.45593999997E+02  0.45594000000E+02  0.51100000000E-03 0.  1.
         11   -1    0    0    0    0 -0.00000000000E+00 -0.00000000000E+00 -0.45593999997E+02  0.45594000000E+02  0.51100000000E-03 0. -1.
    9900012    2    1    2    0    0 -0.17885679929E+01 -0.35742270468E+02  0.19299142579E+02  0.50528858617E+02  0.29999996253E+02 0.  0.
         12    1    1    2    0    0  0.17885679929E+01  0.35742270468E+02 -0.19299142579E+02  0.40659141383E+02  0.00000000000E+00 0. -1.
         11    1    3    3    0    0 -0.38221181129E+01 -0.15674246651E+02  0.15569387314E+02  0.22420892412E+02  0.51100000000E-03 0. -1.
        -11    1    3    3    0    0 -0.51060616959E+01 -0.16728320693E+02 -0.29976434327E+01  0.17745265444E+02  0.51100000000E-03 0.  1.
         12    1    3    3    0    0  0.71396118159E+01 -0.33397031244E+01  0.67273986979E+01  0.10362700762E+02  0.00000000000E+00 0. -1.
</event>
<event>
 7    1  0.6073302E-013  0.5052886E+02  0.7816164E-02  0.1300439E+00
        -11   -1    0    0    0    0  0.00000000000E+00  0.00000000000E+00  0.45593999997E+02  0.45594000000E+02  0.51100000000E-03 0. -1.
         11   -1    0    0    0    0 -0.00000000000E+00 -0.00000000000E+00 -0.45593999997E+02  0.45594000000E+02  0.51100000000E-03 0.  1.
    9900012    2    1    2    0    0  0.52874757229E+00  0.40516627891E+02 -0.33598989021E+01  0.50528860434E+02  0.30000001775E+02 0.  0.
         12    1    1    2    0    0 -0.52874757229E+00 -0.40516627891E+02  0.33598989021E+01  0.40659139566E+02  0.00000000000E+00 0. -1.
         11    1    3    3    0    0 -0.31793469737E+01  0.17220386810E+02  0.11631720720E+02  0.21022533059E+02  0.51100000000E-03 0. -1.
        -11    1    3    3    0    0 -0.62685932812E-01  0.18761641557E+01  0.13411712718E+01  0.23070895316E+01  0.51100000000E-03 0.  1.
         12    1    3    3    0    0  0.37707804788E+01  0.21420076925E+02 -0.16332790893E+02  0.27199237843E+02  0.00000000000E+00 0. -1.
</event>
<event>
 7    1  0.6073302E-013  0.5052890E+02  0.7816164E-02  0.1300439E+00
        -11   -1    0    0    0    0  0.00000000000E+00  0.00000000000E+00  0.45593999997E+02  0.45594000000E+02  0.51100000000E-03 0.  1.
         11   -1    0    0    0    0 -0.00000000000E+00 -0.00000000000E+00 -0.45593999997E+02  0.45594000000E+02  0.51100000000E-03 0. -1.
    9900012    2    1    2    0    0  0.31380642238E+02 -0.23419687998E+02  0.10951528142E+02  0.50528899397E+02  0.30000120207E+02 0.  0.
         12    1    1    2    0    0 -0.31380642238E+02  0.23419687998E+02 -0.10951528142E+02  0.40659100603E+02  0.00000000000E+00 0. -1.
         11    1    3    3    0    0  0.17397785632E+02 -0.49634111622E+01 -0.31803234939E+01  0.18369345471E+02  0.51100000000E-03 0. -1.
        -11    1    3    3    0    0  0.10119423371E+02 -0.71608301189E+01  0.15824658606E+02  0.20102239617E+02  0.51100000000E-03 0.  1.
        -12    1    3    3    0    0  0.38634332358E+01 -0.11295446717E+02 -0.16928069710E+01  0.12057314309E+02  0.00000000000E+00 0.  1.
</event>
<event>
 7    1  0.6073302E-013  0.5052886E+02  0.7816164E-02  0.1300439E+00
        -11   -1    0    0    0    0  0.00000000000E+00  0.00000000000E+00  0.45593999997E+02  0.45594000000E+02  0.51100000000E-03 0.  1.
         11   -1    0    0    0    0 -0.00000000000E+00 -0.00000000000E+00 -0.45593999997E+02  0.45594000000E+02  0.51100000000E-03 0. -1.
    9900012    2    1    2    0    0  0.29908307443E+02  0.11829599899E+02  0.24874068380E+02  0.50528861228E+02  0.30000004188E+02 0.  0.
         12    1    1    2    0    0 -0.29908307443E+02 -0.11829599899E+02 -0.24874068380E+02  0.40659138772E+02  0.00000000000E+00 0. -1.
         11    1    3    3    0    0 -0.41300911163E+00  0.56511505300E+01  0.34776915434E+01  0.66483394596E+01  0.51100000000E-03 0. -1.
        -11    1    3    3    0    0  0.22670980697E+02 -0.63244186845E+01  0.11509260799E+02  0.26199899272E+02  0.51100000000E-03 0.  1.
        -12    1    3    3    0    0  0.76503358578E+01  0.12502868054E+02  0.98871160378E+01  0.17680622496E+02  0.00000000000E+00 0.  1.
</event>
<event>
 7    1  0.6073302E-013  0.5052886E+02  0.7816164E-02  0.1300439E+00
        -11   -1    0    0    0    0  0.00000000000E+00  0.00000000000E+00  0.45593999997E+02  0.45594000000E+02  0.51100000000E-03 0. -1.
         11   -1    0    0    0    0 -0.00000000000E+00 -0.00000000000E+00 -0.45593999997E+02  0.45594000000E+02  0.51100000000E-03 0.  1.
    9900012    2    1    2    0    0 -0.26823690268E+02 -0.29079370275E+02 -0.93832486614E+01  0.50528862151E+02  0.30000006995E+02 0.  0.
         12    1    1    2    0    0  0.26823690268E+02  0.29079370275E+02  0.93832486614E+01  0.40659137849E+02  0.00000000000E+00 0. -1.
         11    1    3    3    0    0 -0.14961519773E+02 -0.19821708329E+00  0.24952907072E+01  0.15169470653E+02  0.51100000000E-03 0. -1.
        -11    1    3    3    0    0 -0.75733130318E+01 -0.10941237553E+02 -0.10336483000E+02  0.16849588438E+02  0.51100000000E-03 0.  1.
         12    1    3    3    0    0 -0.42888574633E+01 -0.17939915639E+02 -0.15420563685E+01  0.18509803060E+02  0.00000000000E+00 0. -1.
</event>
<event>
 7    1  0.6073302E-013  0.5052885E+02  0.7816164E-02  0.1300439E+00
        -11   -1    0    0    0    0  0.00000000000E+00  0.00000000000E+00  0.45593999997E+02  0.45594000000E+02  0.51100000000E-03 0.  1.
         11   -1    0    0    0    0 -0.00000000000E+00 -0.00000000000E+00 -0.45593999997E+02  0.45594000000E+02  0.51100000000E-03 0. -1.
    9900012    2    1    2    0    0  0.14540371742E+02 -0.28222078347E+02  0.25401931737E+02  0.50528852781E+02  0.29999978513E+02 0.  0.
         12    1    1    2    0    0 -0.14540371742E+02  0.28222078347E+02 -0.25401931737E+02  0.40659147219E+02  0.00000000000E+00 0. -1.
         11    1    3    3    0    0 -0.33694888517E+01 -0.83499482790E+01 -0.18822484950E+01  0.91988016090E+01  0.51100000000E-03 0. -1.
        -11    1    3    3    0    0  0.10195020529E+02 -0.18198817526E+02  0.25997356533E+02  0.33331635872E+02  0.51100000000E-03 0.  1.
         12    1    3    3    0    0  0.77148400640E+01 -0.16733125420E+01  0.12868236990E+01  0.79984152998E+01  0.00000000000E+00 0. -1.
</event>
<event>
 7    1  0.6073302E-013  0.5052885E+02  0.7816164E-02  0.1300439E+00
        -11   -1    0    0    0    0  0.00000000000E+00  0.00000000000E+00  0.45593999997E+02  0.45594000000E+02  0.51100000000E-03 0.  1.
         11   -1    0    0    0    0 -0.00000000000E+00 -0.00000000000E+00 -0.45593999997E+02  0.45594000000E+02  0.51100000000E-03 0. -1.
    9900012    2    1    2    0    0  0.39606912637E+01 -0.38187269729E+02  0.13387010471E+02  0.50528847353E+02  0.29999962014E+02 0.  0.
         12    1    1    2    0    0 -0.39606912637E+01  0.38187269729E+02 -0.13387010471E+02  0.40659152647E+02  0.00000000000E+00 0. -1.
         11    1    3    3    0    0 -0.16903814647E+01 -0.10704727079E+00 -0.16173749058E+00  0.17014722717E+01  0.51100000000E-03 0. -1.
        -11    1    3    3    0    0 -0.71453014973E+01 -0.26814982607E+02  0.12003758546E+01  0.27776600371E+02  0.51100000000E-03 0.  1.
        -12    1    3    3    0    0  0.12796374226E+02 -0.11265239851E+02  0.12348372107E+02  0.21050774710E+02  0.00000000000E+00 0.  1.
</event>
<event>
 7    1  0.6073302E-013  0.5052887E+02  0.7816164E-02  0.1300439E+00
        -11   -1    0    0    0    0  0.00000000000E+00  0.00000000000E+00  0.45593999997E+02  0.45594000000E+02  0.51100000000E-03 0. -1.
         11   -1    0    0    0    0 -0.00000000000E+00 -0.00000000000E+00 -0.45593999997E+02  0.45594000000E+02  0.51100000000E-03 0.  1.
    9900012    2    1    2    0    0  0.65545921754E+01  0.27691393453E+02 -0.29041161665E+02  0.50528867928E+02  0.30000024555E+02 0.  0.
         12    1    1    2    0    0 -0.65545921754E+01 -0.27691393453E+02  0.29041161665E+02  0.40659132072E+02  0.00000000000E+00 0. -1.
         11    1    3    3    0    0 -0.20003609340E+01 -0.31737890351E+01 -0.14071245303E+02  0.14562771898E+02  0.51100000000E-03 0. -1.
        -11    1    3    3    0    0  0.64529088873E+01  0.11257300231E+02 -0.62994917168E+01  0.14423953610E+02  0.51100000000E-03 0.  1.
         12    1    3    3    0    0  0.21020442221E+01  0.19607882258E+02 -0.86704246446E+01  0.21542142420E+02  0.00000000000E+00 0. -1.
</event>
<event>
 7    1  0.6073302E-013  0.5052886E+02  0.7816164E-02  0.1300439E+00
        -11   -1    0    0    0    0  0.00000000000E+00  0.00000000000E+00  0.45593999997E+02  0.45594000000E+02  0.51100000000E-03 0. -1.
         11   -1    0    0    0    0 -0.00000000000E+00 -0.00000000000E+00 -0.45593999997E+02  0.45594000000E+02  0.51100000000E-03 0.  1.
    9900012    2    1    2    0    0  0.40207682893E+02 -0.55113855843E+01 -0.24763893991E+01  0.50528860325E+02  0.30000001444E+02 0.  0.
         12    1    1    2    0    0 -0.40207682893E+02  0.55113855843E+01  0.24763893991E+01  0.40659139675E+02  0.00000000000E+00 0. -1.
         11    1    3    3    0    0  0.89664336190E+01  0.97804929265E+01 -0.46427981996E+01  0.14057401933E+02  0.51100000000E-03 0. -1.
        -11    1    3    3    0    0  0.15665134504E+02 -0.52345717727E+01  0.59366794502E+01  0.17551106627E+02  0.51100000000E-03 0.  1.
        -12    1    3    3    0    0  0.15576114770E+02 -0.10057306738E+02 -0.37702706498E+01  0.18920351765E+02  0.00000000000E+00 0.  1.
</event>
<event>
 7    1  0.6073302E-013  0.5052887E+02  0.7816164E-02  0.1300439E+00
        -11   -1    0    0    0    0  0.00000000000E+00  0.00000000000E+00  0.45593999997E+02  0.45594000000E+02  0.51100000000E-03 0. -1.
         11   -1    0    0    0    0 -0.00000000000E+00 -0.00000000000E+00 -0.45593999997E+02  0.45594000000E+02  0.51100000000E-03 0.  1.
    9900012    2    1    2    0    0  0.27796856603E+02  0.10755284085E+02 -0.27655449217E+02  0.50528865182E+02  0.30000016209E+02 0.  0.
         12    1    1    2    0    0 -0.27796856603E+02 -0.10755284085E+02  0.27655449217E+02  0.40659134818E+02  0.00000000000E+00 0. -1.
         11    1    3    3    0    0  0.74095715118E+01 -0.51643821811E+01 -0.47415013754E+01  0.10200707272E+02  0.51100000000E-03 0. -1.
        -11    1    3    3    0    0  0.16321697698E+02  0.17183659375E+02 -0.25916047612E+02  0.35118620266E+02  0.51100000000E-03 0.  1.
        -12    1    3    3    0    0  0.40655873928E+01 -0.12639931092E+01  0.30020997713E+01  0.52095376441E+01  0.00000000000E+00 0.  1.
</event>
<event>
 7    1  0.6073302E-013  0.5052877E+02  0.7816164E-02  0.1300439E+00
        -11   -1    0    0    0    0  0.00000000000E+00  0.00000000000E+00  0.45593999997E+02  0.45594000000E+02  0.51100000000E-03 0.  1.
         11   -1    0    0    0    0 -0.00000000000E+00 -0.00000000000E+00 -0.45593999997E+02  0.45594000000E+02  0.51100000000E-03 0. -1.
    9900012    2    1    2    0    0 -0.72360737237E+01 -0.82896688208E+01  0.39141970473E+02  0.50528767044E+02  0.29999717905E+02 0.  0.
         12    1    1    2    0    0  0.72360737237E+01  0.82896688208E+01 -0.39141970473E+02  0.40659232956E+02  0.00000000000E+00 0. -1.
         11    1    3    3    0    0 -0.13998128933E+02 -0.11191643283E+02  0.16574851587E+02  0.24411599669E+02  0.51100000000E-03 0. -1.
        -11    1    3    3    0    0  0.40644260105E+01 -0.39768971615E+01  0.84842740066E+01  0.10213626952E+02  0.51100000000E-03 0.  1.
         12    1    3    3    0    0  0.26976291984E+01  0.68788716241E+01  0.14082844879E+02  0.15903540423E+02  0.00000000000E+00 0. -1.
</event>
<event>
 7    1  0.6073302E-013  0.5052887E+02  0.7816164E-02  0.1300439E+00
        -11   -1    0    0    0    0  0.00000000000E+00  0.00000000000E+00  0.45593999997E+02  0.45594000000E+02  0.51100000000E-03 0.  1.
         11   -1    0    0    0    0 -0.00000000000E+00 -0.00000000000E+00 -0.45593999997E+02  0.45594000000E+02  0.51100000000E-03 0. -1.
    9900012    2    1    2    0    0 -0.22742540707E+02 -0.11825757008E+02  0.31560941020E+02  0.50528872061E+02  0.30000037118E+02 0.  0.
         12    1    1    2    0    0  0.22742540707E+02  0.11825757008E+02 -0.31560941020E+02  0.40659127939E+02  0.00000000000E+00 0. -1.
         11    1    3    3    0    0 -0.12762103389E+02 -0.15439040943E+02  0.19044488980E+02  0.27639244363E+02  0.51100000000E-03 0. -1.
        -11    1    3    3    0    0 -0.10232254055E+01  0.56275596063E+01  0.12458238127E+02  0.13708541674E+02  0.51100000000E-03 0.  1.
         12    1    3    3    0    0 -0.89572119126E+01 -0.20142756713E+01  0.58213913519E-01  0.91810860243E+01  0.00000000000E+00 0. -1.
</event>
<event>
 7    1  0.6073302E-013  0.5052886E+02  0.7816164E-02  0.1300439E+00
        -11   -1    0    0    0    0  0.00000000000E+00  0.00000000000E+00  0.45593999997E+02  0.45594000000E+02  0.51100000000E-03 0. -1.
         11   -1    0    0    0    0 -0.00000000000E+00 -0.00000000000E+00 -0.45593999997E+02  0.45594000000E+02  0.51100000000E-03 0.  1.
    9900012    2    1    2    0    0 -0.18628443007E+02  0.56726316300E+01 -0.35692693778E+02  0.50528855548E+02  0.29999986923E+02 0.  0.
         12    1    1    2    0    0  0.18628443007E+02 -0.56726316300E+01  0.35692693778E+02  0.40659144452E+02  0.00000000000E+00 0. -1.
         11    1    3    3    0    0 -0.24541954205E+02  0.94139075469E+01 -0.31600111949E+02  0.41103482175E+02  0.51100000000E-03 0.  1.
        -11    1    3    3    0    0  0.41056485972E+01 -0.19923026128E+01  0.67418426092E-01  0.45640076260E+01  0.51100000000E-03 0. -1.
        -12    1    3    3    0    0  0.18078626005E+01 -0.17489733041E+01 -0.41600002550E+01  0.48613657466E+01  0.00000000000E+00 0.  1.
</event>
<event>
 7    1  0.6073302E-013  0.5052886E+02  0.7816164E-02  0.1300439E+00
        -11   -1    0    0    0    0  0.00000000000E+00  0.00000000000E+00  0.45593999997E+02  0.45594000000E+02  0.51100000000E-03 0.  1.
         11   -1    0    0    0    0 -0.00000000000E+00 -0.00000000000E+00 -0.45593999997E+02  0.45594000000E+02  0.51100000000E-03 0. -1.
    9900012    2    1    2    0    0 -0.12393025965E+02 -0.99102175906E+01  0.37434827074E+02  0.50528858552E+02  0.29999996053E+02 0.  0.
         12    1    1    2    0    0  0.12393025965E+02  0.99102175906E+01 -0.37434827074E+02  0.40659141448E+02  0.00000000000E+00 0. -1.
         11    1    3    3    0    0  0.52281895759E+01  0.72464492810E+00 -0.16277547099E+01  0.55234646890E+01  0.51100000000E-03 0. -1.
        -11    1    3    3    0    0 -0.11318767474E+02 -0.27974540983E+01  0.26204612970E+02  0.28681387479E+02  0.51100000000E-03 0.  1.
         12    1    3    3    0    0 -0.63024480669E+01 -0.78374084204E+01  0.12857968814E+02  0.16324006383E+02  0.00000000000E+00 0. -1.
</event>
<event>
 7    1  0.6073302E-013  0.5052886E+02  0.7816164E-02  0.1300439E+00
        -11   -1    0    0    0    0  0.00000000000E+00  0.00000000000E+00  0.45593999997E+02  0.45594000000E+02  0.51100000000E-03 0. -1.
         11   -1    0    0    0    0 -0.00000000000E+00 -0.00000000000E+00 -0.45593999997E+02  0.45594000000E+02  0.51100000000E-03 0.  1.
    9900012    2    1    2    0    0 -0.27809293649E+02 -0.13199614897E+02 -0.26562742378E+02  0.50528856756E+02  0.29999990596E+02 0.  0.
         12    1    1    2    0    0  0.27809293649E+02  0.13199614897E+02  0.26562742378E+02  0.40659143244E+02  0.00000000000E+00 0. -1.
         11    1    3    3    0    0  0.28035022653E+01  0.50297613282E+01 -0.18007761770E+01  0.60333174184E+01  0.51100000000E-03 0. -1.
        -11    1    3    3    0    0 -0.14407997058E+02 -0.53499522513E+01 -0.15467543453E+02  0.21804982666E+02  0.51100000000E-03 0.  1.
         12    1    3    3    0    0 -0.16204798856E+02 -0.12879423974E+02 -0.92944227474E+01  0.22690556672E+02  0.00000000000E+00 0. -1.
</event>
<event>
 7    1  0.6073302E-013  0.5052885E+02  0.7816164E-02  0.1300439E+00
        -11   -1    0    0    0    0  0.00000000000E+00  0.00000000000E+00  0.45593999997E+02  0.45594000000E+02  0.51100000000E-03 0.  1.
         11   -1    0    0    0    0 -0.00000000000E+00 -0.00000000000E+00 -0.45593999997E+02  0.45594000000E+02  0.51100000000E-03 0. -1.
    9900012    2    1    2    0    0 -0.33674484888E+02  0.21263857853E+02  0.81880552302E+01  0.50528845660E+02  0.29999956867E+02 0.  0.
         12    1    1    2    0    0  0.33674484888E+02 -0.21263857853E+02 -0.81880552302E+01  0.40659154340E+02  0.00000000000E+00 0. -1.
         11    1    3    3    0    0 -0.59676583522E+01  0.12607298916E+00 -0.25374299615E+01  0.64859379952E+01  0.51100000000E-03 0. -1.
        -11    1    3    3    0    0 -0.88377951931E+01  0.15889452105E+02  0.15490883303E+02  0.23886162895E+02  0.51100000000E-03 0.  1.
        -12    1    3    3    0    0 -0.18869031342E+02  0.52483327587E+01 -0.47653981118E+01  0.20156744770E+02  0.00000000000E+00 0.  1.
</event>
<event>
 7    1  0.6073302E-013  0.5052885E+02  0.7816164E-02  0.1300439E+00
        -11   -1    0    0    0    0  0.00000000000E+00  0.00000000000E+00  0.45593999997E+02  0.45594000000E+02  0.51100000000E-03 0.  1.
         11   -1    0    0    0    0 -0.00000000000E+00 -0.00000000000E+00 -0.45593999997E+02  0.45594000000E+02  0.51100000000E-03 0. -1.
    9900012    2    1    2    0    0 -0.33806312273E+02 -0.68677813902E+00  0.22579371788E+02  0.50528850427E+02  0.29999971357E+02 0.  0.
         12    1    1    2    0    0  0.33806312273E+02  0.68677813902E+00 -0.22579371788E+02  0.40659149573E+02  0.00000000000E+00 0. -1.
         11    1    3    3    0    0  0.23298998157E+01  0.39921876947E+00  0.33688738038E+01  0.41154732102E+01  0.51100000000E-03 0. -1.
        -11    1    3    3    0    0 -0.29828218616E+02 -0.34913610705E+01  0.23741505988E+02  0.38282781179E+02  0.51100000000E-03 0.  1.
        -12    1    3    3    0    0 -0.63079934723E+01  0.24053641620E+01 -0.45310080039E+01  0.81305960378E+01  0.00000000000E+00 0.  1.
</event>
<event>
 7    1  0.6073302E-013  0.5052886E+02  0.7816164E-02  0.1300439E+00
        -11   -1    0    0    0    0  0.00000000000E+00  0.00000000000E+00  0.45593999997E+02  0.45594000000E+02  0.51100000000E-03 0.  1.
         11   -1    0    0    0    0 -0.00000000000E+00 -0.00000000000E+00 -0.45593999997E+02  0.45594000000E+02  0.51100000000E-03 0. -1.
    9900012    2    1    2    0    0 -0.21061065422E+01  0.37717968266E+02  0.15036111100E+02  0.50528862627E+02  0.30000008441E+02 0.  0.
         12    1    1    2    0    0  0.21061065422E+01 -0.37717968266E+02 -0.15036111100E+02  0.40659137373E+02  0.00000000000E+00 0. -1.
         11    1    3    3    0    0 -0.11616748648E+02  0.12711354492E+02  0.15640268403E+02  0.23262531637E+02  0.51100000000E-03 0. -1.
        -11    1    3    3    0    0  0.53846797163E+01  0.19942974868E+02 -0.12976636121E+01  0.20697849003E+02  0.51100000000E-03 0.  1.
        -12    1    3    3    0    0  0.41259623895E+01  0.50636389064E+01  0.69350630896E+00  0.65684819871E+01  0.00000000000E+00 0.  1.
</event>
<event>
 7    1  0.6073302E-013  0.5052889E+02  0.7816164E-02  0.1300439E+00
        -11   -1    0    0    0    0  0.00000000000E+00  0.00000000000E+00  0.45593999997E+02  0.45594000000E+02  0.51100000000E-03 0. -1.
         11   -1    0    0    0    0 -0.00000000000E+00 -0.00000000000E+00 -0.45593999997E+02  0.45594000000E+02  0.51100000000E-03 0.  1.
    9900012    2    1    2    0    0  0.20886575507E+02 -0.34732302004E+02  0.32529647379E+01  0.50528885173E+02  0.30000076972E+02 0.  0.
         12    1    1    2    0    0 -0.20886575507E+02  0.34732302004E+02 -0.32529647379E+01  0.40659114827E+02  0.00000000000E+00 0. -1.
         11    1    3    3    0    0  0.85111640830E+01 -0.28953320092E+02  0.10180348182E+02  0.31849240929E+02  0.51100000000E-03 0. -1.
        -11    1    3    3    0    0  0.84958988519E+01 -0.15423051280E+01 -0.90937675231E+01  0.12540159905E+02  0.51100000000E-03 0.  1.
         12    1    3    3    0    0  0.38795125719E+01 -0.42366767846E+01  0.21663840792E+01  0.61394843392E+01  0.00000000000E+00 0. -1.
</event>
<event>
 7    1  0.6073302E-013  0.5052886E+02  0.7816164E-02  0.1300439E+00
        -11   -1    0    0    0    0  0.00000000000E+00  0.00000000000E+00  0.45593999997E+02  0.45594000000E+02  0.51100000000E-03 0.  1.
         11   -1    0    0    0    0 -0.00000000000E+00 -0.00000000000E+00 -0.45593999997E+02  0.45594000000E+02  0.51100000000E-03 0. -1.
    9900012    2    1    2    0    0 -0.25755521959E+02 -0.16347286800E+02  0.26880944541E+02  0.50528857406E+02  0.29999992571E+02 0.  0.
         12    1    1    2    0    0  0.25755521959E+02  0.16347286800E+02 -0.26880944541E+02  0.40659142594E+02  0.00000000000E+00 0. -1.
         11    1    3    3    0    0 -0.10940502787E+00 -0.27269197517E+01 -0.45066252676E+01  0.52685607481E+01  0.51100000000E-03 0. -1.
        -11    1    3    3    0    0 -0.23664443948E+02 -0.14819317726E+02  0.21876024925E+02  0.35470812678E+02  0.51100000000E-03 0.  1.
        -12    1    3    3    0    0 -0.19816729829E+01  0.11989506779E+01  0.95115448828E+01  0.97894839801E+01  0.00000000000E+00 0.  1.
</event>
<event>
 7    1  0.6073302E-013  0.5052886E+02  0.7816164E-02  0.1300439E+00
        -11   -1    0    0    0    0  0.00000000000E+00  0.00000000000E+00  0.45593999997E+02  0.45594000000E+02  0.51100000000E-03 0.  1.
         11   -1    0    0    0    0 -0.00000000000E+00 -0.00000000000E+00 -0.45593999997E+02  0.45594000000E+02  0.51100000000E-03 0. -1.
    9900012    2    1    2    0    0  0.19451484706E+02  0.11561466702E+02  0.33780728640E+02  0.50528863302E+02  0.30000010493E+02 0.  0.
         12    1    1    2    0    0 -0.19451484706E+02 -0.11561466702E+02 -0.33780728640E+02  0.40659136698E+02  0.00000000000E+00 0. -1.
         11    1    3    3    0    0  0.10177805502E+02 -0.61952981582E+01  0.55280835860E+01  0.13135035307E+02  0.51100000000E-03 0. -1.
        -11    1    3    3    0    0  0.60983533207E+00  0.79721983416E+01  0.20947816738E+02  0.22421839173E+02  0.51100000000E-03 0.  1.
        -12    1    3    3    0    0  0.86638438720E+01  0.97845665186E+01  0.73048283158E+01  0.14971988823E+02  0.00000000000E+00 0.  1.
</event>
<event>
 7    1  0.6073302E-013  0.5052886E+02  0.7816164E-02  0.1300439E+00
        -11   -1    0    0    0    0  0.00000000000E+00  0.00000000000E+00  0.45593999997E+02  0.45594000000E+02  0.51100000000E-03 0.  1.
         11   -1    0    0    0    0 -0.00000000000E+00 -0.00000000000E+00 -0.45593999997E+02  0.45594000000E+02  0.51100000000E-03 0. -1.
    9900012    2    1    2    0    0  0.22332637143E+02 -0.33943833147E+02 -0.14950331654E+01  0.50528860626E+02  0.30000002359E+02 0.  0.
         12    1    1    2    0    0 -0.22332637143E+02  0.33943833147E+02  0.14950331654E+01  0.40659139374E+02  0.00000000000E+00 0. -1.
         11    1    3    3    0    0  0.16515149046E+02 -0.13088645891E+02 -0.10886524680E+02  0.23718752479E+02  0.51100000000E-03 0. -1.
        -11    1    3    3    0    0 -0.11016284394E+01 -0.16934685224E+02  0.48402997958E+01  0.17647256196E+02  0.51100000000E-03 0.  1.
        -12    1    3    3    0    0  0.69191165366E+01 -0.39205020314E+01  0.45511917189E+01  0.91628519516E+01  0.00000000000E+00 0.  1.
</event>
<event>
 7    1  0.6073302E-013  0.5052886E+02  0.7816164E-02  0.1300439E+00
        -11   -1    0    0    0    0  0.00000000000E+00  0.00000000000E+00  0.45593999997E+02  0.45594000000E+02  0.51100000000E-03 0. -1.
         11   -1    0    0    0    0 -0.00000000000E+00 -0.00000000000E+00 -0.45593999997E+02  0.45594000000E+02  0.51100000000E-03 0.  1.
    9900012    2    1    2    0    0  0.66072028521E+01  0.30923507667E+02 -0.25558701552E+02  0.50528859810E+02  0.29999999877E+02 0.  0.
         12    1    1    2    0    0 -0.66072028521E+01 -0.30923507667E+02  0.25558701552E+02  0.40659140190E+02  0.00000000000E+00 0. -1.
         11    1    3    3    0    0  0.15868475379E+01 -0.78638098272E+00 -0.15313617460E+02  0.15415685523E+02  0.51100000000E-03 0. -1.
        -11    1    3    3    0    0  0.52764605845E+00  0.24480366072E+02 -0.10392286746E+02  0.26600119501E+02  0.51100000000E-03 0.  1.
         12    1    3    3    0    0  0.44927092558E+01  0.72295225783E+01  0.14720265411E+00  0.85130547859E+01  0.00000000000E+00 0. -1.
</event>
<event>
 7    1  0.6073302E-013  0.5052885E+02  0.7816164E-02  0.1300439E+00
        -11   -1    0    0    0    0  0.00000000000E+00  0.00000000000E+00  0.45593999997E+02  0.45594000000E+02  0.51100000000E-03 0.  1.
         11   -1    0    0    0    0 -0.00000000000E+00 -0.00000000000E+00 -0.45593999997E+02  0.45594000000E+02  0.51100000000E-03 0. -1.
    9900012    2    1    2    0    0 -0.10583491802E+01 -0.31999649115E+02  0.25061294609E+02  0.50528854240E+02  0.29999982948E+02 0.  0.
         12    1    1    2    0    0  0.10583491802E+01  0.31999649115E+02 -0.25061294609E+02  0.40659145760E+02  0.00000000000E+00 0. -1.
         11    1    3    3    0    0 -0.35398861518E+01  0.12941615015E+01 -0.20427527887E+01  0.42870137831E+01  0.51100000000E-03 0. -1.
        -11    1    3    3    0    0 -0.10163662979E+00 -0.27860949037E+02  0.28719342038E+02  0.40013040607E+02  0.51100000000E-03 0.  1.
        -12    1    3    3    0    0  0.25831736014E+01 -0.54328615789E+01 -0.16152946411E+01  0.62287998497E+01  0.00000000000E+00 0.  1.
</event>
<event>
 7    1  0.6073302E-013  0.5052886E+02  0.7816164E-02  0.1300439E+00
        -11   -1    0    0    0    0  0.00000000000E+00  0.00000000000E+00  0.45593999997E+02  0.45594000000E+02  0.51100000000E-03 0. -1.
         11   -1    0    0    0    0 -0.00000000000E+00 -0.00000000000E+00 -0.45593999997E+02  0.45594000000E+02  0.51100000000E-03 0.  1.
    9900012    2    1    2    0    0  0.15969830295E+02 -0.46123613390E-02 -0.37391580047E+02  0.50528858847E+02  0.29999996951E+02 0.  0.
         12    1    1    2    0    0 -0.15969830295E+02  0.46123613390E-02  0.37391580047E+02  0.40659141153E+02  0.00000000000E+00 0. -1.
         11    1    3    3    0    0  0.98267764258E+00 -0.36256160603E+01 -0.14932394933E+01  0.40423398684E+01  0.51100000000E-03 0. -1.
        -11    1    3    3    0    0 -0.32501146291E+00  0.97426350205E+01 -0.24697684734E+02  0.26551839881E+02  0.51100000000E-03 0.  1.
        -12    1    3    3    0    0  0.15312164115E+02 -0.61216313216E+01 -0.11200655819E+02  0.19934679097E+02  0.00000000000E+00 0.  1.
</event>
<event>
 7    1  0.6073302E-013  0.5052885E+02  0.7816164E-02  0.1300439E+00
        -11   -1    0    0    0    0  0.00000000000E+00  0.00000000000E+00  0.45593999997E+02  0.45594000000E+02  0.51100000000E-03 0.  1.
         11   -1    0    0    0    0 -0.00000000000E+00 -0.00000000000E+00 -0.45593999997E+02  0.45594000000E+02  0.51100000000E-03 0. -1.
    9900012    2    1    2    0    0  0.30662193497E+02  0.57181196519E+01  0.26082552891E+02  0.50528848905E+02  0.29999966733E+02 0.  0.
         12    1    1    2    0    0 -0.30662193497E+02 -0.57181196519E+01 -0.26082552891E+02  0.40659151095E+02  0.00000000000E+00 0. -1.
         11    1    3    3    0    0  0.80463485272E+00  0.67357298001E+01  0.13645723794E+01  0.69195051287E+01  0.51100000000E-03 0. -1.
        -11    1    3    3    0    0  0.27230874216E+02 -0.30041232798E+01  0.11033969506E+02  0.29534619527E+02  0.51100000000E-03 0.  1.
        -12    1    3    3    0    0  0.26266844283E+01  0.19865131316E+01  0.13684011006E+02  0.14074724250E+02  0.00000000000E+00 0.  1.
</event>
<event>
 7    1  0.6073302E-013  0.5052886E+02  0.7816164E-02  0.1300439E+00
        -11   -1    0    0    0    0  0.00000000000E+00  0.00000000000E+00  0.45593999997E+02  0.45594000000E+02  0.51100000000E-03 0.  1.
         11   -1    0    0    0    0 -0.00000000000E+00 -0.00000000000E+00 -0.45593999997E+02  0.45594000000E+02  0.51100000000E-03 0. -1.
    9900012    2    1    2    0    0  0.32201323409E+02 -0.18270290307E+02  0.16805869365E+02  0.50528856105E+02  0.29999988616E+02 0.  0.
         12    1    1    2    0    0 -0.32201323409E+02  0.18270290307E+02 -0.16805869365E+02  0.40659143895E+02  0.00000000000E+00 0. -1.
         11    1    3    3    0    0  0.25337383785E+02 -0.36101311834E+01  0.16589072179E+02  0.30499399670E+02  0.51100000000E-03 0. -1.
        -11    1    3    3    0    0  0.61001973736E+01 -0.15399118864E+02  0.31937804900E+01  0.16868476631E+02  0.51100000000E-03 0.  1.
         12    1    3    3    0    0  0.76374225027E+00  0.73895974051E+00 -0.29769833038E+01  0.31609798028E+01  0.00000000000E+00 0. -1.
</event>
<event>
 7    1  0.6073302E-013  0.5052886E+02  0.7816164E-02  0.1300439E+00
        -11   -1    0    0    0    0  0.00000000000E+00  0.00000000000E+00  0.45593999997E+02  0.45594000000E+02  0.51100000000E-03 0.  1.
         11   -1    0    0    0    0 -0.00000000000E+00 -0.00000000000E+00 -0.45593999997E+02  0.45594000000E+02  0.51100000000E-03 0. -1.
    9900012    2    1    2    0    0  0.37484987815E+02  0.13269079613E+01 -0.15693324259E+02  0.50528862988E+02  0.30000009539E+02 0.  0.
         12    1    1    2    0    0 -0.37484987815E+02 -0.13269079613E+01  0.15693324259E+02  0.40659137012E+02  0.00000000000E+00 0. -1.
         11    1    3    3    0    0  0.19640292307E+01 -0.84992678663E+01 -0.92747946342E+00  0.87724103585E+01  0.51100000000E-03 0. -1.
        -11    1    3    3    0    0  0.88113984632E+01  0.35205581477E+01  0.18601649489E+01  0.96692960678E+01  0.51100000000E-03 0.  1.
         12    1    3    3    0    0  0.26709560121E+02  0.63056176800E+01 -0.16626009745E+02  0.32087156562E+02  0.00000000000E+00 0. -1.
</event>
<event>
 7    1  0.6073302E-013  0.5052885E+02  0.7816164E-02  0.1300439E+00
        -11   -1    0    0    0    0  0.00000000000E+00  0.00000000000E+00  0.45593999997E+02  0.45594000000E+02  0.51100000000E-03 0. -1.
         11   -1    0    0    0    0 -0.00000000000E+00 -0.00000000000E+00 -0.45593999997E+02  0.45594000000E+02  0.51100000000E-03 0.  1.
    9900012    2    1    2    0    0 -0.13045665322E+02 -0.37808154102E+02 -0.73157649675E+01  0.50528851985E+02  0.29999976093E+02 0.  0.
         12    1    1    2    0    0  0.13045665322E+02  0.37808154102E+02  0.73157649675E+01  0.40659148015E+02  0.00000000000E+00 0. -1.
         11    1    3    3    0    0  0.73068911178E+01 -0.74771904661E+01 -0.76310811523E+01  0.12943432114E+02  0.51100000000E-03 0. -1.
        -11    1    3    3    0    0 -0.16674218614E+02 -0.24223933398E+02  0.37958664133E+01  0.29651932783E+02  0.51100000000E-03 0.  1.
        -12    1    3    3    0    0 -0.36783378255E+01 -0.61070302377E+01 -0.34805502286E+01  0.79334870880E+01  0.00000000000E+00 0.  1.
</event>
<event>
 7    1  0.6073302E-013  0.5052885E+02  0.7816164E-02  0.1300439E+00
        -11   -1    0    0    0    0  0.00000000000E+00  0.00000000000E+00  0.45593999997E+02  0.45594000000E+02  0.51100000000E-03 0.  1.
         11   -1    0    0    0    0 -0.00000000000E+00 -0.00000000000E+00 -0.45593999997E+02  0.45594000000E+02  0.51100000000E-03 0. -1.
    9900012    2    1    2    0    0 -0.35066961007E+01 -0.32091508202E+01  0.40380331123E+02  0.50528847179E+02  0.29999961484E+02 0.  0.
         12    1    1    2    0    0  0.35066961007E+01  0.32091508202E+01 -0.40380331123E+02  0.40659152821E+02  0.00000000000E+00 0. -1.
         11    1    3    3    0    0  0.30202566460E+01  0.53465545596E+01  0.34189829815E+01  0.70283028361E+01  0.51100000000E-03 0.  1.
        -11    1    3    3    0    0 -0.13419380405E+02 -0.75332582207E+01  0.29618263267E+02  0.33377706169E+02  0.51100000000E-03 0. -1.
         12    1    3    3    0    0  0.68924276583E+01 -0.10224471591E+01  0.73430848748E+01  0.10122838174E+02  0.00000000000E+00 0. -1.
</event>
<event>
 7    1  0.6073302E-013  0.5052885E+02  0.7816164E-02  0.1300439E+00
        -11   -1    0    0    0    0  0.00000000000E+00  0.00000000000E+00  0.45593999997E+02  0.45594000000E+02  0.51100000000E-03 0. -1.
         11   -1    0    0    0    0 -0.00000000000E+00 -0.00000000000E+00 -0.45593999997E+02  0.45594000000E+02  0.51100000000E-03 0.  1.
    9900012    2    1    2    0    0  0.19502456112E+01 -0.37295185898E+02 -0.16075816825E+02  0.50528852989E+02  0.29999979144E+02 0.  0.
         12    1    1    2    0    0 -0.19502456112E+01  0.37295185898E+02  0.16075816825E+02  0.40659147011E+02  0.00000000000E+00 0. -1.
         11    1    3    3    0    0  0.95198675974E+01 -0.77096247558E+01 -0.11522947888E+02  0.16817982080E+02  0.51100000000E-03 0. -1.
        -11    1    3    3    0    0 -0.90440673542E+01 -0.13821884406E+02 -0.65170510130E+01  0.17757015431E+02  0.51100000000E-03 0.  1.
         12    1    3    3    0    0  0.14744453680E+01 -0.15763676736E+02  0.19641820763E+01  0.15953855478E+02  0.00000000000E+00 0. -1.
</event>
<event>
 7    1  0.6073302E-013  0.5052887E+02  0.7816164E-02  0.1300439E+00
        -11   -1    0    0    0    0  0.00000000000E+00  0.00000000000E+00  0.45593999997E+02  0.45594000000E+02  0.51100000000E-03 0.  1.
         11   -1    0    0    0    0 -0.00000000000E+00 -0.00000000000E+00 -0.45593999997E+02  0.45594000000E+02  0.51100000000E-03 0. -1.
    9900012    2    1    2    0    0 -0.34312497008E+02 -0.17783243912E+02  0.12632260194E+02  0.50528865571E+02  0.30000017390E+02 0.  0.
         12    1    1    2    0    0  0.34312497008E+02  0.17783243912E+02 -0.12632260194E+02  0.40659134429E+02  0.00000000000E+00 0. -1.
         11    1    3    3    0    0 -0.14250716238E+02  0.40781674831E+01  0.78435260690E+01  0.16770070506E+02  0.51100000000E-03 0. -1.
        -11    1    3    3    0    0 -0.11039498874E+02 -0.15805941800E+02 -0.41114842524E+01  0.19713006736E+02  0.51100000000E-03 0.  1.
        -12    1    3    3    0    0 -0.90222818957E+01 -0.60554695951E+01  0.89002183772E+01  0.14045788329E+02  0.00000000000E+00 0.  1.
</event>
<event>
 7    1  0.6073302E-013  0.5052888E+02  0.7816164E-02  0.1300439E+00
        -11   -1    0    0    0    0  0.00000000000E+00  0.00000000000E+00  0.45593999997E+02  0.45594000000E+02  0.51100000000E-03 0. -1.
         11   -1    0    0    0    0 -0.00000000000E+00 -0.00000000000E+00 -0.45593999997E+02  0.45594000000E+02  0.51100000000E-03 0.  1.
    9900012    2    1    2    0    0  0.74578710355E+01  0.38981756034E+02 -0.88298744582E+01  0.50528882611E+02  0.30000069185E+02 0.  0.
         12    1    1    2    0    0 -0.74578710355E+01 -0.38981756034E+02  0.88298744582E+01  0.40659117389E+02  0.00000000000E+00 0. -1.
         11    1    3    3    0    0  0.53938272234E+01  0.28891587374E+02  0.80351574475E+01  0.30469344407E+02  0.51100000000E-03 0. -1.
        -11    1    3    3    0    0 -0.15494834974E+00  0.69639397497E+01 -0.98308830663E+01  0.12048515591E+02  0.51100000000E-03 0.  1.
         12    1    3    3    0    0  0.22189921618E+01  0.31262289105E+01 -0.70341488393E+01  0.80110226132E+01  0.00000000000E+00 0. -1.
</event>
<event>
 7    1  0.6073302E-013  0.5052885E+02  0.7816164E-02  0.1300439E+00
        -11   -1    0    0    0    0  0.00000000000E+00  0.00000000000E+00  0.45593999997E+02  0.45594000000E+02  0.51100000000E-03 0. -1.
         11   -1    0    0    0    0 -0.00000000000E+00 -0.00000000000E+00 -0.45593999997E+02  0.45594000000E+02  0.51100000000E-03 0.  1.
    9900012    2    1    2    0    0 -0.20595170012E+02 -0.20634202003E+02 -0.28341397306E+02  0.50528854395E+02  0.29999983419E+02 0.  0.
         12    1    1    2    0    0  0.20595170012E+02  0.20634202003E+02  0.28341397306E+02  0.40659145605E+02  0.00000000000E+00 0. -1.
         11    1    3    3    0    0 -0.14199918955E+02 -0.11294164614E+02 -0.27236419293E+01  0.18347045491E+02  0.51100000000E-03 0. -1.
        -11    1    3    3    0    0  0.40324417260E+01 -0.59592410840E+01 -0.16214233604E+02  0.17739067399E+02  0.51100000000E-03 0.  1.
         12    1    3    3    0    0 -0.10427692783E+02 -0.33807963049E+01 -0.94035217726E+01  0.14442741505E+02  0.00000000000E+00 0. -1.
</event>
<event>
 7    1  0.6073302E-013  0.5052886E+02  0.7816164E-02  0.1300439E+00
        -11   -1    0    0    0    0  0.00000000000E+00  0.00000000000E+00  0.45593999997E+02  0.45594000000E+02  0.51100000000E-03 0. -1.
         11   -1    0    0    0    0 -0.00000000000E+00 -0.00000000000E+00 -0.45593999997E+02  0.45594000000E+02  0.51100000000E-03 0.  1.
    9900012    2    1    2    0    0  0.19128594185E+02  0.35777196576E+02 -0.26934921616E+01  0.50528858219E+02  0.29999995043E+02 0.  0.
         12    1    1    2    0    0 -0.19128594185E+02 -0.35777196576E+02  0.26934921616E+01  0.40659141781E+02  0.00000000000E+00 0. -1.
         11    1    3    3    0    0  0.87928278693E+01  0.14567751669E+02  0.10049367591E+02  0.19761654786E+02  0.51100000000E-03 0. -1.
        -11    1    3    3    0    0  0.94387906439E+01  0.23615918415E+02 -0.11426815506E+02  0.27881436194E+02  0.51100000000E-03 0.  1.
        -12    1    3    3    0    0  0.89697567155E+00 -0.24064735077E+01 -0.13160442472E+01  0.28857672393E+01  0.00000000000E+00 0.  1.
</event>
<event>
 7    1  0.6073302E-013  0.5052885E+02  0.7816164E-02  0.1300439E+00
        -11   -1    0    0    0    0  0.00000000000E+00  0.00000000000E+00  0.45593999997E+02  0.45594000000E+02  0.51100000000E-03 0.  1.
         11   -1    0    0    0    0 -0.00000000000E+00 -0.00000000000E+00 -0.45593999997E+02  0.45594000000E+02  0.51100000000E-03 0. -1.
    9900012    2    1    2    0    0  0.26783808243E+02 -0.24366553370E+02  0.18494994114E+02  0.50528854480E+02  0.29999983678E+02 0.  0.
         12    1    1    2    0    0 -0.26783808243E+02  0.24366553370E+02 -0.18494994114E+02  0.40659145520E+02  0.00000000000E+00 0. -1.
         11    1    3    3    0    0  0.52888599424E+01 -0.44052878645E+01 -0.70572461201E+01  0.98581602604E+01  0.51100000000E-03 0. -1.
        -11    1    3    3    0    0  0.23446619662E+01  0.12183673332E+01  0.44128910914E+01  0.51434877991E+01  0.51100000000E-03 0.  1.
         12    1    3    3    0    0  0.19150286334E+02 -0.21179632839E+02  0.21139349143E+02  0.35527206421E+02  0.00000000000E+00 0. -1.
</event>
<event>
 7    1  0.6073302E-013  0.5052885E+02  0.7816164E-02  0.1300439E+00
        -11   -1    0    0    0    0  0.00000000000E+00  0.00000000000E+00  0.45593999997E+02  0.45594000000E+02  0.51100000000E-03 0.  1.
         11   -1    0    0    0    0 -0.00000000000E+00 -0.00000000000E+00 -0.45593999997E+02  0.45594000000E+02  0.51100000000E-03 0. -1.
    9900012    2    1    2    0    0  0.20344405655E+02  0.23811077897E+02  0.25928834109E+02  0.50528847152E+02  0.29999961403E+02 0.  0.
         12    1    1    2    0    0 -0.20344405655E+02 -0.23811077897E+02 -0.25928834109E+02  0.40659152848E+02  0.00000000000E+00 0. -1.
         11    1    3    3    0    0 -0.60719890662E+01  0.10126163637E+02  0.25765420258E+01  0.12084982842E+02  0.51100000000E-03 0. -1.
        -11    1    3    3    0    0  0.10206321705E+02  0.69650466916E+01  0.58916858532E+01  0.13689150471E+02  0.51100000000E-03 0.  1.
         12    1    3    3    0    0  0.16210073016E+02  0.67198675689E+01  0.17460606230E+02  0.24754713839E+02  0.00000000000E+00 0. -1.
</event>
<event>
 7    1  0.6073302E-013  0.5052883E+02  0.7816164E-02  0.1300439E+00
        -11   -1    0    0    0    0  0.00000000000E+00  0.00000000000E+00  0.45593999997E+02  0.45594000000E+02  0.51100000000E-03 0. -1.
         11   -1    0    0    0    0 -0.00000000000E+00 -0.00000000000E+00 -0.45593999997E+02  0.45594000000E+02  0.51100000000E-03 0.  1.
    9900012    2    1    2    0    0 -0.99443390637E+01 -0.32602283497E+02 -0.22166851483E+02  0.50528830391E+02  0.29999910456E+02 0.  0.
         12    1    1    2    0    0  0.99443390637E+01  0.32602283497E+02  0.22166851483E+02  0.40659169609E+02  0.00000000000E+00 0. -1.
         11    1    3    3    0    0 -0.15740086815E+02 -0.25073364786E+02 -0.99531967415E+01  0.31232836571E+02  0.51100000000E-03 0. -1.
        -11    1    3    3    0    0  0.12867728777E+01 -0.42057119205E+01 -0.12922098399E+02  0.13650070494E+02  0.51100000000E-03 0.  1.
        -12    1    3    3    0    0  0.45089748741E+01 -0.33232067900E+01  0.70844365710E+00  0.56459233257E+01  0.00000000000E+00 0.  1.
</event>
<event>
 7    1  0.6073302E-013  0.5052886E+02  0.7816164E-02  0.1300439E+00
        -11   -1    0    0    0    0  0.00000000000E+00  0.00000000000E+00  0.45593999997E+02  0.45594000000E+02  0.51100000000E-03 0.  1.
         11   -1    0    0    0    0 -0.00000000000E+00 -0.00000000000E+00 -0.45593999997E+02  0.45594000000E+02  0.51100000000E-03 0. -1.
    9900012    2    1    2    0    0  0.54158818775E+01  0.27249976778E+02  0.29686230320E+02  0.50528864722E+02  0.30000014810E+02 0.  0.
         12    1    1    2    0    0 -0.54158818775E+01 -0.27249976778E+02 -0.29686230320E+02  0.40659135278E+02  0.00000000000E+00 0. -1.
         11    1    3    3    0    0  0.84438428562E+01  0.53846656474E+01  0.57161396628E+00  0.10030944577E+02  0.51100000000E-03 0. -1.
        -11    1    3    3    0    0 -0.10167547825E+02  0.10887592013E+02  0.17620744291E+02  0.23073996582E+02  0.51100000000E-03 0.  1.
        -12    1    3    3    0    0  0.71395868466E+01  0.10977719117E+02  0.11493872063E+02  0.17423923564E+02  0.00000000000E+00 0.  1.
</event>
<event>
 7    1  0.6073302E-013  0.5052885E+02  0.7816164E-02  0.1300439E+00
        -11   -1    0    0    0    0  0.00000000000E+00  0.00000000000E+00  0.45593999997E+02  0.45594000000E+02  0.51100000000E-03 0. -1.
         11   -1    0    0    0    0 -0.00000000000E+00 -0.00000000000E+00 -0.45593999997E+02  0.45594000000E+02  0.51100000000E-03 0.  1.
    9900012    2    1    2    0    0 -0.15829664199E+02  0.37432468767E+02  0.11824290687E+01  0.50528854348E+02  0.29999983276E+02 0.  0.
         12    1    1    2    0    0  0.15829664199E+02 -0.37432468767E+02 -0.11824290687E+01  0.40659145652E+02  0.00000000000E+00 0. -1.
         11    1    3    3    0    0  0.56078914938E+01  0.21647037076E+02  0.45170897348E+00  0.22366195529E+02  0.51100000000E-03 0.  1.
        -11    1    3    3    0    0 -0.21602884877E+02  0.14530452942E+02 -0.95754394054E+00  0.26052554354E+02  0.51100000000E-03 0. -1.
         12    1    3    3    0    0  0.16532918399E+00  0.12549787486E+01  0.16882640357E+01  0.21101044649E+01  0.00000000000E+00 0. -1.
</event>
<event>
 7    1  0.6073302E-013  0.5052885E+02  0.7816164E-02  0.1300439E+00
        -11   -1    0    0    0    0  0.00000000000E+00  0.00000000000E+00  0.45593999997E+02  0.45594000000E+02  0.51100000000E-03 0. -1.
         11   -1    0    0    0    0 -0.00000000000E+00 -0.00000000000E+00 -0.45593999997E+02  0.45594000000E+02  0.51100000000E-03 0.  1.
    9900012    2    1    2    0    0 -0.38606298253E+02  0.11251878349E+02 -0.60096228352E+01  0.50528848536E+02  0.29999965610E+02 0.  0.
         12    1    1    2    0    0  0.38606298253E+02 -0.11251878349E+02  0.60096228352E+01  0.40659151464E+02  0.00000000000E+00 0. -1.
         11    1    3    3    0    0 -0.17648282999E+02 -0.50597100575E+01 -0.29621367608E+01  0.18596688230E+02  0.51100000000E-03 0. -1.
        -11    1    3    3    0    0 -0.21348442814E+02  0.12673668599E+02 -0.77181856224E+01  0.25999005287E+02  0.51100000000E-03 0.  1.
        -12    1    3    3    0    0  0.39042756041E+00  0.36379198080E+01  0.46706995480E+01  0.59331550188E+01  0.00000000000E+00 0.  1.
</event>
<event>
 7    1  0.6073302E-013  0.5052885E+02  0.7816164E-02  0.1300439E+00
        -11   -1    0    0    0    0  0.00000000000E+00  0.00000000000E+00  0.45593999997E+02  0.45594000000E+02  0.51100000000E-03 0.  1.
         11   -1    0    0    0    0 -0.00000000000E+00 -0.00000000000E+00 -0.45593999997E+02  0.45594000000E+02  0.51100000000E-03 0. -1.
    9900012    2    1    2    0    0 -0.35955141813E+02 -0.13046431960E+02 -0.13790757794E+02  0.50528848383E+02  0.29999965145E+02 0.  0.
         12    1    1    2    0    0  0.35955141813E+02  0.13046431960E+02  0.13790757794E+02  0.40659151617E+02  0.00000000000E+00 0. -1.
         11    1    3    3    0    0 -0.34082875539E+02 -0.51453256968E+01 -0.97050359687E+01  0.35809279593E+02  0.51100000000E-03 0. -1.
        -11    1    3    3    0    0  0.33611896436E+01 -0.58047844261E+01  0.14012811465E+01  0.68524964186E+01  0.51100000000E-03 0.  1.
         12    1    3    3    0    0 -0.52334559172E+01 -0.20963218373E+01 -0.54870029719E+01  0.78670723713E+01  0.00000000000E+00 0. -1.
</event>
<event>
 7    1  0.6073302E-013  0.5052885E+02  0.7816164E-02  0.1300439E+00
        -11   -1    0    0    0    0  0.00000000000E+00  0.00000000000E+00  0.45593999997E+02  0.45594000000E+02  0.51100000000E-03 0.  1.
         11   -1    0    0    0    0 -0.00000000000E+00 -0.00000000000E+00 -0.45593999997E+02  0.45594000000E+02  0.51100000000E-03 0. -1.
    9900012    2    1    2    0    0 -0.15440361293E+02 -0.28123835031E+02  0.24976214631E+02  0.50528854030E+02  0.29999982308E+02 0.  0.
         12    1    1    2    0    0  0.15440361293E+02  0.28123835031E+02 -0.24976214631E+02  0.40659145970E+02  0.00000000000E+00 0. -1.
         11    1    3    3    0    0 -0.83918475468E+00 -0.89152848521E+01 -0.23357903885E+01  0.92543207231E+01  0.51100000000E-03 0. -1.
        -11    1    3    3    0    0 -0.15276962719E+02 -0.18485744909E+02  0.30001775179E+02  0.38408525992E+02  0.51100000000E-03 0.  1.
        -12    1    3    3    0    0  0.67578618000E+00 -0.72280526990E+00 -0.26897701587E+01  0.28660073144E+01  0.00000000000E+00 0.  1.
</event>
<event>
 7    1  0.6073302E-013  0.5052886E+02  0.7816164E-02  0.1300439E+00
        -11   -1    0    0    0    0  0.00000000000E+00  0.00000000000E+00  0.45593999997E+02  0.45594000000E+02  0.51100000000E-03 0.  1.
         11   -1    0    0    0    0 -0.00000000000E+00 -0.00000000000E+00 -0.45593999997E+02  0.45594000000E+02  0.51100000000E-03 0. -1.
    9900012    2    1    2    0    0  0.19542086413E+01 -0.30213347816E+02  0.27138532575E+02  0.50528864889E+02  0.30000015316E+02 0.  0.
         12    1    1    2    0    0 -0.19542086413E+01  0.30213347816E+02 -0.27138532575E+02  0.40659135111E+02  0.00000000000E+00 0. -1.
         11    1    3    3    0    0 -0.56561160855E+01 -0.40203679581E+01  0.59006715861E+01  0.91089479700E+01  0.51100000000E-03 0. -1.
        -11    1    3    3    0    0  0.10662915694E+02 -0.27655877755E+02  0.23079763378E+02  0.37566219178E+02  0.51100000000E-03 0.  1.
        -12    1    3    3    0    0 -0.30525909669E+01  0.14628978968E+01 -0.18419023893E+01  0.38536977410E+01  0.00000000000E+00 0.  1.
</event>
<event>
 7    1  0.6073302E-013  0.5052886E+02  0.7816164E-02  0.1300439E+00
        -11   -1    0    0    0    0  0.00000000000E+00  0.00000000000E+00  0.45593999997E+02  0.45594000000E+02  0.51100000000E-03 0.  1.
         11   -1    0    0    0    0 -0.00000000000E+00 -0.00000000000E+00 -0.45593999997E+02  0.45594000000E+02  0.51100000000E-03 0. -1.
    9900012    2    1    2    0    0 -0.15247208394E+02 -0.18653144330E+02  0.32752837979E+02  0.50528861385E+02  0.30000004667E+02 0.  0.
         12    1    1    2    0    0  0.15247208394E+02  0.18653144330E+02 -0.32752837979E+02  0.40659138615E+02  0.00000000000E+00 0. -1.
         11    1    3    3    0    0  0.14931390577E+01 -0.22704121183E+01 -0.18496681647E+01  0.32871732557E+01  0.51100000000E-03 0. -1.
        -11    1    3    3    0    0 -0.48842875504E+01 -0.36314183758E+01  0.27946027827E+02  0.28601117738E+02  0.51100000000E-03 0.  1.
        -12    1    3    3    0    0 -0.11856059902E+02 -0.12751313836E+02  0.66564783163E+01  0.18640570391E+02  0.00000000000E+00 0.  1.
</event>
<event>
 7    1  0.6073302E-013  0.5052886E+02  0.7816164E-02  0.1300439E+00
        -11   -1    0    0    0    0  0.00000000000E+00  0.00000000000E+00  0.45593999997E+02  0.45594000000E+02  0.51100000000E-03 0.  1.
         11   -1    0    0    0    0 -0.00000000000E+00 -0.00000000000E+00 -0.45593999997E+02  0.45594000000E+02  0.51100000000E-03 0. -1.
    9900012    2    1    2    0    0 -0.24918832737E+02 -0.12885765656E+02  0.29430842008E+02  0.50528860279E+02  0.30000001305E+02 0.  0.
         12    1    1    2    0    0  0.24918832737E+02  0.12885765656E+02 -0.29430842008E+02  0.40659139721E+02  0.00000000000E+00 0. -1.
         11    1    3    3    0    0 -0.76319463869E+01  0.87030825082E+01  0.88771188138E+01  0.14587442870E+02  0.51100000000E-03 0. -1.
        -11    1    3    3    0    0 -0.16824867746E+02 -0.17365958258E+02  0.20488600363E+02  0.31692829252E+02  0.51100000000E-03 0.  1.
        -12    1    3    3    0    0 -0.46201860395E+00 -0.42228899058E+01  0.65122831576E-01  0.42485881573E+01  0.00000000000E+00 0.  1.
</event>
<event>
 7    1  0.6073302E-013  0.5052887E+02  0.7816164E-02  0.1300439E+00
        -11   -1    0    0    0    0  0.00000000000E+00  0.00000000000E+00  0.45593999997E+02  0.45594000000E+02  0.51100000000E-03 0.  1.
         11   -1    0    0    0    0 -0.00000000000E+00 -0.00000000000E+00 -0.45593999997E+02  0.45594000000E+02  0.51100000000E-03 0. -1.
    9900012    2    1    2    0    0 -0.22732780640E+02 -0.25977076388E+01  0.33610081487E+02  0.50528868452E+02  0.30000026148E+02 0.  0.
         12    1    1    2    0    0  0.22732780640E+02  0.25977076388E+01 -0.33610081487E+02  0.40659131548E+02  0.00000000000E+00 0. -1.
         11    1    3    3    0    0  0.27862675188E+01  0.48876556414E+01  0.23950111167E+01  0.61146171479E+01  0.51100000000E-03 0. -1.
        -11    1    3    3    0    0 -0.14476743440E+02 -0.11595231490E+02  0.24891869549E+02  0.31042401064E+02  0.51100000000E-03 0.  1.
        -12    1    3    3    0    0 -0.11042304719E+02  0.41098682100E+01  0.63232008217E+01  0.13371850240E+02  0.00000000000E+00 0.  1.
</event>
<event>
 7    1  0.6073302E-013  0.5052885E+02  0.7816164E-02  0.1300439E+00
        -11   -1    0    0    0    0  0.00000000000E+00  0.00000000000E+00  0.45593999997E+02  0.45594000000E+02  0.51100000000E-03 0.  1.
         11   -1    0    0    0    0 -0.00000000000E+00 -0.00000000000E+00 -0.45593999997E+02  0.45594000000E+02  0.51100000000E-03 0. -1.
    9900012    2    1    2    0    0 -0.91180545289E+01  0.39200954489E+02 -0.57717488168E+01  0.50528845611E+02  0.29999956718E+02 0.  0.
         12    1    1    2    0    0  0.91180545289E+01 -0.39200954489E+02  0.57717488168E+01  0.40659154389E+02  0.00000000000E+00 0. -1.
         11    1    3    3    0    0  0.30041863803E+01  0.10588185250E+02 -0.13673547933E+02  0.17552797955E+02  0.51100000000E-03 0. -1.
        -11    1    3    3    0    0 -0.94301133622E+01  0.18994909988E+02  0.18254753380E+01  0.21285347165E+02  0.51100000000E-03 0.  1.
         12    1    3    3    0    0 -0.26921275470E+01  0.96178592508E+01  0.60763237785E+01  0.11690700491E+02  0.00000000000E+00 0. -1.
</event>
<event>
 7    1  0.6073302E-013  0.5052887E+02  0.7816164E-02  0.1300439E+00
        -11   -1    0    0    0    0  0.00000000000E+00  0.00000000000E+00  0.45593999997E+02  0.45594000000E+02  0.51100000000E-03 0. -1.
         11   -1    0    0    0    0 -0.00000000000E+00 -0.00000000000E+00 -0.45593999997E+02  0.45594000000E+02  0.51100000000E-03 0.  1.
    9900012    2    1    2    0    0  0.38961240936E+02  0.50064700112E+01 -0.10493910695E+02  0.50528865738E+02  0.30000017898E+02 0.  0.
         12    1    1    2    0    0 -0.38961240936E+02 -0.50064700112E+01  0.10493910695E+02  0.40659134262E+02  0.00000000000E+00 0. -1.
         11    1    3    3    0    0  0.22998781321E+02 -0.66537625762E+01 -0.11474407920E+02  0.26549548697E+02  0.51100000000E-03 0. -1.
        -11    1    3    3    0    0  0.14754985482E+02  0.54652720962E+01  0.49840022291E+01  0.16505122664E+02  0.51100000000E-03 0.  1.
         12    1    3    3    0    0  0.12074741330E+01  0.61949604912E+01 -0.40035050039E+01  0.74741943770E+01  0.00000000000E+00 0. -1.
</event>
<event>
 7    1  0.6073302E-013  0.5052885E+02  0.7816164E-02  0.1300439E+00
        -11   -1    0    0    0    0  0.00000000000E+00  0.00000000000E+00  0.45593999997E+02  0.45594000000E+02  0.51100000000E-03 0. -1.
         11   -1    0    0    0    0 -0.00000000000E+00 -0.00000000000E+00 -0.45593999997E+02  0.45594000000E+02  0.51100000000E-03 0.  1.
    9900012    2    1    2    0    0  0.11540850825E+02 -0.26296612646E+02 -0.28783039940E+02  0.50528850198E+02  0.29999970661E+02 0.  0.
         12    1    1    2    0    0 -0.11540850825E+02  0.26296612646E+02  0.28783039940E+02  0.40659149802E+02  0.00000000000E+00 0. -1.
         11    1    3    3    0    0  0.11571874302E+02 -0.13031701630E+02 -0.16856636544E+01  0.17509282808E+02  0.51100000000E-03 0. -1.
        -11    1    3    3    0    0  0.19455503213E+01 -0.15469026402E+02 -0.24704848952E+02  0.29213105036E+02  0.51100000000E-03 0.  1.
         12    1    3    3    0    0 -0.19765737980E+01  0.22041153849E+01 -0.23925273338E+01  0.38064623539E+01  0.00000000000E+00 0. -1.
</event>
<event>
 7    1  0.6073302E-013  0.5052886E+02  0.7816164E-02  0.1300439E+00
        -11   -1    0    0    0    0  0.00000000000E+00  0.00000000000E+00  0.45593999997E+02  0.45594000000E+02  0.51100000000E-03 0. -1.
         11   -1    0    0    0    0 -0.00000000000E+00 -0.00000000000E+00 -0.45593999997E+02  0.45594000000E+02  0.51100000000E-03 0.  1.
    9900012    2    1    2    0    0  0.36477745631E+02 -0.16384577937E+02  0.73542883543E+01  0.50528857391E+02  0.29999992525E+02 0.  0.
         12    1    1    2    0    0 -0.36477745631E+02  0.16384577937E+02 -0.73542883543E+01  0.40659142609E+02  0.00000000000E+00 0. -1.
         11    1    3    3    0    0  0.31208219412E+02 -0.14032620251E+02  0.15622859112E+02  0.37615703065E+02  0.51100000000E-03 0. -1.
        -11    1    3    3    0    0  0.49964042689E+01  0.85931333947E+00 -0.82582635779E+01  0.96902730930E+01  0.51100000000E-03 0.  1.
         12    1    3    3    0    0  0.27312195036E+00 -0.32112710260E+01 -0.10307179808E-01  0.32228812327E+01  0.00000000000E+00 0. -1.
</event>
<event>
 7    1  0.6073302E-013  0.5052884E+02  0.7816164E-02  0.1300439E+00
        -11   -1    0    0    0    0  0.00000000000E+00  0.00000000000E+00  0.45593999997E+02  0.45594000000E+02  0.51100000000E-03 0. -1.
         11   -1    0    0    0    0 -0.00000000000E+00 -0.00000000000E+00 -0.45593999997E+02  0.45594000000E+02  0.51100000000E-03 0.  1.
    9900012    2    1    2    0    0 -0.16852628079E+01  0.32133218594E+01 -0.40496933173E+02  0.50528841813E+02  0.29999945174E+02 0.  0.
         12    1    1    2    0    0  0.16852628079E+01 -0.32133218594E+01  0.40496933173E+02  0.40659158187E+02  0.00000000000E+00 0. -1.
         11    1    3    3    0    0  0.33618861746E+01  0.11765223555E+02 -0.29918664164E+02  0.32324127669E+02  0.51100000000E-03 0. -1.
        -11    1    3    3    0    0 -0.23197006516E+01 -0.10338075060E+02 -0.49366004276E+01  0.11688748055E+02  0.51100000000E-03 0.  1.
        -12    1    3    3    0    0 -0.27274483310E+01  0.17861733645E+01 -0.56416685809E+01  0.65159660882E+01  0.00000000000E+00 0.  1.
</event>
<event>
 7    1  0.6073302E-013  0.5052887E+02  0.7816164E-02  0.1300439E+00
        -11   -1    0    0    0    0  0.00000000000E+00  0.00000000000E+00  0.45593999997E+02  0.45594000000E+02  0.51100000000E-03 0.  1.
         11   -1    0    0    0    0 -0.00000000000E+00 -0.00000000000E+00 -0.45593999997E+02  0.45594000000E+02  0.51100000000E-03 0. -1.
    9900012    2    1    2    0    0  0.98571613831E+01  0.24783753566E+02  0.30688213836E+02  0.50528873844E+02  0.30000042536E+02 0.  0.
         12    1    1    2    0    0 -0.98571613831E+01 -0.24783753566E+02 -0.30688213836E+02  0.40659126156E+02  0.00000000000E+00 0. -1.
         11    1    3    3    0    0  0.95635608256E+01  0.12720117696E+02  0.88255706901E+00  0.15938694963E+02  0.51100000000E-03 0. -1.
        -11    1    3    3    0    0 -0.59069618556E+01  0.75521026289E+01  0.13356706131E+02  0.16441655981E+02  0.51100000000E-03 0.  1.
        -12    1    3    3    0    0  0.62005624132E+01  0.45115332410E+01  0.16448950636E+02  0.18148522900E+02  0.00000000000E+00 0.  1.
</event>
<event>
 7    1  0.6073302E-013  0.5052887E+02  0.7816164E-02  0.1300439E+00
        -11   -1    0    0    0    0  0.00000000000E+00  0.00000000000E+00  0.45593999997E+02  0.45594000000E+02  0.51100000000E-03 0.  1.
         11   -1    0    0    0    0 -0.00000000000E+00 -0.00000000000E+00 -0.45593999997E+02  0.45594000000E+02  0.51100000000E-03 0. -1.
    9900012    2    1    2    0    0 -0.26306639425E+02 -0.21832219565E+02  0.22010898394E+02  0.50528871417E+02  0.30000035160E+02 0.  0.
         12    1    1    2    0    0  0.26306639425E+02  0.21832219565E+02 -0.22010898394E+02  0.40659128583E+02  0.00000000000E+00 0. -1.
         11    1    3    3    0    0 -0.10136887570E+02 -0.15265454290E+02  0.89148313905E+01  0.20378047092E+02  0.51100000000E-03 0.  1.
        -11    1    3    3    0    0 -0.12595242599E+02 -0.65754507136E+00 -0.27113986961E+01  0.12900549786E+02  0.51100000000E-03 0. -1.
        -12    1    3    3    0    0 -0.35745092565E+01 -0.59092202039E+01  0.15807465699E+02  0.17250274539E+02  0.00000000000E+00 0.  1.
</event>
<event>
 7    1  0.6073302E-013  0.5052877E+02  0.7816164E-02  0.1300439E+00
        -11   -1    0    0    0    0  0.00000000000E+00  0.00000000000E+00  0.45593999997E+02  0.45594000000E+02  0.51100000000E-03 0.  1.
         11   -1    0    0    0    0 -0.00000000000E+00 -0.00000000000E+00 -0.45593999997E+02  0.45594000000E+02  0.51100000000E-03 0. -1.
    9900012    2    1    2    0    0  0.13521025919E+02  0.26661020101E+02  0.27559841569E+02  0.50528769780E+02  0.29999726223E+02 0.  0.
         12    1    1    2    0    0 -0.13521025919E+02 -0.26661020101E+02 -0.27559841569E+02  0.40659230220E+02  0.00000000000E+00 0. -1.
         11    1    3    3    0    0  0.19016032687E+01 -0.44600165891E+01  0.55500661515E+01  0.73696049768E+01  0.51100000000E-03 0. -1.
        -11    1    3    3    0    0  0.15909467087E+02  0.25062472145E+02  0.18106732304E+02  0.34772006098E+02  0.51100000000E-03 0.  1.
         12    1    3    3    0    0 -0.42900444367E+01  0.60585645452E+01  0.39030431129E+01  0.83871587059E+01  0.00000000000E+00 0. -1.
</event>
<event>
 7    1  0.6073302E-013  0.5052885E+02  0.7816164E-02  0.1300439E+00
        -11   -1    0    0    0    0  0.00000000000E+00  0.00000000000E+00  0.45593999997E+02  0.45594000000E+02  0.51100000000E-03 0.  1.
         11   -1    0    0    0    0 -0.00000000000E+00 -0.00000000000E+00 -0.45593999997E+02  0.45594000000E+02  0.51100000000E-03 0. -1.
    9900012    2    1    2    0    0  0.29727419853E+02 -0.25813076472E+02  0.10155401767E+02  0.50528848593E+02  0.29999965784E+02 0.  0.
         12    1    1    2    0    0 -0.29727419853E+02  0.25813076472E+02 -0.10155401767E+02  0.40659151407E+02  0.00000000000E+00 0. -1.
         11    1    3    3    0    0  0.34733881123E+01  0.30075319362E+00 -0.49714222838E+01  0.60720603791E+01  0.51100000000E-03 0. -1.
        -11    1    3    3    0    0  0.26630283102E+02 -0.15004388112E+02  0.95705235327E+01  0.32029651289E+02  0.51100000000E-03 0.  1.
        -12    1    3    3    0    0 -0.37625136119E+00 -0.11109441553E+02  0.55563005184E+01  0.12427136925E+02  0.00000000000E+00 0.  1.
</event>
<event>
 7    1  0.6073302E-013  0.5052886E+02  0.7816164E-02  0.1300439E+00
        -11   -1    0    0    0    0  0.00000000000E+00  0.00000000000E+00  0.45593999997E+02  0.45594000000E+02  0.51100000000E-03 0. -1.
         11   -1    0    0    0    0 -0.00000000000E+00 -0.00000000000E+00 -0.45593999997E+02  0.45594000000E+02  0.51100000000E-03 0.  1.
    9900012    2    1    2    0    0 -0.18211664205E+01 -0.39772989421E+02  0.82436913261E+01  0.50528858576E+02  0.29999996129E+02 0.  0.
         12    1    1    2    0    0  0.18211664205E+01  0.39772989421E+02 -0.82436913261E+01  0.40659141424E+02  0.00000000000E+00 0. -1.
         11    1    3    3    0    0 -0.37003932357E+01 -0.10755881349E+02  0.11336171724E+02  0.16058975164E+02  0.51100000000E-03 0. -1.
        -11    1    3    3    0    0  0.95161920486E+01 -0.15950205523E+02 -0.49493893263E+01  0.19221431328E+02  0.51100000000E-03 0.  1.
        -12    1    3    3    0    0 -0.76369652335E+01 -0.13066902549E+02  0.18569089281E+01  0.15248452084E+02  0.00000000000E+00 0.  1.
</event>
<event>
 7    1  0.6073302E-013  0.5052885E+02  0.7816164E-02  0.1300439E+00
        -11   -1    0    0    0    0  0.00000000000E+00  0.00000000000E+00  0.45593999997E+02  0.45594000000E+02  0.51100000000E-03 0. -1.
         11   -1    0    0    0    0 -0.00000000000E+00 -0.00000000000E+00 -0.45593999997E+02  0.45594000000E+02  0.51100000000E-03 0.  1.
    9900012    2    1    2    0    0 -0.31966089416E+02  0.20604487480E+02 -0.14380215846E+02  0.50528851157E+02  0.29999973577E+02 0.  0.
         12    1    1    2    0    0  0.31966089416E+02 -0.20604487480E+02  0.14380215846E+02  0.40659148843E+02  0.00000000000E+00 0. -1.
         11    1    3    3    0    0 -0.77800729392E+01  0.19202464952E+02 -0.59850834580E+01  0.21565839178E+02  0.51100000000E-03 0. -1.
        -11    1    3    3    0    0 -0.16218050091E+02 -0.30751937598E+01 -0.10526920887E+02  0.19577998596E+02  0.51100000000E-03 0.  1.
         12    1    3    3    0    0 -0.79679663858E+01  0.44772162873E+01  0.21317884984E+01  0.93850133837E+01  0.00000000000E+00 0. -1.
</event>
<event>
 7    1  0.6073302E-013  0.5052887E+02  0.7816164E-02  0.1300439E+00
        -11   -1    0    0    0    0  0.00000000000E+00  0.00000000000E+00  0.45593999997E+02  0.45594000000E+02  0.51100000000E-03 0.  1.
         11   -1    0    0    0    0 -0.00000000000E+00 -0.00000000000E+00 -0.45593999997E+02  0.45594000000E+02  0.51100000000E-03 0. -1.
    9900012    2    1    2    0    0  0.30674146348E+02 -0.38000211375E+01  0.26416312631E+02  0.50528868334E+02  0.30000025788E+02 0.  0.
         12    1    1    2    0    0 -0.30674146348E+02  0.38000211375E+01 -0.26416312631E+02  0.40659131666E+02  0.00000000000E+00 0. -1.
         11    1    3    3    0    0 -0.38956902054E+00  0.18477088323E+01  0.15160861521E+02  0.15278007536E+02  0.51100000000E-03 0. -1.
        -11    1    3    3    0    0  0.14695608445E+02 -0.80738229535E+01  0.43627636646E+01  0.17325738994E+02  0.51100000000E-03 0.  1.
         12    1    3    3    0    0  0.16368106924E+02  0.24260929837E+01  0.68926874446E+01  0.17925121803E+02  0.00000000000E+00 0. -1.
</event>
<event>
 7    1  0.6073302E-013  0.5052891E+02  0.7816164E-02  0.1300439E+00
        -11   -1    0    0    0    0  0.00000000000E+00  0.00000000000E+00  0.45593999997E+02  0.45594000000E+02  0.51100000000E-03 0.  1.
         11   -1    0    0    0    0 -0.00000000000E+00 -0.00000000000E+00 -0.45593999997E+02  0.45594000000E+02  0.51100000000E-03 0. -1.
    9900012    2    1    2    0    0  0.19986547189E+02 -0.28300905723E+02  0.21278114259E+02  0.50528911475E+02  0.30000156918E+02 0.  0.
         12    1    1    2    0    0 -0.19986547189E+02  0.28300905723E+02 -0.21278114259E+02  0.40659088525E+02  0.00000000000E+00 0. -1.
         11    1    3    3    0    0  0.64797396501E+01 -0.31198961989E+01  0.10678786830E+02  0.12874675400E+02  0.51100000000E-03 0. -1.
        -11    1    3    3    0    0  0.12402678672E+02 -0.20166278511E+02 -0.22844040509E+01  0.23784947537E+02  0.51100000000E-03 0.  1.
        -12    1    3    3    0    0  0.11041288667E+01 -0.50147310136E+01  0.12883731480E+02  0.13869288537E+02  0.00000000000E+00 0.  1.
</event>
<event>
 7    1  0.6073302E-013  0.5052886E+02  0.7816164E-02  0.1300439E+00
        -11   -1    0    0    0    0  0.00000000000E+00  0.00000000000E+00  0.45593999997E+02  0.45594000000E+02  0.51100000000E-03 0. -1.
         11   -1    0    0    0    0 -0.00000000000E+00 -0.00000000000E+00 -0.45593999997E+02  0.45594000000E+02  0.51100000000E-03 0.  1.
    9900012    2    1    2    0    0  0.35786268819E+02 -0.16320358402E+02 -0.10303121323E+02  0.50528862733E+02  0.30000008762E+02 0.  0.
         12    1    1    2    0    0 -0.35786268819E+02  0.16320358402E+02  0.10303121323E+02  0.40659137267E+02  0.00000000000E+00 0. -1.
         11    1    3    3    0    0  0.36068879736E+02 -0.41776635475E+01 -0.96707216626E+01  0.37575787628E+02  0.51100000000E-03 0.  1.
        -11    1    3    3    0    0 -0.22531488916E+01 -0.52019021110E+01  0.30629271282E+00  0.56771719181E+01  0.51100000000E-03 0. -1.
        -12    1    3    3    0    0  0.19705379748E+01 -0.69407927431E+01 -0.93869237311E+00  0.72759031868E+01  0.00000000000E+00 0.  1.
</event>
<event>
 7    1  0.6073302E-013  0.5052885E+02  0.7816164E-02  0.1300439E+00
        -11   -1    0    0    0    0  0.00000000000E+00  0.00000000000E+00  0.45593999997E+02  0.45594000000E+02  0.51100000000E-03 0. -1.
         11   -1    0    0    0    0 -0.00000000000E+00 -0.00000000000E+00 -0.45593999997E+02  0.45594000000E+02  0.51100000000E-03 0.  1.
    9900012    2    1    2    0    0 -0.31210185909E+02  0.83658367482E+01 -0.24680016928E+02  0.50528853864E+02  0.29999981805E+02 0.  0.
         12    1    1    2    0    0  0.31210185909E+02 -0.83658367482E+01  0.24680016928E+02  0.40659146136E+02  0.00000000000E+00 0. -1.
         11    1    3    3    0    0  0.18125643983E+01  0.34769137438E+01  0.39777361832E+01  0.55854009958E+01  0.51100000000E-03 0. -1.
        -11    1    3    3    0    0 -0.23956579412E+02  0.50342900124E+01 -0.15535924601E+02  0.28993563536E+02  0.51100000000E-03 0.  1.
        -12    1    3    3    0    0 -0.90661708949E+01 -0.14536700803E+00 -0.13121828510E+02  0.15949889332E+02  0.00000000000E+00 0.  1.
</event>
<event>
 7    1  0.6073302E-013  0.5052886E+02  0.7816164E-02  0.1300439E+00
        -11   -1    0    0    0    0  0.00000000000E+00  0.00000000000E+00  0.45593999997E+02  0.45594000000E+02  0.51100000000E-03 0.  1.
         11   -1    0    0    0    0 -0.00000000000E+00 -0.00000000000E+00 -0.45593999997E+02  0.45594000000E+02  0.51100000000E-03 0. -1.
    9900012    2    1    2    0    0  0.19519016045E+02 -0.10994843145E+02  0.33930620342E+02  0.50528861298E+02  0.30000004402E+02 0.  0.
         12    1    1    2    0    0 -0.19519016045E+02  0.10994843145E+02 -0.33930620342E+02  0.40659138702E+02  0.00000000000E+00 0. -1.
         11    1    3    3    0    0 -0.29587304159E+01  0.38661359150E+01  0.13648584570E+01  0.50560786639E+01  0.51100000000E-03 0. -1.
        -11    1    3    3    0    0  0.21963454176E+02 -0.58994237233E+01  0.22634877187E+02  0.32086355124E+02  0.51100000000E-03 0.  1.
        -12    1    3    3    0    0  0.51429228554E+00 -0.89615553367E+01  0.99308846980E+01  0.13386427510E+02  0.00000000000E+00 0.  1.
</event>
<event>
 7    1  0.6073302E-013  0.5052888E+02  0.7816164E-02  0.1300439E+00
        -11   -1    0    0    0    0  0.00000000000E+00  0.00000000000E+00  0.45593999997E+02  0.45594000000E+02  0.51100000000E-03 0.  1.
         11   -1    0    0    0    0 -0.00000000000E+00 -0.00000000000E+00 -0.45593999997E+02  0.45594000000E+02  0.51100000000E-03 0. -1.
    9900012    2    1    2    0    0  0.80347297959E+01 -0.64116446426E+01  0.39338252706E+02  0.50528878073E+02  0.30000055389E+02 0.  0.
         12    1    1    2    0    0 -0.80347297959E+01  0.64116446426E+01 -0.39338252706E+02  0.40659121927E+02  0.00000000000E+00 0. -1.
         11    1    3    3    0    0 -0.68236832269E+01 -0.88269935032E+01  0.13812813919E+02  0.17755908755E+02  0.51100000000E-03 0. -1.
        -11    1    3    3    0    0  0.16690721932E+02 -0.45840870121E+00  0.23434795385E+02  0.28774641130E+02  0.51100000000E-03 0.  1.
        -12    1    3    3    0    0 -0.18323089091E+01  0.28737575618E+01  0.20906434020E+01  0.39983281877E+01  0.00000000000E+00 0.  1.
</event>
<event>
 7    1  0.6073302E-013  0.5052878E+02  0.7816164E-02  0.1300439E+00
        -11   -1    0    0    0    0  0.00000000000E+00  0.00000000000E+00  0.45593999997E+02  0.45594000000E+02  0.51100000000E-03 0.  1.
         11   -1    0    0    0    0 -0.00000000000E+00 -0.00000000000E+00 -0.45593999997E+02  0.45594000000E+02  0.51100000000E-03 0. -1.
    9900012    2    1    2    0    0 -0.27951577945E+02  0.79363703889E+01  0.28441089456E+02  0.50528778979E+02  0.29999754184E+02 0.  0.
         12    1    1    2    0    0  0.27951577945E+02 -0.79363703889E+01 -0.28441089456E+02  0.40659221021E+02  0.00000000000E+00 0. -1.
         11    1    3    3    0    0 -0.18577426541E+02  0.75257550863E+01  0.27577398646E+01  0.20232718451E+02  0.51100000000E-03 0. -1.
        -11    1    3    3    0    0 -0.99679066233E+01  0.33152359949E+01  0.25187369016E+02  0.27290172413E+02  0.51100000000E-03 0.  1.
        -12    1    3    3    0    0  0.59375521945E+00 -0.29046206923E+01  0.49598057598E+00  0.30058881147E+01  0.00000000000E+00 0.  1.
</event>
<event>
 7    1  0.6073302E-013  0.5052886E+02  0.7816164E-02  0.1300439E+00
        -11   -1    0    0    0    0  0.00000000000E+00  0.00000000000E+00  0.45593999997E+02  0.45594000000E+02  0.51100000000E-03 0. -1.
         11   -1    0    0    0    0 -0.00000000000E+00 -0.00000000000E+00 -0.45593999997E+02  0.45594000000E+02  0.51100000000E-03 0.  1.
    9900012    2    1    2    0    0  0.20819479931E+02  0.29549050685E+02 -0.18616356762E+02  0.50528857362E+02  0.29999992437E+02 0.  0.
         12    1    1    2    0    0 -0.20819479931E+02 -0.29549050685E+02  0.18616356762E+02  0.40659142638E+02  0.00000000000E+00 0. -1.
         11    1    3    3    0    0  0.15337499335E+02  0.92866022563E+01 -0.19605422190E+02  0.26567883748E+02  0.51100000000E-03 0. -1.
        -11    1    3    3    0    0  0.76130591815E+01  0.20153588085E+02 -0.14586388322E+00  0.21544072487E+02  0.51100000000E-03 0.  1.
         12    1    3    3    0    0 -0.21310785858E+01  0.10886034391E+00  0.11349293115E+01  0.24169011265E+01  0.00000000000E+00 0. -1.
</event>
<event>
 7    1  0.6073302E-013  0.5052884E+02  0.7816164E-02  0.1300439E+00
        -11   -1    0    0    0    0  0.00000000000E+00  0.00000000000E+00  0.45593999997E+02  0.45594000000E+02  0.51100000000E-03 0.  1.
         11   -1    0    0    0    0 -0.00000000000E+00 -0.00000000000E+00 -0.45593999997E+02  0.45594000000E+02  0.51100000000E-03 0. -1.
    9900012    2    1    2    0    0 -0.92949802452E+01 -0.38710482030E+02  0.82625135538E+01  0.50528841045E+02  0.29999942840E+02 0.  0.
         12    1    1    2    0    0  0.92949802452E+01  0.38710482030E+02 -0.82625135538E+01  0.40659158955E+02  0.00000000000E+00 0. -1.
         11    1    3    3    0    0 -0.19889643582E+01  0.33005133448E+01 -0.59351687839E+00  0.38989267887E+01  0.51100000000E-03 0. -1.
        -11    1    3    3    0    0 -0.76595480685E+01 -0.29584431675E+02 -0.12846908283E+01  0.30586887795E+02  0.51100000000E-03 0.  1.
        -12    1    3    3    0    0  0.35353218149E+00 -0.12426563699E+02  0.10140721260E+02  0.16043026462E+02  0.00000000000E+00 0.  1.
</event>
<event>
 7    1  0.6073302E-013  0.5052885E+02  0.7816164E-02  0.1300439E+00
        -11   -1    0    0    0    0  0.00000000000E+00  0.00000000000E+00  0.45593999997E+02  0.45594000000E+02  0.51100000000E-03 0. -1.
         11   -1    0    0    0    0 -0.00000000000E+00 -0.00000000000E+00 -0.45593999997E+02  0.45594000000E+02  0.51100000000E-03 0.  1.
    9900012    2    1    2    0    0  0.30376885135E+02  0.26694620731E+02 -0.42200152416E+01  0.50528850290E+02  0.29999970942E+02 0.  0.
         12    1    1    2    0    0 -0.30376885135E+02 -0.26694620731E+02  0.42200152416E+01  0.40659149710E+02  0.00000000000E+00 0. -1.
         11    1    3    3    0    0  0.30868979668E+01 -0.42596235492E+01  0.44296410772E+01  0.68771398249E+01  0.51100000000E-03 0. -1.
        -11    1    3    3    0    0  0.10433485336E+02  0.19954511001E+02 -0.28002498089E+01  0.22691000965E+02  0.51100000000E-03 0.  1.
        -12    1    3    3    0    0  0.16856501832E+02  0.10999733279E+02 -0.58494065098E+01  0.20960709500E+02  0.00000000000E+00 0.  1.
</event>
<event>
 7    1  0.6073302E-013  0.5052886E+02  0.7816164E-02  0.1300439E+00
        -11   -1    0    0    0    0  0.00000000000E+00  0.00000000000E+00  0.45593999997E+02  0.45594000000E+02  0.51100000000E-03 0.  1.
         11   -1    0    0    0    0 -0.00000000000E+00 -0.00000000000E+00 -0.45593999997E+02  0.45594000000E+02  0.51100000000E-03 0. -1.
    9900012    2    1    2    0    0  0.36704922017E+00 -0.78957508699E+01  0.39883432982E+02  0.50528857936E+02  0.29999994183E+02 0.  0.
         12    1    1    2    0    0 -0.36704922017E+00  0.78957508699E+01 -0.39883432982E+02  0.40659142064E+02  0.00000000000E+00 0. -1.
         11    1    3    3    0    0 -0.16176179676E+00 -0.38989447809E+00  0.27166730463E+02  0.27170009733E+02  0.51100000000E-03 0.  1.
        -11    1    3    3    0    0  0.41951425672E+01  0.41950749790E+01  0.34914684062E+00  0.59430445914E+01  0.51100000000E-03 0. -1.
        -12    1    3    3    0    0 -0.36663315503E+01 -0.11700931371E+02  0.12367555679E+02  0.17415803612E+02  0.00000000000E+00 0.  1.
</event>
<event>
 7    1  0.6073302E-013  0.5052886E+02  0.7816164E-02  0.1300439E+00
        -11   -1    0    0    0    0  0.00000000000E+00  0.00000000000E+00  0.45593999997E+02  0.45594000000E+02  0.51100000000E-03 0.  1.
         11   -1    0    0    0    0 -0.00000000000E+00 -0.00000000000E+00 -0.45593999997E+02  0.45594000000E+02  0.51100000000E-03 0. -1.
    9900012    2    1    2    0    0  0.11901204622E+02  0.23772914994E+02  0.30763212498E+02  0.50528863241E+02  0.30000010307E+02 0.  0.
         12    1    1    2    0    0 -0.11901204622E+02 -0.23772914994E+02 -0.30763212498E+02  0.40659136759E+02  0.00000000000E+00 0. -1.
         11    1    3    3    0    0  0.72918728985E+01  0.12844610921E+02 -0.24593522510E+00  0.14772133376E+02  0.51100000000E-03 0. -1.
        -11    1    3    3    0    0  0.63025508857E+01  0.12468494423E+01  0.19961692189E+02  0.20970120088E+02  0.51100000000E-03 0.  1.
        -12    1    3    3    0    0 -0.16932191627E+01  0.96814546309E+01  0.11047455535E+02  0.14786609777E+02  0.00000000000E+00 0.  1.
</event>
<event>
 7    1  0.6073302E-013  0.5052886E+02  0.7816164E-02  0.1300439E+00
        -11   -1    0    0    0    0  0.00000000000E+00  0.00000000000E+00  0.45593999997E+02  0.45594000000E+02  0.51100000000E-03 0. -1.
         11   -1    0    0    0    0 -0.00000000000E+00 -0.00000000000E+00 -0.45593999997E+02  0.45594000000E+02  0.51100000000E-03 0.  1.
    9900012    2    1    2    0    0 -0.16693707636E+02 -0.31917290715E+02 -0.18861932309E+02  0.50528858203E+02  0.29999994994E+02 0.  0.
         12    1    1    2    0    0  0.16693707636E+02  0.31917290715E+02  0.18861932309E+02  0.40659141797E+02  0.00000000000E+00 0. -1.
         11    1    3    3    0    0 -0.79940832819E+00 -0.22427974757E+02 -0.10466760591E+02  0.24763000281E+02  0.51100000000E-03 0. -1.
        -11    1    3    3    0    0 -0.37634079134E+01 -0.86072243666E+00  0.45998669453E+01  0.60052359164E+01  0.51100000000E-03 0.  1.
        -12    1    3    3    0    0 -0.12130891395E+02 -0.86285935216E+01 -0.12995038664E+02  0.19760622006E+02  0.00000000000E+00 0.  1.
</event>
<event>
 7    1  0.6073302E-013  0.5052888E+02  0.7816164E-02  0.1300439E+00
        -11   -1    0    0    0    0  0.00000000000E+00  0.00000000000E+00  0.45593999997E+02  0.45594000000E+02  0.51100000000E-03 0.  1.
         11   -1    0    0    0    0 -0.00000000000E+00 -0.00000000000E+00 -0.45593999997E+02  0.45594000000E+02  0.51100000000E-03 0. -1.
    9900012    2    1    2    0    0  0.12964811026E+01 -0.19823184200E+02  0.35475692490E+02  0.50528877374E+02  0.30000053266E+02 0.  0.
         12    1    1    2    0    0 -0.12964811026E+01  0.19823184200E+02 -0.35475692490E+02  0.40659122626E+02  0.00000000000E+00 0. -1.
         11    1    3    3    0    0 -0.14407165548E+01  0.29175247192E+01 -0.34968938292E+01  0.47765972608E+01  0.51100000000E-03 0. -1.
        -11    1    3    3    0    0  0.15440366503E+01 -0.12243897313E+02  0.27581010373E+02  0.30216042164E+02  0.51100000000E-03 0.  1.
         12    1    3    3    0    0  0.11931610071E+01 -0.10496811607E+02  0.11391575946E+02  0.15536237949E+02  0.00000000000E+00 0. -1.
</event>
<event>
 7    1  0.6073302E-013  0.5052884E+02  0.7816164E-02  0.1300439E+00
        -11   -1    0    0    0    0  0.00000000000E+00  0.00000000000E+00  0.45593999997E+02  0.45594000000E+02  0.51100000000E-03 0.  1.
         11   -1    0    0    0    0 -0.00000000000E+00 -0.00000000000E+00 -0.45593999997E+02  0.45594000000E+02  0.51100000000E-03 0. -1.
    9900012    2    1    2    0    0 -0.23063672762E+02  0.32197570134E+02  0.91951360220E+01  0.50528842972E+02  0.29999948696E+02 0.  0.
         12    1    1    2    0    0  0.23063672762E+02 -0.32197570134E+02 -0.91951360220E+01  0.40659157028E+02  0.00000000000E+00 0. -1.
         11    1    3    3    0    0 -0.57644886822E+01  0.15440366807E+02  0.14648381726E+02  0.22050155200E+02  0.51100000000E-03 0. -1.
        -11    1    3    3    0    0 -0.12694237124E+02  0.16963799878E+02  0.19465513835E+00  0.21188488699E+02  0.51100000000E-03 0.  1.
         12    1    3    3    0    0 -0.46049469558E+01 -0.20659655041E+00 -0.56479008421E+01  0.72901990729E+01  0.00000000000E+00 0. -1.
</event>
<event>
 7    1  0.6073302E-013  0.5052886E+02  0.7816164E-02  0.1300439E+00
        -11   -1    0    0    0    0  0.00000000000E+00  0.00000000000E+00  0.45593999997E+02  0.45594000000E+02  0.51100000000E-03 0.  1.
         11   -1    0    0    0    0 -0.00000000000E+00 -0.00000000000E+00 -0.45593999997E+02  0.45594000000E+02  0.51100000000E-03 0. -1.
    9900012    2    1    2    0    0 -0.61728773220E+00 -0.10362052588E+02  0.39311733905E+02  0.50528860799E+02  0.30000002884E+02 0.  0.
         12    1    1    2    0    0  0.61728773220E+00  0.10362052588E+02 -0.39311733905E+02  0.40659139201E+02  0.00000000000E+00 0. -1.
         11    1    3    3    0    0 -0.72954535180E+01 -0.19275351792E+01 -0.13433653509E+01  0.76644415731E+01  0.51100000000E-03 0. -1.
        -11    1    3    3    0    0  0.63079397564E+01 -0.10040007777E+02  0.37039997023E+02  0.38891557437E+02  0.51100000000E-03 0.  1.
        -12    1    3    3    0    0  0.37022602941E+00  0.16054903689E+01  0.36151022326E+01  0.39728617884E+01  0.00000000000E+00 0.  1.
</event>
<event>
 7    1  0.6073302E-013  0.5052886E+02  0.7816164E-02  0.1300439E+00
        -11   -1    0    0    0    0  0.00000000000E+00  0.00000000000E+00  0.45593999997E+02  0.45594000000E+02  0.51100000000E-03 0.  1.
         11   -1    0    0    0    0 -0.00000000000E+00 -0.00000000000E+00 -0.45593999997E+02  0.45594000000E+02  0.51100000000E-03 0. -1.
    9900012    2    1    2    0    0  0.13836306814E+02  0.21318448786E+02  0.31737141588E+02  0.50528858333E+02  0.29999995389E+02 0.  0.
         12    1    1    2    0    0 -0.13836306814E+02 -0.21318448786E+02 -0.31737141588E+02  0.40659141667E+02  0.00000000000E+00 0. -1.
         11    1    3    3    0    0  0.11373380300E+02 -0.39564676122E+01  0.79166127024E+01  0.14411112808E+02  0.51100000000E-03 0. -1.
        -11    1    3    3    0    0  0.47084776681E+01  0.13641750467E+02  0.84935959597E+01  0.16745396094E+02  0.51100000000E-03 0.  1.
         12    1    3    3    0    0 -0.22455511538E+01  0.11633165931E+02  0.15326932926E+02  0.19372349432E+02  0.00000000000E+00 0. -1.
</event>
<event>
 7    1  0.6073302E-013  0.5052886E+02  0.7816164E-02  0.1300439E+00
        -11   -1    0    0    0    0  0.00000000000E+00  0.00000000000E+00  0.45593999997E+02  0.45594000000E+02  0.51100000000E-03 0.  1.
         11   -1    0    0    0    0 -0.00000000000E+00 -0.00000000000E+00 -0.45593999997E+02  0.45594000000E+02  0.51100000000E-03 0. -1.
    9900012    2    1    2    0    0 -0.36078413806E+02  0.15167533182E+02 -0.11020875597E+02  0.50528859521E+02  0.29999999001E+02 0.  0.
         12    1    1    2    0    0  0.36078413806E+02 -0.15167533182E+02  0.11020875597E+02  0.40659140479E+02  0.00000000000E+00 0. -1.
         11    1    3    3    0    0  0.23395330131E+01  0.52106523473E+01  0.19769705452E+01  0.60442307535E+01  0.51100000000E-03 0. -1.
        -11    1    3    3    0    0 -0.32921165352E+02  0.21593678851E+01 -0.96539072547E+01  0.34375338883E+02  0.51100000000E-03 0.  1.
        -12    1    3    3    0    0 -0.54967814671E+01  0.77975129491E+01 -0.33439388869E+01  0.10109289884E+02  0.00000000000E+00 0.  1.
</event>
<event>
 7    1  0.6073302E-013  0.5052889E+02  0.7816164E-02  0.1300439E+00
        -11   -1    0    0    0    0  0.00000000000E+00  0.00000000000E+00  0.45593999997E+02  0.45594000000E+02  0.51100000000E-03 0. -1.
         11   -1    0    0    0    0 -0.00000000000E+00 -0.00000000000E+00 -0.45593999997E+02  0.45594000000E+02  0.51100000000E-03 0.  1.
    9900012    2    1    2    0    0 -0.12168509662E+02 -0.43065980006E+01 -0.38555720160E+02  0.50528893139E+02  0.30000101184E+02 0.  0.
         12    1    1    2    0    0  0.12168509662E+02  0.43065980006E+01  0.38555720160E+02  0.40659106861E+02  0.00000000000E+00 0. -1.
         11    1    3    3    0    0 -0.83481645081E+01 -0.96683710586E+01 -0.18810381806E+01  0.12911527968E+02  0.51100000000E-03 0. -1.
        -11    1    3    3    0    0 -0.44961609971E+01  0.21998879251E+01 -0.25385666044E+02  0.25874447074E+02  0.51100000000E-03 0.  1.
         12    1    3    3    0    0  0.67581584321E+00  0.31618851329E+01 -0.11289015935E+02  0.11742918096E+02  0.00000000000E+00 0. -1.
</event>
<event>
 7    1  0.6073302E-013  0.5052886E+02  0.7816164E-02  0.1300439E+00
        -11   -1    0    0    0    0  0.00000000000E+00  0.00000000000E+00  0.45593999997E+02  0.45594000000E+02  0.51100000000E-03 0. -1.
         11   -1    0    0    0    0 -0.00000000000E+00 -0.00000000000E+00 -0.45593999997E+02  0.45594000000E+02  0.51100000000E-03 0.  1.
    9900012    2    1    2    0    0 -0.16258882574E+02  0.12417325301E+02 -0.35137220117E+02  0.50528862433E+02  0.30000007851E+02 0.  0.
         12    1    1    2    0    0  0.16258882574E+02 -0.12417325301E+02  0.35137220117E+02  0.40659137567E+02  0.00000000000E+00 0. -1.
         11    1    3    3    0    0  0.42068315622E+01  0.28982008721E+01  0.29676272769E+01  0.59079448206E+01  0.51100000000E-03 0. -1.
        -11    1    3    3    0    0 -0.77171814820E+01  0.48305822839E+01 -0.10811426592E+02  0.14134226560E+02  0.51100000000E-03 0.  1.
         12    1    3    3    0    0 -0.12748532654E+02  0.46885421449E+01 -0.27293420801E+02  0.30486691052E+02  0.00000000000E+00 0. -1.
</event>
<event>
 7    1  0.6073302E-013  0.5052886E+02  0.7816164E-02  0.1300439E+00
        -11   -1    0    0    0    0  0.00000000000E+00  0.00000000000E+00  0.45593999997E+02  0.45594000000E+02  0.51100000000E-03 0. -1.
         11   -1    0    0    0    0 -0.00000000000E+00 -0.00000000000E+00 -0.45593999997E+02  0.45594000000E+02  0.51100000000E-03 0.  1.
    9900012    2    1    2    0    0 -0.38876658697E+02  0.83146904561E+01 -0.85227183983E+01  0.50528863293E+02  0.30000010467E+02 0.  0.
         12    1    1    2    0    0  0.38876658697E+02 -0.83146904561E+01  0.85227183983E+01  0.40659136707E+02  0.00000000000E+00 0. -1.
         11    1    3    3    0    0 -0.20894935586E+01 -0.12434719971E+01 -0.63621476681E+01  0.68109565519E+01  0.51100000000E-03 0. -1.
        -11    1    3    3    0    0 -0.39004768030E+02  0.85594488695E+01  0.73088887300E+00  0.39939583033E+02  0.51100000000E-03 0.  1.
        -12    1    3    3    0    0  0.22176028920E+01  0.99871358367E+00 -0.28914596032E+01  0.37783237084E+01  0.00000000000E+00 0.  1.
</event>
<event>
 7    1  0.6073302E-013  0.5052886E+02  0.7816164E-02  0.1300439E+00
        -11   -1    0    0    0    0  0.00000000000E+00  0.00000000000E+00  0.45593999997E+02  0.45594000000E+02  0.51100000000E-03 0.  1.
         11   -1    0    0    0    0 -0.00000000000E+00 -0.00000000000E+00 -0.45593999997E+02  0.45594000000E+02  0.51100000000E-03 0. -1.
    9900012    2    1    2    0    0 -0.27573002457E+02  0.53877051712E+01  0.29391634915E+02  0.50528855462E+02  0.29999986664E+02 0.  0.
         12    1    1    2    0    0  0.27573002457E+02 -0.53877051712E+01 -0.29391634915E+02  0.40659144538E+02  0.00000000000E+00 0. -1.
         11    1    3    3    0    0  0.33611275695E+00 -0.97279368373E-01  0.57156458160E-01  0.35454503624E+00  0.51100000000E-03 0. -1.
        -11    1    3    3    0    0 -0.14766481873E+02  0.17394157421E+02  0.14334365886E+02  0.26945866935E+02  0.51100000000E-03 0.  1.
        -12    1    3    3    0    0 -0.13142633342E+02 -0.11909172881E+02  0.15000112571E+02  0.23228443491E+02  0.00000000000E+00 0.  1.
</event>
<event>
 7    1  0.6073302E-013  0.5052886E+02  0.7816164E-02  0.1300439E+00
        -11   -1    0    0    0    0  0.00000000000E+00  0.00000000000E+00  0.45593999997E+02  0.45594000000E+02  0.51100000000E-03 0.  1.
         11   -1    0    0    0    0 -0.00000000000E+00 -0.00000000000E+00 -0.45593999997E+02  0.45594000000E+02  0.51100000000E-03 0. -1.
    9900012    2    1    2    0    0 -0.39562580313E+02 -0.65816865549E+01  0.66819887884E+01  0.50528864088E+02  0.30000012883E+02 0.  0.
         12    1    1    2    0    0  0.39562580313E+02  0.65816865549E+01 -0.66819887884E+01  0.40659135912E+02  0.00000000000E+00 0. -1.
         11    1    3    3    0    0 -0.72889953367E+01 -0.10159645349E+02  0.11409383440E+01  0.12555858680E+02  0.51100000000E-03 0. -1.
        -11    1    3    3    0    0 -0.30546155884E+02  0.86145038697E+01  0.24873879647E+01  0.31834955872E+02  0.51100000000E-03 0.  1.
        -12    1    3    3    0    0 -0.17274290919E+01 -0.50365450759E+01  0.30536624797E+01  0.61380495362E+01  0.00000000000E+00 0.  1.
</event>
<event>
 7    1  0.6073302E-013  0.5052886E+02  0.7816164E-02  0.1300439E+00
        -11   -1    0    0    0    0  0.00000000000E+00  0.00000000000E+00  0.45593999997E+02  0.45594000000E+02  0.51100000000E-03 0. -1.
         11   -1    0    0    0    0 -0.00000000000E+00 -0.00000000000E+00 -0.45593999997E+02  0.45594000000E+02  0.51100000000E-03 0.  1.
    9900012    2    1    2    0    0 -0.31637495395E+02 -0.18447566090E+02 -0.17661307097E+02  0.50528861078E+02  0.30000003733E+02 0.  0.
         12    1    1    2    0    0  0.31637495395E+02  0.18447566090E+02  0.17661307097E+02  0.40659138922E+02  0.00000000000E+00 0. -1.
         11    1    3    3    0    0 -0.18072686242E+01  0.37137703498E+01  0.34343940350E+01  0.53715335557E+01  0.51100000000E-03 0. -1.
        -11    1    3    3    0    0 -0.27493247762E+02 -0.19378605241E+02 -0.23289837538E+02  0.40912413109E+02  0.51100000000E-03 0.  1.
        -12    1    3    3    0    0 -0.23369790087E+01 -0.27827311985E+01  0.21941364058E+01  0.42449144134E+01  0.00000000000E+00 0.  1.
</event>
<event>
 7    1  0.6073302E-013  0.5052886E+02  0.7816164E-02  0.1300439E+00
        -11   -1    0    0    0    0  0.00000000000E+00  0.00000000000E+00  0.45593999997E+02  0.45594000000E+02  0.51100000000E-03 0. -1.
         11   -1    0    0    0    0 -0.00000000000E+00 -0.00000000000E+00 -0.45593999997E+02  0.45594000000E+02  0.51100000000E-03 0.  1.
    9900012    2    1    2    0    0 -0.13427369673E+02  0.36378876306E+02 -0.12224930626E+02  0.50528858022E+02  0.29999994443E+02 0.  0.
         12    1    1    2    0    0  0.13427369673E+02 -0.36378876306E+02  0.12224930626E+02  0.40659141978E+02  0.00000000000E+00 0. -1.
         11    1    3    3    0    0 -0.77895980174E+01  0.19411117480E+02  0.23847601558E+01  0.21051280255E+02  0.51100000000E-03 0. -1.
        -11    1    3    3    0    0 -0.66676158432E-02  0.13832076529E+02 -0.17589576190E+02  0.22376764207E+02  0.51100000000E-03 0.  1.
        -12    1    3    3    0    0 -0.56311040395E+01  0.31356822967E+01  0.29798854083E+01  0.71008135601E+01  0.00000000000E+00 0.  1.
</event>
<event>
 7    1  0.6073302E-013  0.5052885E+02  0.7816164E-02  0.1300439E+00
        -11   -1    0    0    0    0  0.00000000000E+00  0.00000000000E+00  0.45593999997E+02  0.45594000000E+02  0.51100000000E-03 0. -1.
         11   -1    0    0    0    0 -0.00000000000E+00 -0.00000000000E+00 -0.45593999997E+02  0.45594000000E+02  0.51100000000E-03 0.  1.
    9900012    2    1    2    0    0 -0.13440924374E+02 -0.81706003434E+01 -0.37493320257E+02  0.50528853158E+02  0.29999979661E+02 0.  0.
         12    1    1    2    0    0  0.13440924374E+02  0.81706003434E+01  0.37493320257E+02  0.40659146842E+02  0.00000000000E+00 0. -1.
         11    1    3    3    0    0  0.42865598294E+01  0.55371809368E+00  0.89610682321E+00  0.44140918203E+01  0.51100000000E-03 0. -1.
        -11    1    3    3    0    0 -0.10891531141E+02 -0.82390808547E+00 -0.68568402310E+01  0.12896531834E+02  0.51100000000E-03 0.  1.
         12    1    3    3    0    0 -0.68359530624E+01 -0.79004103516E+01 -0.31532586849E+02  0.33218229504E+02  0.00000000000E+00 0. -1.
</event>
<event>
 7    1  0.6073302E-013  0.5052885E+02  0.7816164E-02  0.1300439E+00
        -11   -1    0    0    0    0  0.00000000000E+00  0.00000000000E+00  0.45593999997E+02  0.45594000000E+02  0.51100000000E-03 0. -1.
         11   -1    0    0    0    0 -0.00000000000E+00 -0.00000000000E+00 -0.45593999997E+02  0.45594000000E+02  0.51100000000E-03 0.  1.
    9900012    2    1    2    0    0 -0.10696972291E+02 -0.39124963375E+02  0.28246051442E+01  0.50528851343E+02  0.29999974141E+02 0.  0.
         12    1    1    2    0    0  0.10696972291E+02  0.39124963375E+02 -0.28246051442E+01  0.40659148657E+02  0.00000000000E+00 0. -1.
         11    1    3    3    0    0  0.12321337591E+01 -0.33506378050E+01  0.45079589899E+01  0.57503584077E+01  0.51100000000E-03 0. -1.
        -11    1    3    3    0    0 -0.12403391813E+02 -0.16108471369E+02 -0.10885205230E+02  0.23061107334E+02  0.51100000000E-03 0.  1.
        -12    1    3    3    0    0  0.47428576244E+00 -0.19665854201E+02  0.92018513842E+01  0.21717385601E+02  0.00000000000E+00 0.  1.
</event>
<event>
 7    1  0.6073302E-013  0.5052885E+02  0.7816164E-02  0.1300439E+00
        -11   -1    0    0    0    0  0.00000000000E+00  0.00000000000E+00  0.45593999997E+02  0.45594000000E+02  0.51100000000E-03 0.  1.
         11   -1    0    0    0    0 -0.00000000000E+00 -0.00000000000E+00 -0.45593999997E+02  0.45594000000E+02  0.51100000000E-03 0. -1.
    9900012    2    1    2    0    0  0.62390241479E+01 -0.22358905030E+02  0.33381438323E+02  0.50528849972E+02  0.29999969976E+02 0.  0.
         12    1    1    2    0    0 -0.62390241479E+01  0.22358905030E+02 -0.33381438323E+02  0.40659150028E+02  0.00000000000E+00 0. -1.
         11    1    3    3    0    0 -0.10085887395E+02 -0.10866526697E+02  0.22257547118E+02  0.26743315631E+02  0.51100000000E-03 0. -1.
        -11    1    3    3    0    0  0.78181875078E+01 -0.68086863055E+01  0.92530310626E+01  0.13896073158E+02  0.51100000000E-03 0.  1.
         12    1    3    3    0    0  0.85067240347E+01 -0.46836920280E+01  0.18708601426E+01  0.98894611829E+01  0.00000000000E+00 0. -1.
</event>
<event>
 7    1  0.6073302E-013  0.5052887E+02  0.7816164E-02  0.1300439E+00
        -11   -1    0    0    0    0  0.00000000000E+00  0.00000000000E+00  0.45593999997E+02  0.45594000000E+02  0.51100000000E-03 0. -1.
         11   -1    0    0    0    0 -0.00000000000E+00 -0.00000000000E+00 -0.45593999997E+02  0.45594000000E+02  0.51100000000E-03 0.  1.
    9900012    2    1    2    0    0  0.37212058853E+02  0.13475394375E+02  0.93188803861E+01  0.50528866840E+02  0.30000021248E+02 0.  0.
         12    1    1    2    0    0 -0.37212058853E+02 -0.13475394375E+02 -0.93188803861E+01  0.40659133160E+02  0.00000000000E+00 0. -1.
         11    1    3    3    0    0  0.17066250561E+02 -0.71514944640E+01  0.46636429917E+01  0.19082723796E+02  0.51100000000E-03 0. -1.
        -11    1    3    3    0    0  0.14915535704E+02  0.19544262610E+02  0.70736926640E+01  0.25582973527E+02  0.51100000000E-03 0.  1.
         12    1    3    3    0    0  0.52302725882E+01  0.10826262291E+01 -0.24184552695E+01  0.58631695174E+01  0.00000000000E+00 0. -1.
</event>
<event>
 7    1  0.6073302E-013  0.5052886E+02  0.7816164E-02  0.1300439E+00
        -11   -1    0    0    0    0  0.00000000000E+00  0.00000000000E+00  0.45593999997E+02  0.45594000000E+02  0.51100000000E-03 0. -1.
         11   -1    0    0    0    0 -0.00000000000E+00 -0.00000000000E+00 -0.45593999997E+02  0.45594000000E+02  0.51100000000E-03 0.  1.
    9900012    2    1    2    0    0 -0.25488048700E+02 -0.30979366051E+02  0.66184602169E+01  0.50528858801E+02  0.29999996810E+02 0.  0.
         12    1    1    2    0    0  0.25488048700E+02  0.30979366051E+02 -0.66184602169E+01  0.40659141199E+02  0.00000000000E+00 0. -1.
         11    1    3    3    0    0 -0.12018417650E+02 -0.96984256914E+01  0.14725400916E+02  0.21338679812E+02  0.51100000000E-03 0. -1.
        -11    1    3    3    0    0 -0.52326719776E+01 -0.18650818325E+02 -0.61624132989E+01  0.20327548257E+02  0.51100000000E-03 0.  1.
         12    1    3    3    0    0 -0.82369590726E+01 -0.26301220343E+01 -0.19445274005E+01  0.88626307319E+01  0.00000000000E+00 0. -1.
</event>
<event>
 7    1  0.6073302E-013  0.5052886E+02  0.7816164E-02  0.1300439E+00
        -11   -1    0    0    0    0  0.00000000000E+00  0.00000000000E+00  0.45593999997E+02  0.45594000000E+02  0.51100000000E-03 0. -1.
         11   -1    0    0    0    0 -0.00000000000E+00 -0.00000000000E+00 -0.45593999997E+02  0.45594000000E+02  0.51100000000E-03 0.  1.
    9900012    2    1    2    0    0 -0.35100579848E+02 -0.19275472837E+02  0.70406861727E+01  0.50528858093E+02  0.29999994661E+02 0.  0.
         12    1    1    2    0    0  0.35100579848E+02  0.19275472837E+02 -0.70406861727E+01  0.40659141907E+02  0.00000000000E+00 0. -1.
         11    1    3    3    0    0 -0.28467189018E+02 -0.18491711455E+02  0.85010638312E+01  0.34994175653E+02  0.51100000000E-03 0.  1.
        -11    1    3    3    0    0  0.24147088041E+01  0.13838063808E+01  0.39043235594E+01  0.47947347607E+01  0.51100000000E-03 0. -1.
        -12    1    3    3    0    0 -0.90480996343E+01 -0.21675677632E+01 -0.53647012178E+01  0.10739947679E+02  0.00000000000E+00 0.  1.
</event>
<event>
 7    1  0.6073302E-013  0.5052889E+02  0.7816164E-02  0.1300439E+00
        -11   -1    0    0    0    0  0.00000000000E+00  0.00000000000E+00  0.45593999997E+02  0.45594000000E+02  0.51100000000E-03 0.  1.
         11   -1    0    0    0    0 -0.00000000000E+00 -0.00000000000E+00 -0.45593999997E+02  0.45594000000E+02  0.51100000000E-03 0. -1.
    9900012    2    1    2    0    0 -0.49175380597E+01 -0.92072067633E+01  0.39296412786E+02  0.50528894073E+02  0.30000104023E+02 0.  0.
         12    1    1    2    0    0  0.49175380597E+01  0.92072067633E+01 -0.39296412786E+02  0.40659105927E+02  0.00000000000E+00 0. -1.
         11    1    3    3    0    0 -0.32486128503E+01 -0.82509639117E+00  0.18899724089E+01  0.38478910423E+01  0.51100000000E-03 0. -1.
        -11    1    3    3    0    0  0.71010666902E+01  0.46479811511E+01  0.32529718048E+01  0.90890430048E+01  0.51100000000E-03 0.  1.
        -12    1    3    3    0    0 -0.87699918995E+01 -0.13030091523E+02  0.34153468573E+02  0.37591960025E+02  0.00000000000E+00 0.  1.
</event>
<event>
 7    1  0.6073302E-013  0.5052886E+02  0.7816164E-02  0.1300439E+00
        -11   -1    0    0    0    0  0.00000000000E+00  0.00000000000E+00  0.45593999997E+02  0.45594000000E+02  0.51100000000E-03 0.  1.
         11   -1    0    0    0    0 -0.00000000000E+00 -0.00000000000E+00 -0.45593999997E+02  0.45594000000E+02  0.51100000000E-03 0. -1.
    9900012    2    1    2    0    0 -0.33398897161E+02  0.10013824824E+01  0.23166276284E+02  0.50528862585E+02  0.30000008313E+02 0.  0.
         12    1    1    2    0    0  0.33398897161E+02 -0.10013824824E+01 -0.23166276284E+02  0.40659137415E+02  0.00000000000E+00 0. -1.
         11    1    3    3    0    0 -0.46062023522E+01  0.79373732880E+01 -0.23621905001E+01  0.94762302126E+01  0.51100000000E-03 0. -1.
        -11    1    3    3    0    0 -0.17241973833E+02 -0.42768089395E+01  0.22775513968E+02  0.28884265494E+02  0.51100000000E-03 0.  1.
         12    1    3    3    0    0 -0.11550720976E+02 -0.26591818660E+01  0.27529528160E+01  0.12168366878E+02  0.00000000000E+00 0. -1.
</event>
<event>
 7    1  0.6073302E-013  0.5052885E+02  0.7816164E-02  0.1300439E+00
        -11   -1    0    0    0    0  0.00000000000E+00  0.00000000000E+00  0.45593999997E+02  0.45594000000E+02  0.51100000000E-03 0.  1.
         11   -1    0    0    0    0 -0.00000000000E+00 -0.00000000000E+00 -0.45593999997E+02  0.45594000000E+02  0.51100000000E-03 0. -1.
    9900012    2    1    2    0    0  0.22161544548E+01 -0.35030164717E+02  0.20521762505E+02  0.50528849530E+02  0.29999968630E+02 0.  0.
         12    1    1    2    0    0 -0.22161544548E+01  0.35030164717E+02 -0.20521762505E+02  0.40659150470E+02  0.00000000000E+00 0. -1.
         11    1    3    3    0    0  0.24308441000E+01 -0.23879043462E+01  0.10608844450E+02  0.11142650988E+02  0.51100000000E-03 0. -1.
        -11    1    3    3    0    0 -0.17664785300E+01 -0.16958277670E+02 -0.49176035446E+01  0.17745040231E+02  0.51100000000E-03 0.  1.
        -12    1    3    3    0    0  0.15517888848E+01 -0.15683982701E+02  0.14830521600E+02  0.21641158310E+02  0.00000000000E+00 0.  1.
</event>
<event>
 7    1  0.6073302E-013  0.5052882E+02  0.7816164E-02  0.1300439E+00
        -11   -1    0    0    0    0  0.00000000000E+00  0.00000000000E+00  0.45593999997E+02  0.45594000000E+02  0.51100000000E-03 0. -1.
         11   -1    0    0    0    0 -0.00000000000E+00 -0.00000000000E+00 -0.45593999997E+02  0.45594000000E+02  0.51100000000E-03 0.  1.
    9900012    2    1    2    0    0  0.53539561868E+01 -0.38804008994E+02 -0.10897369548E+02  0.50528823619E+02  0.29999889874E+02 0.  0.
         12    1    1    2    0    0 -0.53539561868E+01  0.38804008994E+02  0.10897369548E+02  0.40659176381E+02  0.00000000000E+00 0. -1.
         11    1    3    3    0    0 -0.60235462584E+01 -0.21565925991E+00 -0.71995066067E+01  0.93894895540E+01  0.51100000000E-03 0. -1.
        -11    1    3    3    0    0  0.12331152699E+02 -0.32955546770E+02 -0.23250039586E+01  0.35263735387E+02  0.51100000000E-03 0.  1.
         12    1    3    3    0    0 -0.95365025373E+00 -0.56328029642E+01 -0.13728589832E+01  0.58755986782E+01  0.00000000000E+00 0. -1.
</event>
<event>
 7    1  0.6073302E-013  0.5052886E+02  0.7816164E-02  0.1300439E+00
        -11   -1    0    0    0    0  0.00000000000E+00  0.00000000000E+00  0.45593999997E+02  0.45594000000E+02  0.51100000000E-03 0. -1.
         11   -1    0    0    0    0 -0.00000000000E+00 -0.00000000000E+00 -0.45593999997E+02  0.45594000000E+02  0.51100000000E-03 0.  1.
    9900012    2    1    2    0    0  0.37668773483E+02 -0.15302875633E+02 -0.22540243470E+00  0.50528864438E+02  0.30000013946E+02 0.  0.
         12    1    1    2    0    0 -0.37668773483E+02  0.15302875633E+02  0.22540243470E+00  0.40659135562E+02  0.00000000000E+00 0. -1.
         11    1    3    3    0    0  0.18200897883E+02 -0.37026521347E+00  0.76077847286E+01  0.19730386940E+02  0.51100000000E-03 0. -1.
        -11    1    3    3    0    0  0.18462179469E+02 -0.18362873432E+02 -0.57693452931E+01  0.26670818075E+02  0.51100000000E-03 0.  1.
        -12    1    3    3    0    0  0.10056961320E+01  0.34302630128E+01 -0.20638418702E+01  0.41276594230E+01  0.00000000000E+00 0.  1.
</event>
<event>
 7    1  0.6073302E-013  0.5052884E+02  0.7816164E-02  0.1300439E+00
        -11   -1    0    0    0    0  0.00000000000E+00  0.00000000000E+00  0.45593999997E+02  0.45594000000E+02  0.51100000000E-03 0.  1.
         11   -1    0    0    0    0 -0.00000000000E+00 -0.00000000000E+00 -0.45593999997E+02  0.45594000000E+02  0.51100000000E-03 0. -1.
    9900012    2    1    2    0    0  0.38592504981E+01  0.94326830054E+01  0.39361119852E+02  0.50528842617E+02  0.29999947620E+02 0.  0.
         12    1    1    2    0    0 -0.38592504981E+01 -0.94326830054E+01 -0.39361119852E+02  0.40659157383E+02  0.00000000000E+00 0. -1.
         11    1    3    3    0    0 -0.29010467141E+01  0.60573746566E+01 -0.18308963171E+00  0.67187336487E+01  0.51100000000E-03 0. -1.
        -11    1    3    3    0    0  0.12580311137E+02  0.12883685914E+01  0.25420463900E+02  0.28392324792E+02  0.51100000000E-03 0.  1.
        -12    1    3    3    0    0 -0.58200139243E+01  0.20869397574E+01  0.14123745583E+02  0.15417784177E+02  0.00000000000E+00 0.  1.
</event>
<event>
 7    1  0.6073302E-013  0.5052888E+02  0.7816164E-02  0.1300439E+00
        -11   -1    0    0    0    0  0.00000000000E+00  0.00000000000E+00  0.45593999997E+02  0.45594000000E+02  0.51100000000E-03 0.  1.
         11   -1    0    0    0    0 -0.00000000000E+00 -0.00000000000E+00 -0.45593999997E+02  0.45594000000E+02  0.51100000000E-03 0. -1.
    9900012    2    1    2    0    0 -0.58849202751E+01  0.19270413026E+02  0.35315480112E+02  0.50528877525E+02  0.30000053725E+02 0.  0.
         12    1    1    2    0    0  0.58849202751E+01 -0.19270413026E+02 -0.35315480112E+02  0.40659122475E+02  0.00000000000E+00 0. -1.
         11    1    3    3    0    0 -0.15525174522E+02  0.78903393012E+01  0.16352608364E+02  0.23889250696E+02  0.51100000000E-03 0. -1.
        -11    1    3    3    0    0  0.16889993826E+01  0.10574075144E+02  0.10420161523E+02  0.14941336971E+02  0.51100000000E-03 0.  1.
         12    1    3    3    0    0  0.79512548639E+01  0.80599858170E+00  0.85427102255E+01  0.11698289859E+02  0.00000000000E+00 0. -1.
</event>
<event>
 7    1  0.6073302E-013  0.5052886E+02  0.7816164E-02  0.1300439E+00
        -11   -1    0    0    0    0  0.00000000000E+00  0.00000000000E+00  0.45593999997E+02  0.45594000000E+02  0.51100000000E-03 0.  1.
         11   -1    0    0    0    0 -0.00000000000E+00 -0.00000000000E+00 -0.45593999997E+02  0.45594000000E+02  0.51100000000E-03 0. -1.
    9900012    2    1    2    0    0  0.25650825063E+02 -0.29884506509E+02  0.10105294493E+02  0.50528861636E+02  0.30000005428E+02 0.  0.
         12    1    1    2    0    0 -0.25650825063E+02  0.29884506509E+02 -0.10105294493E+02  0.40659138364E+02  0.00000000000E+00 0. -1.
         11    1    3    3    0    0  0.16321963166E+02 -0.16280124968E+01 -0.39722226623E+01  0.16877069041E+02  0.51100000000E-03 0. -1.
        -11    1    3    3    0    0  0.59660649775E+01 -0.17917170684E+02  0.12545953705E+02  0.22672006776E+02  0.51100000000E-03 0.  1.
         12    1    3    3    0    0  0.33627969196E+01 -0.10339323329E+02  0.15315634507E+01  0.10979785818E+02  0.00000000000E+00 0. -1.
</event>
<event>
 7    1  0.6073302E-013  0.5052884E+02  0.7816164E-02  0.1300439E+00
        -11   -1    0    0    0    0  0.00000000000E+00  0.00000000000E+00  0.45593999997E+02  0.45594000000E+02  0.51100000000E-03 0.  1.
         11   -1    0    0    0    0 -0.00000000000E+00 -0.00000000000E+00 -0.45593999997E+02  0.45594000000E+02  0.51100000000E-03 0. -1.
    9900012    2    1    2    0    0 -0.13678603108E+02  0.17828166440E+02  0.33885388305E+02  0.50528840612E+02  0.29999941523E+02 0.  0.
         12    1    1    2    0    0  0.13678603108E+02 -0.17828166440E+02 -0.33885388305E+02  0.40659159388E+02  0.00000000000E+00 0. -1.
         11    1    3    3    0    0 -0.16459829699E+02  0.17405163539E+02  0.30887086726E+02  0.39088077955E+02  0.51100000000E-03 0. -1.
        -11    1    3    3    0    0 -0.15808596744E+01 -0.42674712218E+01  0.19463594164E+01  0.49496205085E+01  0.51100000000E-03 0.  1.
         12    1    3    3    0    0  0.43620862646E+01  0.46904741226E+01  0.10519421619E+01  0.64911421481E+01  0.00000000000E+00 0. -1.
</event>
<event>
 7    1  0.6073302E-013  0.5052886E+02  0.7816164E-02  0.1300439E+00
        -11   -1    0    0    0    0  0.00000000000E+00  0.00000000000E+00  0.45593999997E+02  0.45594000000E+02  0.51100000000E-03 0.  1.
         11   -1    0    0    0    0 -0.00000000000E+00 -0.00000000000E+00 -0.45593999997E+02  0.45594000000E+02  0.51100000000E-03 0. -1.
    9900012    2    1    2    0    0 -0.33103333229E+02  0.15183486516E+02  0.18077511002E+02  0.50528864032E+02  0.30000012711E+02 0.  0.
         12    1    1    2    0    0  0.33103333229E+02 -0.15183486516E+02 -0.18077511002E+02  0.40659135968E+02  0.00000000000E+00 0. -1.
         11    1    3    3    0    0 -0.89920618286E+01 -0.38003761566E+01  0.11345060364E+02  0.14966977978E+02  0.51100000000E-03 0. -1.
        -11    1    3    3    0    0 -0.24300950157E+02  0.21356756814E+02  0.52986491801E+01  0.32782966973E+02  0.51100000000E-03 0.  1.
        -12    1    3    3    0    0  0.18967875706E+00 -0.23728941415E+01  0.14338014576E+01  0.27789190807E+01  0.00000000000E+00 0.  1.
</event>
<event>
 7    1  0.6073302E-013  0.5052885E+02  0.7816164E-02  0.1300439E+00
        -11   -1    0    0    0    0  0.00000000000E+00  0.00000000000E+00  0.45593999997E+02  0.45594000000E+02  0.51100000000E-03 0.  1.
         11   -1    0    0    0    0 -0.00000000000E+00 -0.00000000000E+00 -0.45593999997E+02  0.45594000000E+02  0.51100000000E-03 0. -1.
    9900012    2    1    2    0    0  0.14887925971E+02 -0.54630606208E+01  0.37438899679E+02  0.50528848752E+02  0.29999966266E+02 0.  0.
         12    1    1    2    0    0 -0.14887925971E+02  0.54630606208E+01 -0.37438899679E+02  0.40659151248E+02  0.00000000000E+00 0. -1.
         11    1    3    3    0    0 -0.47945335061E+01 -0.15329482058E+01  0.23506284883E+02  0.24039195307E+02  0.51100000000E-03 0. -1.
        -11    1    3    3    0    0  0.13868086994E+02  0.10151162380E+01  0.12552646237E+02  0.18732944927E+02  0.51100000000E-03 0.  1.
         12    1    3    3    0    0  0.58143724835E+01 -0.49452286529E+01  0.13799685591E+01  0.77567085179E+01  0.00000000000E+00 0. -1.
</event>
<event>
 7    1  0.6073302E-013  0.5052886E+02  0.7816164E-02  0.1300439E+00
        -11   -1    0    0    0    0  0.00000000000E+00  0.00000000000E+00  0.45593999997E+02  0.45594000000E+02  0.51100000000E-03 0. -1.
         11   -1    0    0    0    0 -0.00000000000E+00 -0.00000000000E+00 -0.45593999997E+02  0.45594000000E+02  0.51100000000E-03 0.  1.
    9900012    2    1    2    0    0  0.33027821544E+02 -0.20738114285E+02 -0.11500418424E+02  0.50528855839E+02  0.29999987807E+02 0.  0.
         12    1    1    2    0    0 -0.33027821544E+02  0.20738114285E+02  0.11500418424E+02  0.40659144161E+02  0.00000000000E+00 0. -1.
         11    1    3    3    0    0  0.46329950793E+01  0.31642851897E+00  0.63542214282E+01  0.78702541656E+01  0.51100000000E-03 0. -1.
        -11    1    3    3    0    0  0.11134287957E+02 -0.80086251344E+01 -0.15804003630E+02  0.20925510169E+02  0.51100000000E-03 0.  1.
         12    1    3    3    0    0  0.17260538508E+02 -0.13045917669E+02 -0.20506362222E+01  0.21733091504E+02  0.00000000000E+00 0. -1.
</event>
<event>
 7    1  0.6073302E-013  0.5052886E+02  0.7816164E-02  0.1300439E+00
        -11   -1    0    0    0    0  0.00000000000E+00  0.00000000000E+00  0.45593999997E+02  0.45594000000E+02  0.51100000000E-03 0.  1.
         11   -1    0    0    0    0 -0.00000000000E+00 -0.00000000000E+00 -0.45593999997E+02  0.45594000000E+02  0.51100000000E-03 0. -1.
    9900012    2    1    2    0    0 -0.11432065527E+02 -0.32568245175E+02  0.21489131901E+02  0.50528861964E+02  0.30000006424E+02 0.  0.
         12    1    1    2    0    0  0.11432065527E+02  0.32568245175E+02 -0.21489131901E+02  0.40659138036E+02  0.00000000000E+00 0. -1.
         11    1    3    3    0    0  0.44158390254E+01 -0.10474801054E+02 -0.29923803065E+01  0.11754804617E+02  0.51100000000E-03 0. -1.
        -11    1    3    3    0    0 -0.13091869846E+02 -0.14280576302E+02  0.23461879409E+02  0.30426825356E+02  0.51100000000E-03 0.  1.
         12    1    3    3    0    0 -0.27560347069E+01 -0.78128678191E+01  0.10196327989E+01  0.83472319909E+01  0.00000000000E+00 0. -1.
</event>
<event>
 7    1  0.6073302E-013  0.5052885E+02  0.7816164E-02  0.1300439E+00
        -11   -1    0    0    0    0  0.00000000000E+00  0.00000000000E+00  0.45593999997E+02  0.45594000000E+02  0.51100000000E-03 0. -1.
         11   -1    0    0    0    0 -0.00000000000E+00 -0.00000000000E+00 -0.45593999997E+02  0.45594000000E+02  0.51100000000E-03 0.  1.
    9900012    2    1    2    0    0 -0.30414182115E+02 -0.32246470774E+01  0.26790770405E+02  0.50528853410E+02  0.29999980425E+02 0.  0.
         12    1    1    2    0    0  0.30414182115E+02  0.32246470774E+01 -0.26790770405E+02  0.40659146590E+02  0.00000000000E+00 0. -1.
         11    1    3    3    0    0 -0.17158764467E+02 -0.41873598586E+01  0.23167950686E+02  0.29132646977E+02  0.51100000000E-03 0. -1.
        -11    1    3    3    0    0 -0.13875236487E+02  0.29904892226E+01 -0.29436528669E+01  0.14495872027E+02  0.51100000000E-03 0.  1.
         12    1    3    3    0    0  0.61981883902E+00 -0.20277764414E+01  0.65664725858E+01  0.69003344057E+01  0.00000000000E+00 0. -1.
</event>
<event>
 7    1  0.6073302E-013  0.5052886E+02  0.7816164E-02  0.1300439E+00
        -11   -1    0    0    0    0  0.00000000000E+00  0.00000000000E+00  0.45593999997E+02  0.45594000000E+02  0.51100000000E-03 0.  1.
         11   -1    0    0    0    0 -0.00000000000E+00 -0.00000000000E+00 -0.45593999997E+02  0.45594000000E+02  0.51100000000E-03 0. -1.
    9900012    2    1    2    0    0  0.36965555278E+02 -0.16494837775E+02  0.38254425424E+01  0.50528856368E+02  0.29999989417E+02 0.  0.
         12    1    1    2    0    0 -0.36965555278E+02  0.16494837775E+02 -0.38254425424E+01  0.40659143632E+02  0.00000000000E+00 0. -1.
         11    1    3    3    0    0  0.27671631070E+01 -0.85650308284E+01 -0.66222583859E+01  0.11174580580E+02  0.51100000000E-03 0. -1.
        -11    1    3    3    0    0  0.28458551149E+02 -0.37489085527E+01  0.13382357393E+02  0.31670663688E+02  0.51100000000E-03 0.  1.
         12    1    3    3    0    0  0.57398410220E+01 -0.41808983942E+01 -0.29346564643E+01  0.76836121000E+01  0.00000000000E+00 0. -1.
</event>
<event>
 7    1  0.6073302E-013  0.5052886E+02  0.7816164E-02  0.1300439E+00
        -11   -1    0    0    0    0  0.00000000000E+00  0.00000000000E+00  0.45593999997E+02  0.45594000000E+02  0.51100000000E-03 0.  1.
         11   -1    0    0    0    0 -0.00000000000E+00 -0.00000000000E+00 -0.45593999997E+02  0.45594000000E+02  0.51100000000E-03 0. -1.
    9900012    2    1    2    0    0 -0.29865529722E+02  0.48273727718E+01  0.27164540798E+02  0.50528859943E+02  0.30000000282E+02 0.  0.
         12    1    1    2    0    0  0.29865529722E+02 -0.48273727718E+01 -0.27164540798E+02  0.40659140057E+02  0.00000000000E+00 0. -1.
         11    1    3    3    0    0 -0.12186847303E+02 -0.97551880518E+00  0.82806207717E+00  0.12253839038E+02  0.51100000000E-03 0. -1.
        -11    1    3    3    0    0 -0.21805066375E+02  0.60632065085E+01  0.25429040131E+02  0.34042025132E+02  0.51100000000E-03 0.  1.
        -12    1    3    3    0    0  0.41263839563E+01 -0.26031493159E+00  0.90743858939E+00  0.42329957727E+01  0.00000000000E+00 0.  1.
</event>
<event>
 7    1  0.6073302E-013  0.5052886E+02  0.7816164E-02  0.1300439E+00
        -11   -1    0    0    0    0  0.00000000000E+00  0.00000000000E+00  0.45593999997E+02  0.45594000000E+02  0.51100000000E-03 0.  1.
         11   -1    0    0    0    0 -0.00000000000E+00 -0.00000000000E+00 -0.45593999997E+02  0.45594000000E+02  0.51100000000E-03 0. -1.
    9900012    2    1    2    0    0  0.24952963511E+02  0.13343290239E+02  0.29197122658E+02  0.50528858914E+02  0.29999997154E+02 0.  0.
         12    1    1    2    0    0 -0.24952963511E+02 -0.13343290239E+02 -0.29197122658E+02  0.40659141086E+02  0.00000000000E+00 0. -1.
         11    1    3    3    0    0 -0.33693705980E+01 -0.27864724931E+01  0.29489744157E+01  0.52738541454E+01  0.51100000000E-03 0. -1.
        -11    1    3    3    0    0  0.26893808323E+02  0.18537036611E+02  0.19726528723E+02  0.38158021282E+02  0.51100000000E-03 0.  1.
        -12    1    3    3    0    0  0.14285257862E+01 -0.24072738796E+01  0.65216195188E+01  0.70969834860E+01  0.00000000000E+00 0.  1.
</event>
<event>
 7    1  0.6073302E-013  0.5052884E+02  0.7816164E-02  0.1300439E+00
        -11   -1    0    0    0    0  0.00000000000E+00  0.00000000000E+00  0.45593999997E+02  0.45594000000E+02  0.51100000000E-03 0. -1.
         11   -1    0    0    0    0 -0.00000000000E+00 -0.00000000000E+00 -0.45593999997E+02  0.45594000000E+02  0.51100000000E-03 0.  1.
    9900012    2    1    2    0    0  0.36571159693E+02 -0.17759495710E+02 -0.56363967218E+00  0.50528842374E+02  0.29999946880E+02 0.  0.
         12    1    1    2    0    0 -0.36571159693E+02  0.17759495710E+02  0.56363967218E+00  0.40659157626E+02  0.00000000000E+00 0. -1.
         11    1    3    3    0    0  0.27003539773E+02 -0.12027493993E+01  0.92573855236E+01  0.28571610969E+02  0.51100000000E-03 0. -1.
        -11    1    3    3    0    0  0.77816818834E+01 -0.12949701076E+02 -0.96536002309E+01  0.17928784916E+02  0.51100000000E-03 0.  1.
         12    1    3    3    0    0  0.17859380370E+01 -0.36070452344E+01 -0.16742496491E+00  0.40284464889E+01  0.00000000000E+00 0. -1.
</event>
<event>
 7    1  0.6073302E-013  0.5052884E+02  0.7816164E-02  0.1300439E+00
        -11   -1    0    0    0    0  0.00000000000E+00  0.00000000000E+00  0.45593999997E+02  0.45594000000E+02  0.51100000000E-03 0.  1.
         11   -1    0    0    0    0 -0.00000000000E+00 -0.00000000000E+00 -0.45593999997E+02  0.45594000000E+02  0.51100000000E-03 0. -1.
    9900012    2    1    2    0    0  0.38935834639E+02 -0.59367480466E+01  0.10095697305E+02  0.50528839894E+02  0.29999939343E+02 0.  0.
         12    1    1    2    0    0 -0.38935834639E+02  0.59367480466E+01 -0.10095697305E+02  0.40659160106E+02  0.00000000000E+00 0. -1.
         11    1    3    3    0    0  0.10036622332E+02  0.16646765021E+01  0.46128650269E+01  0.11170651714E+02  0.51100000000E-03 0. -1.
        -11    1    3    3    0    0  0.11142052065E+02 -0.42841504577E+01 -0.99955313761E+01  0.15569518847E+02  0.51100000000E-03 0.  1.
        -12    1    3    3    0    0  0.17757160242E+02 -0.33172740909E+01  0.15478363654E+02  0.23788669334E+02  0.00000000000E+00 0.  1.
</event>
<event>
 7    1  0.6073302E-013  0.5052887E+02  0.7816164E-02  0.1300439E+00
        -11   -1    0    0    0    0  0.00000000000E+00  0.00000000000E+00  0.45593999997E+02  0.45594000000E+02  0.51100000000E-03 0. -1.
         11   -1    0    0    0    0 -0.00000000000E+00 -0.00000000000E+00 -0.45593999997E+02  0.45594000000E+02  0.51100000000E-03 0.  1.
    9900012    2    1    2    0    0  0.32782055327E+02  0.23206324813E+02  0.63220582706E+01  0.50528867156E+02  0.30000022208E+02 0.  0.
         12    1    1    2    0    0 -0.32782055327E+02 -0.23206324813E+02 -0.63220582706E+01  0.40659132844E+02  0.00000000000E+00 0. -1.
         11    1    3    3    0    0  0.23341238067E+02  0.48853914729E+01  0.11333483932E+02  0.26403187358E+02  0.51100000000E-03 0. -1.
        -11    1    3    3    0    0  0.13114687259E+01  0.96379582039E+01  0.25191291234E+01  0.10047696271E+02  0.51100000000E-03 0.  1.
         12    1    3    3    0    0  0.81293485344E+01  0.86829751367E+01 -0.75305547851E+01  0.14077983527E+02  0.00000000000E+00 0. -1.
</event>
<event>
 7    1  0.6073302E-013  0.5052883E+02  0.7816164E-02  0.1300439E+00
        -11   -1    0    0    0    0  0.00000000000E+00  0.00000000000E+00  0.45593999997E+02  0.45594000000E+02  0.51100000000E-03 0.  1.
         11   -1    0    0    0    0 -0.00000000000E+00 -0.00000000000E+00 -0.45593999997E+02  0.45594000000E+02  0.51100000000E-03 0. -1.
    9900012    2    1    2    0    0  0.21769922699E+01  0.34772536365E+01  0.40451669478E+02  0.50528829426E+02  0.29999907524E+02 0.  0.
         12    1    1    2    0    0 -0.21769922699E+01 -0.34772536365E+01 -0.40451669478E+02  0.40659170574E+02  0.00000000000E+00 0. -1.
         11    1    3    3    0    0 -0.11492748866E+02  0.20803125378E+01  0.16723525617E+02  0.20398217718E+02  0.51100000000E-03 0. -1.
        -11    1    3    3    0    0  0.11416409289E+02  0.75790874950E+00  0.24979456521E+02  0.27475117380E+02  0.51100000000E-03 0.  1.
         12    1    3    3    0    0  0.22533318471E+01  0.63903234922E+00 -0.12513126596E+01  0.26554943284E+01  0.00000000000E+00 0. -1.
</event>
<event>
 7    1  0.6073302E-013  0.5052886E+02  0.7816164E-02  0.1300439E+00
        -11   -1    0    0    0    0  0.00000000000E+00  0.00000000000E+00  0.45593999997E+02  0.45594000000E+02  0.51100000000E-03 0.  1.
         11   -1    0    0    0    0 -0.00000000000E+00 -0.00000000000E+00 -0.45593999997E+02  0.45594000000E+02  0.51100000000E-03 0. -1.
    9900012    2    1    2    0    0  0.29772815760E+02 -0.27284490396E+02 -0.47224844304E+01  0.50528857933E+02  0.29999994172E+02 0.  0.
         12    1    1    2    0    0 -0.29772815760E+02  0.27284490396E+02  0.47224844304E+01  0.40659142067E+02  0.00000000000E+00 0. -1.
         11    1    3    3    0    0  0.26604792768E+00  0.46494411439E+00 -0.37050451141E+00  0.65132816876E+00  0.51100000000E-03 0. -1.
        -11    1    3    3    0    0 -0.31829776519E+01  0.28828864461E+01  0.18030038939E+01  0.46575964076E+01  0.51100000000E-03 0.  1.
        -12    1    3    3    0    0  0.32689745485E+02 -0.30632320956E+02 -0.61549838128E+01  0.45219933356E+02  0.00000000000E+00 0.  1.
</event>
<event>
 7    1  0.6073302E-013  0.5052883E+02  0.7816164E-02  0.1300439E+00
        -11   -1    0    0    0    0  0.00000000000E+00  0.00000000000E+00  0.45593999997E+02  0.45594000000E+02  0.51100000000E-03 0. -1.
         11   -1    0    0    0    0 -0.00000000000E+00 -0.00000000000E+00 -0.45593999997E+02  0.45594000000E+02  0.51100000000E-03 0.  1.
    9900012    2    1    2    0    0 -0.26869416782E+02 -0.24219144705E+02 -0.18564365992E+02  0.50528828671E+02  0.29999905229E+02 0.  0.
         12    1    1    2    0    0  0.26869416782E+02  0.24219144705E+02  0.18564365992E+02  0.40659171329E+02  0.00000000000E+00 0. -1.
         11    1    3    3    0    0 -0.10394614119E+01 -0.13978389260E+02 -0.91319529067E+01  0.16729268079E+02  0.51100000000E-03 0. -1.
        -11    1    3    3    0    0 -0.14164014912E+02  0.26056386675E+01 -0.81498924581E+00  0.14424731506E+02  0.51100000000E-03 0.  1.
        -12    1    3    3    0    0 -0.11665940458E+02 -0.12846394113E+02 -0.86174238396E+01  0.19374829086E+02  0.00000000000E+00 0.  1.
</event>
<event>
 7    1  0.6073302E-013  0.5052884E+02  0.7816164E-02  0.1300439E+00
        -11   -1    0    0    0    0  0.00000000000E+00  0.00000000000E+00  0.45593999997E+02  0.45594000000E+02  0.51100000000E-03 0.  1.
         11   -1    0    0    0    0 -0.00000000000E+00 -0.00000000000E+00 -0.45593999997E+02  0.45594000000E+02  0.51100000000E-03 0. -1.
    9900012    2    1    2    0    0  0.33507592665E+02 -0.22860051816E+02 -0.27975587607E+01  0.50528842726E+02  0.29999947951E+02 0.  0.
         12    1    1    2    0    0 -0.33507592665E+02  0.22860051816E+02  0.27975587607E+01  0.40659157274E+02  0.00000000000E+00 0. -1.
         11    1    3    3    0    0 -0.10803683844E+01  0.46656117548E+01 -0.88818882392E+00  0.48707297749E+01  0.51100000000E-03 0. -1.
        -11    1    3    3    0    0  0.23746059828E+02 -0.24458819069E+02 -0.35415555745E+01  0.34273193661E+02  0.51100000000E-03 0.  1.
        -12    1    3    3    0    0  0.10841901221E+02 -0.30668445019E+01  0.16321856377E+01  0.11384919290E+02  0.00000000000E+00 0.  1.
</event>
<event>
 7    1  0.6073302E-013  0.5052885E+02  0.7816164E-02  0.1300439E+00
        -11   -1    0    0    0    0  0.00000000000E+00  0.00000000000E+00  0.45593999997E+02  0.45594000000E+02  0.51100000000E-03 0.  1.
         11   -1    0    0    0    0 -0.00000000000E+00 -0.00000000000E+00 -0.45593999997E+02  0.45594000000E+02  0.51100000000E-03 0. -1.
    9900012    2    1    2    0    0  0.53686829461E+01 -0.59078056638E+01  0.39867797197E+02  0.50528853702E+02  0.29999981312E+02 0.  0.
         12    1    1    2    0    0 -0.53686829461E+01  0.59078056638E+01 -0.39867797197E+02  0.40659146298E+02  0.00000000000E+00 0. -1.
         11    1    3    3    0    0 -0.51883311594E+01  0.61196900899E+01  0.32987620354E+01  0.86747460046E+01  0.51100000000E-03 0. -1.
        -11    1    3    3    0    0  0.97238312442E+01 -0.35440623861E+01  0.27618091974E+02  0.29493597217E+02  0.51100000000E-03 0.  1.
        -12    1    3    3    0    0  0.83318286133E+00 -0.84834333676E+01  0.89509431876E+01  0.12360510480E+02  0.00000000000E+00 0.  1.
</event>
<event>
 7    1  0.6073302E-013  0.5052885E+02  0.7816164E-02  0.1300439E+00
        -11   -1    0    0    0    0  0.00000000000E+00  0.00000000000E+00  0.45593999997E+02  0.45594000000E+02  0.51100000000E-03 0. -1.
         11   -1    0    0    0    0 -0.00000000000E+00 -0.00000000000E+00 -0.45593999997E+02  0.45594000000E+02  0.51100000000E-03 0.  1.
    9900012    2    1    2    0    0  0.79186935516E+01 -0.34354657897E+02 -0.20253837439E+02  0.50528853947E+02  0.29999982058E+02 0.  0.
         12    1    1    2    0    0 -0.79186935516E+01  0.34354657897E+02  0.20253837439E+02  0.40659146053E+02  0.00000000000E+00 0. -1.
         11    1    3    3    0    0  0.10310050811E+02 -0.26379455016E+02 -0.33526837354E+01  0.28520401175E+02  0.51100000000E-03 0. -1.
        -11    1    3    3    0    0  0.40783914612E+01 -0.20072055607E+01 -0.94095255649E+01  0.10449943669E+02  0.51100000000E-03 0.  1.
         12    1    3    3    0    0 -0.64697487210E+01 -0.59679973200E+01 -0.74916281384E+01  0.11558509103E+02  0.00000000000E+00 0. -1.
</event>
<event>
 7    1  0.6073302E-013  0.5052886E+02  0.7816164E-02  0.1300439E+00
        -11   -1    0    0    0    0  0.00000000000E+00  0.00000000000E+00  0.45593999997E+02  0.45594000000E+02  0.51100000000E-03 0. -1.
         11   -1    0    0    0    0 -0.00000000000E+00 -0.00000000000E+00 -0.45593999997E+02  0.45594000000E+02  0.51100000000E-03 0.  1.
    9900012    2    1    2    0    0 -0.65684509659E+01  0.28777497464E+02 -0.27962060389E+02  0.50528859213E+02  0.29999998064E+02 0.  0.
         12    1    1    2    0    0  0.65684509659E+01 -0.28777497464E+02  0.27962060389E+02  0.40659140787E+02  0.00000000000E+00 0. -1.
         11    1    3    3    0    0 -0.83578564852E+01  0.73543443491E+01 -0.78670557391E+01  0.13631973888E+02  0.51100000000E-03 0. -1.
        -11    1    3    3    0    0  0.30663765968E+01  0.17815524345E+02 -0.24889887034E+02  0.30762022852E+02  0.51100000000E-03 0.  1.
        -12    1    3    3    0    0 -0.12769710775E+01  0.36076287695E+01  0.47948823848E+01  0.61348624724E+01  0.00000000000E+00 0.  1.
</event>
<event>
 7    1  0.6073302E-013  0.5052885E+02  0.7816164E-02  0.1300439E+00
        -11   -1    0    0    0    0  0.00000000000E+00  0.00000000000E+00  0.45593999997E+02  0.45594000000E+02  0.51100000000E-03 0. -1.
         11   -1    0    0    0    0 -0.00000000000E+00 -0.00000000000E+00 -0.45593999997E+02  0.45594000000E+02  0.51100000000E-03 0.  1.
    9900012    2    1    2    0    0 -0.26661515655E+02 -0.27331505593E+02 -0.13975655775E+02  0.50528848886E+02  0.29999966672E+02 0.  0.
         12    1    1    2    0    0  0.26661515655E+02  0.27331505593E+02  0.13975655775E+02  0.40659151114E+02  0.00000000000E+00 0. -1.
         11    1    3    3    0    0  0.30824924894E+00  0.11991670374E+01 -0.15661473760E+01  0.19964561221E+01  0.51100000000E-03 0. -1.
        -11    1    3    3    0    0 -0.18732411684E+02 -0.29690400860E+02 -0.17028066702E+02  0.39017665315E+02  0.51100000000E-03 0.  1.
        -12    1    3    3    0    0 -0.82373532197E+01  0.11597282297E+01  0.46185583024E+01  0.95147274488E+01  0.00000000000E+00 0.  1.
</event>
<event>
 7    1  0.6073302E-013  0.5052887E+02  0.7816164E-02  0.1300439E+00
        -11   -1    0    0    0    0  0.00000000000E+00  0.00000000000E+00  0.45593999997E+02  0.45594000000E+02  0.51100000000E-03 0.  1.
         11   -1    0    0    0    0 -0.00000000000E+00 -0.00000000000E+00 -0.45593999997E+02  0.45594000000E+02  0.51100000000E-03 0. -1.
    9900012    2    1    2    0    0 -0.21536893233E+02  0.70528301688E+01  0.33757740293E+02  0.50528865562E+02  0.30000017363E+02 0.  0.
         12    1    1    2    0    0  0.21536893233E+02 -0.70528301688E+01 -0.33757740293E+02  0.40659134438E+02  0.00000000000E+00 0. -1.
         11    1    3    3    0    0 -0.17394822160E+02  0.97009393721E+01  0.12274715820E+02  0.23395655823E+02  0.51100000000E-03 0. -1.
        -11    1    3    3    0    0 -0.62710294875E+01 -0.41989781797E+01  0.22921560385E+02  0.24132035955E+02  0.51100000000E-03 0.  1.
         12    1    3    3    0    0  0.21289584149E+01  0.15508689764E+01 -0.14385359113E+01  0.30011737841E+01  0.00000000000E+00 0. -1.
</event>
<event>
 7    1  0.6073302E-013  0.5052885E+02  0.7816164E-02  0.1300439E+00
        -11   -1    0    0    0    0  0.00000000000E+00  0.00000000000E+00  0.45593999997E+02  0.45594000000E+02  0.51100000000E-03 0.  1.
         11   -1    0    0    0    0 -0.00000000000E+00 -0.00000000000E+00 -0.45593999997E+02  0.45594000000E+02  0.51100000000E-03 0. -1.
    9900012    2    1    2    0    0 -0.38015596425E+02  0.12618869234E+02  0.69817546029E+01  0.50528851833E+02  0.29999975632E+02 0.  0.
         12    1    1    2    0    0  0.38015596425E+02 -0.12618869234E+02 -0.69817546029E+01  0.40659148167E+02  0.00000000000E+00 0. -1.
         11    1    3    3    0    0 -0.15087120833E+02  0.18426428814E+02  0.32656291175E+01  0.24037862377E+02  0.51100000000E-03 0. -1.
        -11    1    3    3    0    0 -0.23141156756E+02 -0.43250102868E+01  0.54858354709E+01  0.24172572082E+02  0.51100000000E-03 0.  1.
         12    1    3    3    0    0  0.21268116365E+00 -0.14825492937E+01 -0.17697099855E+01  0.23184173737E+01  0.00000000000E+00 0. -1.
</event>
<event>
 7    1  0.6073302E-013  0.5052884E+02  0.7816164E-02  0.1300439E+00
        -11   -1    0    0    0    0  0.00000000000E+00  0.00000000000E+00  0.45593999997E+02  0.45594000000E+02  0.51100000000E-03 0.  1.
         11   -1    0    0    0    0 -0.00000000000E+00 -0.00000000000E+00 -0.45593999997E+02  0.45594000000E+02  0.51100000000E-03 0. -1.
    9900012    2    1    2    0    0  0.37990422290E+01  0.14365845318E+02  0.37846491875E+02  0.50528841366E+02  0.29999943817E+02 0.  0.
         12    1    1    2    0    0 -0.37990422290E+01 -0.14365845318E+02 -0.37846491875E+02  0.40659158634E+02  0.00000000000E+00 0. -1.
         11    1    3    3    0    0  0.79626172867E+01  0.14057889405E+02  0.16234707306E+02  0.22904000745E+02  0.51100000000E-03 0. -1.
        -11    1    3    3    0    0 -0.79012597986E+01  0.51493955727E+00  0.22435618288E+02  0.23791848128E+02  0.51100000000E-03 0.  1.
        -12    1    3    3    0    0  0.37376847409E+01 -0.20698364414E+00 -0.82383371878E+00  0.38329924925E+01  0.00000000000E+00 0.  1.
</event>
<event>
 7    1  0.6073302E-013  0.5052885E+02  0.7816164E-02  0.1300439E+00
        -11   -1    0    0    0    0  0.00000000000E+00  0.00000000000E+00  0.45593999997E+02  0.45594000000E+02  0.51100000000E-03 0.  1.
         11   -1    0    0    0    0 -0.00000000000E+00 -0.00000000000E+00 -0.45593999997E+02  0.45594000000E+02  0.51100000000E-03 0. -1.
    9900012    2    1    2    0    0 -0.16791231949E+02 -0.34263602014E+02  0.14043744278E+02  0.50528847934E+02  0.29999963782E+02 0.  0.
         12    1    1    2    0    0  0.16791231949E+02  0.34263602014E+02 -0.14043744278E+02  0.40659152066E+02  0.00000000000E+00 0. -1.
         11    1    3    3    0    0  0.13252961194E+01 -0.15055906856E+02  0.17080242881E+02  0.22807267224E+02  0.51100000000E-03 0. -1.
        -11    1    3    3    0    0  0.55891954506E+00 -0.21714584986E+01  0.12704869856E+00  0.22458327413E+01  0.51100000000E-03 0.  1.
         12    1    3    3    0    0 -0.18675447614E+02 -0.17036236659E+02 -0.31635473016E+01  0.25475747970E+02  0.00000000000E+00 0. -1.
</event>
<event>
 7    1  0.6073302E-013  0.5052886E+02  0.7816164E-02  0.1300439E+00
        -11   -1    0    0    0    0  0.00000000000E+00  0.00000000000E+00  0.45593999997E+02  0.45594000000E+02  0.51100000000E-03 0.  1.
         11   -1    0    0    0    0 -0.00000000000E+00 -0.00000000000E+00 -0.45593999997E+02  0.45594000000E+02  0.51100000000E-03 0. -1.
    9900012    2    1    2    0    0  0.29146404385E+02  0.26832930506E+02 -0.91458483482E+01  0.50528860927E+02  0.30000003275E+02 0.  0.
         12    1    1    2    0    0 -0.29146404385E+02 -0.26832930506E+02  0.91458483482E+01  0.40659139073E+02  0.00000000000E+00 0. -1.
         11    1    3    3    0    0  0.79095854496E+00 -0.31522052887E+01 -0.21005341024E+01  0.38696585610E+01  0.51100000000E-03 0. -1.
        -11    1    3    3    0    0  0.17729317849E+02  0.21302681190E+02  0.52807787045E+01  0.28213818623E+02  0.51100000000E-03 0.  1.
        -12    1    3    3    0    0  0.10626127991E+02  0.86824546043E+01 -0.12326092950E+02  0.18445383744E+02  0.00000000000E+00 0.  1.
</event>
<event>
 7    1  0.6073302E-013  0.5052887E+02  0.7816164E-02  0.1300439E+00
        -11   -1    0    0    0    0  0.00000000000E+00  0.00000000000E+00  0.45593999997E+02  0.45594000000E+02  0.51100000000E-03 0.  1.
         11   -1    0    0    0    0 -0.00000000000E+00 -0.00000000000E+00 -0.45593999997E+02  0.45594000000E+02  0.51100000000E-03 0. -1.
    9900012    2    1    2    0    0  0.21142362820E+02  0.19634122493E+02  0.28647280308E+02  0.50528868914E+02  0.30000027550E+02 0.  0.
         12    1    1    2    0    0 -0.21142362820E+02 -0.19634122493E+02 -0.28647280308E+02  0.40659131086E+02  0.00000000000E+00 0. -1.
         11    1    3    3    0    0  0.17629195771E+02 -0.10485294198E+01  0.18434185968E+02  0.25528555973E+02  0.51100000000E-03 0.  1.
        -11    1    3    3    0    0  0.43505962983E+01  0.20915762453E+02  0.10813076827E+02  0.23944089832E+02  0.51100000000E-03 0. -1.
        -12    1    3    3    0    0 -0.83742924970E+00 -0.23311053994E+00 -0.59998248705E+00  0.10562231094E+01  0.00000000000E+00 0.  1.
</event>
<event>
 7    1  0.6073302E-013  0.5052886E+02  0.7816164E-02  0.1300439E+00
        -11   -1    0    0    0    0  0.00000000000E+00  0.00000000000E+00  0.45593999997E+02  0.45594000000E+02  0.51100000000E-03 0. -1.
         11   -1    0    0    0    0 -0.00000000000E+00 -0.00000000000E+00 -0.45593999997E+02  0.45594000000E+02  0.51100000000E-03 0.  1.
    9900012    2    1    2    0    0  0.38499721712E+02 -0.11835469270E+02  0.55550971854E+01  0.50528855770E+02  0.29999987599E+02 0.  0.
         12    1    1    2    0    0 -0.38499721712E+02  0.11835469270E+02 -0.55550971854E+01  0.40659144230E+02  0.00000000000E+00 0. -1.
         11    1    3    3    0    0  0.28673564558E+01  0.21326072482E+01  0.48087318633E+01  0.59911308711E+01  0.51100000000E-03 0. -1.
        -11    1    3    3    0    0  0.17654045182E+02 -0.18195471115E+02 -0.34844953128E+01  0.25590666038E+02  0.51100000000E-03 0.  1.
        -12    1    3    3    0    0  0.17978320074E+02  0.42273945975E+01  0.42308606349E+01  0.18947058861E+02  0.00000000000E+00 0.  1.
</event>
<event>
 7    1  0.6073302E-013  0.5052886E+02  0.7816164E-02  0.1300439E+00
        -11   -1    0    0    0    0  0.00000000000E+00  0.00000000000E+00  0.45593999997E+02  0.45594000000E+02  0.51100000000E-03 0. -1.
         11   -1    0    0    0    0 -0.00000000000E+00 -0.00000000000E+00 -0.45593999997E+02  0.45594000000E+02  0.51100000000E-03 0.  1.
    9900012    2    1    2    0    0 -0.35025969917E+02  0.17479346222E+02  0.10991800595E+02  0.50528858429E+02  0.29999995681E+02 0.  0.
         12    1    1    2    0    0  0.35025969917E+02 -0.17479346222E+02 -0.10991800595E+02  0.40659141571E+02  0.00000000000E+00 0. -1.
         11    1    3    3    0    0  0.35690090346E+01 -0.54441657523E+00 -0.72977189751E+00  0.36833113064E+01  0.51100000000E-03 0. -1.
        -11    1    3    3    0    0 -0.20102933682E+02  0.12987947343E+02  0.13701641404E+02  0.27578065491E+02  0.51100000000E-03 0.  1.
        -12    1    3    3    0    0 -0.18492045270E+02  0.50358154545E+01 -0.19800689107E+01  0.19267481632E+02  0.00000000000E+00 0.  1.
</event>
<event>
 7    1  0.6073302E-013  0.5052886E+02  0.7816164E-02  0.1300439E+00
        -11   -1    0    0    0    0  0.00000000000E+00  0.00000000000E+00  0.45593999997E+02  0.45594000000E+02  0.51100000000E-03 0. -1.
         11   -1    0    0    0    0 -0.00000000000E+00 -0.00000000000E+00 -0.45593999997E+02  0.45594000000E+02  0.51100000000E-03 0.  1.
    9900012    2    1    2    0    0 -0.80106441739E+01 -0.90517424438E+01 -0.38820886923E+02  0.50528859295E+02  0.29999998314E+02 0.  0.
         12    1    1    2    0    0  0.80106441739E+01  0.90517424438E+01  0.38820886923E+02  0.40659140705E+02  0.00000000000E+00 0. -1.
         11    1    3    3    0    0  0.35209445551E+01 -0.14271935982E+02 -0.13388753456E+02  0.19883257444E+02  0.51100000000E-03 0. -1.
        -11    1    3    3    0    0 -0.10030481520E+02  0.21214843522E+01 -0.83573373067E+01  0.13227106354E+02  0.51100000000E-03 0.  1.
         12    1    3    3    0    0 -0.15011072090E+01  0.30987091858E+01 -0.17074796160E+02  0.17418495497E+02  0.00000000000E+00 0. -1.
</event>
<event>
 7    1  0.6073302E-013  0.5052888E+02  0.7816164E-02  0.1300439E+00
        -11   -1    0    0    0    0  0.00000000000E+00  0.00000000000E+00  0.45593999997E+02  0.45594000000E+02  0.51100000000E-03 0.  1.
         11   -1    0    0    0    0 -0.00000000000E+00 -0.00000000000E+00 -0.45593999997E+02  0.45594000000E+02  0.51100000000E-03 0. -1.
    9900012    2    1    2    0    0 -0.38702039102E+02  0.12393886168E+02  0.13067181582E+01  0.50528883465E+02  0.30000071782E+02 0.  0.
         12    1    1    2    0    0  0.38702039102E+02 -0.12393886168E+02 -0.13067181582E+01  0.40659116535E+02  0.00000000000E+00 0. -1.
         11    1    3    3    0    0  0.31407324031E+01  0.13364060111E+01  0.26014940700E+00  0.34231358473E+01  0.51100000000E-03 0. -1.
        -11    1    3    3    0    0 -0.32635428004E+02  0.16049413654E+02  0.28430352875E+01  0.36479277536E+02  0.51100000000E-03 0.  1.
        -12    1    3    3    0    0 -0.92073435013E+01 -0.49919334970E+01 -0.17964665363E+01  0.10626470082E+02  0.00000000000E+00 0.  1.
</event>
<event>
 7    1  0.6073302E-013  0.5052885E+02  0.7816164E-02  0.1300439E+00
        -11   -1    0    0    0    0  0.00000000000E+00  0.00000000000E+00  0.45593999997E+02  0.45594000000E+02  0.51100000000E-03 0.  1.
         11   -1    0    0    0    0 -0.00000000000E+00 -0.00000000000E+00 -0.45593999997E+02  0.45594000000E+02  0.51100000000E-03 0. -1.
    9900012    2    1    2    0    0 -0.37252739205E+02  0.53101505893E+01  0.15401379331E+02  0.50528846506E+02  0.29999959439E+02 0.  0.
         12    1    1    2    0    0  0.37252739205E+02 -0.53101505893E+01 -0.15401379331E+02  0.40659153494E+02  0.00000000000E+00 0. -1.
         11    1    3    3    0    0 -0.11399453995E+02  0.69568784159E+01  0.39660693622E+01  0.13931095259E+02  0.51100000000E-03 0. -1.
        -11    1    3    3    0    0 -0.91735462422E+01 -0.62704978652E+01  0.15254606557E+02  0.18872628741E+02  0.51100000000E-03 0.  1.
        -12    1    3    3    0    0 -0.16679738968E+02  0.46237700387E+01 -0.38192965880E+01  0.17725122506E+02  0.00000000000E+00 0.  1.
</event>
<event>
 7    1  0.6073302E-013  0.5052876E+02  0.7816164E-02  0.1300439E+00
        -11   -1    0    0    0    0  0.00000000000E+00  0.00000000000E+00  0.45593999997E+02  0.45594000000E+02  0.51100000000E-03 0.  1.
         11   -1    0    0    0    0 -0.00000000000E+00 -0.00000000000E+00 -0.45593999997E+02  0.45594000000E+02  0.51100000000E-03 0. -1.
    9900012    2    1    2    0    0 -0.29935255740E+02 -0.17533878015E+02 -0.21204182512E+02  0.50528760331E+02  0.29999697501E+02 0.  0.
         12    1    1    2    0    0  0.29935255740E+02  0.17533878015E+02  0.21204182512E+02  0.40659239669E+02  0.00000000000E+00 0. -1.
         11    1    3    3    0    0  0.12751906673E+01  0.43098456056E+01 -0.56879283302E+01  0.72493730303E+01  0.51100000000E-03 0. -1.
        -11    1    3    3    0    0 -0.24999492816E+02 -0.20378198264E+02 -0.17371693418E+02  0.36633609405E+02  0.51100000000E-03 0.  1.
         12    1    3    3    0    0 -0.62109535914E+01 -0.14655253567E+01  0.18554392365E+01  0.66457778963E+01  0.00000000000E+00 0. -1.
</event>
<event>
 7    1  0.6073302E-013  0.5052886E+02  0.7816164E-02  0.1300439E+00
        -11   -1    0    0    0    0  0.00000000000E+00  0.00000000000E+00  0.45593999997E+02  0.45594000000E+02  0.51100000000E-03 0.  1.
         11   -1    0    0    0    0 -0.00000000000E+00 -0.00000000000E+00 -0.45593999997E+02  0.45594000000E+02  0.51100000000E-03 0. -1.
    9900012    2    1    2    0    0 -0.21758410996E+02  0.89554671746E-01  0.34347191888E+02  0.50528855153E+02  0.29999985723E+02 0.  0.
         12    1    1    2    0    0  0.21758410996E+02 -0.89554671746E-01 -0.34347191888E+02  0.40659144847E+02  0.00000000000E+00 0. -1.
         11    1    3    3    0    0  0.56961569788E+01 -0.26649417825E+01  0.20770469081E+01  0.66228576272E+01  0.51100000000E-03 0. -1.
        -11    1    3    3    0    0 -0.25724487836E+02 -0.41998859634E+00  0.30432321623E+02  0.39850368436E+02  0.51100000000E-03 0.  1.
        -12    1    3    3    0    0 -0.17300801386E+01  0.31744850506E+01  0.18378233564E+01  0.40556290895E+01  0.00000000000E+00 0.  1.
</event>
<event>
 7    1  0.6073302E-013  0.5052886E+02  0.7816164E-02  0.1300439E+00
        -11   -1    0    0    0    0  0.00000000000E+00  0.00000000000E+00  0.45593999997E+02  0.45594000000E+02  0.51100000000E-03 0. -1.
         11   -1    0    0    0    0 -0.00000000000E+00 -0.00000000000E+00 -0.45593999997E+02  0.45594000000E+02  0.51100000000E-03 0.  1.
    9900012    2    1    2    0    0 -0.27158994442E+02  0.20072802380E+02 -0.22641497481E+02  0.50528858560E+02  0.29999996079E+02 0.  0.
         12    1    1    2    0    0  0.27158994442E+02 -0.20072802380E+02  0.22641497481E+02  0.40659141440E+02  0.00000000000E+00 0. -1.
         11    1    3    3    0    0 -0.54669681943E+01 -0.49978279341E+00 -0.20788983784E+01  0.58702080719E+01  0.51100000000E-03 0. -1.
        -11    1    3    3    0    0 -0.11255986546E+01  0.15180704025E+02 -0.17473056786E+02  0.23173874530E+02  0.51100000000E-03 0.  1.
        -12    1    3    3    0    0 -0.20566427593E+02  0.53918811482E+01 -0.30895423166E+01  0.21484775958E+02  0.00000000000E+00 0.  1.
</event>
<event>
 7    1  0.6073302E-013  0.5052885E+02  0.7816164E-02  0.1300439E+00
        -11   -1    0    0    0    0  0.00000000000E+00  0.00000000000E+00  0.45593999997E+02  0.45594000000E+02  0.51100000000E-03 0.  1.
         11   -1    0    0    0    0 -0.00000000000E+00 -0.00000000000E+00 -0.45593999997E+02  0.45594000000E+02  0.51100000000E-03 0. -1.
    9900012    2    1    2    0    0 -0.93725153917E+01 -0.39270632405E+02  0.48103553649E+01  0.50528854251E+02  0.29999982983E+02 0.  0.
         12    1    1    2    0    0  0.93725153917E+01  0.39270632405E+02 -0.48103553649E+01  0.40659145749E+02  0.00000000000E+00 0. -1.
         11    1    3    3    0    0  0.46510097685E+01 -0.15189703300E+01  0.64151939635E+01  0.80680776261E+01  0.51100000000E-03 0. -1.
        -11    1    3    3    0    0 -0.16159186051E+02 -0.34589504734E+02  0.33678507596E+00  0.38179399629E+02  0.51100000000E-03 0.  1.
         12    1    3    3    0    0  0.21356608911E+01 -0.31621573410E+01 -0.19416236746E+01  0.42813769963E+01  0.00000000000E+00 0. -1.
</event>
<event>
 7    1  0.6073302E-013  0.5052885E+02  0.7816164E-02  0.1300439E+00
        -11   -1    0    0    0    0  0.00000000000E+00  0.00000000000E+00  0.45593999997E+02  0.45594000000E+02  0.51100000000E-03 0.  1.
         11   -1    0    0    0    0 -0.00000000000E+00 -0.00000000000E+00 -0.45593999997E+02  0.45594000000E+02  0.51100000000E-03 0. -1.
    9900012    2    1    2    0    0 -0.88777465002E+01 -0.50020865847E+01  0.39361543268E+02  0.50528851687E+02  0.29999975188E+02 0.  0.
         12    1    1    2    0    0  0.88777465002E+01  0.50020865847E+01 -0.39361543268E+02  0.40659148313E+02  0.00000000000E+00 0. -1.
         11    1    3    3    0    0 -0.51571984614E+01 -0.17374698268E+02  0.18021431229E+02  0.25558732748E+02  0.51100000000E-03 0. -1.
        -11    1    3    3    0    0 -0.25291920441E+01  0.85123474237E+01  0.13669563926E+02  0.16300731556E+02  0.51100000000E-03 0.  1.
         12    1    3    3    0    0 -0.11913559946E+01  0.38602642598E+01  0.76705481126E+01  0.86693873837E+01  0.00000000000E+00 0. -1.
</event>
<event>
 7    1  0.6073302E-013  0.5052886E+02  0.7816164E-02  0.1300439E+00
        -11   -1    0    0    0    0  0.00000000000E+00  0.00000000000E+00  0.45593999997E+02  0.45594000000E+02  0.51100000000E-03 0.  1.
         11   -1    0    0    0    0 -0.00000000000E+00 -0.00000000000E+00 -0.45593999997E+02  0.45594000000E+02  0.51100000000E-03 0. -1.
    9900012    2    1    2    0    0 -0.84237820280E+01  0.35033261642E+02  0.18838147460E+02  0.50528864192E+02  0.30000013199E+02 0.  0.
         12    1    1    2    0    0  0.84237820280E+01 -0.35033261642E+02 -0.18838147460E+02  0.40659135808E+02  0.00000000000E+00 0. -1.
         11    1    3    3    0    0  0.33083668282E+01  0.11366852063E+01 -0.69230693812E+00  0.35660389070E+01  0.51100000000E-03 0. -1.
        -11    1    3    3    0    0 -0.18782996817E+02  0.26346951683E+02  0.14150459362E+02  0.35315695276E+02  0.51100000000E-03 0.  1.
        -12    1    3    3    0    0  0.70508479606E+01  0.75496247522E+01  0.53799950361E+01  0.11647130009E+02  0.00000000000E+00 0.  1.
</event>
<event>
 7    1  0.6073302E-013  0.5052886E+02  0.7816164E-02  0.1300439E+00
        -11   -1    0    0    0    0  0.00000000000E+00  0.00000000000E+00  0.45593999997E+02  0.45594000000E+02  0.51100000000E-03 0. -1.
         11   -1    0    0    0    0 -0.00000000000E+00 -0.00000000000E+00 -0.45593999997E+02  0.45594000000E+02  0.51100000000E-03 0.  1.
    9900012    2    1    2    0    0 -0.22348681964E+02  0.26445478197E+02 -0.21315222367E+02  0.50528860718E+02  0.30000002639E+02 0.  0.
         12    1    1    2    0    0  0.22348681964E+02 -0.26445478197E+02  0.21315222367E+02  0.40659139282E+02  0.00000000000E+00 0. -1.
         11    1    3    3    0    0 -0.62318168296E+01  0.37439937997E+01  0.16183547885E+01  0.74479596570E+01  0.51100000000E-03 0. -1.
        -11    1    3    3    0    0 -0.11723148283E+02  0.71892511779E+00 -0.15532823886E+02  0.19473512193E+02  0.51100000000E-03 0.  1.
        -12    1    3    3    0    0 -0.43937168508E+01  0.21982559279E+02 -0.74007532703E+01  0.23607388869E+02  0.00000000000E+00 0.  1.
</event>
<event>
 7    1  0.6073302E-013  0.5052885E+02  0.7816164E-02  0.1300439E+00
        -11   -1    0    0    0    0  0.00000000000E+00  0.00000000000E+00  0.45593999997E+02  0.45594000000E+02  0.51100000000E-03 0. -1.
         11   -1    0    0    0    0 -0.00000000000E+00 -0.00000000000E+00 -0.45593999997E+02  0.45594000000E+02  0.51100000000E-03 0.  1.
    9900012    2    1    2    0    0  0.95568730629E+01  0.19327274319E+02 -0.34471563940E+02  0.50528854954E+02  0.29999985119E+02 0.  0.
         12    1    1    2    0    0 -0.95568730629E+01 -0.19327274319E+02  0.34471563940E+02  0.40659145046E+02  0.00000000000E+00 0. -1.
         11    1    3    3    0    0  0.28933783447E+01 -0.51147312768E+01 -0.14934099195E+02  0.16048658303E+02  0.51100000000E-03 0. -1.
        -11    1    3    3    0    0  0.85566089666E+01  0.76835883580E+01 -0.88860957417E+01  0.14533264769E+02  0.51100000000E-03 0.  1.
         12    1    3    3    0    0 -0.18931142484E+01  0.16758417238E+02 -0.10651369003E+02  0.19946931882E+02  0.00000000000E+00 0. -1.
</event>
<event>
 7    1  0.6073302E-013  0.5052883E+02  0.7816164E-02  0.1300439E+00
        -11   -1    0    0    0    0  0.00000000000E+00  0.00000000000E+00  0.45593999997E+02  0.45594000000E+02  0.51100000000E-03 0.  1.
         11   -1    0    0    0    0 -0.00000000000E+00 -0.00000000000E+00 -0.45593999997E+02  0.45594000000E+02  0.51100000000E-03 0. -1.
    9900012    2    1    2    0    0  0.25383326341E+02 -0.30623163417E+02  0.84307124253E+01  0.50528827532E+02  0.29999901765E+02 0.  0.
         12    1    1    2    0    0 -0.25383326341E+02  0.30623163417E+02 -0.84307124253E+01  0.40659172468E+02  0.00000000000E+00 0. -1.
         11    1    3    3    0    0 -0.14574189861E+01 -0.23357456376E+01  0.67870618058E+01  0.73242054860E+01  0.51100000000E-03 0. -1.
        -11    1    3    3    0    0  0.15842796162E+02 -0.23602759430E+02 -0.59495922751E+01  0.29042763151E+02  0.51100000000E-03 0.  1.
        -12    1    3    3    0    0  0.10997949165E+02 -0.46846583493E+01  0.75932428946E+01  0.14161858894E+02  0.00000000000E+00 0.  1.
</event>
<event>
 7    1  0.6073302E-013  0.5052886E+02  0.7816164E-02  0.1300439E+00
        -11   -1    0    0    0    0  0.00000000000E+00  0.00000000000E+00  0.45593999997E+02  0.45594000000E+02  0.51100000000E-03 0.  1.
         11   -1    0    0    0    0 -0.00000000000E+00 -0.00000000000E+00 -0.45593999997E+02  0.45594000000E+02  0.51100000000E-03 0. -1.
    9900012    2    1    2    0    0  0.21179475257E+02 -0.62171332422E+00  0.34701716918E+02  0.50528857650E+02  0.29999993313E+02 0.  0.
         12    1    1    2    0    0 -0.21179475257E+02  0.62171332422E+00 -0.34701716918E+02  0.40659142350E+02  0.00000000000E+00 0. -1.
         11    1    3    3    0    0  0.20156026653E+02 -0.32439769917E+01  0.92512874171E+01  0.22413726069E+02  0.51100000000E-03 0. -1.
        -11    1    3    3    0    0 -0.27592140508E+01  0.60667195823E+01  0.12032277635E+02  0.13754782950E+02  0.51100000000E-03 0.  1.
         12    1    3    3    0    0  0.37826626547E+01 -0.34444559147E+01  0.13418151866E+02  0.14360348631E+02  0.00000000000E+00 0. -1.
</event>
<event>
 7    1  0.6073302E-013  0.5052885E+02  0.7816164E-02  0.1300439E+00
        -11   -1    0    0    0    0  0.00000000000E+00  0.00000000000E+00  0.45593999997E+02  0.45594000000E+02  0.51100000000E-03 0.  1.
         11   -1    0    0    0    0 -0.00000000000E+00 -0.00000000000E+00 -0.45593999997E+02  0.45594000000E+02  0.51100000000E-03 0. -1.
    9900012    2    1    2    0    0  0.29535181585E+02  0.97906763775E+01  0.26172170033E+02  0.50528846302E+02  0.29999958819E+02 0.  0.
         12    1    1    2    0    0 -0.29535181585E+02 -0.97906763775E+01 -0.26172170033E+02  0.40659153698E+02  0.00000000000E+00 0. -1.
         11    1    3    3    0    0 -0.20914869605E+01  0.32545486389E+01  0.59951542078E+01  0.71350037691E+01  0.51100000000E-03 0. -1.
        -11    1    3    3    0    0  0.31910251359E+02  0.87197956676E+01  0.12427480699E+02  0.35337533234E+02  0.51100000000E-03 0.  1.
        -12    1    3    3    0    0 -0.28358281341E+00 -0.21836679289E+01  0.77495351265E+01  0.80563092984E+01  0.00000000000E+00 0.  1.
</event>
<event>
 7    1  0.6073302E-013  0.5052886E+02  0.7816164E-02  0.1300439E+00
        -11   -1    0    0    0    0  0.00000000000E+00  0.00000000000E+00  0.45593999997E+02  0.45594000000E+02  0.51100000000E-03 0.  1.
         11   -1    0    0    0    0 -0.00000000000E+00 -0.00000000000E+00 -0.45593999997E+02  0.45594000000E+02  0.51100000000E-03 0. -1.
    9900012    2    1    2    0    0  0.23548388524E+01  0.24098796909E+02  0.32662946407E+02  0.50528863924E+02  0.30000012384E+02 0.  0.
         12    1    1    2    0    0 -0.23548388524E+01 -0.24098796909E+02 -0.32662946407E+02  0.40659136076E+02  0.00000000000E+00 0. -1.
         11    1    3    3    0    0 -0.11928254471E+01  0.46250637641E+01 -0.36636498954E+01  0.60196659531E+01  0.51100000000E-03 0. -1.
        -11    1    3    3    0    0 -0.29377182415E+01  0.95360312522E+01  0.28744269871E+02  0.30426947451E+02  0.51100000000E-03 0.  1.
         12    1    3    3    0    0  0.64853825410E+01  0.99377018924E+01  0.75823264307E+01  0.14082250520E+02  0.00000000000E+00 0. -1.
</event>
<event>
 7    1  0.6073302E-013  0.5052887E+02  0.7816164E-02  0.1300439E+00
        -11   -1    0    0    0    0  0.00000000000E+00  0.00000000000E+00  0.45593999997E+02  0.45594000000E+02  0.51100000000E-03 0.  1.
         11   -1    0    0    0    0 -0.00000000000E+00 -0.00000000000E+00 -0.45593999997E+02  0.45594000000E+02  0.51100000000E-03 0. -1.
    9900012    2    1    2    0    0 -0.15842887072E+01 -0.56790430047E+01  0.40229386102E+02  0.50528868107E+02  0.30000025099E+02 0.  0.
         12    1    1    2    0    0  0.15842887072E+01  0.56790430047E+01 -0.40229386102E+02  0.40659131893E+02  0.00000000000E+00 0. -1.
         11    1    3    3    0    0 -0.35643834301E+01 -0.40059766197E+00 -0.33851017009E+01  0.49319591959E+01  0.51100000000E-03 0. -1.
        -11    1    3    3    0    0 -0.31507854428E+01 -0.66165800369E+01  0.32012553418E+02  0.32840678387E+02  0.51100000000E-03 0.  1.
        -12    1    3    3    0    0  0.51308801657E+01  0.13381346942E+01  0.11601934384E+02  0.12756230525E+02  0.00000000000E+00 0.  1.
</event>
<event>
 7    1  0.6073302E-013  0.5052886E+02  0.7816164E-02  0.1300439E+00
        -11   -1    0    0    0    0  0.00000000000E+00  0.00000000000E+00  0.45593999997E+02  0.45594000000E+02  0.51100000000E-03 0.  1.
         11   -1    0    0    0    0 -0.00000000000E+00 -0.00000000000E+00 -0.45593999997E+02  0.45594000000E+02  0.51100000000E-03 0. -1.
    9900012    2    1    2    0    0 -0.20798220374E+02  0.45617765695E+01  0.34637983999E+02  0.50528859433E+02  0.29999998732E+02 0.  0.
         12    1    1    2    0    0  0.20798220374E+02 -0.45617765695E+01 -0.34637983999E+02  0.40659140567E+02  0.00000000000E+00 0. -1.
         11    1    3    3    0    0 -0.79636898288E+01  0.19019340362E+01  0.22500675129E+02  0.23944061691E+02  0.51100000000E-03 0.  1.
        -11    1    3    3    0    0  0.39460681610E+01  0.20815391353E+01 -0.17529713787E+01  0.47934505337E+01  0.51100000000E-03 0. -1.
        -12    1    3    3    0    0 -0.16780598706E+02  0.57830339794E+00  0.13890280249E+02  0.21791347208E+02  0.00000000000E+00 0.  1.
</event>
<event>
 7    1  0.6073302E-013  0.5052886E+02  0.7816164E-02  0.1300439E+00
        -11   -1    0    0    0    0  0.00000000000E+00  0.00000000000E+00  0.45593999997E+02  0.45594000000E+02  0.51100000000E-03 0.  1.
         11   -1    0    0    0    0 -0.00000000000E+00 -0.00000000000E+00 -0.45593999997E+02  0.45594000000E+02  0.51100000000E-03 0. -1.
    9900012    2    1    2    0    0  0.31609980405E+02 -0.21606599379E+02  0.13679531609E+02  0.50528861015E+02  0.30000003542E+02 0.  0.
         12    1    1    2    0    0 -0.31609980405E+02  0.21606599379E+02 -0.13679531609E+02  0.40659138985E+02  0.00000000000E+00 0. -1.
         11    1    3    3    0    0 -0.76690334292E+00 -0.36867734326E+01  0.79835224368E+00  0.38493902955E+01  0.51100000000E-03 0. -1.
        -11    1    3    3    0    0  0.94791065759E+01  0.63904905374E+01  0.41371679921E+01  0.12157630939E+02  0.51100000000E-03 0.  1.
        -12    1    3    3    0    0  0.22897777172E+02 -0.24310316484E+02  0.87440113737E+01  0.34521839781E+02  0.00000000000E+00 0.  1.
</event>
<event>
 7    1  0.6073302E-013  0.5052886E+02  0.7816164E-02  0.1300439E+00
        -11   -1    0    0    0    0  0.00000000000E+00  0.00000000000E+00  0.45593999997E+02  0.45594000000E+02  0.51100000000E-03 0.  1.
         11   -1    0    0    0    0 -0.00000000000E+00 -0.00000000000E+00 -0.45593999997E+02  0.45594000000E+02  0.51100000000E-03 0. -1.
    9900012    2    1    2    0    0  0.51044500658E+01  0.17192630600E+01  0.40300798540E+02  0.50528860328E+02  0.30000001451E+02 0.  0.
         12    1    1    2    0    0 -0.51044500658E+01 -0.17192630600E+01 -0.40300798540E+02  0.40659139672E+02  0.00000000000E+00 0. -1.
         11    1    3    3    0    0  0.68136071266E+01 -0.55730845187E+01  0.43673245437E+01  0.98263949167E+01  0.51100000000E-03 0. -1.
        -11    1    3    3    0    0  0.76400765675E+00  0.11617221843E+02  0.13990583600E+02  0.18201098339E+02  0.51100000000E-03 0.  1.
        -12    1    3    3    0    0 -0.24731647176E+01 -0.43248742640E+01  0.21942890397E+02  0.22501367071E+02  0.00000000000E+00 0.  1.
</event>
<event>
 7    1  0.6073302E-013  0.5052883E+02  0.7816164E-02  0.1300439E+00
        -11   -1    0    0    0    0  0.00000000000E+00  0.00000000000E+00  0.45593999997E+02  0.45594000000E+02  0.51100000000E-03 0.  1.
         11   -1    0    0    0    0 -0.00000000000E+00 -0.00000000000E+00 -0.45593999997E+02  0.45594000000E+02  0.51100000000E-03 0. -1.
    9900012    2    1    2    0    0  0.28723121109E+01 -0.92635165760E+01  0.39485507251E+02  0.50528828844E+02  0.29999905754E+02 0.  0.
         12    1    1    2    0    0 -0.28723121109E+01  0.92635165760E+01 -0.39485507251E+02  0.40659171156E+02  0.00000000000E+00 0. -1.
         11    1    3    3    0    0 -0.50680896355E+01 -0.54554258095E+01  0.67041194242E+01  0.10019601830E+02  0.51100000000E-03 0.  1.
        -11    1    3    3    0    0  0.45723222837E+01  0.88391096868E+01  0.92692351331E+01  0.13599805562E+02  0.51100000000E-03 0. -1.
        -12    1    3    3    0    0  0.33680794627E+01 -0.12647200453E+02  0.23512152694E+02  0.26909421452E+02  0.00000000000E+00 0.  1.
</event>
<event>
 7    1  0.6073302E-013  0.5052885E+02  0.7816164E-02  0.1300439E+00
        -11   -1    0    0    0    0  0.00000000000E+00  0.00000000000E+00  0.45593999997E+02  0.45594000000E+02  0.51100000000E-03 0.  1.
         11   -1    0    0    0    0 -0.00000000000E+00 -0.00000000000E+00 -0.45593999997E+02  0.45594000000E+02  0.51100000000E-03 0. -1.
    9900012    2    1    2    0    0 -0.20385316357E+02  0.19380473986E+02  0.29359883437E+02  0.50528847890E+02  0.29999963645E+02 0.  0.
         12    1    1    2    0    0  0.20385316357E+02 -0.19380473986E+02 -0.29359883437E+02  0.40659152110E+02  0.00000000000E+00 0. -1.
         11    1    3    3    0    0 -0.21726256666E+02  0.10237179397E+02  0.28805393831E+02  0.37504410204E+02  0.51100000000E-03 0. -1.
        -11    1    3    3    0    0  0.15239568976E+01  0.95174642129E+01  0.33452920044E+01  0.10202722604E+02  0.51100000000E-03 0.  1.
         12    1    3    3    0    0 -0.18301658937E+00 -0.37416962355E+00 -0.27908023984E+01  0.28217150824E+01  0.00000000000E+00 0. -1.
</event>
<event>
 7    1  0.6073302E-013  0.5052886E+02  0.7816164E-02  0.1300439E+00
        -11   -1    0    0    0    0  0.00000000000E+00  0.00000000000E+00  0.45593999997E+02  0.45594000000E+02  0.51100000000E-03 0.  1.
         11   -1    0    0    0    0 -0.00000000000E+00 -0.00000000000E+00 -0.45593999997E+02  0.45594000000E+02  0.51100000000E-03 0. -1.
    9900012    2    1    2    0    0 -0.29861474179E+02 -0.21890116056E+01  0.27507570474E+02  0.50528857788E+02  0.29999993734E+02 0.  0.
         12    1    1    2    0    0  0.29861474179E+02  0.21890116056E+01 -0.27507570474E+02  0.40659142212E+02  0.00000000000E+00 0. -1.
         11    1    3    3    0    0 -0.29714789334E+02  0.31932590550E+01  0.97277480138E+01  0.31429201235E+02  0.51100000000E-03 0.  1.
        -11    1    3    3    0    0 -0.46914156350E+00 -0.71085903334E+00  0.98777875832E+01  0.99144390750E+01  0.51100000000E-03 0. -1.
        -12    1    3    3    0    0  0.32245671857E+00 -0.46714116272E+01  0.79020348774E+01  0.91852174786E+01  0.00000000000E+00 0.  1.
</event>
<event>
 7    1  0.6073302E-013  0.5052885E+02  0.7816164E-02  0.1300439E+00
        -11   -1    0    0    0    0  0.00000000000E+00  0.00000000000E+00  0.45593999997E+02  0.45594000000E+02  0.51100000000E-03 0.  1.
         11   -1    0    0    0    0 -0.00000000000E+00 -0.00000000000E+00 -0.45593999997E+02  0.45594000000E+02  0.51100000000E-03 0. -1.
    9900012    2    1    2    0    0  0.79978243537E+01 -0.34833906694E+02  0.19385564074E+02  0.50528851652E+02  0.29999975080E+02 0.  0.
         12    1    1    2    0    0 -0.79978243537E+01  0.34833906694E+02 -0.19385564074E+02  0.40659148348E+02  0.00000000000E+00 0. -1.
         11    1    3    3    0    0  0.79113973918E+01 -0.57631792603E+01 -0.77004677439E+00  0.98182185845E+01  0.51100000000E-03 0. -1.
        -11    1    3    3    0    0  0.38221683122E+01 -0.61408442327E+01  0.15375294689E+02  0.16991722265E+02  0.51100000000E-03 0.  1.
         12    1    3    3    0    0 -0.37357413503E+01 -0.22929883201E+02  0.47803161589E+01  0.23718910802E+02  0.00000000000E+00 0. -1.
</event>
<event>
 7    1  0.6073302E-013  0.5052887E+02  0.7816164E-02  0.1300439E+00
        -11   -1    0    0    0    0  0.00000000000E+00  0.00000000000E+00  0.45593999997E+02  0.45594000000E+02  0.51100000000E-03 0. -1.
         11   -1    0    0    0    0 -0.00000000000E+00 -0.00000000000E+00 -0.45593999997E+02  0.45594000000E+02  0.51100000000E-03 0.  1.
    9900012    2    1    2    0    0  0.63090606247E+01 -0.40161854470E+02 -0.62156859750E+00  0.50528866365E+02  0.30000019804E+02 0.  0.
         12    1    1    2    0    0 -0.63090606247E+01  0.40161854470E+02  0.62156859750E+00  0.40659133635E+02  0.00000000000E+00 0. -1.
         11    1    3    3    0    0 -0.56524091571E+01 -0.13803123388E+02  0.12601148183E+01  0.14968761945E+02  0.51100000000E-03 0. -1.
        -11    1    3    3    0    0  0.87707853265E+01 -0.28302846026E+02  0.25774176328E+01  0.29742576390E+02  0.51100000000E-03 0.  1.
        -12    1    3    3    0    0  0.31906844553E+01  0.19441149449E+01 -0.44591010486E+01  0.58175280295E+01  0.00000000000E+00 0.  1.
</event>
<event>
 7    1  0.6073302E-013  0.5052886E+02  0.7816164E-02  0.1300439E+00
        -11   -1    0    0    0    0  0.00000000000E+00  0.00000000000E+00  0.45593999997E+02  0.45594000000E+02  0.51100000000E-03 0. -1.
         11   -1    0    0    0    0 -0.00000000000E+00 -0.00000000000E+00 -0.45593999997E+02  0.45594000000E+02  0.51100000000E-03 0.  1.
    9900012    2    1    2    0    0 -0.13060072879E+02  0.35959503994E+02 -0.13766404567E+02  0.50528864178E+02  0.30000013156E+02 0.  0.
         12    1    1    2    0    0  0.13060072879E+02 -0.35959503994E+02  0.13766404567E+02  0.40659135822E+02  0.00000000000E+00 0. -1.
         11    1    3    3    0    0 -0.29649632861E+01  0.75019084263E+00  0.67425119070E+01  0.74037328872E+01  0.51100000000E-03 0. -1.
        -11    1    3    3    0    0 -0.53985799424E+01  0.28894283433E+02 -0.12642393530E+02  0.31997724840E+02  0.51100000000E-03 0.  1.
         12    1    3    3    0    0 -0.46965296509E+01  0.63150297177E+01 -0.78665229433E+01  0.11127406451E+02  0.00000000000E+00 0. -1.
</event>
<event>
 7    1  0.6073302E-013  0.5052888E+02  0.7816164E-02  0.1300439E+00
        -11   -1    0    0    0    0  0.00000000000E+00  0.00000000000E+00  0.45593999997E+02  0.45594000000E+02  0.51100000000E-03 0.  1.
         11   -1    0    0    0    0 -0.00000000000E+00 -0.00000000000E+00 -0.45593999997E+02  0.45594000000E+02  0.51100000000E-03 0. -1.
    9900012    2    1    2    0    0  0.39871632194E+02  0.53864393993E+01  0.58654300750E+01  0.50528879828E+02  0.30000060725E+02 0.  0.
         12    1    1    2    0    0 -0.39871632194E+02 -0.53864393993E+01 -0.58654300750E+01  0.40659120172E+02  0.00000000000E+00 0. -1.
         11    1    3    3    0    0  0.89326744751E+01  0.38829147078E+01  0.72935723821E+01  0.12168233161E+02  0.51100000000E-03 0. -1.
        -11    1    3    3    0    0  0.10709378011E+02 -0.10295922332E+02 -0.15908034075E+01  0.14940798165E+02  0.51100000000E-03 0.  1.
        -12    1    3    3    0    0  0.20229579708E+02  0.11799447024E+02  0.16266110037E+00  0.23419848502E+02  0.00000000000E+00 0.  1.
</event>
<event>
 7    1  0.6073302E-013  0.5052888E+02  0.7816164E-02  0.1300439E+00
        -11   -1    0    0    0    0  0.00000000000E+00  0.00000000000E+00  0.45593999997E+02  0.45594000000E+02  0.51100000000E-03 0.  1.
         11   -1    0    0    0    0 -0.00000000000E+00 -0.00000000000E+00 -0.45593999997E+02  0.45594000000E+02  0.51100000000E-03 0. -1.
    9900012    2    1    2    0    0  0.19426074697E+02 -0.34504453080E+02  0.92322430660E+01  0.50528880820E+02  0.30000063740E+02 0.  0.
         12    1    1    2    0    0 -0.19426074697E+02  0.34504453080E+02 -0.92322430660E+01  0.40659119180E+02  0.00000000000E+00 0. -1.
         11    1    3    3    0    0 -0.14360827980E+01  0.11314708917E+01 -0.22342512886E+01  0.28869428923E+01  0.51100000000E-03 0. -1.
        -11    1    3    3    0    0  0.21906813083E+02 -0.34814067387E+02  0.54643991464E+01  0.41494426201E+02  0.51100000000E-03 0.  1.
        -12    1    3    3    0    0 -0.10446555878E+01 -0.82185658495E+00  0.60020952082E+01  0.61475117268E+01  0.00000000000E+00 0.  1.
</event>
<event>
 7    1  0.6073302E-013  0.5052888E+02  0.7816164E-02  0.1300439E+00
        -11   -1    0    0    0    0  0.00000000000E+00  0.00000000000E+00  0.45593999997E+02  0.45594000000E+02  0.51100000000E-03 0.  1.
         11   -1    0    0    0    0 -0.00000000000E+00 -0.00000000000E+00 -0.45593999997E+02  0.45594000000E+02  0.51100000000E-03 0. -1.
    9900012    2    1    2    0    0  0.78350293541E+01  0.37471506981E+02  0.13699011037E+02  0.50528875270E+02  0.30000046870E+02 0.  0.
         12    1    1    2    0    0 -0.78350293541E+01 -0.37471506981E+02 -0.13699011037E+02  0.40659124730E+02  0.00000000000E+00 0. -1.
         11    1    3    3    0    0 -0.92577788522E+01  0.25519169742E+02  0.72161394164E+01  0.28089271296E+02  0.51100000000E-03 0. -1.
        -11    1    3    3    0    0  0.10571114814E+02  0.84508883385E+01  0.17327318521E+01  0.13644352021E+02  0.51100000000E-03 0.  1.
         12    1    3    3    0    0  0.65216933919E+01  0.35014489007E+01  0.47501397681E+01  0.87952519531E+01  0.00000000000E+00 0. -1.
</event>
<event>
 7    1  0.6073302E-013  0.5052885E+02  0.7816164E-02  0.1300439E+00
        -11   -1    0    0    0    0  0.00000000000E+00  0.00000000000E+00  0.45593999997E+02  0.45594000000E+02  0.51100000000E-03 0. -1.
         11   -1    0    0    0    0 -0.00000000000E+00 -0.00000000000E+00 -0.45593999997E+02  0.45594000000E+02  0.51100000000E-03 0.  1.
    9900012    2    1    2    0    0  0.15556835903E+02  0.97652387618E+00 -0.37552599345E+02  0.50528850233E+02  0.29999970769E+02 0.  0.
         12    1    1    2    0    0 -0.15556835903E+02 -0.97652387618E+00  0.37552599345E+02  0.40659149767E+02  0.00000000000E+00 0. -1.
         11    1    3    3    0    0 -0.48278053242E+01  0.39541270178E+01 -0.68201769034E+01  0.92443300448E+01  0.51100000000E-03 0. -1.
        -11    1    3    3    0    0  0.67238332238E+01 -0.10032501484E+02 -0.11669115578E+02  0.16793727337E+02  0.51100000000E-03 0.  1.
        -12    1    3    3    0    0  0.13660808004E+02  0.70548983420E+01 -0.19063306863E+02  0.24490792851E+02  0.00000000000E+00 0.  1.
</event>
<event>
 7    1  0.6073302E-013  0.5052886E+02  0.7816164E-02  0.1300439E+00
        -11   -1    0    0    0    0  0.00000000000E+00  0.00000000000E+00  0.45593999997E+02  0.45594000000E+02  0.51100000000E-03 0. -1.
         11   -1    0    0    0    0 -0.00000000000E+00 -0.00000000000E+00 -0.45593999997E+02  0.45594000000E+02  0.51100000000E-03 0.  1.
    9900012    2    1    2    0    0  0.15358383174E+02  0.37634344049E+02 -0.97062657323E+00  0.50528857096E+02  0.29999991629E+02 0.  0.
         12    1    1    2    0    0 -0.15358383174E+02 -0.37634344049E+02  0.97062657323E+00  0.40659142904E+02  0.00000000000E+00 0. -1.
         11    1    3    3    0    0  0.30799805276E+01  0.28723639651E+01 -0.88508454640E+01  0.98017457877E+01  0.51100000000E-03 0. -1.
        -11    1    3    3    0    0  0.47960485376E+01  0.23052602241E+02  0.11732237365E+02  0.26307222307E+02  0.51100000000E-03 0.  1.
         12    1    3    3    0    0  0.74823541088E+01  0.11709377843E+02 -0.38520184741E+01  0.14419889001E+02  0.00000000000E+00 0. -1.
</event>
<event>
 7    1  0.6073302E-013  0.5052872E+02  0.7816164E-02  0.1300439E+00
        -11   -1    0    0    0    0  0.00000000000E+00  0.00000000000E+00  0.45593999997E+02  0.45594000000E+02  0.51100000000E-03 0.  1.
         11   -1    0    0    0    0 -0.00000000000E+00 -0.00000000000E+00 -0.45593999997E+02  0.45594000000E+02  0.51100000000E-03 0. -1.
    9900012    2    1    2    0    0  0.77672494109E+01  0.36308356165E+02  0.16569545434E+02  0.50528723977E+02  0.29999586997E+02 0.  0.
         12    1    1    2    0    0 -0.77672494109E+01 -0.36308356165E+02 -0.16569545434E+02  0.40659276023E+02  0.00000000000E+00 0. -1.
         11    1    3    3    0    0  0.42201652292E+01 -0.22683151290E+01 -0.39927285358E+01  0.62367402951E+01  0.51100000000E-03 0. -1.
        -11    1    3    3    0    0  0.81839221918E+00  0.24428344537E+02  0.15852543660E+02  0.29132746582E+02  0.51100000000E-03 0.  1.
         12    1    3    3    0    0  0.27286919625E+01  0.14148326757E+02  0.47097303106E+01  0.15159237100E+02  0.00000000000E+00 0. -1.
</event>
<event>
 7    1  0.6073302E-013  0.5052887E+02  0.7816164E-02  0.1300439E+00
        -11   -1    0    0    0    0  0.00000000000E+00  0.00000000000E+00  0.45593999997E+02  0.45594000000E+02  0.51100000000E-03 0.  1.
         11   -1    0    0    0    0 -0.00000000000E+00 -0.00000000000E+00 -0.45593999997E+02  0.45594000000E+02  0.51100000000E-03 0. -1.
    9900012    2    1    2    0    0  0.21272298483E+01  0.38283830805E+02  0.13527313668E+02  0.50528867902E+02  0.30000024474E+02 0.  0.
         12    1    1    2    0    0 -0.21272298483E+01 -0.38283830805E+02 -0.13527313668E+02  0.40659132098E+02  0.00000000000E+00 0. -1.
         11    1    3    3    0    0 -0.12005656547E+01  0.18435270313E+02  0.20136697403E+02  0.27327406243E+02  0.51100000000E-03 0. -1.
        -11    1    3    3    0    0 -0.14006227732E+01  0.16151447198E+02 -0.43231438735E+01  0.16778574551E+02  0.51100000000E-03 0.  1.
         12    1    3    3    0    0  0.47284182762E+01  0.36971132940E+01 -0.22862398609E+01  0.64228871082E+01  0.00000000000E+00 0. -1.
</event>
<event>
 7    1  0.6073302E-013  0.5052886E+02  0.7816164E-02  0.1300439E+00
        -11   -1    0    0    0    0  0.00000000000E+00  0.00000000000E+00  0.45593999997E+02  0.45594000000E+02  0.51100000000E-03 0.  1.
         11   -1    0    0    0    0 -0.00000000000E+00 -0.00000000000E+00 -0.45593999997E+02  0.45594000000E+02  0.51100000000E-03 0. -1.
    9900012    2    1    2    0    0 -0.18931321009E+02  0.33687233973E+02  0.12646786923E+02  0.50528857518E+02  0.29999992911E+02 0.  0.
         12    1    1    2    0    0  0.18931321009E+02 -0.33687233973E+02 -0.12646786923E+02  0.40659142482E+02  0.00000000000E+00 0. -1.
         11    1    3    3    0    0 -0.10563088335E+02  0.86224859536E+01 -0.87123410883E+01  0.16181192375E+02  0.51100000000E-03 0. -1.
        -11    1    3    3    0    0 -0.26080610983E+01  0.14435002105E+02  0.13440091813E+02  0.19894907305E+02  0.51100000000E-03 0.  1.
         12    1    3    3    0    0 -0.57601715761E+01  0.10629745914E+02  0.79190361988E+01  0.14452757837E+02  0.00000000000E+00 0. -1.
</event>
<event>
 7    1  0.6073302E-013  0.5052885E+02  0.7816164E-02  0.1300439E+00
        -11   -1    0    0    0    0  0.00000000000E+00  0.00000000000E+00  0.45593999997E+02  0.45594000000E+02  0.51100000000E-03 0. -1.
         11   -1    0    0    0    0 -0.00000000000E+00 -0.00000000000E+00 -0.45593999997E+02  0.45594000000E+02  0.51100000000E-03 0.  1.
    9900012    2    1    2    0    0 -0.20553194680E+02  0.32975852276E+01 -0.34926474928E+02  0.50528849360E+02  0.29999968114E+02 0.  0.
         12    1    1    2    0    0  0.20553194680E+02 -0.32975852276E+01  0.34926474928E+02  0.40659150640E+02  0.00000000000E+00 0. -1.
         11    1    3    3    0    0 -0.76275842277E+01  0.46031494451E+01 -0.64157581154E+01  0.10978660138E+02  0.51100000000E-03 0. -1.
        -11    1    3    3    0    0  0.15362923441E+01 -0.10076057996E+02 -0.13650048838E+02  0.17035579604E+02  0.51100000000E-03 0.  1.
        -12    1    3    3    0    0 -0.14461902797E+02  0.87704937783E+01 -0.14860667975E+02  0.22514609618E+02  0.00000000000E+00 0.  1.
</event>
<event>
 7    1  0.6073302E-013  0.5052886E+02  0.7816164E-02  0.1300439E+00
        -11   -1    0    0    0    0  0.00000000000E+00  0.00000000000E+00  0.45593999997E+02  0.45594000000E+02  0.51100000000E-03 0. -1.
         11   -1    0    0    0    0 -0.00000000000E+00 -0.00000000000E+00 -0.45593999997E+02  0.45594000000E+02  0.51100000000E-03 0.  1.
    9900012    2    1    2    0    0 -0.37194367406E+02 -0.16118172349E+02 -0.31542920746E+01  0.50528855825E+02  0.29999987764E+02 0.  0.
         12    1    1    2    0    0  0.37194367406E+02  0.16118172349E+02  0.31542920746E+01  0.40659144175E+02  0.00000000000E+00 0. -1.
         11    1    3    3    0    0 -0.10944712651E+00 -0.75984877640E+01 -0.14868460399E+01  0.77433653137E+01  0.51100000000E-03 0. -1.
        -11    1    3    3    0    0 -0.11459513944E+02  0.62930522389E+01 -0.17230979663E+01  0.13186812852E+02  0.51100000000E-03 0.  1.
        -12    1    3    3    0    0 -0.25625406335E+02 -0.14812736824E+02  0.55651931596E-01  0.29598677659E+02  0.00000000000E+00 0.  1.
</event>
<event>
 7    1  0.6073302E-013  0.5052886E+02  0.7816164E-02  0.1300439E+00
        -11   -1    0    0    0    0  0.00000000000E+00  0.00000000000E+00  0.45593999997E+02  0.45594000000E+02  0.51100000000E-03 0. -1.
         11   -1    0    0    0    0 -0.00000000000E+00 -0.00000000000E+00 -0.45593999997E+02  0.45594000000E+02  0.51100000000E-03 0.  1.
    9900012    2    1    2    0    0 -0.93435650062E+01 -0.22521926273E+01 -0.39506846895E+02  0.50528861664E+02  0.30000005513E+02 0.  0.
         12    1    1    2    0    0  0.93435650062E+01  0.22521926273E+01  0.39506846895E+02  0.40659138336E+02  0.00000000000E+00 0. -1.
         11    1    3    3    0    0 -0.86915241610E+01  0.61037927592E+01 -0.51652815494E+01  0.11810123286E+02  0.51100000000E-03 0. -1.
        -11    1    3    3    0    0  0.65168263247E+01 -0.12020456849E+01 -0.20658198193E+02  0.21695047638E+02  0.51100000000E-03 0.  1.
         12    1    3    3    0    0 -0.71688671699E+01 -0.71539397016E+01 -0.13683367153E+02  0.17023690740E+02  0.00000000000E+00 0. -1.
</event>
<event>
 7    1  0.6073302E-013  0.5052885E+02  0.7816164E-02  0.1300439E+00
        -11   -1    0    0    0    0  0.00000000000E+00  0.00000000000E+00  0.45593999997E+02  0.45594000000E+02  0.51100000000E-03 0.  1.
         11   -1    0    0    0    0 -0.00000000000E+00 -0.00000000000E+00 -0.45593999997E+02  0.45594000000E+02  0.51100000000E-03 0. -1.
    9900012    2    1    2    0    0 -0.10798473221E+01  0.18431612842E+02  0.36225347803E+02  0.50528852866E+02  0.29999978771E+02 0.  0.
         12    1    1    2    0    0  0.10798473221E+01 -0.18431612842E+02 -0.36225347803E+02  0.40659147134E+02  0.00000000000E+00 0. -1.
         11    1    3    3    0    0 -0.26404662025E+01  0.59746423141E+01  0.81039043833E+00  0.65821839439E+01  0.51100000000E-03 0. -1.
        -11    1    3    3    0    0 -0.60803388673E+01  0.42377015635E+01  0.31022221069E+02  0.31895247853E+02  0.51100000000E-03 0.  1.
        -12    1    3    3    0    0  0.76409577477E+01  0.82192689650E+01  0.43927362957E+01  0.12051421069E+02  0.00000000000E+00 0.  1.
</event>
<event>
 7    1  0.6073302E-013  0.5052885E+02  0.7816164E-02  0.1300439E+00
        -11   -1    0    0    0    0  0.00000000000E+00  0.00000000000E+00  0.45593999997E+02  0.45594000000E+02  0.51100000000E-03 0.  1.
         11   -1    0    0    0    0 -0.00000000000E+00 -0.00000000000E+00 -0.45593999997E+02  0.45594000000E+02  0.51100000000E-03 0. -1.
    9900012    2    1    2    0    0 -0.39503322140E+02 -0.21858927854E+00  0.96231962206E+01  0.50528854080E+02  0.29999982463E+02 0.  0.
         12    1    1    2    0    0  0.39503322140E+02  0.21858927854E+00 -0.96231962206E+01  0.40659145920E+02  0.00000000000E+00 0. -1.
         11    1    3    3    0    0 -0.13217479457E+02 -0.28520995304E+01  0.17103242646E+02  0.21802686628E+02  0.51100000000E-03 0.  1.
        -11    1    3    3    0    0 -0.15200235356E+02  0.51504676340E+01 -0.65027892971E+01  0.17316487537E+02  0.51100000000E-03 0. -1.
        -12    1    3    3    0    0 -0.11085607327E+02 -0.25169573822E+01 -0.97725712780E+00  0.11409679915E+02  0.00000000000E+00 0.  1.
</event>
<event>
 7    1  0.6073302E-013  0.5052886E+02  0.7816164E-02  0.1300439E+00
        -11   -1    0    0    0    0  0.00000000000E+00  0.00000000000E+00  0.45593999997E+02  0.45594000000E+02  0.51100000000E-03 0.  1.
         11   -1    0    0    0    0 -0.00000000000E+00 -0.00000000000E+00 -0.45593999997E+02  0.45594000000E+02  0.51100000000E-03 0. -1.
    9900012    2    1    2    0    0 -0.33526583665E+02  0.22814312812E+02 -0.29395781230E+01  0.50528858336E+02  0.29999995398E+02 0.  0.
         12    1    1    2    0    0  0.33526583665E+02 -0.22814312812E+02  0.29395781230E+01  0.40659141664E+02  0.00000000000E+00 0. -1.
         11    1    3    3    0    0 -0.30415800387E+01  0.10215773326E+02  0.10541944818E+01  0.10710955142E+02  0.51100000000E-03 0. -1.
        -11    1    3    3    0    0 -0.61601066371E+01 -0.59764043289E+01  0.15280279229E+01  0.87177515494E+01  0.51100000000E-03 0.  1.
        -12    1    3    3    0    0 -0.24324896989E+02  0.18574943815E+02 -0.55218005277E+01  0.31100151645E+02  0.00000000000E+00 0.  1.
</event>
<event>
 7    1  0.6073302E-013  0.5052886E+02  0.7816164E-02  0.1300439E+00
        -11   -1    0    0    0    0  0.00000000000E+00  0.00000000000E+00  0.45593999997E+02  0.45594000000E+02  0.51100000000E-03 0.  1.
         11   -1    0    0    0    0 -0.00000000000E+00 -0.00000000000E+00 -0.45593999997E+02  0.45594000000E+02  0.51100000000E-03 0. -1.
    9900012    2    1    2    0    0  0.30500921183E+02  0.25591989390E+02  0.82407467666E+01  0.50528855626E+02  0.29999987160E+02 0.  0.
         12    1    1    2    0    0 -0.30500921183E+02 -0.25591989390E+02 -0.82407467666E+01  0.40659144374E+02  0.00000000000E+00 0. -1.
         11    1    3    3    0    0  0.16224198737E+02  0.14474026199E+02 -0.67487443532E+01  0.22765491641E+02  0.51100000000E-03 0. -1.
        -11    1    3    3    0    0  0.44355931074E+01  0.11453320589E+02  0.12672059036E+02  0.17647496117E+02  0.51100000000E-03 0.  1.
        -12    1    3    3    0    0  0.98411293390E+01 -0.33535739755E+00  0.23174320839E+01  0.10115867868E+02  0.00000000000E+00 0.  1.
</event>
<event>
 7    1  0.6073302E-013  0.5052888E+02  0.7816164E-02  0.1300439E+00
        -11   -1    0    0    0    0  0.00000000000E+00  0.00000000000E+00  0.45593999997E+02  0.45594000000E+02  0.51100000000E-03 0. -1.
         11   -1    0    0    0    0 -0.00000000000E+00 -0.00000000000E+00 -0.45593999997E+02  0.45594000000E+02  0.51100000000E-03 0.  1.
    9900012    2    1    2    0    0  0.43949961668E+01  0.37706764205E+02 -0.14561869829E+02  0.50528879116E+02  0.30000058561E+02 0.  0.
         12    1    1    2    0    0 -0.43949961668E+01 -0.37706764205E+02  0.14561869829E+02  0.40659120884E+02  0.00000000000E+00 0. -1.
         11    1    3    3    0    0  0.10682246293E+02  0.13838114488E+02  0.25828494098E+01  0.17671301870E+02  0.51100000000E-03 0. -1.
        -11    1    3    3    0    0 -0.92008229720E+01  0.97131639518E+01 -0.10197436397E+02  0.16822259261E+02  0.51100000000E-03 0.  1.
         12    1    3    3    0    0  0.29135728459E+01  0.14155485765E+02 -0.69472828423E+01  0.16035317984E+02  0.00000000000E+00 0. -1.
</event>
<event>
 7    1  0.6073302E-013  0.5052886E+02  0.7816164E-02  0.1300439E+00
        -11   -1    0    0    0    0  0.00000000000E+00  0.00000000000E+00  0.45593999997E+02  0.45594000000E+02  0.51100000000E-03 0.  1.
         11   -1    0    0    0    0 -0.00000000000E+00 -0.00000000000E+00 -0.45593999997E+02  0.45594000000E+02  0.51100000000E-03 0. -1.
    9900012    2    1    2    0    0  0.38631778670E+01 -0.20560550079E+02  0.34864097896E+02  0.50528859762E+02  0.29999999732E+02 0.  0.
         12    1    1    2    0    0 -0.38631778670E+01  0.20560550079E+02 -0.34864097896E+02  0.40659140238E+02  0.00000000000E+00 0. -1.
         11    1    3    3    0    0 -0.29227378017E+01  0.34866381592E+01  0.70256019171E+00  0.46035456981E+01  0.51100000000E-03 0. -1.
        -11    1    3    3    0    0 -0.48146793263E+01 -0.14313468085E+02  0.20972045300E+02  0.25843436110E+02  0.51100000000E-03 0.  1.
        -12    1    3    3    0    0  0.11600594995E+02 -0.97337201535E+01  0.13189492405E+02  0.20081877954E+02  0.00000000000E+00 0.  1.
</event>
<event>
 7    1  0.6073302E-013  0.5052880E+02  0.7816164E-02  0.1300439E+00
        -11   -1    0    0    0    0  0.00000000000E+00  0.00000000000E+00  0.45593999997E+02  0.45594000000E+02  0.51100000000E-03 0. -1.
         11   -1    0    0    0    0 -0.00000000000E+00 -0.00000000000E+00 -0.45593999997E+02  0.45594000000E+02  0.51100000000E-03 0.  1.
    9900012    2    1    2    0    0  0.25534482932E+02 -0.74543803275E+01 -0.30750497075E+02  0.50528798396E+02  0.29999813205E+02 0.  0.
         12    1    1    2    0    0 -0.25534482932E+02  0.74543803275E+01  0.30750497075E+02  0.40659201604E+02  0.00000000000E+00 0. -1.
         11    1    3    3    0    0  0.26561881881E+02 -0.11481249330E+01 -0.16506843248E+02  0.31294210873E+02  0.51100000000E-03 0. -1.
        -11    1    3    3    0    0  0.25399527606E+01 -0.68212922314E+01 -0.38512602993E+01  0.82349009640E+01  0.51100000000E-03 0.  1.
         12    1    3    3    0    0 -0.35673517096E+01  0.51503683692E+00 -0.10392393528E+02  0.10999686559E+02  0.00000000000E+00 0. -1.
</event>
<event>
 7    1  0.6073302E-013  0.5052886E+02  0.7816164E-02  0.1300439E+00
        -11   -1    0    0    0    0  0.00000000000E+00  0.00000000000E+00  0.45593999997E+02  0.45594000000E+02  0.51100000000E-03 0.  1.
         11   -1    0    0    0    0 -0.00000000000E+00 -0.00000000000E+00 -0.45593999997E+02  0.45594000000E+02  0.51100000000E-03 0. -1.
    9900012    2    1    2    0    0 -0.25535808849E+02 -0.36432590455E+01  0.31429525789E+02  0.50528856362E+02  0.29999989398E+02 0.  0.
         12    1    1    2    0    0  0.25535808849E+02  0.36432590455E+01 -0.31429525789E+02  0.40659143638E+02  0.00000000000E+00 0. -1.
         11    1    3    3    0    0 -0.27883370010E+02  0.78160753291E+00  0.27771330157E+02  0.39361656627E+02  0.51100000000E-03 0. -1.
        -11    1    3    3    0    0  0.30973197726E+01  0.22400876977E+01  0.98705082828E+00  0.39478667994E+01  0.51100000000E-03 0.  1.
         12    1    3    3    0    0 -0.74975861226E+00 -0.66649542760E+01  0.26711448033E+01  0.72193329359E+01  0.00000000000E+00 0. -1.
</event>
<event>
 7    1  0.6073302E-013  0.5052886E+02  0.7816164E-02  0.1300439E+00
        -11   -1    0    0    0    0  0.00000000000E+00  0.00000000000E+00  0.45593999997E+02  0.45594000000E+02  0.51100000000E-03 0. -1.
         11   -1    0    0    0    0 -0.00000000000E+00 -0.00000000000E+00 -0.45593999997E+02  0.45594000000E+02  0.51100000000E-03 0.  1.
    9900012    2    1    2    0    0 -0.82486820835E+01  0.39710952386E+02 -0.28574508457E+01  0.50528861779E+02  0.30000005864E+02 0.  0.
         12    1    1    2    0    0  0.82486820835E+01 -0.39710952386E+02  0.28574508457E+01  0.40659138221E+02  0.00000000000E+00 0. -1.
         11    1    3    3    0    0 -0.88415491067E+00  0.26930913338E+02  0.21532842375E+01  0.27031323615E+02  0.51100000000E-03 0. -1.
        -11    1    3    3    0    0  0.43067414483E+01 -0.98951663384E+00 -0.29874298473E+01  0.53340324731E+01  0.51100000000E-03 0.  1.
        -12    1    3    3    0    0 -0.11671268621E+02  0.13769555682E+02 -0.20233052359E+01  0.18163505691E+02  0.00000000000E+00 0.  1.
</event>
<event>
 7    1  0.6073302E-013  0.5052886E+02  0.7816164E-02  0.1300439E+00
        -11   -1    0    0    0    0  0.00000000000E+00  0.00000000000E+00  0.45593999997E+02  0.45594000000E+02  0.51100000000E-03 0.  1.
         11   -1    0    0    0    0 -0.00000000000E+00 -0.00000000000E+00 -0.45593999997E+02  0.45594000000E+02  0.51100000000E-03 0. -1.
    9900012    2    1    2    0    0 -0.30308199894E+02  0.82657506398E+01  0.25811932141E+02  0.50528862585E+02  0.30000008315E+02 0.  0.
         12    1    1    2    0    0  0.30308199894E+02 -0.82657506398E+01 -0.25811932141E+02  0.40659137415E+02  0.00000000000E+00 0. -1.
         11    1    3    3    0    0  0.38535850762E+01  0.97999909054E+00 -0.26112546419E+01  0.47570124262E+01  0.51100000000E-03 0. -1.
        -11    1    3    3    0    0 -0.18844494131E+02  0.36603040569E+01  0.20725467999E+02  0.28249916971E+02  0.51100000000E-03 0.  1.
        -12    1    3    3    0    0 -0.15317290839E+02  0.36254474924E+01  0.76977187837E+01  0.17521933188E+02  0.00000000000E+00 0.  1.
</event>
<event>
 7    1  0.6073302E-013  0.5052886E+02  0.7816164E-02  0.1300439E+00
        -11   -1    0    0    0    0  0.00000000000E+00  0.00000000000E+00  0.45593999997E+02  0.45594000000E+02  0.51100000000E-03 0.  1.
         11   -1    0    0    0    0 -0.00000000000E+00 -0.00000000000E+00 -0.45593999997E+02  0.45594000000E+02  0.51100000000E-03 0. -1.
    9900012    2    1    2    0    0 -0.15943515353E+02  0.35712067920E+02  0.11118382047E+02  0.50528857162E+02  0.29999991831E+02 0.  0.
         12    1    1    2    0    0  0.15943515353E+02 -0.35712067920E+02 -0.11118382047E+02  0.40659142838E+02  0.00000000000E+00 0. -1.
         11    1    3    3    0    0 -0.16225454197E+02  0.19201258802E+02  0.10312388055E+02  0.27171658969E+02  0.51100000000E-03 0. -1.
        -11    1    3    3    0    0  0.48040270617E+01  0.32029031620E-01  0.36509499078E+01  0.60339984553E+01  0.51100000000E-03 0.  1.
        -12    1    3    3    0    0 -0.45220882183E+01  0.16478780086E+02 -0.28449559163E+01  0.17323199738E+02  0.00000000000E+00 0.  1.
</event>
<event>
 7    1  0.6073302E-013  0.5052886E+02  0.7816164E-02  0.1300439E+00
        -11   -1    0    0    0    0  0.00000000000E+00  0.00000000000E+00  0.45593999997E+02  0.45594000000E+02  0.51100000000E-03 0. -1.
         11   -1    0    0    0    0 -0.00000000000E+00 -0.00000000000E+00 -0.45593999997E+02  0.45594000000E+02  0.51100000000E-03 0.  1.
    9900012    2    1    2    0    0 -0.10812154223E+02 -0.21792386508E+02 -0.32578440141E+02  0.50528861413E+02  0.30000004750E+02 0.  0.
         12    1    1    2    0    0  0.10812154223E+02  0.21792386508E+02  0.32578440141E+02  0.40659138587E+02  0.00000000000E+00 0. -1.
         11    1    3    3    0    0 -0.57846171658E+01 -0.20602055414E+02 -0.11209152079E+02  0.24156812158E+02  0.51100000000E-03 0.  1.
        -11    1    3    3    0    0 -0.71880786616E+01 -0.35697820030E+01 -0.21704322668E+02  0.23140644786E+02  0.51100000000E-03 0. -1.
         12    1    3    3    0    0  0.21605416044E+01  0.23794509090E+01  0.33503460577E+00  0.32314044686E+01  0.00000000000E+00 0. -1.
</event>
<event>
 7    1  0.6073302E-013  0.5052886E+02  0.7816164E-02  0.1300439E+00
        -11   -1    0    0    0    0  0.00000000000E+00  0.00000000000E+00  0.45593999997E+02  0.45594000000E+02  0.51100000000E-03 0. -1.
         11   -1    0    0    0    0 -0.00000000000E+00 -0.00000000000E+00 -0.45593999997E+02  0.45594000000E+02  0.51100000000E-03 0.  1.
    9900012    2    1    2    0    0  0.26281024890E+02 -0.30873450109E+02 -0.30501090743E+01  0.50528863804E+02  0.30000012017E+02 0.  0.
         12    1    1    2    0    0 -0.26281024890E+02  0.30873450109E+02  0.30501090743E+01  0.40659136196E+02  0.00000000000E+00 0. -1.
         11    1    3    3    0    0  0.18588386909E+00 -0.95565430845E+01  0.91433359995E+01  0.13227345236E+02  0.51100000000E-03 0. -1.
        -11    1    3    3    0    0  0.17943547628E+02 -0.18364164975E+02 -0.52794823536E+01  0.26212332801E+02  0.51100000000E-03 0.  1.
         12    1    3    3    0    0  0.81515933929E+01 -0.29527420491E+01 -0.69139627202E+01  0.11089185766E+02  0.00000000000E+00 0. -1.
</event>
<event>
 7    1  0.6073302E-013  0.5052885E+02  0.7816164E-02  0.1300439E+00
        -11   -1    0    0    0    0  0.00000000000E+00  0.00000000000E+00  0.45593999997E+02  0.45594000000E+02  0.51100000000E-03 0.  1.
         11   -1    0    0    0    0 -0.00000000000E+00 -0.00000000000E+00 -0.45593999997E+02  0.45594000000E+02  0.51100000000E-03 0. -1.
    9900012    2    1    2    0    0 -0.26190133677E+02 -0.20216094114E+02  0.23633717595E+02  0.50528853790E+02  0.29999981579E+02 0.  0.
         12    1    1    2    0    0  0.26190133677E+02  0.20216094114E+02 -0.23633717595E+02  0.40659146210E+02  0.00000000000E+00 0. -1.
         11    1    3    3    0    0 -0.17336623143E+02 -0.58487735810E+01 -0.34045399373E+01  0.18610683675E+02  0.51100000000E-03 0. -1.
        -11    1    3    3    0    0 -0.21163782082E+01 -0.22122099730E+01  0.51125893237E+01  0.59591525856E+01  0.51100000000E-03 0.  1.
         12    1    3    3    0    0 -0.67371323249E+01 -0.12155110560E+02  0.21925668208E+02  0.25959017529E+02  0.00000000000E+00 0. -1.
</event>
<event>
 7    1  0.6073302E-013  0.5052883E+02  0.7816164E-02  0.1300439E+00
        -11   -1    0    0    0    0  0.00000000000E+00  0.00000000000E+00  0.45593999997E+02  0.45594000000E+02  0.51100000000E-03 0. -1.
         11   -1    0    0    0    0 -0.00000000000E+00 -0.00000000000E+00 -0.45593999997E+02  0.45594000000E+02  0.51100000000E-03 0.  1.
    9900012    2    1    2    0    0 -0.33418152345E+02 -0.10189246758E+02 -0.20798425430E+02  0.50528829373E+02  0.29999907363E+02 0.  0.
         12    1    1    2    0    0  0.33418152345E+02  0.10189246758E+02  0.20798425430E+02  0.40659170627E+02  0.00000000000E+00 0. -1.
         11    1    3    3    0    0 -0.11859675437E+02 -0.14279299263E+01 -0.40872133680E+01  0.12625220740E+02  0.51100000000E-03 0. -1.
        -11    1    3    3    0    0  0.13370692482E+01  0.39859194319E+01  0.29559645665E+01  0.51393613097E+01  0.51100000000E-03 0.  1.
        -12    1    3    3    0    0 -0.22895546156E+02 -0.12747236264E+02 -0.19667176629E+02  0.32764247324E+02  0.00000000000E+00 0.  1.
</event>
<event>
 7    1  0.6073302E-013  0.5052886E+02  0.7816164E-02  0.1300439E+00
        -11   -1    0    0    0    0  0.00000000000E+00  0.00000000000E+00  0.45593999997E+02  0.45594000000E+02  0.51100000000E-03 0. -1.
         11   -1    0    0    0    0 -0.00000000000E+00 -0.00000000000E+00 -0.45593999997E+02  0.45594000000E+02  0.51100000000E-03 0.  1.
    9900012    2    1    2    0    0  0.18419759066E+02  0.23846269450E+02 -0.27298970343E+02  0.50528857455E+02  0.29999992719E+02 0.  0.
         12    1    1    2    0    0 -0.18419759066E+02 -0.23846269450E+02  0.27298970343E+02  0.40659142545E+02  0.00000000000E+00 0. -1.
         11    1    3    3    0    0  0.12450686068E+02  0.95479192929E+01 -0.28864650291E+02  0.32853468356E+02  0.51100000000E-03 0. -1.
        -11    1    3    3    0    0  0.80241340812E+01  0.11083318882E+02  0.20250514204E+01  0.13832119097E+02  0.51100000000E-03 0.  1.
        -12    1    3    3    0    0 -0.20550610831E+01  0.32150312754E+01 -0.45937147286E+00  0.38432700019E+01  0.00000000000E+00 0.  1.
</event>
<event>
 7    1  0.6073302E-013  0.5052885E+02  0.7816164E-02  0.1300439E+00
        -11   -1    0    0    0    0  0.00000000000E+00  0.00000000000E+00  0.45593999997E+02  0.45594000000E+02  0.51100000000E-03 0.  1.
         11   -1    0    0    0    0 -0.00000000000E+00 -0.00000000000E+00 -0.45593999997E+02  0.45594000000E+02  0.51100000000E-03 0. -1.
    9900012    2    1    2    0    0  0.28405820588E+01  0.38896041800E+02  0.11497613704E+02  0.50528854718E+02  0.29999984402E+02 0.  0.
         12    1    1    2    0    0 -0.28405820588E+01 -0.38896041800E+02 -0.11497613704E+02  0.40659145282E+02  0.00000000000E+00 0. -1.
         11    1    3    3    0    0 -0.38384582746E+01  0.41816273628E+01 -0.54530618655E+01  0.78711913518E+01  0.51100000000E-03 0. -1.
        -11    1    3    3    0    0  0.11341800217E+02  0.15351600166E+02  0.10111537568E+02  0.21599797500E+02  0.51100000000E-03 0.  1.
        -12    1    3    3    0    0 -0.46627598834E+01  0.19362814271E+02  0.68391380014E+01  0.21057865866E+02  0.00000000000E+00 0.  1.
</event>
<event>
 7    1  0.6073302E-013  0.5052886E+02  0.7816164E-02  0.1300439E+00
        -11   -1    0    0    0    0  0.00000000000E+00  0.00000000000E+00  0.45593999997E+02  0.45594000000E+02  0.51100000000E-03 0. -1.
         11   -1    0    0    0    0 -0.00000000000E+00 -0.00000000000E+00 -0.45593999997E+02  0.45594000000E+02  0.51100000000E-03 0.  1.
    9900012    2    1    2    0    0  0.23635200818E+02  0.11938103219E+02 -0.30854893156E+02  0.50528862554E+02  0.30000008219E+02 0.  0.
         12    1    1    2    0    0 -0.23635200818E+02 -0.11938103219E+02  0.30854893156E+02  0.40659137446E+02  0.00000000000E+00 0. -1.
         11    1    3    3    0    0  0.13521862896E+02 -0.77452282300E+01 -0.15318478286E+02  0.21851432763E+02  0.51100000000E-03 0. -1.
        -11    1    3    3    0    0  0.80240451773E+01  0.73428194314E+01 -0.38055107826E+01  0.11523203148E+02  0.51100000000E-03 0.  1.
         12    1    3    3    0    0  0.20892927442E+01  0.12340512018E+02 -0.11730904088E+02  0.17154226643E+02  0.00000000000E+00 0. -1.
</event>
<event>
 7    1  0.6073302E-013  0.5052886E+02  0.7816164E-02  0.1300439E+00
        -11   -1    0    0    0    0  0.00000000000E+00  0.00000000000E+00  0.45593999997E+02  0.45594000000E+02  0.51100000000E-03 0. -1.
         11   -1    0    0    0    0 -0.00000000000E+00 -0.00000000000E+00 -0.45593999997E+02  0.45594000000E+02  0.51100000000E-03 0.  1.
    9900012    2    1    2    0    0 -0.22308408705E+02 -0.31265667176E+02 -0.13340106807E+02  0.50528862128E+02  0.30000006924E+02 0.  0.
         12    1    1    2    0    0  0.22308408705E+02  0.31265667176E+02  0.13340106807E+02  0.40659137872E+02  0.00000000000E+00 0. -1.
         11    1    3    3    0    0  0.12457248490E+01  0.31010752729E+01  0.33624232019E+01  0.47407160110E+01  0.51100000000E-03 0. -1.
        -11    1    3    3    0    0 -0.61462380240E+01 -0.97179265006E+01 -0.43540760476E+00  0.11506690113E+02  0.51100000000E-03 0.  1.
         12    1    3    3    0    0 -0.17407895530E+02 -0.24648815948E+02 -0.16267122404E+02  0.34281456004E+02  0.00000000000E+00 0. -1.
</event>
<event>
 7    1  0.6073302E-013  0.5052885E+02  0.7816164E-02  0.1300439E+00
        -11   -1    0    0    0    0  0.00000000000E+00  0.00000000000E+00  0.45593999997E+02  0.45594000000E+02  0.51100000000E-03 0.  1.
         11   -1    0    0    0    0 -0.00000000000E+00 -0.00000000000E+00 -0.45593999997E+02  0.45594000000E+02  0.51100000000E-03 0. -1.
    9900012    2    1    2    0    0  0.29893860550E+02  0.27292462240E+02 -0.38268849109E+01  0.50528850454E+02  0.29999971439E+02 0.  0.
         12    1    1    2    0    0 -0.29893860550E+02 -0.27292462240E+02  0.38268849109E+01  0.40659149546E+02  0.00000000000E+00 0. -1.
         11    1    3    3    0    0  0.21340966673E+02  0.20611407562E+02 -0.13452495723E+02  0.32576626923E+02  0.51100000000E-03 0. -1.
        -11    1    3    3    0    0  0.19507694948E+00  0.39182504718E+01 -0.11023846144E+01  0.40750452605E+01  0.51100000000E-03 0.  1.
         12    1    3    3    0    0  0.83578169276E+01  0.27628042062E+01  0.10727995426E+02  0.13877178270E+02  0.00000000000E+00 0. -1.
</event>
<event>
 7    1  0.6073302E-013  0.5052886E+02  0.7816164E-02  0.1300439E+00
        -11   -1    0    0    0    0  0.00000000000E+00  0.00000000000E+00  0.45593999997E+02  0.45594000000E+02  0.51100000000E-03 0.  1.
         11   -1    0    0    0    0 -0.00000000000E+00 -0.00000000000E+00 -0.45593999997E+02  0.45594000000E+02  0.51100000000E-03 0. -1.
    9900012    2    1    2    0    0  0.14579621408E+02 -0.34877533569E+02  0.14971900011E+02  0.50528862057E+02  0.30000006709E+02 0.  0.
         12    1    1    2    0    0 -0.14579621408E+02  0.34877533569E+02 -0.14971900011E+02  0.40659137943E+02  0.00000000000E+00 0. -1.
         11    1    3    3    0    0 -0.10770748932E+00 -0.19633318389E+02  0.59538906544E+01  0.20516520321E+02  0.51100000000E-03 0. -1.
        -11    1    3    3    0    0  0.19331470016E+02 -0.13478989150E+02  0.83354319200E+01  0.24997366002E+02  0.51100000000E-03 0.  1.
        -12    1    3    3    0    0 -0.46441411183E+01 -0.17652260297E+01  0.68257743698E+00  0.50149757347E+01  0.00000000000E+00 0.  1.
</event>
<event>
 7    1  0.6073302E-013  0.5052885E+02  0.7816164E-02  0.1300439E+00
        -11   -1    0    0    0    0  0.00000000000E+00  0.00000000000E+00  0.45593999997E+02  0.45594000000E+02  0.51100000000E-03 0.  1.
         11   -1    0    0    0    0 -0.00000000000E+00 -0.00000000000E+00 -0.45593999997E+02  0.45594000000E+02  0.51100000000E-03 0. -1.
    9900012    2    1    2    0    0 -0.36894794600E+02  0.73357776456E+01  0.15431353311E+02  0.50528853831E+02  0.29999981704E+02 0.  0.
         12    1    1    2    0    0  0.36894794600E+02 -0.73357776456E+01 -0.15431353311E+02  0.40659146169E+02  0.00000000000E+00 0. -1.
         11    1    3    3    0    0 -0.34855391123E+02  0.43053278722E-01  0.10848193374E+02  0.36504567436E+02  0.51100000000E-03 0.  1.
        -11    1    3    3    0    0  0.35499853647E+01  0.67479765855E+01  0.23248618376E+01  0.79713591635E+01  0.51100000000E-03 0. -1.
         12    1    3    3    0    0 -0.55893888412E+01  0.54474778140E+00  0.22582980998E+01  0.60529272316E+01  0.00000000000E+00 0. -1.
</event>
<event>
 7    1  0.6073302E-013  0.5052884E+02  0.7816164E-02  0.1300439E+00
        -11   -1    0    0    0    0  0.00000000000E+00  0.00000000000E+00  0.45593999997E+02  0.45594000000E+02  0.51100000000E-03 0. -1.
         11   -1    0    0    0    0 -0.00000000000E+00 -0.00000000000E+00 -0.45593999997E+02  0.45594000000E+02  0.51100000000E-03 0.  1.
    9900012    2    1    2    0    0 -0.71005878119E+01  0.32282429568E+02 -0.23676863601E+02  0.50528837735E+02  0.29999932779E+02 0.  0.
         12    1    1    2    0    0  0.71005878119E+01 -0.32282429568E+02  0.23676863601E+02  0.40659162265E+02  0.00000000000E+00 0. -1.
         11    1    3    3    0    0  0.45058285984E+01 -0.37520197577E+00 -0.62584898119E+01  0.77208783741E+01  0.51100000000E-03 0. -1.
        -11    1    3    3    0    0 -0.11166062500E+02  0.26528943704E+02 -0.21060398574E+02  0.35665195838E+02  0.51100000000E-03 0.  1.
        -12    1    3    3    0    0 -0.44035391018E+00  0.61286878400E+01  0.36420247847E+01  0.71427635226E+01  0.00000000000E+00 0.  1.
</event>
<event>
 7    1  0.6073302E-013  0.5052885E+02  0.7816164E-02  0.1300439E+00
        -11   -1    0    0    0    0  0.00000000000E+00  0.00000000000E+00  0.45593999997E+02  0.45594000000E+02  0.51100000000E-03 0. -1.
         11   -1    0    0    0    0 -0.00000000000E+00 -0.00000000000E+00 -0.45593999997E+02  0.45594000000E+02  0.51100000000E-03 0.  1.
    9900012    2    1    2    0    0 -0.10185387721E+02 -0.36175482232E+02 -0.15516394439E+02  0.50528854237E+02  0.29999982940E+02 0.  0.
         12    1    1    2    0    0  0.10185387721E+02  0.36175482232E+02  0.15516394439E+02  0.40659145763E+02  0.00000000000E+00 0. -1.
         11    1    3    3    0    0  0.85165123143E+01 -0.18552623988E+02 -0.40542401240E+01  0.20812681281E+02  0.51100000000E-03 0. -1.
        -11    1    3    3    0    0 -0.19348044439E+02 -0.14483909315E+02 -0.95700868776E+01  0.25994557426E+02  0.51100000000E-03 0.  1.
        -12    1    3    3    0    0  0.64614440399E+00 -0.31389489292E+01 -0.18920674377E+01  0.37216155309E+01  0.00000000000E+00 0.  1.
</event>
<event>
 7    1  0.6073302E-013  0.5052887E+02  0.7816164E-02  0.1300439E+00
        -11   -1    0    0    0    0  0.00000000000E+00  0.00000000000E+00  0.45593999997E+02  0.45594000000E+02  0.51100000000E-03 0. -1.
         11   -1    0    0    0    0 -0.00000000000E+00 -0.00000000000E+00 -0.45593999997E+02  0.45594000000E+02  0.51100000000E-03 0.  1.
    9900012    2    1    2    0    0 -0.32594758306E+02  0.80222938421E+01 -0.22943183058E+02  0.50528866754E+02  0.30000020984E+02 0.  0.
         12    1    1    2    0    0  0.32594758306E+02 -0.80222938421E+01  0.22943183058E+02  0.40659133246E+02  0.00000000000E+00 0. -1.
         11    1    3    3    0    0 -0.42318726825E+01 -0.19531627890E+01 -0.29309904592E+01  0.55058420441E+01  0.51100000000E-03 0.  1.
        -11    1    3    3    0    0 -0.61024185205E+00  0.25480113833E+00  0.58349788073E+01  0.58723331548E+01  0.51100000000E-03 0. -1.
        -12    1    3    3    0    0 -0.27752643771E+02  0.97206554928E+01 -0.25847171407E+02  0.39150691555E+02  0.00000000000E+00 0.  1.
</event>
<event>
 7    1  0.6073302E-013  0.5052885E+02  0.7816164E-02  0.1300439E+00
        -11   -1    0    0    0    0  0.00000000000E+00  0.00000000000E+00  0.45593999997E+02  0.45594000000E+02  0.51100000000E-03 0.  1.
         11   -1    0    0    0    0 -0.00000000000E+00 -0.00000000000E+00 -0.45593999997E+02  0.45594000000E+02  0.51100000000E-03 0. -1.
    9900012    2    1    2    0    0  0.31113859456E+02 -0.21237995151E+02  0.15298422172E+02  0.50528850854E+02  0.29999972656E+02 0.  0.
         12    1    1    2    0    0 -0.31113859456E+02  0.21237995151E+02 -0.15298422172E+02  0.40659149146E+02  0.00000000000E+00 0. -1.
         11    1    3    3    0    0 -0.12738100848E+01  0.46773980722E+01 -0.60108011711E+00  0.48848687215E+01  0.51100000000E-03 0. -1.
        -11    1    3    3    0    0  0.15631185562E+02 -0.16426482541E+02  0.13093297800E+02  0.26183921369E+02  0.51100000000E-03 0.  1.
         12    1    3    3    0    0  0.16756483979E+02 -0.94889106827E+01  0.28062044893E+01  0.19460060763E+02  0.00000000000E+00 0. -1.
</event>
<event>
 7    1  0.6073302E-013  0.5052886E+02  0.7816164E-02  0.1300439E+00
        -11   -1    0    0    0    0  0.00000000000E+00  0.00000000000E+00  0.45593999997E+02  0.45594000000E+02  0.51100000000E-03 0.  1.
         11   -1    0    0    0    0 -0.00000000000E+00 -0.00000000000E+00 -0.45593999997E+02  0.45594000000E+02  0.51100000000E-03 0. -1.
    9900012    2    1    2    0    0  0.74211278822E+01 -0.29495846621E+02  0.26983097460E+02  0.50528860124E+02  0.30000000833E+02 0.  0.
         12    1    1    2    0    0 -0.74211278822E+01  0.29495846621E+02 -0.26983097460E+02  0.40659139876E+02  0.00000000000E+00 0. -1.
         11    1    3    3    0    0 -0.85548195699E+01 -0.10804788542E+02  0.14190941852E+01  0.13854321415E+02  0.51100000000E-03 0. -1.
        -11    1    3    3    0    0  0.25795681637E+01 -0.99740578758E+01  0.94938027635E+01  0.14009578637E+02  0.51100000000E-03 0.  1.
         12    1    3    3    0    0  0.13396379288E+02 -0.87170002034E+01  0.16070200511E+02  0.22664960072E+02  0.00000000000E+00 0. -1.
</event>
<event>
 7    1  0.6073302E-013  0.5052886E+02  0.7816164E-02  0.1300439E+00
        -11   -1    0    0    0    0  0.00000000000E+00  0.00000000000E+00  0.45593999997E+02  0.45594000000E+02  0.51100000000E-03 0. -1.
         11   -1    0    0    0    0 -0.00000000000E+00 -0.00000000000E+00 -0.45593999997E+02  0.45594000000E+02  0.51100000000E-03 0.  1.
    9900012    2    1    2    0    0 -0.23886699239E+01  0.17573764190E+02 -0.36587190106E+02  0.50528863122E+02  0.30000009945E+02 0.  0.
         12    1    1    2    0    0  0.23886699239E+01 -0.17573764190E+02  0.36587190106E+02  0.40659136878E+02  0.00000000000E+00 0. -1.
         11    1    3    3    0    0  0.80326871689E+01  0.17699328619E+02 -0.15789830603E+02  0.25042145424E+02  0.51100000000E-03 0. -1.
        -11    1    3    3    0    0 -0.57920775094E+01  0.47351086597E+01 -0.75116961925E+01  0.10601650619E+02  0.51100000000E-03 0.  1.
         12    1    3    3    0    0 -0.46292795834E+01 -0.48606730886E+01 -0.13285663311E+02  0.14885067079E+02  0.00000000000E+00 0. -1.
</event>
<event>
 7    1  0.6073302E-013  0.5052886E+02  0.7816164E-02  0.1300439E+00
        -11   -1    0    0    0    0  0.00000000000E+00  0.00000000000E+00  0.45593999997E+02  0.45594000000E+02  0.51100000000E-03 0. -1.
         11   -1    0    0    0    0 -0.00000000000E+00 -0.00000000000E+00 -0.45593999997E+02  0.45594000000E+02  0.51100000000E-03 0.  1.
    9900012    2    1    2    0    0 -0.39744250268E+02  0.69071907794E+00 -0.85488806612E+01  0.50528857328E+02  0.29999992335E+02 0.  0.
         12    1    1    2    0    0  0.39744250268E+02 -0.69071907794E+00  0.85488806612E+01  0.40659142672E+02  0.00000000000E+00 0. -1.
         11    1    3    3    0    0 -0.32903792330E+02 -0.81085852515E+01 -0.60478744863E+01  0.34423618208E+02  0.51100000000E-03 0. -1.
        -11    1    3    3    0    0 -0.60108097783E+00  0.83072159781E+01 -0.45863858060E+01  0.95082106977E+01  0.51100000000E-03 0.  1.
         12    1    3    3    0    0 -0.62393769610E+01  0.49208835139E+00  0.20853796311E+01  0.65970284229E+01  0.00000000000E+00 0. -1.
</event>
<event>
 7    1  0.6073302E-013  0.5052886E+02  0.7816164E-02  0.1300439E+00
        -11   -1    0    0    0    0  0.00000000000E+00  0.00000000000E+00  0.45593999997E+02  0.45594000000E+02  0.51100000000E-03 0.  1.
         11   -1    0    0    0    0 -0.00000000000E+00 -0.00000000000E+00 -0.45593999997E+02  0.45594000000E+02  0.51100000000E-03 0. -1.
    9900012    2    1    2    0    0  0.26888603093E+01  0.39438501461E+02 -0.95152517683E+01  0.50528863469E+02  0.30000010999E+02 0.  0.
         12    1    1    2    0    0 -0.26888603093E+01 -0.39438501461E+02  0.95152517683E+01  0.40659136531E+02  0.00000000000E+00 0. -1.
         11    1    3    3    0    0 -0.74020254990E+01 -0.14022480835E+00  0.26390419831E+01  0.78596556753E+01  0.51100000000E-03 0. -1.
        -11    1    3    3    0    0  0.34572693650E+01  0.13861357869E+02 -0.31879533912E+01  0.14637383664E+02  0.51100000000E-03 0.  1.
         12    1    3    3    0    0  0.66336164433E+01  0.25717368401E+02 -0.89663403602E+01  0.28031824130E+02  0.00000000000E+00 0. -1.
</event>
<event>
 7    1  0.6073302E-013  0.5052886E+02  0.7816164E-02  0.1300439E+00
        -11   -1    0    0    0    0  0.00000000000E+00  0.00000000000E+00  0.45593999997E+02  0.45594000000E+02  0.51100000000E-03 0.  1.
         11   -1    0    0    0    0 -0.00000000000E+00 -0.00000000000E+00 -0.45593999997E+02  0.45594000000E+02  0.51100000000E-03 0. -1.
    9900012    2    1    2    0    0 -0.30153452559E+02 -0.13488376892E+02  0.23706515344E+02  0.50528857336E+02  0.29999992360E+02 0.  0.
         12    1    1    2    0    0  0.30153452559E+02  0.13488376892E+02 -0.23706515344E+02  0.40659142664E+02  0.00000000000E+00 0. -1.
         11    1    3    3    0    0 -0.10860491613E+02  0.25554894230E+01  0.19472554958E+02  0.22442397401E+02  0.51100000000E-03 0. -1.
        -11    1    3    3    0    0 -0.19417127716E+02 -0.10402734277E+02  0.24260236042E+01  0.22161392555E+02  0.51100000000E-03 0.  1.
         12    1    3    3    0    0  0.12416677072E+00 -0.56411320375E+01  0.18079367816E+01  0.59250673800E+01  0.00000000000E+00 0. -1.
</event>
<event>
 7    1  0.6073302E-013  0.5052881E+02  0.7816164E-02  0.1300439E+00
        -11   -1    0    0    0    0  0.00000000000E+00  0.00000000000E+00  0.45593999997E+02  0.45594000000E+02  0.51100000000E-03 0.  1.
         11   -1    0    0    0    0 -0.00000000000E+00 -0.00000000000E+00 -0.45593999997E+02  0.45594000000E+02  0.51100000000E-03 0. -1.
    9900012    2    1    2    0    0  0.24792382750E+02 -0.31824448483E+02  0.50707321096E+01  0.50528805618E+02  0.29999835155E+02 0.  0.
         12    1    1    2    0    0 -0.24792382750E+02  0.31824448483E+02 -0.50707321096E+01  0.40659194382E+02  0.00000000000E+00 0. -1.
         11    1    3    3    0    0  0.66374617586E+01 -0.22003409370E+02  0.35901606823E+01  0.23261452587E+02  0.51100000000E-03 0.  1.
        -11    1    3    3    0    0 -0.71555916000E+00  0.37677913057E+01 -0.74572196331E+00  0.39069652855E+01  0.51100000000E-03 0. -1.
        -12    1    3    3    0    0  0.18870480152E+02 -0.13588830420E+02  0.22262933906E+01  0.23360387745E+02  0.00000000000E+00 0.  1.
</event>
<event>
 7    1  0.6073302E-013  0.5052885E+02  0.7816164E-02  0.1300439E+00
        -11   -1    0    0    0    0  0.00000000000E+00  0.00000000000E+00  0.45593999997E+02  0.45594000000E+02  0.51100000000E-03 0.  1.
         11   -1    0    0    0    0 -0.00000000000E+00 -0.00000000000E+00 -0.45593999997E+02  0.45594000000E+02  0.51100000000E-03 0. -1.
    9900012    2    1    2    0    0  0.11636673633E+02  0.11231692531E+02  0.37304196437E+02  0.50528853892E+02  0.29999981891E+02 0.  0.
         12    1    1    2    0    0 -0.11636673633E+02 -0.11231692531E+02 -0.37304196437E+02  0.40659146108E+02  0.00000000000E+00 0. -1.
         11    1    3    3    0    0 -0.21758359889E+01 -0.74319434890E+00 -0.32988677457E+01  0.40210855196E+01  0.51100000000E-03 0. -1.
        -11    1    3    3    0    0  0.12159028175E+01  0.86555933594E+01  0.23031057277E+02  0.24633865219E+02  0.51100000000E-03 0.  1.
        -12    1    3    3    0    0  0.12596606805E+02  0.33192935205E+01  0.17572006906E+02  0.21873903153E+02  0.00000000000E+00 0.  1.
</event>
<event>
 7    1  0.6073302E-013  0.5052892E+02  0.7816164E-02  0.1300439E+00
        -11   -1    0    0    0    0  0.00000000000E+00  0.00000000000E+00  0.45593999997E+02  0.45594000000E+02  0.51100000000E-03 0.  1.
         11   -1    0    0    0    0 -0.00000000000E+00 -0.00000000000E+00 -0.45593999997E+02  0.45594000000E+02  0.51100000000E-03 0. -1.
    9900012    2    1    2    0    0 -0.16439435407E+02 -0.18073282807E+02  0.32500183248E+02  0.50528923534E+02  0.30000193573E+02 0.  0.
         12    1    1    2    0    0  0.16439435407E+02  0.18073282807E+02 -0.32500183248E+02  0.40659076466E+02  0.00000000000E+00 0. -1.
         11    1    3    3    0    0 -0.22916439392E+02 -0.18403710386E+02  0.27714194243E+02  0.40397231504E+02  0.51100000000E-03 0. -1.
        -11    1    3    3    0    0  0.33412322031E+01 -0.27555719983E+00  0.58691788606E+01  0.67592177923E+01  0.51100000000E-03 0.  1.
         12    1    3    3    0    0  0.31357717813E+01  0.60598477896E+00 -0.10831898560E+01  0.33724742373E+01  0.00000000000E+00 0. -1.
</event>
<event>
 7    1  0.6073302E-013  0.5052886E+02  0.7816164E-02  0.1300439E+00
        -11   -1    0    0    0    0  0.00000000000E+00  0.00000000000E+00  0.45593999997E+02  0.45594000000E+02  0.51100000000E-03 0. -1.
         11   -1    0    0    0    0 -0.00000000000E+00 -0.00000000000E+00 -0.45593999997E+02  0.45594000000E+02  0.51100000000E-03 0.  1.
    9900012    2    1    2    0    0  0.18513648713E+02  0.34814396722E+02 -0.99180753988E+01  0.50528860469E+02  0.30000001882E+02 0.  0.
         12    1    1    2    0    0 -0.18513648713E+02 -0.34814396722E+02  0.99180753988E+01  0.40659139531E+02  0.00000000000E+00 0. -1.
         11    1    3    3    0    0  0.70581167187E+00 -0.68235547133E+00 -0.10655567285E+02  0.10700695937E+02  0.51100000000E-03 0. -1.
        -11    1    3    3    0    0  0.91515584771E+01  0.20772238409E+02 -0.48489525341E+00  0.22704009222E+02  0.51100000000E-03 0.  1.
         12    1    3    3    0    0  0.86562785636E+01  0.14724513784E+02  0.12223871399E+01  0.17124155310E+02  0.00000000000E+00 0. -1.
</event>
<event>
 7    1  0.6073302E-013  0.5052885E+02  0.7816164E-02  0.1300439E+00
        -11   -1    0    0    0    0  0.00000000000E+00  0.00000000000E+00  0.45593999997E+02  0.45594000000E+02  0.51100000000E-03 0.  1.
         11   -1    0    0    0    0 -0.00000000000E+00 -0.00000000000E+00 -0.45593999997E+02  0.45594000000E+02  0.51100000000E-03 0. -1.
    9900012    2    1    2    0    0  0.14208443721E+02 -0.22610269626E+02  0.30660431133E+02  0.50528853393E+02  0.29999980374E+02 0.  0.
         12    1    1    2    0    0 -0.14208443721E+02  0.22610269626E+02 -0.30660431133E+02  0.40659146607E+02  0.00000000000E+00 0. -1.
         11    1    3    3    0    0  0.26729986629E+01  0.35671257266E+01  0.69210022710E+01  0.82322281612E+01  0.51100000000E-03 0. -1.
        -11    1    3    3    0    0  0.10160151069E+02 -0.26360137216E+02  0.26797657838E+02  0.38938412521E+02  0.51100000000E-03 0.  1.
        -12    1    3    3    0    0  0.13752939895E+01  0.18274186340E+00 -0.30582289757E+01  0.33582127113E+01  0.00000000000E+00 0.  1.
</event>
<event>
 7    1  0.6073302E-013  0.5052896E+02  0.7816164E-02  0.1300438E+00
        -11   -1    0    0    0    0  0.00000000000E+00  0.00000000000E+00  0.45593999997E+02  0.45594000000E+02  0.51100000000E-03 0.  1.
         11   -1    0    0    0    0 -0.00000000000E+00 -0.00000000000E+00 -0.45593999997E+02  0.45594000000E+02  0.51100000000E-03 0. -1.
    9900012    2    1    2    0    0  0.14343306982E+01 -0.11662082185E+02  0.38924234170E+02  0.50528960769E+02  0.30000306752E+02 0.  0.
         12    1    1    2    0    0 -0.14343306982E+01  0.11662082185E+02 -0.38924234170E+02  0.40659039231E+02  0.00000000000E+00 0. -1.
         11    1    3    3    0    0 -0.39466750461E+00  0.88368978172E+01  0.11962350565E+02  0.14877646211E+02  0.51100000000E-03 0. -1.
        -11    1    3    3    0    0 -0.31378299758E+01 -0.95111592090E+01  0.66248126353E+01  0.12008175097E+02  0.51100000000E-03 0.  1.
         12    1    3    3    0    0  0.49668281786E+01 -0.10987820793E+02  0.20337070970E+02  0.23643139461E+02  0.00000000000E+00 0. -1.
</event>
<event>
 7    1  0.6073302E-013  0.5052886E+02  0.7816164E-02  0.1300439E+00
        -11   -1    0    0    0    0  0.00000000000E+00  0.00000000000E+00  0.45593999997E+02  0.45594000000E+02  0.51100000000E-03 0.  1.
         11   -1    0    0    0    0 -0.00000000000E+00 -0.00000000000E+00 -0.45593999997E+02  0.45594000000E+02  0.51100000000E-03 0. -1.
    9900012    2    1    2    0    0 -0.27777167633E+02 -0.29120446156E+02  0.57960532762E+01  0.50528860073E+02  0.30000000677E+02 0.  0.
         12    1    1    2    0    0  0.27777167633E+02  0.29120446156E+02 -0.57960532762E+01  0.40659139927E+02  0.00000000000E+00 0. -1.
         11    1    3    3    0    0 -0.34126949408E+01  0.16744605722E+01  0.89130977601E+01  0.96898718726E+01  0.51100000000E-03 0. -1.
        -11    1    3    3    0    0 -0.79295884526E+01 -0.13045573814E+02  0.36971595932E+01  0.15707780190E+02  0.51100000000E-03 0.  1.
         12    1    3    3    0    0 -0.16434884239E+02 -0.17749332914E+02 -0.68142040770E+01  0.25131208011E+02  0.00000000000E+00 0. -1.
</event>
<event>
 7    1  0.6073302E-013  0.5052892E+02  0.7816164E-02  0.1300439E+00
        -11   -1    0    0    0    0  0.00000000000E+00  0.00000000000E+00  0.45593999997E+02  0.45594000000E+02  0.51100000000E-03 0.  1.
         11   -1    0    0    0    0 -0.00000000000E+00 -0.00000000000E+00 -0.45593999997E+02  0.45594000000E+02  0.51100000000E-03 0. -1.
    9900012    2    1    2    0    0 -0.23114972769E+02 -0.33313696082E+02  0.30093821576E+01  0.50528921140E+02  0.30000186297E+02 0.  0.
         12    1    1    2    0    0  0.23114972769E+02  0.33313696082E+02 -0.30093821576E+01  0.40659078860E+02  0.00000000000E+00 0. -1.
         11    1    3    3    0    0 -0.91777679564E+01 -0.22295811675E+02 -0.11412836779E+02  0.26675597210E+02  0.51100000000E-03 0. -1.
        -11    1    3    3    0    0 -0.40195908644E+01 -0.47269582436E+01  0.89648385413E+01  0.10902732469E+02  0.51100000000E-03 0.  1.
        -12    1    3    3    0    0 -0.99176139477E+01 -0.62909261642E+01  0.54573803958E+01  0.12950591462E+02  0.00000000000E+00 0.  1.
</event>
<event>
 7    1  0.6073302E-013  0.5052886E+02  0.7816164E-02  0.1300439E+00
        -11   -1    0    0    0    0  0.00000000000E+00  0.00000000000E+00  0.45593999997E+02  0.45594000000E+02  0.51100000000E-03 0. -1.
         11   -1    0    0    0    0 -0.00000000000E+00 -0.00000000000E+00 -0.45593999997E+02  0.45594000000E+02  0.51100000000E-03 0.  1.
    9900012    2    1    2    0    0 -0.27735901952E+02  0.50596116004E+01 -0.29296509496E+02  0.50528863323E+02  0.30000010557E+02 0.  0.
         12    1    1    2    0    0  0.27735901952E+02 -0.50596116004E+01  0.29296509496E+02  0.40659136677E+02  0.00000000000E+00 0. -1.
         11    1    3    3    0    0 -0.23002444374E+01 -0.78821019352E-01  0.48567309068E+01  0.53744927749E+01  0.51100000000E-03 0. -1.
        -11    1    3    3    0    0 -0.12525606857E+02 -0.41557014323E+01 -0.11696695602E+02  0.17634437042E+02  0.51100000000E-03 0.  1.
         12    1    3    3    0    0 -0.12910050658E+02  0.92941340520E+01 -0.22456544802E+02  0.27519933506E+02  0.00000000000E+00 0. -1.
</event>
<event>
 7    1  0.6073302E-013  0.5052886E+02  0.7816164E-02  0.1300439E+00
        -11   -1    0    0    0    0  0.00000000000E+00  0.00000000000E+00  0.45593999997E+02  0.45594000000E+02  0.51100000000E-03 0.  1.
         11   -1    0    0    0    0 -0.00000000000E+00 -0.00000000000E+00 -0.45593999997E+02  0.45594000000E+02  0.51100000000E-03 0. -1.
    9900012    2    1    2    0    0  0.11094861972E+02  0.38371679436E+02  0.75950055084E+01  0.50528857688E+02  0.29999993427E+02 0.  0.
         12    1    1    2    0    0 -0.11094861972E+02 -0.38371679436E+02 -0.75950055084E+01  0.40659142312E+02  0.00000000000E+00 0. -1.
         11    1    3    3    0    0  0.45083745693E+01 -0.11570392816E+01 -0.13933148884E+01  0.48585499685E+01  0.51100000000E-03 0. -1.
        -11    1    3    3    0    0 -0.57446447740E+01  0.22845592088E+02  0.80827109682E+01  0.24904863747E+02  0.51100000000E-03 0.  1.
        -12    1    3    3    0    0  0.12331132177E+02  0.16683126630E+02  0.90560942860E+00  0.20765443972E+02  0.00000000000E+00 0.  1.
</event>
<event>
 7    1  0.6073302E-013  0.5052887E+02  0.7816164E-02  0.1300439E+00
        -11   -1    0    0    0    0  0.00000000000E+00  0.00000000000E+00  0.45593999997E+02  0.45594000000E+02  0.51100000000E-03 0. -1.
         11   -1    0    0    0    0 -0.00000000000E+00 -0.00000000000E+00 -0.45593999997E+02  0.45594000000E+02  0.51100000000E-03 0.  1.
    9900012    2    1    2    0    0 -0.36615648778E+02  0.12239851631E+02 -0.12753244215E+02  0.50528868905E+02  0.30000027524E+02 0.  0.
         12    1    1    2    0    0  0.36615648778E+02 -0.12239851631E+02  0.12753244215E+02  0.40659131095E+02  0.00000000000E+00 0. -1.
         11    1    3    3    0    0 -0.15289537480E+02 -0.36272330832E+01 -0.40441570248E+01  0.16225966304E+02  0.51100000000E-03 0. -1.
        -11    1    3    3    0    0 -0.18075102201E+02  0.20451874338E+02 -0.55415541914E+01  0.27851342995E+02  0.51100000000E-03 0.  1.
        -12    1    3    3    0    0 -0.32510090973E+01 -0.45847896242E+01 -0.31675329989E+01  0.64515596058E+01  0.00000000000E+00 0.  1.
</event>
<event>
 7    1  0.6073302E-013  0.5052886E+02  0.7816164E-02  0.1300439E+00
        -11   -1    0    0    0    0  0.00000000000E+00  0.00000000000E+00  0.45593999997E+02  0.45594000000E+02  0.51100000000E-03 0. -1.
         11   -1    0    0    0    0 -0.00000000000E+00 -0.00000000000E+00 -0.45593999997E+02  0.45594000000E+02  0.51100000000E-03 0.  1.
    9900012    2    1    2    0    0  0.26505969623E+02 -0.30339305469E+02  0.54887204832E+01  0.50528856692E+02  0.29999990400E+02 0.  0.
         12    1    1    2    0    0 -0.26505969623E+02  0.30339305469E+02 -0.54887204832E+01  0.40659143308E+02  0.00000000000E+00 0. -1.
         11    1    3    3    0    0  0.42168268329E+00 -0.82002550249E+00 -0.64058469881E+01  0.64718725270E+01  0.51100000000E-03 0. -1.
        -11    1    3    3    0    0  0.58600300512E+01 -0.11018217606E+02  0.10994942196E+02  0.16632192446E+02  0.51100000000E-03 0.  1.
        -12    1    3    3    0    0  0.20224256888E+02 -0.18501062361E+02  0.89962527536E+00  0.27424791719E+02  0.00000000000E+00 0.  1.
</event>
<event>
 7    1  0.6073302E-013  0.5052886E+02  0.7816164E-02  0.1300439E+00
        -11   -1    0    0    0    0  0.00000000000E+00  0.00000000000E+00  0.45593999997E+02  0.45594000000E+02  0.51100000000E-03 0.  1.
         11   -1    0    0    0    0 -0.00000000000E+00 -0.00000000000E+00 -0.45593999997E+02  0.45594000000E+02  0.51100000000E-03 0. -1.
    9900012    2    1    2    0    0  0.17916761411E+02  0.24311677986E+02  0.27223114183E+02  0.50528856234E+02  0.29999989010E+02 0.  0.
         12    1    1    2    0    0 -0.17916761411E+02 -0.24311677986E+02 -0.27223114183E+02  0.40659143766E+02  0.00000000000E+00 0. -1.
         11    1    3    3    0    0  0.11202505390E+02  0.27899633586E+02  0.25807410445E+02  0.39622066016E+02  0.51100000000E-03 0.  1.
        -11    1    3    3    0    0  0.35042442316E+01 -0.38551274751E+01 -0.25478430037E+01  0.57994171877E+01  0.51100000000E-03 0. -1.
         12    1    3    3    0    0  0.32100117893E+01  0.26717187418E+00  0.39635467420E+01  0.51073730306E+01  0.00000000000E+00 0. -1.
</event>
<event>
 7    1  0.6073302E-013  0.5052879E+02  0.7816164E-02  0.1300439E+00
        -11   -1    0    0    0    0  0.00000000000E+00  0.00000000000E+00  0.45593999997E+02  0.45594000000E+02  0.51100000000E-03 0.  1.
         11   -1    0    0    0    0 -0.00000000000E+00 -0.00000000000E+00 -0.45593999997E+02  0.45594000000E+02  0.51100000000E-03 0. -1.
    9900012    2    1    2    0    0  0.39679816708E+02 -0.26172932496E+01  0.84754567288E+01  0.50528788931E+02  0.29999784435E+02 0.  0.
         12    1    1    2    0    0 -0.39679816708E+02  0.26172932496E+01 -0.84754567288E+01  0.40659211069E+02  0.00000000000E+00 0. -1.
         11    1    3    3    0    0  0.21388597289E+02 -0.34192032717E+01  0.75123395404E-01  0.21660302140E+02  0.51100000000E-03 0. -1.
        -11    1    3    3    0    0 -0.33019055332E+01  0.20276284597E+01  0.59524683453E+01  0.71025162431E+01  0.51100000000E-03 0.  1.
        -12    1    3    3    0    0  0.21593124953E+02 -0.12257184376E+01  0.24478649881E+01  0.21765970549E+02  0.00000000000E+00 0.  1.
</event>
<event>
 7    1  0.6073302E-013  0.5052885E+02  0.7816164E-02  0.1300439E+00
        -11   -1    0    0    0    0  0.00000000000E+00  0.00000000000E+00  0.45593999997E+02  0.45594000000E+02  0.51100000000E-03 0.  1.
         11   -1    0    0    0    0 -0.00000000000E+00 -0.00000000000E+00 -0.45593999997E+02  0.45594000000E+02  0.51100000000E-03 0. -1.
    9900012    2    1    2    0    0  0.30176261167E+02 -0.10158956913E+01  0.27230999235E+02  0.50528854640E+02  0.29999984164E+02 0.  0.
         12    1    1    2    0    0 -0.30176261167E+02  0.10158956913E+01 -0.27230999235E+02  0.40659145360E+02  0.00000000000E+00 0. -1.
         11    1    3    3    0    0  0.81571289141E+01  0.12741074298E+02  0.97970520321E+01  0.18023760849E+02  0.51100000000E-03 0. -1.
        -11    1    3    3    0    0  0.34028930948E+01 -0.49022901875E+01  0.76054342028E+01  0.96672002240E+01  0.51100000000E-03 0.  1.
         12    1    3    3    0    0  0.18616239158E+02 -0.88546798014E+01  0.98285129996E+01  0.22837893567E+02  0.00000000000E+00 0. -1.
</event>
<event>
 7    1  0.6073302E-013  0.5052887E+02  0.7816164E-02  0.1300439E+00
        -11   -1    0    0    0    0  0.00000000000E+00  0.00000000000E+00  0.45593999997E+02  0.45594000000E+02  0.51100000000E-03 0.  1.
         11   -1    0    0    0    0 -0.00000000000E+00 -0.00000000000E+00 -0.45593999997E+02  0.45594000000E+02  0.51100000000E-03 0. -1.
    9900012    2    1    2    0    0 -0.13612084217E+02 -0.24164634876E+02  0.29731235816E+02  0.50528870662E+02  0.30000032863E+02 0.  0.
         12    1    1    2    0    0  0.13612084217E+02  0.24164634876E+02 -0.29731235816E+02  0.40659129338E+02  0.00000000000E+00 0. -1.
         11    1    3    3    0    0 -0.28054786224E+01  0.41090266230E+01  0.23058719189E+01  0.54837811460E+01  0.51100000000E-03 0. -1.
        -11    1    3    3    0    0 -0.11466154725E+02 -0.22937958965E+02  0.11256689352E+02  0.28005994377E+02  0.51100000000E-03 0.  1.
        -12    1    3    3    0    0  0.65954913028E+00 -0.53357025344E+01  0.16168674545E+02  0.17039095138E+02  0.00000000000E+00 0.  1.
</event>
<event>
 7    1  0.6073302E-013  0.5052886E+02  0.7816164E-02  0.1300439E+00
        -11   -1    0    0    0    0  0.00000000000E+00  0.00000000000E+00  0.45593999997E+02  0.45594000000E+02  0.51100000000E-03 0.  1.
         11   -1    0    0    0    0 -0.00000000000E+00 -0.00000000000E+00 -0.45593999997E+02  0.45594000000E+02  0.51100000000E-03 0. -1.
    9900012    2    1    2    0    0  0.39199219520E+02 -0.49092476392E+01  0.96169791093E+01  0.50528858217E+02  0.29999995035E+02 0.  0.
         12    1    1    2    0    0 -0.39199219520E+02  0.49092476392E+01 -0.96169791093E+01  0.40659141783E+02  0.00000000000E+00 0. -1.
         11    1    3    3    0    0 -0.24973354959E+01 -0.68173663818E+01  0.28378693089E+01  0.77952980340E+01  0.51100000000E-03 0. -1.
        -11    1    3    3    0    0  0.88791980447E+01 -0.17027454170E+01  0.28804654717E+01  0.94887607972E+01  0.51100000000E-03 0.  1.
         12    1    3    3    0    0  0.32817356971E+02  0.36108641595E+01  0.38986443287E+01  0.33244799385E+02  0.00000000000E+00 0. -1.
</event>
<event>
 7    1  0.6073302E-013  0.5052886E+02  0.7816164E-02  0.1300439E+00
        -11   -1    0    0    0    0  0.00000000000E+00  0.00000000000E+00  0.45593999997E+02  0.45594000000E+02  0.51100000000E-03 0. -1.
         11   -1    0    0    0    0 -0.00000000000E+00 -0.00000000000E+00 -0.45593999997E+02  0.45594000000E+02  0.51100000000E-03 0.  1.
    9900012    2    1    2    0    0 -0.33038067345E+02 -0.98412646578E+01  0.21559250809E+02  0.50528859829E+02  0.29999999936E+02 0.  0.
         12    1    1    2    0    0  0.33038067345E+02  0.98412646578E+01 -0.21559250809E+02  0.40659140171E+02  0.00000000000E+00 0. -1.
         11    1    3    3    0    0 -0.15861894095E+02  0.77241357174E+01  0.24067545458E+01  0.17806022144E+02  0.51100000000E-03 0. -1.
        -11    1    3    3    0    0 -0.16627468036E+02 -0.12258422538E+02  0.17673704847E+02  0.27186420502E+02  0.51100000000E-03 0.  1.
         12    1    3    3    0    0 -0.54870521427E+00 -0.53069778373E+01  0.14787914164E+01  0.55364171836E+01  0.00000000000E+00 0. -1.
</event>
<event>
 7    1  0.6073302E-013  0.5052887E+02  0.7816164E-02  0.1300439E+00
        -11   -1    0    0    0    0  0.00000000000E+00  0.00000000000E+00  0.45593999997E+02  0.45594000000E+02  0.51100000000E-03 0. -1.
         11   -1    0    0    0    0 -0.00000000000E+00 -0.00000000000E+00 -0.45593999997E+02  0.45594000000E+02  0.51100000000E-03 0.  1.
    9900012    2    1    2    0    0 -0.11184686607E+02 -0.35166969683E+02  0.17069040818E+02  0.50528866639E+02  0.30000020637E+02 0.  0.
         12    1    1    2    0    0  0.11184686607E+02  0.35166969683E+02 -0.17069040818E+02  0.40659133361E+02  0.00000000000E+00 0. -1.
         11    1    3    3    0    0 -0.13972465578E+02 -0.14245274876E+02  0.19715782488E+02  0.28051198370E+02  0.51100000000E-03 0. -1.
        -11    1    3    3    0    0  0.52143015189E+01 -0.15884170375E+02 -0.22979503680E+01  0.16875318811E+02  0.51100000000E-03 0.  1.
        -12    1    3    3    0    0 -0.24265225478E+01 -0.50375244323E+01 -0.34879130140E+00  0.56023494583E+01  0.00000000000E+00 0.  1.
</event>
<event>
 7    1  0.6073302E-013  0.5052886E+02  0.7816164E-02  0.1300439E+00
        -11   -1    0    0    0    0  0.00000000000E+00  0.00000000000E+00  0.45593999997E+02  0.45594000000E+02  0.51100000000E-03 0.  1.
         11   -1    0    0    0    0 -0.00000000000E+00 -0.00000000000E+00 -0.45593999997E+02  0.45594000000E+02  0.51100000000E-03 0. -1.
    9900012    2    1    2    0    0 -0.21871871008E+02 -0.26182945459E+02  0.22118778055E+02  0.50528859368E+02  0.29999998536E+02 0.  0.
         12    1    1    2    0    0  0.21871871008E+02  0.26182945459E+02 -0.22118778055E+02  0.40659140632E+02  0.00000000000E+00 0. -1.
         11    1    3    3    0    0  0.49008364379E+00 -0.18813806966E+01  0.34276914171E+00  0.19741495002E+01  0.51100000000E-03 0.  1.
        -11    1    3    3    0    0 -0.42648187522E+01  0.50528153897E+01 -0.17130119008E+01  0.68303757133E+01  0.51100000000E-03 0. -1.
        -12    1    3    3    0    0 -0.18097135899E+02 -0.29354380152E+02  0.23489020814E+02  0.41724334155E+02  0.00000000000E+00 0.  1.
</event>
<event>
 7    1  0.6073302E-013  0.5052886E+02  0.7816164E-02  0.1300439E+00
        -11   -1    0    0    0    0  0.00000000000E+00  0.00000000000E+00  0.45593999997E+02  0.45594000000E+02  0.51100000000E-03 0.  1.
         11   -1    0    0    0    0 -0.00000000000E+00 -0.00000000000E+00 -0.45593999997E+02  0.45594000000E+02  0.51100000000E-03 0. -1.
    9900012    2    1    2    0    0 -0.13268658617E+02  0.37533548276E+02  0.82668587654E+01  0.50528862017E+02  0.30000006587E+02 0.  0.
         12    1    1    2    0    0  0.13268658617E+02 -0.37533548276E+02 -0.82668587654E+01  0.40659137983E+02  0.00000000000E+00 0. -1.
         11    1    3    3    0    0  0.73725748882E+00  0.24959704252E+02  0.41722290552E+00  0.24974075762E+02  0.51100000000E-03 0. -1.
        -11    1    3    3    0    0 -0.99824738713E+01 -0.10072117564E+00 -0.24686706590E+00  0.99860338951E+01  0.51100000000E-03 0.  1.
        -12    1    3    3    0    0 -0.40234422343E+01  0.12674565199E+02  0.80965029258E+01  0.15568752360E+02  0.00000000000E+00 0.  1.
</event>
<event>
 7    1  0.6073302E-013  0.5052886E+02  0.7816164E-02  0.1300439E+00
        -11   -1    0    0    0    0  0.00000000000E+00  0.00000000000E+00  0.45593999997E+02  0.45594000000E+02  0.51100000000E-03 0.  1.
         11   -1    0    0    0    0 -0.00000000000E+00 -0.00000000000E+00 -0.45593999997E+02  0.45594000000E+02  0.51100000000E-03 0. -1.
    9900012    2    1    2    0    0 -0.18396596199E+02  0.21650878933E+02  0.29085571454E+02  0.50528858628E+02  0.29999996284E+02 0.  0.
         12    1    1    2    0    0  0.18396596199E+02 -0.21650878933E+02 -0.29085571454E+02  0.40659141372E+02  0.00000000000E+00 0. -1.
         11    1    3    3    0    0 -0.32106365049E+01  0.16733705806E+01  0.77990727853E+00  0.37035944015E+01  0.51100000000E-03 0. -1.
        -11    1    3    3    0    0  0.33485956598E+00  0.13868022388E+02 -0.11371302517E+00  0.13872530656E+02  0.51100000000E-03 0.  1.
        -12    1    3    3    0    0 -0.15520819261E+02  0.61094859650E+01  0.28419377201E+02  0.32952733571E+02  0.00000000000E+00 0.  1.
</event>
<event>
 7    1  0.6073302E-013  0.5052886E+02  0.7816164E-02  0.1300439E+00
        -11   -1    0    0    0    0  0.00000000000E+00  0.00000000000E+00  0.45593999997E+02  0.45594000000E+02  0.51100000000E-03 0.  1.
         11   -1    0    0    0    0 -0.00000000000E+00 -0.00000000000E+00 -0.45593999997E+02  0.45594000000E+02  0.51100000000E-03 0. -1.
    9900012    2    1    2    0    0  0.22949777949E+02  0.94428580725E+01  0.32207228363E+02  0.50528862832E+02  0.30000009063E+02 0.  0.
         12    1    1    2    0    0 -0.22949777949E+02 -0.94428580725E+01 -0.32207228363E+02  0.40659137168E+02  0.00000000000E+00 0. -1.
         11    1    3    3    0    0 -0.22545112545E+00  0.36303427900E+01 -0.13755581224E+01  0.38887501066E+01  0.51100000000E-03 0. -1.
        -11    1    3    3    0    0  0.21185683526E+02  0.16131590106E+01  0.35691704830E+02  0.41537131129E+02  0.51100000000E-03 0.  1.
        -12    1    3    3    0    0  0.19895455478E+01  0.41993562719E+01 -0.21089183450E+01  0.51029815962E+01  0.00000000000E+00 0.  1.
</event>
<event>
 7    1  0.6073302E-013  0.5052886E+02  0.7816164E-02  0.1300439E+00
        -11   -1    0    0    0    0  0.00000000000E+00  0.00000000000E+00  0.45593999997E+02  0.45594000000E+02  0.51100000000E-03 0.  1.
         11   -1    0    0    0    0 -0.00000000000E+00 -0.00000000000E+00 -0.45593999997E+02  0.45594000000E+02  0.51100000000E-03 0. -1.
    9900012    2    1    2    0    0 -0.18242804869E+02  0.13733663285E+02  0.33641520917E+02  0.50528863680E+02  0.30000011641E+02 0.  0.
         12    1    1    2    0    0  0.18242804869E+02 -0.13733663285E+02 -0.33641520917E+02  0.40659136320E+02  0.00000000000E+00 0. -1.
         11    1    3    3    0    0 -0.18672970241E+02  0.10154695481E+02  0.36634435029E+02  0.42354214525E+02  0.51100000000E-03 0.  1.
        -11    1    3    3    0    0 -0.20894061960E+01  0.30910486257E+01 -0.39519812154E+01  0.54349200221E+01  0.51100000000E-03 0. -1.
        -12    1    3    3    0    0  0.25195715679E+01  0.48791917887E+00  0.95906710326E+00  0.27397291325E+01  0.00000000000E+00 0.  1.
</event>
<event>
 7    1  0.6073302E-013  0.5052887E+02  0.7816164E-02  0.1300439E+00
        -11   -1    0    0    0    0  0.00000000000E+00  0.00000000000E+00  0.45593999997E+02  0.45594000000E+02  0.51100000000E-03 0.  1.
         11   -1    0    0    0    0 -0.00000000000E+00 -0.00000000000E+00 -0.45593999997E+02  0.45594000000E+02  0.51100000000E-03 0. -1.
    9900012    2    1    2    0    0  0.20278283170E+02 -0.73280647939E+01  0.34471085992E+02  0.50528867306E+02  0.30000022663E+02 0.  0.
         12    1    1    2    0    0 -0.20278283170E+02  0.73280647939E+01 -0.34471085992E+02  0.40659132694E+02  0.00000000000E+00 0. -1.
         11    1    3    3    0    0  0.15626524841E+02  0.98021249401E+01  0.19312959398E+02  0.26706934173E+02  0.51100000000E-03 0. -1.
        -11    1    3    3    0    0  0.67196592841E+00 -0.74025710293E+01  0.38035563646E+01  0.83496489347E+01  0.51100000000E-03 0.  1.
         12    1    3    3    0    0  0.39797924010E+01 -0.97276187046E+01  0.11354570230E+02  0.15472284199E+02  0.00000000000E+00 0. -1.
</event>
<event>
 7    1  0.6073302E-013  0.5052888E+02  0.7816164E-02  0.1300439E+00
        -11   -1    0    0    0    0  0.00000000000E+00  0.00000000000E+00  0.45593999997E+02  0.45594000000E+02  0.51100000000E-03 0.  1.
         11   -1    0    0    0    0 -0.00000000000E+00 -0.00000000000E+00 -0.45593999997E+02  0.45594000000E+02  0.51100000000E-03 0. -1.
    9900012    2    1    2    0    0  0.86425705598E+01 -0.16976074578E+02  0.35920509228E+02  0.50528879041E+02  0.30000058334E+02 0.  0.
         12    1    1    2    0    0 -0.86425705598E+01  0.16976074578E+02 -0.35920509228E+02  0.40659120959E+02  0.00000000000E+00 0. -1.
         11    1    3    3    0    0 -0.59543500268E+01  0.25289689852E+01  0.30231311658E+01  0.71406785865E+01  0.51100000000E-03 0. -1.
        -11    1    3    3    0    0  0.15943561327E+02 -0.20913870047E+02  0.31190801022E+02  0.40797710435E+02  0.51100000000E-03 0.  1.
         12    1    3    3    0    0 -0.13466407406E+01  0.14088264841E+01  0.17065770405E+01  0.25904900196E+01  0.00000000000E+00 0. -1.
</event>
<event>
 7    1  0.6073302E-013  0.5052886E+02  0.7816164E-02  0.1300439E+00
        -11   -1    0    0    0    0  0.00000000000E+00  0.00000000000E+00  0.45593999997E+02  0.45594000000E+02  0.51100000000E-03 0. -1.
         11   -1    0    0    0    0 -0.00000000000E+00 -0.00000000000E+00 -0.45593999997E+02  0.45594000000E+02  0.51100000000E-03 0.  1.
    9900012    2    1    2    0    0 -0.14487298384E+02 -0.20906523902E+02 -0.31720671962E+02  0.50528860980E+02  0.30000003435E+02 0.  0.
         12    1    1    2    0    0  0.14487298384E+02  0.20906523902E+02  0.31720671962E+02  0.40659139020E+02  0.00000000000E+00 0. -1.
         11    1    3    3    0    0  0.11027159269E+01 -0.75573523583E+01 -0.36102790550E+01  0.84477021845E+01  0.51100000000E-03 0. -1.
        -11    1    3    3    0    0 -0.21213921260E+02 -0.12228919239E+02 -0.17761619413E+02  0.30249827196E+02  0.51100000000E-03 0.  1.
        -12    1    3    3    0    0  0.56239069485E+01 -0.11202523049E+01 -0.10348773494E+02  0.11831331599E+02  0.00000000000E+00 0.  1.
</event>
<event>
 7    1  0.6073302E-013  0.5052886E+02  0.7816164E-02  0.1300439E+00
        -11   -1    0    0    0    0  0.00000000000E+00  0.00000000000E+00  0.45593999997E+02  0.45594000000E+02  0.51100000000E-03 0.  1.
         11   -1    0    0    0    0 -0.00000000000E+00 -0.00000000000E+00 -0.45593999997E+02  0.45594000000E+02  0.51100000000E-03 0. -1.
    9900012    2    1    2    0    0  0.36655562674E+02 -0.11044874730E+02  0.13694757604E+02  0.50528856888E+02  0.29999990998E+02 0.  0.
         12    1    1    2    0    0 -0.36655562674E+02  0.11044874730E+02 -0.13694757604E+02  0.40659143112E+02  0.00000000000E+00 0. -1.
         11    1    3    3    0    0  0.22270193267E+00  0.12258370041E+01  0.42431304253E+01  0.44222650959E+01  0.51100000000E-03 0. -1.
        -11    1    3    3    0    0  0.36515085080E+02 -0.39894035762E+01  0.64302473161E+01  0.37290948769E+02  0.51100000000E-03 0.  1.
        -12    1    3    3    0    0 -0.82224338720E-01 -0.82813081576E+01  0.30213798623E+01  0.88156430234E+01  0.00000000000E+00 0.  1.
</event>
<event>
 7    1  0.6073302E-013  0.5052887E+02  0.7816164E-02  0.1300439E+00
        -11   -1    0    0    0    0  0.00000000000E+00  0.00000000000E+00  0.45593999997E+02  0.45594000000E+02  0.51100000000E-03 0. -1.
         11   -1    0    0    0    0 -0.00000000000E+00 -0.00000000000E+00 -0.45593999997E+02  0.45594000000E+02  0.51100000000E-03 0.  1.
    9900012    2    1    2    0    0 -0.29568393075E+02  0.19760088695E+02 -0.19708225699E+02  0.50528866531E+02  0.30000020307E+02 0.  0.
         12    1    1    2    0    0  0.29568393075E+02 -0.19760088695E+02  0.19708225699E+02  0.40659133469E+02  0.00000000000E+00 0. -1.
         11    1    3    3    0    0  0.22481880550E+01 -0.10356774801E+01  0.60569655545E+00  0.25483025629E+01  0.51100000000E-03 0. -1.
        -11    1    3    3    0    0 -0.28365914164E+02  0.84139216430E+01 -0.18759133753E+02  0.35033188025E+02  0.51100000000E-03 0.  1.
        -12    1    3    3    0    0 -0.34506669660E+01  0.12381844532E+02 -0.15547885013E+01  0.12947375943E+02  0.00000000000E+00 0.  1.
</event>
<event>
 7    1  0.6073302E-013  0.5052888E+02  0.7816164E-02  0.1300439E+00
        -11   -1    0    0    0    0  0.00000000000E+00  0.00000000000E+00  0.45593999997E+02  0.45594000000E+02  0.51100000000E-03 0.  1.
         11   -1    0    0    0    0 -0.00000000000E+00 -0.00000000000E+00 -0.45593999997E+02  0.45594000000E+02  0.51100000000E-03 0. -1.
    9900012    2    1    2    0    0 -0.11932414388E+02 -0.26764121309E+00  0.38867856277E+02  0.50528875605E+02  0.30000047890E+02 0.  0.
         12    1    1    2    0    0  0.11932414388E+02  0.26764121309E+00 -0.38867856277E+02  0.40659124395E+02  0.00000000000E+00 0. -1.
         11    1    3    3    0    0 -0.25598412381E+01  0.13897334979E+02  0.21498415368E+02  0.25726845323E+02  0.51100000000E-03 0.  1.
        -11    1    3    3    0    0 -0.73649309393E+01 -0.78518862306E+01  0.12941599071E+02  0.16833873942E+02  0.51100000000E-03 0. -1.
        -12    1    3    3    0    0 -0.20076422109E+01 -0.63130899617E+01  0.44278418380E+01  0.79681563397E+01  0.00000000000E+00 0.  1.
</event>
<event>
 7    1  0.6073302E-013  0.5052886E+02  0.7816164E-02  0.1300439E+00
        -11   -1    0    0    0    0  0.00000000000E+00  0.00000000000E+00  0.45593999997E+02  0.45594000000E+02  0.51100000000E-03 0.  1.
         11   -1    0    0    0    0 -0.00000000000E+00 -0.00000000000E+00 -0.45593999997E+02  0.45594000000E+02  0.51100000000E-03 0. -1.
    9900012    2    1    2    0    0  0.23963101532E+02 -0.23515946046E+02  0.22933284057E+02  0.50528862391E+02  0.30000007722E+02 0.  0.
         12    1    1    2    0    0 -0.23963101532E+02  0.23515946046E+02 -0.22933284057E+02  0.40659137609E+02  0.00000000000E+00 0. -1.
         11    1    3    3    0    0  0.10821759509E+02  0.20757548125E+01  0.23456889568E+01  0.11265943984E+02  0.51100000000E-03 0. -1.
        -11    1    3    3    0    0  0.50803547253E+01 -0.18913410572E+02  0.21093074446E+02  0.28782718659E+02  0.51100000000E-03 0.  1.
        -12    1    3    3    0    0  0.80609872976E+01 -0.66782902867E+01 -0.50547934492E+00  0.10480199747E+02  0.00000000000E+00 0.  1.
</event>
<event>
 7    1  0.6073302E-013  0.5052886E+02  0.7816164E-02  0.1300439E+00
        -11   -1    0    0    0    0  0.00000000000E+00  0.00000000000E+00  0.45593999997E+02  0.45594000000E+02  0.51100000000E-03 0.  1.
         11   -1    0    0    0    0 -0.00000000000E+00 -0.00000000000E+00 -0.45593999997E+02  0.45594000000E+02  0.51100000000E-03 0. -1.
    9900012    2    1    2    0    0 -0.10066484635E+02  0.16899937951E+02  0.35584032099E+02  0.50528863806E+02  0.30000012024E+02 0.  0.
         12    1    1    2    0    0  0.10066484635E+02 -0.16899937951E+02 -0.35584032099E+02  0.40659136194E+02  0.00000000000E+00 0. -1.
         11    1    3    3    0    0 -0.20179763000E+01 -0.28048924410E+01  0.24253064623E+02  0.24497975300E+02  0.51100000000E-03 0. -1.
        -11    1    3    3    0    0 -0.29689914901E+01  0.76180720937E+01 -0.73995790413E+00  0.82095962662E+01  0.51100000000E-03 0.  1.
         12    1    3    3    0    0 -0.50795168452E+01  0.12086758298E+02  0.12070925381E+02  0.17821292239E+02  0.00000000000E+00 0. -1.
</event>
<event>
 7    1  0.6073302E-013  0.5052887E+02  0.7816164E-02  0.1300439E+00
        -11   -1    0    0    0    0  0.00000000000E+00  0.00000000000E+00  0.45593999997E+02  0.45594000000E+02  0.51100000000E-03 0. -1.
         11   -1    0    0    0    0 -0.00000000000E+00 -0.00000000000E+00 -0.45593999997E+02  0.45594000000E+02  0.51100000000E-03 0.  1.
    9900012    2    1    2    0    0 -0.12246038317E+02  0.23488944828E+02 -0.30845892226E+02  0.50528867559E+02  0.30000023432E+02 0.  0.
         12    1    1    2    0    0  0.12246038317E+02 -0.23488944828E+02  0.30845892226E+02  0.40659132441E+02  0.00000000000E+00 0. -1.
         11    1    3    3    0    0  0.93005144036E+00  0.24200569073E+01 -0.18299971486E+02  0.18482711592E+02  0.51100000000E-03 0. -1.
        -11    1    3    3    0    0 -0.13207150270E+02  0.18357074135E+02 -0.38533387337E+01  0.22940340205E+02  0.51100000000E-03 0.  1.
        -12    1    3    3    0    0  0.31060512461E-01  0.27118137859E+01 -0.86925820064E+01  0.91058157626E+01  0.00000000000E+00 0.  1.
</event>
<event>
 7    1  0.6073302E-013  0.5052886E+02  0.7816164E-02  0.1300439E+00
        -11   -1    0    0    0    0  0.00000000000E+00  0.00000000000E+00  0.45593999997E+02  0.45594000000E+02  0.51100000000E-03 0.  1.
         11   -1    0    0    0    0 -0.00000000000E+00 -0.00000000000E+00 -0.45593999997E+02  0.45594000000E+02  0.51100000000E-03 0. -1.
    9900012    2    1    2    0    0 -0.11417879015E+02  0.57381835799E+01  0.38598846544E+02  0.50528859988E+02  0.30000000418E+02 0.  0.
         12    1    1    2    0    0  0.11417879015E+02 -0.57381835799E+01 -0.38598846544E+02  0.40659140012E+02  0.00000000000E+00 0. -1.
         11    1    3    3    0    0 -0.11634319823E+02 -0.74691450318E+01  0.62633529318E+01  0.15178113040E+02  0.51100000000E-03 0. -1.
        -11    1    3    3    0    0  0.18095099579E+01  0.38549393833E+01  0.59927862497E+01  0.73517597371E+01  0.51100000000E-03 0.  1.
         12    1    3    3    0    0 -0.15930691498E+01  0.93523892284E+01  0.26342707363E+02  0.27998987210E+02  0.00000000000E+00 0. -1.
</event>
<event>
 7    1  0.6073302E-013  0.5052886E+02  0.7816164E-02  0.1300439E+00
        -11   -1    0    0    0    0  0.00000000000E+00  0.00000000000E+00  0.45593999997E+02  0.45594000000E+02  0.51100000000E-03 0.  1.
         11   -1    0    0    0    0 -0.00000000000E+00 -0.00000000000E+00 -0.45593999997E+02  0.45594000000E+02  0.51100000000E-03 0. -1.
    9900012    2    1    2    0    0  0.90241165554E+01  0.26260693990E+02  0.29700285769E+02  0.50528859537E+02  0.29999999049E+02 0.  0.
         12    1    1    2    0    0 -0.90241165554E+01 -0.26260693990E+02 -0.29700285769E+02  0.40659140463E+02  0.00000000000E+00 0. -1.
         11    1    3    3    0    0  0.96734144142E+01  0.22451182895E+02  0.94114004125E+01  0.26195515223E+02  0.51100000000E-03 0. -1.
        -11    1    3    3    0    0  0.41497228031E+01 -0.26413221803E+00  0.16434101142E+02  0.16951980586E+02  0.51100000000E-03 0.  1.
         12    1    3    3    0    0 -0.47990206619E+01  0.40736433125E+01  0.38547842139E+01  0.73813637281E+01  0.00000000000E+00 0. -1.
</event>
<event>
 7    1  0.6073302E-013  0.5052886E+02  0.7816164E-02  0.1300439E+00
        -11   -1    0    0    0    0  0.00000000000E+00  0.00000000000E+00  0.45593999997E+02  0.45594000000E+02  0.51100000000E-03 0.  1.
         11   -1    0    0    0    0 -0.00000000000E+00 -0.00000000000E+00 -0.45593999997E+02  0.45594000000E+02  0.51100000000E-03 0. -1.
    9900012    2    1    2    0    0  0.12886548143E+02 -0.25354637978E+02  0.29055893177E+02  0.50528859351E+02  0.29999998482E+02 0.  0.
         12    1    1    2    0    0 -0.12886548143E+02  0.25354637978E+02 -0.29055893177E+02  0.40659140649E+02  0.00000000000E+00 0. -1.
         11    1    3    3    0    0 -0.32139375558E+01  0.41072637414E+01  0.88686354463E+01  0.10288425778E+02  0.51100000000E-03 0. -1.
        -11    1    3    3    0    0  0.14177340229E+02 -0.24526007821E+02  0.20446436417E+02  0.34936782880E+02  0.51100000000E-03 0.  1.
         12    1    3    3    0    0  0.19231454690E+01 -0.49358938984E+01 -0.25917868614E+00  0.53036506920E+01  0.00000000000E+00 0. -1.
</event>
<event>
 7    1  0.6073302E-013  0.5052884E+02  0.7816164E-02  0.1300439E+00
        -11   -1    0    0    0    0  0.00000000000E+00  0.00000000000E+00  0.45593999997E+02  0.45594000000E+02  0.51100000000E-03 0. -1.
         11   -1    0    0    0    0 -0.00000000000E+00 -0.00000000000E+00 -0.45593999997E+02  0.45594000000E+02  0.51100000000E-03 0.  1.
    9900012    2    1    2    0    0  0.25182502701E+02  0.10918138776E+02 -0.29996716811E+02  0.50528840933E+02  0.29999942499E+02 0.  0.
         12    1    1    2    0    0 -0.25182502701E+02 -0.10918138776E+02  0.29996716811E+02  0.40659159067E+02  0.00000000000E+00 0. -1.
         11    1    3    3    0    0 -0.41981405950E+01  0.16379315258E+01 -0.16015380859E+02  0.16637296309E+02  0.51100000000E-03 0. -1.
        -11    1    3    3    0    0  0.10388541277E+02  0.31642533090E+01 -0.39187285048E+01  0.11545160121E+02  0.51100000000E-03 0.  1.
         12    1    3    3    0    0  0.18992102019E+02  0.61159539407E+01 -0.10062607447E+02  0.22346384503E+02  0.00000000000E+00 0. -1.
</event>
<event>
 7    1  0.6073302E-013  0.5052883E+02  0.7816164E-02  0.1300439E+00
        -11   -1    0    0    0    0  0.00000000000E+00  0.00000000000E+00  0.45593999997E+02  0.45594000000E+02  0.51100000000E-03 0.  1.
         11   -1    0    0    0    0 -0.00000000000E+00 -0.00000000000E+00 -0.45593999997E+02  0.45594000000E+02  0.51100000000E-03 0. -1.
    9900012    2    1    2    0    0 -0.13084079913E+01 -0.40002375507E+02  0.71600528448E+01  0.50528827180E+02  0.29999900696E+02 0.  0.
         12    1    1    2    0    0  0.13084079913E+01  0.40002375507E+02 -0.71600528448E+01  0.40659172820E+02  0.00000000000E+00 0. -1.
         11    1    3    3    0    0  0.99376621217E+01 -0.33276739785E+02  0.26332280391E+01  0.34828615093E+02  0.51100000000E-03 0. -1.
        -11    1    3    3    0    0 -0.32794366235E+01 -0.19687680916E+01  0.51332892496E+01  0.64016725273E+01  0.51100000000E-03 0.  1.
         12    1    3    3    0    0 -0.79666334895E+01 -0.47568676310E+01 -0.60646444388E+00  0.92985395594E+01  0.00000000000E+00 0. -1.
</event>
<event>
 7    1  0.6073302E-013  0.5052886E+02  0.7816164E-02  0.1300439E+00
        -11   -1    0    0    0    0  0.00000000000E+00  0.00000000000E+00  0.45593999997E+02  0.45594000000E+02  0.51100000000E-03 0. -1.
         11   -1    0    0    0    0 -0.00000000000E+00 -0.00000000000E+00 -0.45593999997E+02  0.45594000000E+02  0.51100000000E-03 0.  1.
    9900012    2    1    2    0    0 -0.25363965462E+02 -0.24366903569E+02 -0.20398257714E+02  0.50528860175E+02  0.30000000989E+02 0.  0.
         12    1    1    2    0    0  0.25363965462E+02  0.24366903569E+02  0.20398257714E+02  0.40659139825E+02  0.00000000000E+00 0. -1.
         11    1    3    3    0    0 -0.22294559911E+01  0.11402504360E+01 -0.30294279491E+01  0.39304044363E+01  0.51100000000E-03 0. -1.
        -11    1    3    3    0    0 -0.11454116516E+02 -0.28888936319E+02 -0.12753281105E+02  0.33591868153E+02  0.51100000000E-03 0.  1.
        -12    1    3    3    0    0 -0.11680392955E+02  0.33817823137E+01 -0.46155486603E+01  0.13006587586E+02  0.00000000000E+00 0.  1.
</event>
<event>
 7    1  0.6073302E-013  0.5052885E+02  0.7816164E-02  0.1300439E+00
        -11   -1    0    0    0    0  0.00000000000E+00  0.00000000000E+00  0.45593999997E+02  0.45594000000E+02  0.51100000000E-03 0. -1.
         11   -1    0    0    0    0 -0.00000000000E+00 -0.00000000000E+00 -0.45593999997E+02  0.45594000000E+02  0.51100000000E-03 0.  1.
    9900012    2    1    2    0    0  0.15604822372E+02 -0.10004616284E+00 -0.37545248965E+02  0.50528853300E+02  0.29999980091E+02 0.  0.
         12    1    1    2    0    0 -0.15604822372E+02  0.10004616284E+00  0.37545248965E+02  0.40659146700E+02  0.00000000000E+00 0. -1.
         11    1    3    3    0    0  0.70643379174E+01 -0.85557473216E+01 -0.17438600467E+02  0.20669070346E+02  0.51100000000E-03 0. -1.
        -11    1    3    3    0    0  0.76598794897E+01  0.13721862904E+02 -0.10598237090E+02  0.18954838565E+02  0.51100000000E-03 0.  1.
        -12    1    3    3    0    0  0.88060496483E+00 -0.52661617451E+01 -0.95084114082E+01  0.10904944389E+02  0.00000000000E+00 0.  1.
</event>
<event>
 7    1  0.6073302E-013  0.5052886E+02  0.7816164E-02  0.1300439E+00
        -11   -1    0    0    0    0  0.00000000000E+00  0.00000000000E+00  0.45593999997E+02  0.45594000000E+02  0.51100000000E-03 0.  1.
         11   -1    0    0    0    0 -0.00000000000E+00 -0.00000000000E+00 -0.45593999997E+02  0.45594000000E+02  0.51100000000E-03 0. -1.
    9900012    2    1    2    0    0 -0.24829723170E+02 -0.26448245064E+02  0.18361389575E+02  0.50528862690E+02  0.30000008633E+02 0.  0.
         12    1    1    2    0    0  0.24829723170E+02  0.26448245064E+02 -0.18361389575E+02  0.40659137310E+02  0.00000000000E+00 0. -1.
         11    1    3    3    0    0 -0.90025841157E+01 -0.16810080732E+02  0.19360934280E+02  0.27174824956E+02  0.51100000000E-03 0. -1.
        -11    1    3    3    0    0 -0.18460156775E+02 -0.74670317834E+01 -0.65428767658E+00  0.19923906355E+02  0.51100000000E-03 0.  1.
         12    1    3    3    0    0  0.26330177206E+01 -0.21711325488E+01 -0.34525702796E+00  0.34301313789E+01  0.00000000000E+00 0. -1.
</event>
<event>
 7    1  0.6073302E-013  0.5052886E+02  0.7816164E-02  0.1300439E+00
        -11   -1    0    0    0    0  0.00000000000E+00  0.00000000000E+00  0.45593999997E+02  0.45594000000E+02  0.51100000000E-03 0.  1.
         11   -1    0    0    0    0 -0.00000000000E+00 -0.00000000000E+00 -0.45593999997E+02  0.45594000000E+02  0.51100000000E-03 0. -1.
    9900012    2    1    2    0    0 -0.22863288502E+02  0.16151218424E+02  0.29488535715E+02  0.50528861343E+02  0.30000004540E+02 0.  0.
         12    1    1    2    0    0  0.22863288502E+02 -0.16151218424E+02 -0.29488535715E+02  0.40659138657E+02  0.00000000000E+00 0. -1.
         11    1    3    3    0    0 -0.17397454065E+02  0.15502884235E+02  0.32019927168E+01  0.23521555755E+02  0.51100000000E-03 0. -1.
        -11    1    3    3    0    0 -0.11443762751E+01  0.12791977014E+01  0.99567457206E+01  0.10103599825E+02  0.51100000000E-03 0.  1.
         12    1    3    3    0    0 -0.43214581619E+01 -0.63086351170E+00  0.16329797277E+02  0.16903705763E+02  0.00000000000E+00 0. -1.
</event>
<event>
 7    1  0.6073302E-013  0.5052885E+02  0.7816164E-02  0.1300439E+00
        -11   -1    0    0    0    0  0.00000000000E+00  0.00000000000E+00  0.45593999997E+02  0.45594000000E+02  0.51100000000E-03 0.  1.
         11   -1    0    0    0    0 -0.00000000000E+00 -0.00000000000E+00 -0.45593999997E+02  0.45594000000E+02  0.51100000000E-03 0. -1.
    9900012    2    1    2    0    0  0.26515048915E+02 -0.21647049805E+02  0.21943643967E+02  0.50528854721E+02  0.29999984411E+02 0.  0.
         12    1    1    2    0    0 -0.26515048915E+02  0.21647049805E+02 -0.21943643967E+02  0.40659145279E+02  0.00000000000E+00 0. -1.
         11    1    3    3    0    0  0.16633157335E+01  0.75577020704E+00 -0.23098287414E+01  0.29450156045E+01  0.51100000000E-03 0. -1.
        -11    1    3    3    0    0  0.14068026116E+02 -0.24750316554E+02  0.11462997239E+02  0.30690191174E+02  0.51100000000E-03 0.  1.
        -12    1    3    3    0    0  0.10783707066E+02  0.23474965420E+01  0.12790475469E+02  0.16893647943E+02  0.00000000000E+00 0.  1.
</event>
<event>
 7    1  0.6073302E-013  0.5052885E+02  0.7816164E-02  0.1300439E+00
        -11   -1    0    0    0    0  0.00000000000E+00  0.00000000000E+00  0.45593999997E+02  0.45594000000E+02  0.51100000000E-03 0. -1.
         11   -1    0    0    0    0 -0.00000000000E+00 -0.00000000000E+00 -0.45593999997E+02  0.45594000000E+02  0.51100000000E-03 0.  1.
    9900012    2    1    2    0    0 -0.24247027715E+02 -0.10328591148E+02 -0.30960749765E+02  0.50528853746E+02  0.29999981446E+02 0.  0.
         12    1    1    2    0    0  0.24247027715E+02  0.10328591148E+02  0.30960749765E+02  0.40659146254E+02  0.00000000000E+00 0. -1.
         11    1    3    3    0    0  0.21046870781E+01 -0.76170794702E+01 -0.13754110774E+01  0.80213068290E+01  0.51100000000E-03 0. -1.
        -11    1    3    3    0    0 -0.13320871031E+01  0.42717746752E+01 -0.54286808902E+01  0.70351326494E+01  0.51100000000E-03 0.  1.
         12    1    3    3    0    0 -0.25019627690E+02 -0.69832863533E+01 -0.24156657797E+02  0.35472414267E+02  0.00000000000E+00 0. -1.
</event>
<event>
 7    1  0.6073302E-013  0.5052886E+02  0.7816164E-02  0.1300439E+00
        -11   -1    0    0    0    0  0.00000000000E+00  0.00000000000E+00  0.45593999997E+02  0.45594000000E+02  0.51100000000E-03 0. -1.
         11   -1    0    0    0    0 -0.00000000000E+00 -0.00000000000E+00 -0.45593999997E+02  0.45594000000E+02  0.51100000000E-03 0.  1.
    9900012    2    1    2    0    0  0.23632120122E+02 -0.32086164496E+02  0.80726065654E+01  0.50528855514E+02  0.29999986821E+02 0.  0.
         12    1    1    2    0    0 -0.23632120122E+02  0.32086164496E+02 -0.80726065654E+01  0.40659144486E+02  0.00000000000E+00 0. -1.
         11    1    3    3    0    0  0.13589979847E+02 -0.12911947572E+02 -0.80632947516E+01  0.20406436848E+02  0.51100000000E-03 0. -1.
        -11    1    3    3    0    0 -0.23004884192E+01 -0.90028415363E+01  0.75318459266E+01  0.11961275267E+02  0.51100000000E-03 0.  1.
        -12    1    3    3    0    0  0.12342628695E+02 -0.10171375388E+02  0.86040553904E+01  0.18161143399E+02  0.00000000000E+00 0.  1.
</event>
<event>
 7    1  0.6073302E-013  0.5052885E+02  0.7816164E-02  0.1300439E+00
        -11   -1    0    0    0    0  0.00000000000E+00  0.00000000000E+00  0.45593999997E+02  0.45594000000E+02  0.51100000000E-03 0. -1.
         11   -1    0    0    0    0 -0.00000000000E+00 -0.00000000000E+00 -0.45593999997E+02  0.45594000000E+02  0.51100000000E-03 0.  1.
    9900012    2    1    2    0    0  0.24574931597E+02  0.26216135219E+02 -0.19025065443E+02  0.50528854363E+02  0.29999983321E+02 0.  0.
         12    1    1    2    0    0 -0.24574931597E+02 -0.26216135219E+02  0.19025065443E+02  0.40659145637E+02  0.00000000000E+00 0. -1.
         11    1    3    3    0    0  0.11818415703E+02  0.72072457588E+01  0.11961133885E+01  0.13894244443E+02  0.51100000000E-03 0. -1.
        -11    1    3    3    0    0  0.44256358817E+01  0.17643403232E+02 -0.21427091258E+02  0.28106870524E+02  0.51100000000E-03 0.  1.
        -12    1    3    3    0    0  0.83308800128E+01  0.13654862278E+01  0.12059124263E+01  0.85277393960E+01  0.00000000000E+00 0.  1.
</event>
<event>
 7    1  0.6073302E-013  0.5052886E+02  0.7816164E-02  0.1300439E+00
        -11   -1    0    0    0    0  0.00000000000E+00  0.00000000000E+00  0.45593999997E+02  0.45594000000E+02  0.51100000000E-03 0.  1.
         11   -1    0    0    0    0 -0.00000000000E+00 -0.00000000000E+00 -0.45593999997E+02  0.45594000000E+02  0.51100000000E-03 0. -1.
    9900012    2    1    2    0    0  0.40080573808E+02  0.41278562848E+01 -0.54473854643E+01  0.50528860773E+02  0.30000002806E+02 0.  0.
         12    1    1    2    0    0 -0.40080573808E+02 -0.41278562848E+01  0.54473854643E+01  0.40659139227E+02  0.00000000000E+00 0. -1.
         11    1    3    3    0    0  0.23118936823E+02 -0.61317804713E+01 -0.19070057608E+01  0.23994179353E+02  0.51100000000E-03 0. -1.
        -11    1    3    3    0    0  0.18340536744E+02  0.13208749072E+02 -0.14137437224E+01  0.22646081596E+02  0.51100000000E-03 0.  1.
         12    1    3    3    0    0 -0.13788997591E+01 -0.29491123155E+01 -0.21266359812E+01  0.38885998240E+01  0.00000000000E+00 0. -1.
</event>
<event>
 7    1  0.6073302E-013  0.5052885E+02  0.7816164E-02  0.1300439E+00
        -11   -1    0    0    0    0  0.00000000000E+00  0.00000000000E+00  0.45593999997E+02  0.45594000000E+02  0.51100000000E-03 0. -1.
         11   -1    0    0    0    0 -0.00000000000E+00 -0.00000000000E+00 -0.45593999997E+02  0.45594000000E+02  0.51100000000E-03 0.  1.
    9900012    2    1    2    0    0  0.24723070351E+02 -0.29272309055E+02  0.13603968289E+02  0.50528852958E+02  0.29999979051E+02 0.  0.
         12    1    1    2    0    0 -0.24723070351E+02  0.29272309055E+02 -0.13603968289E+02  0.40659147042E+02  0.00000000000E+00 0. -1.
         11    1    3    3    0    0 -0.26180140361E+01 -0.40952463227E+01 -0.46567242448E+01  0.67312792907E+01  0.51100000000E-03 0. -1.
        -11    1    3    3    0    0  0.13298021734E+02 -0.16951069956E+02  0.35024379589E+01  0.21827579495E+02  0.51100000000E-03 0.  1.
         12    1    3    3    0    0  0.14043062652E+02 -0.82259927769E+01  0.14758254575E+02  0.21969994172E+02  0.00000000000E+00 0. -1.
</event>
<event>
 7    1  0.6073302E-013  0.5052886E+02  0.7816164E-02  0.1300439E+00
        -11   -1    0    0    0    0  0.00000000000E+00  0.00000000000E+00  0.45593999997E+02  0.45594000000E+02  0.51100000000E-03 0.  1.
         11   -1    0    0    0    0 -0.00000000000E+00 -0.00000000000E+00 -0.45593999997E+02  0.45594000000E+02  0.51100000000E-03 0. -1.
    9900012    2    1    2    0    0 -0.26456937367E+02 -0.80205727579E+01  0.29813862897E+02  0.50528861506E+02  0.30000005035E+02 0.  0.
         12    1    1    2    0    0  0.26456937367E+02  0.80205727579E+01 -0.29813862897E+02  0.40659138494E+02  0.00000000000E+00 0. -1.
         11    1    3    3    0    0 -0.66577092833E+01 -0.95499011059E+01  0.97627473966E+01  0.15193318960E+02  0.51100000000E-03 0. -1.
        -11    1    3    3    0    0 -0.87389715577E+01  0.76232798110E+01  0.19509562453E+02  0.22695969825E+02  0.51100000000E-03 0.  1.
        -12    1    3    3    0    0 -0.11060256526E+02 -0.60939514630E+01  0.54155304762E+00  0.12639572721E+02  0.00000000000E+00 0.  1.
</event>
<event>
 7    1  0.6073302E-013  0.5052885E+02  0.7816164E-02  0.1300439E+00
        -11   -1    0    0    0    0  0.00000000000E+00  0.00000000000E+00  0.45593999997E+02  0.45594000000E+02  0.51100000000E-03 0. -1.
         11   -1    0    0    0    0 -0.00000000000E+00 -0.00000000000E+00 -0.45593999997E+02  0.45594000000E+02  0.51100000000E-03 0.  1.
    9900012    2    1    2    0    0 -0.81013958791E+01  0.14129966431E+02 -0.37254232801E+02  0.50528850622E+02  0.29999971951E+02 0.  0.
         12    1    1    2    0    0  0.81013958791E+01 -0.14129966431E+02  0.37254232801E+02  0.40659149378E+02  0.00000000000E+00 0. -1.
         11    1    3    3    0    0 -0.31988828952E+01  0.13603051584E+02 -0.30231430693E+02  0.33304883518E+02  0.51100000000E-03 0.  1.
        -11    1    3    3    0    0  0.37547056894E+01 -0.43833530585E+01 -0.27346355048E+01  0.63866916674E+01  0.51100000000E-03 0. -1.
        -12    1    3    3    0    0 -0.86572186733E+01  0.49102679053E+01 -0.42881666036E+01  0.10837275436E+02  0.00000000000E+00 0.  1.
</event>
<event>
 7    1  0.6073302E-013  0.5052886E+02  0.7816164E-02  0.1300439E+00
        -11   -1    0    0    0    0  0.00000000000E+00  0.00000000000E+00  0.45593999997E+02  0.45594000000E+02  0.51100000000E-03 0.  1.
         11   -1    0    0    0    0 -0.00000000000E+00 -0.00000000000E+00 -0.45593999997E+02  0.45594000000E+02  0.51100000000E-03 0. -1.
    9900012    2    1    2    0    0  0.12494738366E+02  0.23668383585E+02  0.30608085699E+02  0.50528858610E+02  0.29999996232E+02 0.  0.
         12    1    1    2    0    0 -0.12494738366E+02 -0.23668383585E+02 -0.30608085699E+02  0.40659141390E+02  0.00000000000E+00 0. -1.
         11    1    3    3    0    0  0.50804722161E+01  0.61804203637E+00  0.11351783552E+01  0.52423090387E+01  0.51100000000E-03 0. -1.
        -11    1    3    3    0    0  0.12658588333E+02  0.19402293076E+02  0.31017603508E+02  0.38714087395E+02  0.51100000000E-03 0.  1.
        -12    1    3    3    0    0 -0.52443221830E+01  0.36480484727E+01 -0.15446961643E+01  0.65724621762E+01  0.00000000000E+00 0.  1.
</event>
<event>
 7    1  0.6073302E-013  0.5052886E+02  0.7816164E-02  0.1300439E+00
        -11   -1    0    0    0    0  0.00000000000E+00  0.00000000000E+00  0.45593999997E+02  0.45594000000E+02  0.51100000000E-03 0.  1.
         11   -1    0    0    0    0 -0.00000000000E+00 -0.00000000000E+00 -0.45593999997E+02  0.45594000000E+02  0.51100000000E-03 0. -1.
    9900012    2    1    2    0    0  0.10094567575E+02  0.15290232963E+02  0.36297025064E+02  0.50528861457E+02  0.30000004885E+02 0.  0.
         12    1    1    2    0    0 -0.10094567575E+02 -0.15290232963E+02 -0.36297025064E+02  0.40659138543E+02  0.00000000000E+00 0. -1.
         11    1    3    3    0    0  0.16475847784E+02  0.16374673141E+02  0.25383780716E+02  0.34408135729E+02  0.51100000000E-03 0. -1.
        -11    1    3    3    0    0 -0.55750169514E+01 -0.98387915388E+00  0.12838387381E+02  0.14031144751E+02  0.51100000000E-03 0.  1.
        -12    1    3    3    0    0 -0.80626325759E+00 -0.10056102416E+00 -0.19251430338E+01  0.20895809773E+01  0.00000000000E+00 0.  1.
</event>
<event>
 7    1  0.6073302E-013  0.5052886E+02  0.7816164E-02  0.1300439E+00
        -11   -1    0    0    0    0  0.00000000000E+00  0.00000000000E+00  0.45593999997E+02  0.45594000000E+02  0.51100000000E-03 0.  1.
         11   -1    0    0    0    0 -0.00000000000E+00 -0.00000000000E+00 -0.45593999997E+02  0.45594000000E+02  0.51100000000E-03 0. -1.
    9900012    2    1    2    0    0 -0.63122017131E+01  0.39785540228E+02 -0.55165358727E+01  0.50528864868E+02  0.30000015252E+02 0.  0.
         12    1    1    2    0    0  0.63122017131E+01 -0.39785540228E+02  0.55165358727E+01  0.40659135132E+02  0.00000000000E+00 0. -1.
         11    1    3    3    0    0 -0.85197876841E+01  0.11299746633E+02  0.17068574826E+00  0.14152744965E+02  0.51100000000E-03 0. -1.
        -11    1    3    3    0    0  0.73342068900E+01  0.26182534739E+02 -0.10329715844E+02  0.29086401389E+02  0.51100000000E-03 0.  1.
        -12    1    3    3    0    0 -0.51266209191E+01  0.23032588553E+01  0.46424942232E+01  0.72897185141E+01  0.00000000000E+00 0.  1.
</event>
<event>
 7    1  0.6073302E-013  0.5052886E+02  0.7816164E-02  0.1300439E+00
        -11   -1    0    0    0    0  0.00000000000E+00  0.00000000000E+00  0.45593999997E+02  0.45594000000E+02  0.51100000000E-03 0.  1.
         11   -1    0    0    0    0 -0.00000000000E+00 -0.00000000000E+00 -0.45593999997E+02  0.45594000000E+02  0.51100000000E-03 0. -1.
    9900012    2    1    2    0    0  0.17369553617E+02  0.32453780850E+02  0.17268952218E+02  0.50528855949E+02  0.29999988141E+02 0.  0.
         12    1    1    2    0    0 -0.17369553617E+02 -0.32453780850E+02 -0.17268952218E+02  0.40659144051E+02  0.00000000000E+00 0. -1.
         11    1    3    3    0    0  0.11518923100E+02  0.22265009115E+02 -0.39324282192E+01  0.25374794821E+02  0.51100000000E-03 0. -1.
        -11    1    3    3    0    0  0.47521908084E+01  0.18865763626E+01  0.90897421481E+01  0.10429089147E+02  0.51100000000E-03 0.  1.
         12    1    3    3    0    0  0.10984397092E+01  0.83021953725E+01  0.12111638289E+02  0.14724971981E+02  0.00000000000E+00 0. -1.
</event>
<event>
 7    1  0.6073302E-013  0.5052886E+02  0.7816164E-02  0.1300439E+00
        -11   -1    0    0    0    0  0.00000000000E+00  0.00000000000E+00  0.45593999997E+02  0.45594000000E+02  0.51100000000E-03 0.  1.
         11   -1    0    0    0    0 -0.00000000000E+00 -0.00000000000E+00 -0.45593999997E+02  0.45594000000E+02  0.51100000000E-03 0. -1.
    9900012    2    1    2    0    0  0.26048984726E+02  0.31214298256E+02  0.53276827917E+00  0.50528857573E+02  0.29999993077E+02 0.  0.
         12    1    1    2    0    0 -0.26048984726E+02 -0.31214298256E+02 -0.53276827917E+00  0.40659142427E+02  0.00000000000E+00 0. -1.
         11    1    3    3    0    0  0.79233662812E+01  0.10565414822E+01 -0.10012076218E+01  0.80559561874E+01  0.51100000000E-03 0. -1.
        -11    1    3    3    0    0  0.73772840313E+01  0.20186297257E+02  0.11853238175E+02  0.24544045553E+02  0.51100000000E-03 0.  1.
        -12    1    3    3    0    0  0.10748334414E+02  0.99714595171E+01 -0.10319262274E+02  0.17928855832E+02  0.00000000000E+00 0.  1.
</event>
<event>
 7    1  0.6073302E-013  0.5052886E+02  0.7816164E-02  0.1300439E+00
        -11   -1    0    0    0    0  0.00000000000E+00  0.00000000000E+00  0.45593999997E+02  0.45594000000E+02  0.51100000000E-03 0.  1.
         11   -1    0    0    0    0 -0.00000000000E+00 -0.00000000000E+00 -0.45593999997E+02  0.45594000000E+02  0.51100000000E-03 0. -1.
    9900012    2    1    2    0    0  0.16199680265E+02  0.19591782125E+02  0.31731659163E+02  0.50528858829E+02  0.29999996896E+02 0.  0.
         12    1    1    2    0    0 -0.16199680265E+02 -0.19591782125E+02 -0.31731659163E+02  0.40659141171E+02  0.00000000000E+00 0. -1.
         11    1    3    3    0    0 -0.19503812314E+01  0.91171995699E+01  0.23021823168E+02  0.24838108969E+02  0.51100000000E-03 0. -1.
        -11    1    3    3    0    0  0.11707843102E+02  0.16131330663E+01  0.87997104761E+01  0.14734676553E+02  0.51100000000E-03 0.  1.
        -12    1    3    3    0    0  0.64422183941E+01  0.88614494885E+01 -0.89874480324E-01  0.10956073306E+02  0.00000000000E+00 0.  1.
</event>
<event>
 7    1  0.6073302E-013  0.5052886E+02  0.7816164E-02  0.1300439E+00
        -11   -1    0    0    0    0  0.00000000000E+00  0.00000000000E+00  0.45593999997E+02  0.45594000000E+02  0.51100000000E-03 0.  1.
         11   -1    0    0    0    0 -0.00000000000E+00 -0.00000000000E+00 -0.45593999997E+02  0.45594000000E+02  0.51100000000E-03 0. -1.
    9900012    2    1    2    0    0 -0.49149778701E+01 -0.35606901242E+02  0.19004141879E+02  0.50528857952E+02  0.29999994231E+02 0.  0.
         12    1    1    2    0    0  0.49149778701E+01  0.35606901242E+02 -0.19004141879E+02  0.40659142048E+02  0.00000000000E+00 0. -1.
         11    1    3    3    0    0  0.53360256744E+01  0.13778440299E+01  0.71147226550E+01  0.89994945907E+01  0.51100000000E-03 0. -1.
        -11    1    3    3    0    0 -0.73293431045E+01 -0.13513220277E+02  0.86962196098E+01  0.17662124118E+02  0.51100000000E-03 0.  1.
         12    1    3    3    0    0 -0.29216604401E+01 -0.23471524995E+02  0.31931996144E+01  0.23867239243E+02  0.00000000000E+00 0. -1.
</event>
<event>
 7    1  0.6073302E-013  0.5052888E+02  0.7816164E-02  0.1300439E+00
        -11   -1    0    0    0    0  0.00000000000E+00  0.00000000000E+00  0.45593999997E+02  0.45594000000E+02  0.51100000000E-03 0.  1.
         11   -1    0    0    0    0 -0.00000000000E+00 -0.00000000000E+00 -0.45593999997E+02  0.45594000000E+02  0.51100000000E-03 0. -1.
    9900012    2    1    2    0    0  0.21330159545E+01 -0.32633189560E+02  0.24159664907E+02  0.50528877698E+02  0.30000054252E+02 0.  0.
         12    1    1    2    0    0 -0.21330159545E+01  0.32633189560E+02 -0.24159664907E+02  0.40659122302E+02  0.00000000000E+00 0. -1.
         11    1    3    3    0    0  0.10576964208E+02 -0.25515174972E+02  0.98362889197E+01  0.29319769878E+02  0.51100000000E-03 0. -1.
        -11    1    3    3    0    0 -0.10136782382E+02 -0.78177126966E+01  0.91891227542E+01  0.15757885839E+02  0.51100000000E-03 0.  1.
         12    1    3    3    0    0  0.16928341288E+01  0.69969810851E+00  0.51342532328E+01  0.54512219813E+01  0.00000000000E+00 0. -1.
</event>
<event>
 7    1  0.6073302E-013  0.5052886E+02  0.7816164E-02  0.1300439E+00
        -11   -1    0    0    0    0  0.00000000000E+00  0.00000000000E+00  0.45593999997E+02  0.45594000000E+02  0.51100000000E-03 0.  1.
         11   -1    0    0    0    0 -0.00000000000E+00 -0.00000000000E+00 -0.45593999997E+02  0.45594000000E+02  0.51100000000E-03 0. -1.
    9900012    2    1    2    0    0 -0.14346054759E+01 -0.49437989685E+01  0.40331954126E+02  0.50528858780E+02  0.29999996748E+02 0.  0.
         12    1    1    2    0    0  0.14346054759E+01  0.49437989685E+01 -0.40331954126E+02  0.40659141220E+02  0.00000000000E+00 0. -1.
         11    1    3    3    0    0 -0.13572918224E+02 -0.68657967191E+01  0.16198465198E+02  0.22220565896E+02  0.51100000000E-03 0. -1.
        -11    1    3    3    0    0  0.27207199953E+01 -0.30790602942E+01  0.74595964262E+01  0.85163671064E+01  0.51100000000E-03 0.  1.
         12    1    3    3    0    0  0.94175927528E+01  0.50010580447E+01  0.16673892502E+02  0.19791925778E+02  0.00000000000E+00 0. -1.
</event>
<event>
 7    1  0.6073302E-013  0.5052893E+02  0.7816164E-02  0.1300439E+00
        -11   -1    0    0    0    0  0.00000000000E+00  0.00000000000E+00  0.45593999997E+02  0.45594000000E+02  0.51100000000E-03 0. -1.
         11   -1    0    0    0    0 -0.00000000000E+00 -0.00000000000E+00 -0.45593999997E+02  0.45594000000E+02  0.51100000000E-03 0.  1.
    9900012    2    1    2    0    0  0.14769891134E+02  0.29759483678E+02 -0.23438921630E+02  0.50528934590E+02  0.30000227178E+02 0.  0.
         12    1    1    2    0    0 -0.14769891134E+02 -0.29759483678E+02  0.23438921630E+02  0.40659065410E+02  0.00000000000E+00 0. -1.
         11    1    3    3    0    0  0.46233096226E+01  0.58637933520E+01 -0.21199628243E+02  0.22476283105E+02  0.51100000000E-03 0. -1.
        -11    1    3    3    0    0  0.65997848472E+01  0.15954526339E+02 -0.63970834110E+01  0.18412678978E+02  0.51100000000E-03 0.  1.
         12    1    3    3    0    0  0.35467966640E+01  0.79411639865E+01  0.41577900235E+01  0.96399725060E+01  0.00000000000E+00 0. -1.
</event>
<event>
 7    1  0.6073302E-013  0.5052886E+02  0.7816164E-02  0.1300439E+00
        -11   -1    0    0    0    0  0.00000000000E+00  0.00000000000E+00  0.45593999997E+02  0.45594000000E+02  0.51100000000E-03 0.  1.
         11   -1    0    0    0    0 -0.00000000000E+00 -0.00000000000E+00 -0.45593999997E+02  0.45594000000E+02  0.51100000000E-03 0. -1.
    9900012    2    1    2    0    0 -0.14845011251E+02  0.11115610113E+02  0.36183346527E+02  0.50528859415E+02  0.29999998677E+02 0.  0.
         12    1    1    2    0    0  0.14845011251E+02 -0.11115610113E+02 -0.36183346527E+02  0.40659140585E+02  0.00000000000E+00 0. -1.
         11    1    3    3    0    0 -0.23395810195E+01  0.12583419222E+02  0.93111130251E+01  0.15827599461E+02  0.51100000000E-03 0. -1.
        -11    1    3    3    0    0 -0.32007624093E+01 -0.90662816305E+01  0.90197965552E+01  0.13183287631E+02  0.51100000000E-03 0.  1.
         12    1    3    3    0    0 -0.93046678223E+01  0.75984725216E+01  0.17852436947E+02  0.21517972323E+02  0.00000000000E+00 0. -1.
</event>
<event>
 7    1  0.6073302E-013  0.5052886E+02  0.7816164E-02  0.1300439E+00
        -11   -1    0    0    0    0  0.00000000000E+00  0.00000000000E+00  0.45593999997E+02  0.45594000000E+02  0.51100000000E-03 0. -1.
         11   -1    0    0    0    0 -0.00000000000E+00 -0.00000000000E+00 -0.45593999997E+02  0.45594000000E+02  0.51100000000E-03 0.  1.
    9900012    2    1    2    0    0 -0.29153706487E+02  0.23681832085E+02 -0.15569134594E+02  0.50528859270E+02  0.29999998238E+02 0.  0.
         12    1    1    2    0    0  0.29153706487E+02 -0.23681832085E+02  0.15569134594E+02  0.40659140730E+02  0.00000000000E+00 0. -1.
         11    1    3    3    0    0 -0.54712377009E+01  0.32478742436E+01 -0.12830408138E+02  0.14321400153E+02  0.51100000000E-03 0. -1.
        -11    1    3    3    0    0 -0.20176864469E+02  0.22757879342E+02  0.12100847441E+01  0.30438318569E+02  0.51100000000E-03 0.  1.
         12    1    3    3    0    0 -0.35056043176E+01 -0.23239215007E+01 -0.39488111997E+01  0.57691405481E+01  0.00000000000E+00 0. -1.
</event>
<event>
 7    1  0.6073302E-013  0.5052886E+02  0.7816164E-02  0.1300439E+00
        -11   -1    0    0    0    0  0.00000000000E+00  0.00000000000E+00  0.45593999997E+02  0.45594000000E+02  0.51100000000E-03 0. -1.
         11   -1    0    0    0    0 -0.00000000000E+00 -0.00000000000E+00 -0.45593999997E+02  0.45594000000E+02  0.51100000000E-03 0.  1.
    9900012    2    1    2    0    0 -0.28144638231E+02  0.19526191182E+02 -0.21903720084E+02  0.50528858878E+02  0.29999997046E+02 0.  0.
         12    1    1    2    0    0  0.28144638231E+02 -0.19526191182E+02  0.21903720084E+02  0.40659141122E+02  0.00000000000E+00 0. -1.
         11    1    3    3    0    0 -0.15367838480E+01 -0.23276713036E+01 -0.61564386956E+01  0.67588087683E+01  0.51100000000E-03 0. -1.
        -11    1    3    3    0    0 -0.14174058933E+02  0.93004447269E+01  0.38490244091E+01  0.17384395529E+02  0.51100000000E-03 0.  1.
        -12    1    3    3    0    0 -0.12433795450E+02  0.12553417759E+02 -0.19596305798E+02  0.26385654581E+02  0.00000000000E+00 0.  1.
</event>
<event>
 7    1  0.6073302E-013  0.5052881E+02  0.7816164E-02  0.1300439E+00
        -11   -1    0    0    0    0  0.00000000000E+00  0.00000000000E+00  0.45593999997E+02  0.45594000000E+02  0.51100000000E-03 0.  1.
         11   -1    0    0    0    0 -0.00000000000E+00 -0.00000000000E+00 -0.45593999997E+02  0.45594000000E+02  0.51100000000E-03 0. -1.
    9900012    2    1    2    0    0 -0.21807492411E+02  0.10620577208E+02  0.32631371887E+02  0.50528808951E+02  0.29999845288E+02 0.  0.
         12    1    1    2    0    0  0.21807492411E+02 -0.10620577208E+02 -0.32631371887E+02  0.40659191049E+02  0.00000000000E+00 0. -1.
         11    1    3    3    0    0 -0.56227060284E+01 -0.59493353805E+01  0.16787397677E+02  0.18676887738E+02  0.51100000000E-03 0. -1.
        -11    1    3    3    0    0 -0.25156538197E+01  0.85031077991E+01 -0.73794555305E+00  0.88980852033E+01  0.51100000000E-03 0.  1.
         12    1    3    3    0    0 -0.13669132563E+02  0.80668047894E+01  0.16581919764E+02  0.22953836010E+02  0.00000000000E+00 0. -1.
</event>
<event>
 7    1  0.6073302E-013  0.5052886E+02  0.7816164E-02  0.1300439E+00
        -11   -1    0    0    0    0  0.00000000000E+00  0.00000000000E+00  0.45593999997E+02  0.45594000000E+02  0.51100000000E-03 0.  1.
         11   -1    0    0    0    0 -0.00000000000E+00 -0.00000000000E+00 -0.45593999997E+02  0.45594000000E+02  0.51100000000E-03 0. -1.
    9900012    2    1    2    0    0  0.25529936150E+02 -0.27325103088E+02  0.15960166291E+02  0.50528858265E+02  0.29999995182E+02 0.  0.
         12    1    1    2    0    0 -0.25529936150E+02  0.27325103088E+02 -0.15960166291E+02  0.40659141735E+02  0.00000000000E+00 0. -1.
         11    1    3    3    0    0  0.21664338067E+00 -0.18243317132E+02  0.56300767031E+01  0.19093541271E+02  0.51100000000E-03 0. -1.
        -11    1    3    3    0    0  0.23676697167E+02 -0.74351587233E+01  0.12902341292E+02  0.27970305416E+02  0.51100000000E-03 0.  1.
         12    1    3    3    0    0  0.16365956022E+01 -0.16466272326E+01 -0.25722517038E+01  0.34650115780E+01  0.00000000000E+00 0. -1.
</event>
<event>
 7    1  0.6073302E-013  0.5052886E+02  0.7816164E-02  0.1300439E+00
        -11   -1    0    0    0    0  0.00000000000E+00  0.00000000000E+00  0.45593999997E+02  0.45594000000E+02  0.51100000000E-03 0.  1.
         11   -1    0    0    0    0 -0.00000000000E+00 -0.00000000000E+00 -0.45593999997E+02  0.45594000000E+02  0.51100000000E-03 0. -1.
    9900012    2    1    2    0    0 -0.13064379400E+02  0.20008531260E+02  0.32895989926E+02  0.50528862214E+02  0.30000007185E+02 0.  0.
         12    1    1    2    0    0  0.13064379400E+02 -0.20008531260E+02 -0.32895989926E+02  0.40659137786E+02  0.00000000000E+00 0. -1.
         11    1    3    3    0    0  0.17396811381E+01  0.19508752597E+02  0.80907505043E+01  0.21191464375E+02  0.51100000000E-03 0. -1.
        -11    1    3    3    0    0 -0.12730022217E+02  0.84279341120E+00  0.17004337718E+02  0.21258204718E+02  0.51100000000E-03 0.  1.
         12    1    3    3    0    0 -0.20740383212E+01 -0.34301474840E+00  0.78009017043E+01  0.80791931203E+01  0.00000000000E+00 0. -1.
</event>
<event>
 7    1  0.6073302E-013  0.5052886E+02  0.7816164E-02  0.1300439E+00
        -11   -1    0    0    0    0  0.00000000000E+00  0.00000000000E+00  0.45593999997E+02  0.45594000000E+02  0.51100000000E-03 0.  1.
         11   -1    0    0    0    0 -0.00000000000E+00 -0.00000000000E+00 -0.45593999997E+02  0.45594000000E+02  0.51100000000E-03 0. -1.
    9900012    2    1    2    0    0 -0.32900721117E+01  0.29333474193E+02  0.27962264520E+02  0.50528861792E+02  0.30000005904E+02 0.  0.
         12    1    1    2    0    0  0.32900721117E+01 -0.29333474193E+02 -0.27962264520E+02  0.40659138208E+02  0.00000000000E+00 0. -1.
         11    1    3    3    0    0 -0.72290653545E+01  0.64116312733E+00  0.12490818285E+00  0.72585176428E+01  0.51100000000E-03 0. -1.
        -11    1    3    3    0    0 -0.26134201890E+01  0.25224155980E+02  0.18725567340E+02  0.31523560752E+02  0.51100000000E-03 0.  1.
         12    1    3    3    0    0  0.65524134319E+01  0.34681550855E+01  0.91117889965E+01  0.11746783398E+02  0.00000000000E+00 0. -1.
</event>
<event>
 7    1  0.6073302E-013  0.5052884E+02  0.7816164E-02  0.1300439E+00
        -11   -1    0    0    0    0  0.00000000000E+00  0.00000000000E+00  0.45593999997E+02  0.45594000000E+02  0.51100000000E-03 0.  1.
         11   -1    0    0    0    0 -0.00000000000E+00 -0.00000000000E+00 -0.45593999997E+02  0.45594000000E+02  0.51100000000E-03 0. -1.
    9900012    2    1    2    0    0 -0.16801904539E+02  0.32049798463E+01  0.36886196335E+02  0.50528839015E+02  0.29999936669E+02 0.  0.
         12    1    1    2    0    0  0.16801904539E+02 -0.32049798463E+01 -0.36886196335E+02  0.40659160985E+02  0.00000000000E+00 0. -1.
         11    1    3    3    0    0 -0.45074790842E+01  0.12953383178E+02  0.88192185196E+01  0.16306014811E+02  0.51100000000E-03 0. -1.
        -11    1    3    3    0    0 -0.77729625390E+01 -0.54455291673E+01  0.58569697931E+01  0.11152436055E+02  0.51100000000E-03 0.  1.
         12    1    3    3    0    0 -0.45214629155E+01 -0.43028741645E+01  0.22210008023E+02  0.23070388149E+02  0.00000000000E+00 0. -1.
</event>
<event>
 7    1  0.6073302E-013  0.5052887E+02  0.7816164E-02  0.1300439E+00
        -11   -1    0    0    0    0  0.00000000000E+00  0.00000000000E+00  0.45593999997E+02  0.45594000000E+02  0.51100000000E-03 0.  1.
         11   -1    0    0    0    0 -0.00000000000E+00 -0.00000000000E+00 -0.45593999997E+02  0.45594000000E+02  0.51100000000E-03 0. -1.
    9900012    2    1    2    0    0 -0.68357735360E+01 -0.14800561599E+02  0.37247556383E+02  0.50528869660E+02  0.30000029819E+02 0.  0.
         12    1    1    2    0    0  0.68357735360E+01  0.14800561599E+02 -0.37247556383E+02  0.40659130340E+02  0.00000000000E+00 0. -1.
         11    1    3    3    0    0  0.13643217713E+01 -0.77368590430E+01  0.63366332836E+01  0.10093229581E+02  0.51100000000E-03 0. -1.
        -11    1    3    3    0    0 -0.16214455956E+02 -0.53371952975E+01  0.25227154247E+02  0.30459867814E+02  0.51100000000E-03 0.  1.
        -12    1    3    3    0    0  0.80143606483E+01 -0.17265072586E+01  0.56837688523E+01  0.99757722649E+01  0.00000000000E+00 0.  1.
</event>
<event>
 7    1  0.6073302E-013  0.5052887E+02  0.7816164E-02  0.1300439E+00
        -11   -1    0    0    0    0  0.00000000000E+00  0.00000000000E+00  0.45593999997E+02  0.45594000000E+02  0.51100000000E-03 0. -1.
         11   -1    0    0    0    0 -0.00000000000E+00 -0.00000000000E+00 -0.45593999997E+02  0.45594000000E+02  0.51100000000E-03 0.  1.
    9900012    2    1    2    0    0  0.81934191973E+01 -0.33493194036E+02 -0.21546200801E+02  0.50528868998E+02  0.30000027805E+02 0.  0.
         12    1    1    2    0    0 -0.81934191973E+01  0.33493194036E+02  0.21546200801E+02  0.40659131002E+02  0.00000000000E+00 0. -1.
         11    1    3    3    0    0 -0.86340285672E+01 -0.14437884734E+01 -0.41605820369E+01  0.96923380874E+01  0.51100000000E-03 0. -1.
        -11    1    3    3    0    0  0.11482841785E+02 -0.16341116331E+02 -0.12410868031E+02  0.23514195371E+02  0.51100000000E-03 0.  1.
         12    1    3    3    0    0  0.53446059791E+01 -0.15708289232E+02 -0.49747507338E+01  0.17322335539E+02  0.00000000000E+00 0. -1.
</event>
<event>
 7    1  0.6073302E-013  0.5052885E+02  0.7816164E-02  0.1300439E+00
        -11   -1    0    0    0    0  0.00000000000E+00  0.00000000000E+00  0.45593999997E+02  0.45594000000E+02  0.51100000000E-03 0.  1.
         11   -1    0    0    0    0 -0.00000000000E+00 -0.00000000000E+00 -0.45593999997E+02  0.45594000000E+02  0.51100000000E-03 0. -1.
    9900012    2    1    2    0    0  0.35612657106E+01 -0.33797883660E+02  0.22320107491E+02  0.50528846642E+02  0.29999959854E+02 0.  0.
         12    1    1    2    0    0 -0.35612657106E+01  0.33797883660E+02 -0.22320107491E+02  0.40659153358E+02  0.00000000000E+00 0. -1.
         11    1    3    3    0    0  0.94484054856E+01 -0.12186850155E+01  0.11804785190E+02  0.15169393958E+02  0.51100000000E-03 0. -1.
        -11    1    3    3    0    0  0.89489148608E+00 -0.88423620518E+01  0.44462410000E+01  0.99376685756E+01  0.51100000000E-03 0.  1.
         12    1    3    3    0    0 -0.67820312611E+01 -0.23736836593E+02  0.60690813009E+01  0.25421784109E+02  0.00000000000E+00 0. -1.
</event>
<event>
 7    1  0.6073302E-013  0.5052886E+02  0.7816164E-02  0.1300439E+00
        -11   -1    0    0    0    0  0.00000000000E+00  0.00000000000E+00  0.45593999997E+02  0.45594000000E+02  0.51100000000E-03 0.  1.
         11   -1    0    0    0    0 -0.00000000000E+00 -0.00000000000E+00 -0.45593999997E+02  0.45594000000E+02  0.51100000000E-03 0. -1.
    9900012    2    1    2    0    0  0.12884506709E+02 -0.26247172926E+02  0.28253165965E+02  0.50528856049E+02  0.29999988447E+02 0.  0.
         12    1    1    2    0    0 -0.12884506709E+02  0.26247172926E+02 -0.28253165965E+02  0.40659143951E+02  0.00000000000E+00 0. -1.
         11    1    3    3    0    0  0.12380770817E+02 -0.11201201806E+02 -0.15059505496E+01  0.16763600306E+02  0.51100000000E-03 0. -1.
        -11    1    3    3    0    0  0.22861153052E+01 -0.13135614427E+02  0.24507584632E+02  0.27899684484E+02  0.51100000000E-03 0.  1.
         12    1    3    3    0    0 -0.17823794131E+01 -0.19103566936E+01  0.52515318828E+01  0.58655712582E+01  0.00000000000E+00 0. -1.
</event>
<event>
 7    1  0.6073302E-013  0.5052886E+02  0.7816164E-02  0.1300439E+00
        -11   -1    0    0    0    0  0.00000000000E+00  0.00000000000E+00  0.45593999997E+02  0.45594000000E+02  0.51100000000E-03 0. -1.
         11   -1    0    0    0    0 -0.00000000000E+00 -0.00000000000E+00 -0.45593999997E+02  0.45594000000E+02  0.51100000000E-03 0.  1.
    9900012    2    1    2    0    0  0.28694535901E+02  0.11188373395E+02 -0.26544481249E+02  0.50528861118E+02  0.30000003856E+02 0.  0.
         12    1    1    2    0    0 -0.28694535901E+02 -0.11188373395E+02  0.26544481249E+02  0.40659138882E+02  0.00000000000E+00 0. -1.
         11    1    3    3    0    0  0.52050224028E+01 -0.48592503126E+01  0.21690151397E+01  0.74437355375E+01  0.51100000000E-03 0. -1.
        -11    1    3    3    0    0  0.23114396131E+02  0.96367893397E+01 -0.18973926884E+02  0.31418989783E+02  0.51100000000E-03 0.  1.
        -12    1    3    3    0    0  0.37511736715E+00  0.64108343676E+01 -0.97395695047E+01  0.11666135798E+02  0.00000000000E+00 0.  1.
</event>
<event>
 7    1  0.6073302E-013  0.5052886E+02  0.7816164E-02  0.1300439E+00
        -11   -1    0    0    0    0  0.00000000000E+00  0.00000000000E+00  0.45593999997E+02  0.45594000000E+02  0.51100000000E-03 0. -1.
         11   -1    0    0    0    0 -0.00000000000E+00 -0.00000000000E+00 -0.45593999997E+02  0.45594000000E+02  0.51100000000E-03 0.  1.
    9900012    2    1    2    0    0  0.12589305855E+02 -0.20914499026E+02 -0.32515509677E+02  0.50528864975E+02  0.30000015578E+02 0.  0.
         12    1    1    2    0    0 -0.12589305855E+02  0.20914499026E+02  0.32515509677E+02  0.40659135025E+02  0.00000000000E+00 0. -1.
         11    1    3    3    0    0 -0.33514053140E+01 -0.18317518277E+02 -0.11499262070E+02  0.21885986883E+02  0.51100000000E-03 0. -1.
        -11    1    3    3    0    0  0.47890531632E+01  0.12678828304E+01 -0.50673242673E+00  0.49798930796E+01  0.51100000000E-03 0.  1.
         12    1    3    3    0    0  0.11151658006E+02 -0.38648635785E+01 -0.20509515180E+02  0.23662985012E+02  0.00000000000E+00 0. -1.
</event>
<event>
 7    1  0.6073302E-013  0.5052886E+02  0.7816164E-02  0.1300439E+00
        -11   -1    0    0    0    0  0.00000000000E+00  0.00000000000E+00  0.45593999997E+02  0.45594000000E+02  0.51100000000E-03 0. -1.
         11   -1    0    0    0    0 -0.00000000000E+00 -0.00000000000E+00 -0.45593999997E+02  0.45594000000E+02  0.51100000000E-03 0.  1.
    9900012    2    1    2    0    0 -0.33927325772E+02 -0.18814937987E+02 -0.12169642293E+02  0.50528861802E+02  0.30000005933E+02 0.  0.
         12    1    1    2    0    0  0.33927325772E+02  0.18814937987E+02  0.12169642293E+02  0.40659138198E+02  0.00000000000E+00 0. -1.
         11    1    3    3    0    0 -0.15456308459E+02  0.52978545226E+01 -0.79852829377E+01  0.18185969251E+02  0.51100000000E-03 0. -1.
        -11    1    3    3    0    0  0.91402155814E+00 -0.41250161634E+01 -0.67243976202E+00  0.42782437111E+01  0.51100000000E-03 0.  1.
         12    1    3    3    0    0 -0.19385038870E+02 -0.19987776346E+02 -0.35119195934E+01  0.28064648840E+02  0.00000000000E+00 0. -1.
</event>
<event>
 7    1  0.6073302E-013  0.5052898E+02  0.7816164E-02  0.1300438E+00
        -11   -1    0    0    0    0  0.00000000000E+00  0.00000000000E+00  0.45593999997E+02  0.45594000000E+02  0.51100000000E-03 0.  1.
         11   -1    0    0    0    0 -0.00000000000E+00 -0.00000000000E+00 -0.45593999997E+02  0.45594000000E+02  0.51100000000E-03 0. -1.
    9900012    2    1    2    0    0  0.19048004128E+02  0.27516475971E+01  0.35815604233E+02  0.50528984612E+02  0.30000379223E+02 0.  0.
         12    1    1    2    0    0 -0.19048004128E+02 -0.27516475971E+01 -0.35815604233E+02  0.40659015388E+02  0.00000000000E+00 0. -1.
         11    1    3    3    0    0  0.12523072514E+02 -0.89345297919E+01  0.25475199103E+02  0.29759686447E+02  0.51100000000E-03 0. -1.
        -11    1    3    3    0    0  0.33788372960E+00  0.60265412580E+01 -0.15385342376E+01  0.62290009481E+01  0.51100000000E-03 0.  1.
         12    1    3    3    0    0  0.61870478835E+01  0.56596361310E+01  0.11878939368E+02  0.14540297217E+02  0.00000000000E+00 0. -1.
</event>
<event>
 7    1  0.6073302E-013  0.5052886E+02  0.7816164E-02  0.1300439E+00
        -11   -1    0    0    0    0  0.00000000000E+00  0.00000000000E+00  0.45593999997E+02  0.45594000000E+02  0.51100000000E-03 0.  1.
         11   -1    0    0    0    0 -0.00000000000E+00 -0.00000000000E+00 -0.45593999997E+02  0.45594000000E+02  0.51100000000E-03 0. -1.
    9900012    2    1    2    0    0 -0.17877776720E+02 -0.32020024394E+02  0.17557593030E+02  0.50528856678E+02  0.29999990360E+02 0.  0.
         12    1    1    2    0    0  0.17877776720E+02  0.32020024394E+02 -0.17557593030E+02  0.40659143322E+02  0.00000000000E+00 0. -1.
         11    1    3    3    0    0 -0.43119732676E+01 -0.84057710355E+01 -0.58950297899E+01  0.11135595029E+02  0.51100000000E-03 0. -1.
        -11    1    3    3    0    0 -0.15945749042E+02 -0.24391220474E+02  0.21373977486E+02  0.36139250996E+02  0.51100000000E-03 0.  1.
         12    1    3    3    0    0  0.23799455898E+01  0.77696711539E+00  0.20786453341E+01  0.32540106536E+01  0.00000000000E+00 0. -1.
</event>
<event>
 7    1  0.6073302E-013  0.5052888E+02  0.7816164E-02  0.1300439E+00
        -11   -1    0    0    0    0  0.00000000000E+00  0.00000000000E+00  0.45593999997E+02  0.45594000000E+02  0.51100000000E-03 0.  1.
         11   -1    0    0    0    0 -0.00000000000E+00 -0.00000000000E+00 -0.45593999997E+02  0.45594000000E+02  0.51100000000E-03 0. -1.
    9900012    2    1    2    0    0 -0.21563581003E+02  0.30954385713E+02  0.15165813391E+02  0.50528881510E+02  0.30000065838E+02 0.  0.
         12    1    1    2    0    0  0.21563581003E+02 -0.30954385713E+02 -0.15165813391E+02  0.40659118490E+02  0.00000000000E+00 0. -1.
         11    1    3    3    0    0 -0.92227046187E+01  0.53352597548E-01 -0.42890222835E+01  0.10171373525E+02  0.51100000000E-03 0. -1.
        -11    1    3    3    0    0 -0.13956565582E+02  0.28082945220E+02  0.14788514913E+02  0.34671857589E+02  0.51100000000E-03 0.  1.
         12    1    3    3    0    0  0.16156891976E+01  0.28180878954E+01  0.46663207615E+01  0.56856503953E+01  0.00000000000E+00 0. -1.
</event>
<event>
 7    1  0.6073302E-013  0.5052885E+02  0.7816164E-02  0.1300439E+00
        -11   -1    0    0    0    0  0.00000000000E+00  0.00000000000E+00  0.45593999997E+02  0.45594000000E+02  0.51100000000E-03 0.  1.
         11   -1    0    0    0    0 -0.00000000000E+00 -0.00000000000E+00 -0.45593999997E+02  0.45594000000E+02  0.51100000000E-03 0. -1.
    9900012    2    1    2    0    0 -0.42602833973E+01 -0.22726820021E+02  0.33444100577E+02  0.50528853104E+02  0.29999979496E+02 0.  0.
         12    1    1    2    0    0  0.42602833973E+01  0.22726820021E+02 -0.33444100577E+02  0.40659146896E+02  0.00000000000E+00 0. -1.
         11    1    3    3    0    0 -0.10869125925E+02 -0.18875095686E+02  0.14495863345E+02  0.26163661631E+02  0.51100000000E-03 0.  1.
        -11    1    3    3    0    0  0.65224123711E+01 -0.16138694422E+01  0.16448936488E+01  0.69175221787E+01  0.51100000000E-03 0. -1.
         12    1    3    3    0    0  0.86430156630E-01 -0.22378548931E+01  0.17303343583E+02  0.17447669295E+02  0.00000000000E+00 0. -1.
</event>
<event>
 7    1  0.6073302E-013  0.5052886E+02  0.7816164E-02  0.1300439E+00
        -11   -1    0    0    0    0  0.00000000000E+00  0.00000000000E+00  0.45593999997E+02  0.45594000000E+02  0.51100000000E-03 0.  1.
         11   -1    0    0    0    0 -0.00000000000E+00 -0.00000000000E+00 -0.45593999997E+02  0.45594000000E+02  0.51100000000E-03 0. -1.
    9900012    2    1    2    0    0  0.48521253077E+01  0.99082481576E+01  0.39133731353E+02  0.50528862882E+02  0.30000009217E+02 0.  0.
         12    1    1    2    0    0 -0.48521253077E+01 -0.99082481576E+01 -0.39133731353E+02  0.40659137118E+02  0.00000000000E+00 0. -1.
         11    1    3    3    0    0 -0.26745118636E+01  0.33766951402E+01 -0.61817814541E+00  0.43516925741E+01  0.51100000000E-03 0. -1.
        -11    1    3    3    0    0  0.12037882803E+02  0.50511234324E+01  0.39295594678E+02  0.41407345141E+02  0.51100000000E-03 0.  1.
        -12    1    3    3    0    0 -0.45112456316E+01  0.14804295850E+01  0.45631482041E+00  0.47698251666E+01  0.00000000000E+00 0.  1.
</event>
<event>
 7    1  0.6073302E-013  0.5052886E+02  0.7816164E-02  0.1300439E+00
        -11   -1    0    0    0    0  0.00000000000E+00  0.00000000000E+00  0.45593999997E+02  0.45594000000E+02  0.51100000000E-03 0.  1.
         11   -1    0    0    0    0 -0.00000000000E+00 -0.00000000000E+00 -0.45593999997E+02  0.45594000000E+02  0.51100000000E-03 0. -1.
    9900012    2    1    2    0    0 -0.75120189879E+01 -0.32978432793E+02  0.22564525781E+02  0.50528864711E+02  0.30000014775E+02 0.  0.
         12    1    1    2    0    0  0.75120189879E+01  0.32978432793E+02 -0.22564525781E+02  0.40659135289E+02  0.00000000000E+00 0. -1.
         11    1    3    3    0    0 -0.19073799074E+01 -0.24653876675E+02  0.13111466814E+02  0.27988610103E+02  0.51100000000E-03 0. -1.
        -11    1    3    3    0    0 -0.68071888469E+01  0.24968212888E+01  0.91148772171E+01  0.11647013501E+02  0.51100000000E-03 0.  1.
         12    1    3    3    0    0  0.12025497664E+01 -0.10821377406E+02  0.33818175000E+00  0.10893241107E+02  0.00000000000E+00 0. -1.
</event>
<event>
 7    1  0.6073302E-013  0.5052886E+02  0.7816164E-02  0.1300439E+00
        -11   -1    0    0    0    0  0.00000000000E+00  0.00000000000E+00  0.45593999997E+02  0.45594000000E+02  0.51100000000E-03 0. -1.
         11   -1    0    0    0    0 -0.00000000000E+00 -0.00000000000E+00 -0.45593999997E+02  0.45594000000E+02  0.51100000000E-03 0.  1.
    9900012    2    1    2    0    0  0.72144201192E+01 -0.38118143145E+02 -0.12170651234E+02  0.50528862701E+02  0.30000008665E+02 0.  0.
         12    1    1    2    0    0 -0.72144201192E+01  0.38118143145E+02  0.12170651234E+02  0.40659137299E+02  0.00000000000E+00 0. -1.
         11    1    3    3    0    0  0.63800245958E+01 -0.37275538793E+02 -0.72173561137E+01  0.38500139424E+02  0.51100000000E-03 0. -1.
        -11    1    3    3    0    0  0.34892573703E+01 -0.16700575180E+01 -0.73836091182E+01  0.83355679459E+01  0.51100000000E-03 0.  1.
         12    1    3    3    0    0 -0.26548618469E+01  0.82745316550E+00  0.24303139983E+01  0.36931553309E+01  0.00000000000E+00 0. -1.
</event>
<event>
 7    1  0.6073302E-013  0.5052886E+02  0.7816164E-02  0.1300439E+00
        -11   -1    0    0    0    0  0.00000000000E+00  0.00000000000E+00  0.45593999997E+02  0.45594000000E+02  0.51100000000E-03 0.  1.
         11   -1    0    0    0    0 -0.00000000000E+00 -0.00000000000E+00 -0.45593999997E+02  0.45594000000E+02  0.51100000000E-03 0. -1.
    9900012    2    1    2    0    0  0.87226853243E+01  0.11421953465E+02  0.38034445625E+02  0.50528864320E+02  0.30000013587E+02 0.  0.
         12    1    1    2    0    0 -0.87226853243E+01 -0.11421953465E+02 -0.38034445625E+02  0.40659135680E+02  0.00000000000E+00 0. -1.
         11    1    3    3    0    0 -0.73254331052E+01  0.12368787322E+02  0.21468195260E+02  0.25836646028E+02  0.51100000000E-03 0. -1.
        -11    1    3    3    0    0  0.10160545876E+02  0.35935986037E+00  0.43300331464E+01  0.11050566470E+02  0.51100000000E-03 0.  1.
        -12    1    3    3    0    0  0.58875725539E+01 -0.13061937173E+01  0.12236217219E+02  0.13641651822E+02  0.00000000000E+00 0.  1.
</event>
<event>
 7    1  0.6073302E-013  0.5052883E+02  0.7816164E-02  0.1300439E+00
        -11   -1    0    0    0    0  0.00000000000E+00  0.00000000000E+00  0.45593999997E+02  0.45594000000E+02  0.51100000000E-03 0. -1.
         11   -1    0    0    0    0 -0.00000000000E+00 -0.00000000000E+00 -0.45593999997E+02  0.45594000000E+02  0.51100000000E-03 0.  1.
    9900012    2    1    2    0    0 -0.27604147472E+02  0.11375342465E+02 -0.27600369274E+02  0.50528834269E+02  0.29999922245E+02 0.  0.
         12    1    1    2    0    0  0.27604147472E+02 -0.11375342465E+02  0.27600369274E+02  0.40659165731E+02  0.00000000000E+00 0. -1.
         11    1    3    3    0    0 -0.12376501180E+02  0.56660313158E+01  0.15532161623E+01  0.13700152300E+02  0.51100000000E-03 0. -1.
        -11    1    3    3    0    0  0.13201781370E+01  0.38969800915E+00 -0.13085719695E+02  0.13157917581E+02  0.51100000000E-03 0.  1.
        -12    1    3    3    0    0 -0.16547824429E+02  0.53196131400E+01 -0.16067865741E+02  0.23670764389E+02  0.00000000000E+00 0.  1.
</event>
<event>
 7    1  0.6073302E-013  0.5052886E+02  0.7816164E-02  0.1300439E+00
        -11   -1    0    0    0    0  0.00000000000E+00  0.00000000000E+00  0.45593999997E+02  0.45594000000E+02  0.51100000000E-03 0.  1.
         11   -1    0    0    0    0 -0.00000000000E+00 -0.00000000000E+00 -0.45593999997E+02  0.45594000000E+02  0.51100000000E-03 0. -1.
    9900012    2    1    2    0    0 -0.27900967790E+02 -0.29447007373E+02  0.27523480391E+01  0.50528859988E+02  0.30000000419E+02 0.  0.
         12    1    1    2    0    0  0.27900967790E+02  0.29447007373E+02 -0.27523480391E+01  0.40659140012E+02  0.00000000000E+00 0. -1.
         11    1    3    3    0    0 -0.15025824912E+02 -0.13192191592E+01  0.71880807381E+01  0.16708807810E+02  0.51100000000E-03 0. -1.
        -11    1    3    3    0    0 -0.56588810462E+01 -0.19837312095E+02 -0.82049561167E+01  0.22200522313E+02  0.51100000000E-03 0.  1.
         12    1    3    3    0    0 -0.72162618315E+01 -0.82904761186E+01  0.37692234177E+01  0.11619529864E+02  0.00000000000E+00 0. -1.
</event>
<event>
 7    1  0.6073302E-013  0.5052885E+02  0.7816164E-02  0.1300439E+00
        -11   -1    0    0    0    0  0.00000000000E+00  0.00000000000E+00  0.45593999997E+02  0.45594000000E+02  0.51100000000E-03 0.  1.
         11   -1    0    0    0    0 -0.00000000000E+00 -0.00000000000E+00 -0.45593999997E+02  0.45594000000E+02  0.51100000000E-03 0. -1.
    9900012    2    1    2    0    0 -0.56391712915E+01  0.39204012468E+02  0.91875806496E+01  0.50528849927E+02  0.29999969838E+02 0.  0.
         12    1    1    2    0    0  0.56391712915E+01 -0.39204012468E+02 -0.91875806496E+01  0.40659150073E+02  0.00000000000E+00 0. -1.
         11    1    3    3    0    0 -0.88402412043E+01  0.44869134250E+01  0.42171369266E+01  0.10773416392E+02  0.51100000000E-03 0. -1.
        -11    1    3    3    0    0 -0.98779881799E+00  0.34443388159E+02  0.18175451925E+01  0.34505451818E+02  0.51100000000E-03 0.  1.
        -12    1    3    3    0    0  0.41888687308E+01  0.27371088461E+00  0.31528985306E+01  0.52499817177E+01  0.00000000000E+00 0.  1.
</event>
<event>
 7    1  0.6073302E-013  0.5052889E+02  0.7816164E-02  0.1300439E+00
        -11   -1    0    0    0    0  0.00000000000E+00  0.00000000000E+00  0.45593999997E+02  0.45594000000E+02  0.51100000000E-03 0.  1.
         11   -1    0    0    0    0 -0.00000000000E+00 -0.00000000000E+00 -0.45593999997E+02  0.45594000000E+02  0.51100000000E-03 0. -1.
    9900012    2    1    2    0    0  0.35509678952E+02  0.19320090097E+02  0.43543019179E+01  0.50528891232E+02  0.30000095389E+02 0.  0.
         12    1    1    2    0    0 -0.35509678952E+02 -0.19320090097E+02 -0.43543019179E+01  0.40659108768E+02  0.00000000000E+00 0. -1.
         11    1    3    3    0    0  0.13726739871E+02 -0.55061198780E+01 -0.49269228414E+01  0.15588948410E+02  0.51100000000E-03 0. -1.
        -11    1    3    3    0    0  0.12814538416E+02  0.19134728828E+02  0.70717473629E+01  0.24090659044E+02  0.51100000000E-03 0.  1.
         12    1    3    3    0    0  0.89684006645E+01  0.56914811472E+01  0.22094773964E+01  0.10849283778E+02  0.00000000000E+00 0. -1.
</event>
<event>
 7    1  0.6073302E-013  0.5052887E+02  0.7816164E-02  0.1300439E+00
        -11   -1    0    0    0    0  0.00000000000E+00  0.00000000000E+00  0.45593999997E+02  0.45594000000E+02  0.51100000000E-03 0.  1.
         11   -1    0    0    0    0 -0.00000000000E+00 -0.00000000000E+00 -0.45593999997E+02  0.45594000000E+02  0.51100000000E-03 0. -1.
    9900012    2    1    2    0    0 -0.65594288314E+01  0.15000127013E+02  0.37217403863E+02  0.50528867357E+02  0.30000022818E+02 0.  0.
         12    1    1    2    0    0  0.65594288314E+01 -0.15000127013E+02 -0.37217403863E+02  0.40659132643E+02  0.00000000000E+00 0. -1.
         11    1    3    3    0    0 -0.10919208320E+02  0.16617702075E+02  0.13471026058E+02  0.24017611787E+02  0.51100000000E-03 0.  1.
        -11    1    3    3    0    0  0.30903159983E+01 -0.61435211525E+01  0.11575889908E+02  0.13464550959E+02  0.51100000000E-03 0. -1.
         12    1    3    3    0    0  0.12694634903E+01  0.45259460897E+01  0.12170487897E+02  0.13046704611E+02  0.00000000000E+00 0. -1.
</event>
<event>
 7    1  0.6073302E-013  0.5052885E+02  0.7816164E-02  0.1300439E+00
        -11   -1    0    0    0    0  0.00000000000E+00  0.00000000000E+00  0.45593999997E+02  0.45594000000E+02  0.51100000000E-03 0. -1.
         11   -1    0    0    0    0 -0.00000000000E+00 -0.00000000000E+00 -0.45593999997E+02  0.45594000000E+02  0.51100000000E-03 0.  1.
    9900012    2    1    2    0    0  0.28176726973E+02 -0.27769533699E+02 -0.93857187902E+01  0.50528847747E+02  0.29999963211E+02 0.  0.
         12    1    1    2    0    0 -0.28176726973E+02  0.27769533699E+02  0.93857187902E+01  0.40659152253E+02  0.00000000000E+00 0. -1.
         11    1    3    3    0    0  0.14293420443E+02 -0.25852547797E+02 -0.71942943221E+01  0.30404176795E+02  0.51100000000E-03 0. -1.
        -11    1    3    3    0    0  0.15415086775E+02 -0.28885899192E+01 -0.52753331006E+01  0.16546842345E+02  0.51100000000E-03 0.  1.
         12    1    3    3    0    0 -0.15317802449E+01  0.97160401734E+00  0.30839086325E+01  0.35778286067E+01  0.00000000000E+00 0. -1.
</event>
<event>
 7    1  0.6073302E-013  0.5052885E+02  0.7816164E-02  0.1300439E+00
        -11   -1    0    0    0    0  0.00000000000E+00  0.00000000000E+00  0.45593999997E+02  0.45594000000E+02  0.51100000000E-03 0. -1.
         11   -1    0    0    0    0 -0.00000000000E+00 -0.00000000000E+00 -0.45593999997E+02  0.45594000000E+02  0.51100000000E-03 0.  1.
    9900012    2    1    2    0    0 -0.13825742991E+02  0.34253196211E+02 -0.16992170021E+02  0.50528850206E+02  0.29999970687E+02 0.  0.
         12    1    1    2    0    0  0.13825742991E+02 -0.34253196211E+02  0.16992170021E+02  0.40659149794E+02  0.00000000000E+00 0. -1.
         11    1    3    3    0    0 -0.26336969848E+01  0.24495351668E+02 -0.48132041194E+01  0.25102301633E+02  0.51100000000E-03 0. -1.
        -11    1    3    3    0    0 -0.90757011808E+00  0.53915820775E+01 -0.13120413350E+02  0.14214010256E+02  0.51100000000E-03 0.  1.
         12    1    3    3    0    0 -0.10284475889E+02  0.43662624655E+01  0.94144744798E+00  0.11212538317E+02  0.00000000000E+00 0. -1.
</event>
<event>
 7    1  0.6073302E-013  0.5052885E+02  0.7816164E-02  0.1300439E+00
        -11   -1    0    0    0    0  0.00000000000E+00  0.00000000000E+00  0.45593999997E+02  0.45594000000E+02  0.51100000000E-03 0.  1.
         11   -1    0    0    0    0 -0.00000000000E+00 -0.00000000000E+00 -0.45593999997E+02  0.45594000000E+02  0.51100000000E-03 0. -1.
    9900012    2    1    2    0    0  0.56084723053E+01 -0.40258918141E+02 -0.96474803998E+00  0.50528853547E+02  0.29999980843E+02 0.  0.
         12    1    1    2    0    0 -0.56084723053E+01  0.40258918141E+02  0.96474803998E+00  0.40659146453E+02  0.00000000000E+00 0. -1.
         11    1    3    3    0    0  0.35258413253E+00 -0.13266954328E+02 -0.10838883428E+02  0.17135279015E+02  0.51100000000E-03 0. -1.
        -11    1    3    3    0    0  0.15082128755E+01  0.77883650127E+00  0.45678883771E+01  0.48730787866E+01  0.51100000000E-03 0.  1.
         12    1    3    3    0    0  0.37476752973E+01 -0.27770800314E+02  0.53062470109E+01  0.28520495745E+02  0.00000000000E+00 0. -1.
</event>
<event>
 7    1  0.6073302E-013  0.5052886E+02  0.7816164E-02  0.1300439E+00
        -11   -1    0    0    0    0  0.00000000000E+00  0.00000000000E+00  0.45593999997E+02  0.45594000000E+02  0.51100000000E-03 0. -1.
         11   -1    0    0    0    0 -0.00000000000E+00 -0.00000000000E+00 -0.45593999997E+02  0.45594000000E+02  0.51100000000E-03 0.  1.
    9900012    2    1    2    0    0  0.13102255651E+02 -0.21590154933E+02 -0.31864743362E+02  0.50528858806E+02  0.29999996826E+02 0.  0.
         12    1    1    2    0    0 -0.13102255651E+02  0.21590154933E+02  0.31864743362E+02  0.40659141194E+02  0.00000000000E+00 0. -1.
         11    1    3    3    0    0  0.16528701081E+02 -0.88996878105E+00 -0.16559515224E+02  0.23413832420E+02  0.51100000000E-03 0. -1.
        -11    1    3    3    0    0 -0.15301618452E+01 -0.94096700687E+01 -0.23355543993E+01  0.98151974350E+01  0.51100000000E-03 0.  1.
        -12    1    3    3    0    0 -0.18962835855E+01 -0.11290516083E+02 -0.12969673738E+02  0.17299828951E+02  0.00000000000E+00 0.  1.
</event>
<event>
 7    1  0.6073302E-013  0.5052886E+02  0.7816164E-02  0.1300439E+00
        -11   -1    0    0    0    0  0.00000000000E+00  0.00000000000E+00  0.45593999997E+02  0.45594000000E+02  0.51100000000E-03 0. -1.
         11   -1    0    0    0    0 -0.00000000000E+00 -0.00000000000E+00 -0.45593999997E+02  0.45594000000E+02  0.51100000000E-03 0.  1.
    9900012    2    1    2    0    0 -0.21051940972E+02 -0.34639454914E+02 -0.31763677007E+01  0.50528863669E+02  0.30000011609E+02 0.  0.
         12    1    1    2    0    0  0.21051940972E+02  0.34639454914E+02  0.31763677007E+01  0.40659136331E+02  0.00000000000E+00 0. -1.
         11    1    3    3    0    0  0.27427144043E+01  0.15879367474E+01 -0.34068678484E+01  0.46530392449E+01  0.51100000000E-03 0. -1.
        -11    1    3    3    0    0 -0.23930066320E+02 -0.35574689634E+02  0.30461063526E+01  0.42982384540E+02  0.51100000000E-03 0.  1.
        -12    1    3    3    0    0  0.13541094379E+00 -0.65270202763E+00 -0.28156062048E+01  0.28934398838E+01  0.00000000000E+00 0.  1.
</event>
<event>
 7    1  0.6073302E-013  0.5052885E+02  0.7816164E-02  0.1300439E+00
        -11   -1    0    0    0    0  0.00000000000E+00  0.00000000000E+00  0.45593999997E+02  0.45594000000E+02  0.51100000000E-03 0.  1.
         11   -1    0    0    0    0 -0.00000000000E+00 -0.00000000000E+00 -0.45593999997E+02  0.45594000000E+02  0.51100000000E-03 0. -1.
    9900012    2    1    2    0    0 -0.34644210909E+02  0.15089315672E+02  0.15008589742E+02  0.50528848964E+02  0.29999966910E+02 0.  0.
         12    1    1    2    0    0  0.34644210909E+02 -0.15089315672E+02 -0.15008589742E+02  0.40659151036E+02  0.00000000000E+00 0. -1.
         11    1    3    3    0    0 -0.21944755122E+02 -0.20497758472E+01  0.41988924955E+01  0.22436678828E+02  0.51100000000E-03 0. -1.
        -11    1    3    3    0    0 -0.12773161666E+01  0.74156998297E+01  0.10712804897E+02  0.13091536563E+02  0.51100000000E-03 0.  1.
         12    1    3    3    0    0 -0.11422139620E+02  0.97233916897E+01  0.96892349383E-01  0.15000633573E+02  0.00000000000E+00 0. -1.
</event>
<event>
 7    1  0.6073302E-013  0.5052887E+02  0.7816164E-02  0.1300439E+00
        -11   -1    0    0    0    0  0.00000000000E+00  0.00000000000E+00  0.45593999997E+02  0.45594000000E+02  0.51100000000E-03 0.  1.
         11   -1    0    0    0    0 -0.00000000000E+00 -0.00000000000E+00 -0.45593999997E+02  0.45594000000E+02  0.51100000000E-03 0. -1.
    9900012    2    1    2    0    0 -0.31429459148E+01 -0.19544492742E+02  0.35514782262E+02  0.50528867389E+02  0.30000022917E+02 0.  0.
         12    1    1    2    0    0  0.31429459148E+01  0.19544492742E+02 -0.35514782262E+02  0.40659132611E+02  0.00000000000E+00 0. -1.
         11    1    3    3    0    0 -0.61681785198E+01 -0.87447116941E+01  0.34148456784E+01  0.11232879423E+02  0.51100000000E-03 0. -1.
        -11    1    3    3    0    0  0.41119495480E+01  0.51705017303E+01  0.81865453087E+01  0.10519588470E+02  0.51100000000E-03 0.  1.
        -12    1    3    3    0    0 -0.10867169430E+01 -0.15970282778E+02  0.23913391275E+02  0.28776399496E+02  0.00000000000E+00 0.  1.
</event>
<event>
 7    1  0.6073302E-013  0.5052885E+02  0.7816164E-02  0.1300439E+00
        -11   -1    0    0    0    0  0.00000000000E+00  0.00000000000E+00  0.45593999997E+02  0.45594000000E+02  0.51100000000E-03 0.  1.
         11   -1    0    0    0    0 -0.00000000000E+00 -0.00000000000E+00 -0.45593999997E+02  0.45594000000E+02  0.51100000000E-03 0. -1.
    9900012    2    1    2    0    0 -0.27877808069E+02  0.23583608907E+02  0.17883160576E+02  0.50528853133E+02  0.29999979583E+02 0.  0.
         12    1    1    2    0    0  0.27877808069E+02 -0.23583608907E+02 -0.17883160576E+02  0.40659146867E+02  0.00000000000E+00 0. -1.
         11    1    3    3    0    0 -0.15838729892E+01 -0.24780910986E+01 -0.23694390880E+01  0.37767487329E+01  0.51100000000E-03 0. -1.
        -11    1    3    3    0    0 -0.14839480520E+02  0.17721136642E+02  0.22672854860E+02  0.32377572697E+02  0.51100000000E-03 0.  1.
        -12    1    3    3    0    0 -0.11454454559E+02  0.83405633628E+01 -0.24202551961E+01  0.14374531703E+02  0.00000000000E+00 0.  1.
</event>
<event>
 7    1  0.6073302E-013  0.5052886E+02  0.7816164E-02  0.1300439E+00
        -11   -1    0    0    0    0  0.00000000000E+00  0.00000000000E+00  0.45593999997E+02  0.45594000000E+02  0.51100000000E-03 0.  1.
         11   -1    0    0    0    0 -0.00000000000E+00 -0.00000000000E+00 -0.45593999997E+02  0.45594000000E+02  0.51100000000E-03 0. -1.
    9900012    2    1    2    0    0  0.30078691054E+02  0.68296019024E+01  0.26491408390E+02  0.50528857902E+02  0.29999994078E+02 0.  0.
         12    1    1    2    0    0 -0.30078691054E+02 -0.68296019024E+01 -0.26491408390E+02  0.40659142098E+02  0.00000000000E+00 0. -1.
         11    1    3    3    0    0  0.29600766347E+02  0.51330113869E+01  0.11180048944E+02  0.32055368800E+02  0.51100000000E-03 0. -1.
        -11    1    3    3    0    0  0.39106455018E+01 -0.11417820342E+01  0.22080686978E+01  0.46338301749E+01  0.51100000000E-03 0.  1.
         12    1    3    3    0    0 -0.34327207946E+01  0.28383725496E+01  0.13103290748E+02  0.13839658927E+02  0.00000000000E+00 0. -1.
</event>
<event>
 7    1  0.6073302E-013  0.5052885E+02  0.7816164E-02  0.1300439E+00
        -11   -1    0    0    0    0  0.00000000000E+00  0.00000000000E+00  0.45593999997E+02  0.45594000000E+02  0.51100000000E-03 0.  1.
         11   -1    0    0    0    0 -0.00000000000E+00 -0.00000000000E+00 -0.45593999997E+02  0.45594000000E+02  0.51100000000E-03 0. -1.
    9900012    2    1    2    0    0  0.21912520672E+02 -0.83412027540E+01  0.33217945081E+02  0.50528854645E+02  0.29999984180E+02 0.  0.
         12    1    1    2    0    0 -0.21912520672E+02  0.83412027540E+01 -0.33217945081E+02  0.40659145355E+02  0.00000000000E+00 0. -1.
         11    1    3    3    0    0  0.44163002765E+01  0.95915504124E+01  0.15937276073E+02  0.19118010260E+02  0.51100000000E-03 0. -1.
        -11    1    3    3    0    0  0.12338636394E+02 -0.10576974086E+02  0.68271652744E+01  0.17627379693E+02  0.51100000000E-03 0.  1.
         12    1    3    3    0    0  0.51575840014E+01 -0.73557790800E+01  0.10453503734E+02  0.13783464692E+02  0.00000000000E+00 0. -1.
</event>
<event>
 7    1  0.6073302E-013  0.5052886E+02  0.7816164E-02  0.1300439E+00
        -11   -1    0    0    0    0  0.00000000000E+00  0.00000000000E+00  0.45593999997E+02  0.45594000000E+02  0.51100000000E-03 0.  1.
         11   -1    0    0    0    0 -0.00000000000E+00 -0.00000000000E+00 -0.45593999997E+02  0.45594000000E+02  0.51100000000E-03 0. -1.
    9900012    2    1    2    0    0 -0.31471821577E+02 -0.25740024914E+02 -0.37601733243E+00  0.50528858039E+02  0.29999994495E+02 0.  0.
         12    1    1    2    0    0  0.31471821577E+02  0.25740024914E+02  0.37601733243E+00  0.40659141961E+02  0.00000000000E+00 0. -1.
         11    1    3    3    0    0  0.22228107304E+00 -0.11715899722E+02 -0.89122717498E+01  0.14722102539E+02  0.51100000000E-03 0. -1.
        -11    1    3    3    0    0 -0.11359645012E+02 -0.35870111271E+01  0.32204111623E+01  0.12340147160E+02  0.51100000000E-03 0.  1.
         12    1    3    3    0    0 -0.20334457639E+02 -0.10437114066E+02  0.53158432551E+01  0.23466608340E+02  0.00000000000E+00 0. -1.
</event>
<event>
 7    1  0.6073302E-013  0.5052885E+02  0.7816164E-02  0.1300439E+00
        -11   -1    0    0    0    0  0.00000000000E+00  0.00000000000E+00  0.45593999997E+02  0.45594000000E+02  0.51100000000E-03 0.  1.
         11   -1    0    0    0    0 -0.00000000000E+00 -0.00000000000E+00 -0.45593999997E+02  0.45594000000E+02  0.51100000000E-03 0. -1.
    9900012    2    1    2    0    0 -0.21279663440E+02  0.13424128191E+02  0.31939548900E+02  0.50528854931E+02  0.29999985048E+02 0.  0.
         12    1    1    2    0    0  0.21279663440E+02 -0.13424128191E+02 -0.31939548900E+02  0.40659145069E+02  0.00000000000E+00 0. -1.
         11    1    3    3    0    0 -0.96233731163E+01  0.11727801320E+02  0.53367815257E+00  0.15180100348E+02  0.51100000000E-03 0. -1.
        -11    1    3    3    0    0 -0.12411845930E+02  0.45868244833E+01  0.25322437794E+02  0.28571292137E+02  0.51100000000E-03 0.  1.
        -12    1    3    3    0    0  0.75555560620E+00 -0.28904976128E+01  0.60834329528E+01  0.67774624466E+01  0.00000000000E+00 0.  1.
</event>
<event>
 7    1  0.6073302E-013  0.5052887E+02  0.7816164E-02  0.1300439E+00
        -11   -1    0    0    0    0  0.00000000000E+00  0.00000000000E+00  0.45593999997E+02  0.45594000000E+02  0.51100000000E-03 0. -1.
         11   -1    0    0    0    0 -0.00000000000E+00 -0.00000000000E+00 -0.45593999997E+02  0.45594000000E+02  0.51100000000E-03 0.  1.
    9900012    2    1    2    0    0 -0.67612616774E+01 -0.93909851461E+01 -0.38977685655E+02  0.50528865227E+02  0.30000016344E+02 0.  0.
         12    1    1    2    0    0  0.67612616774E+01  0.93909851461E+01  0.38977685655E+02  0.40659134773E+02  0.00000000000E+00 0. -1.
         11    1    3    3    0    0 -0.82065509345E+01 -0.83404449734E+01 -0.13406720863E+02  0.17794680810E+02  0.51100000000E-03 0. -1.
        -11    1    3    3    0    0  0.77473933053E+01 -0.30712527734E+01 -0.24688851177E+02  0.26057514642E+02  0.51100000000E-03 0.  1.
        -12    1    3    3    0    0 -0.63021040482E+01  0.20207126007E+01 -0.88211361566E+00  0.66766697747E+01  0.00000000000E+00 0.  1.
</event>
<event>
 7    1  0.6073302E-013  0.5052885E+02  0.7816164E-02  0.1300439E+00
        -11   -1    0    0    0    0  0.00000000000E+00  0.00000000000E+00  0.45593999997E+02  0.45594000000E+02  0.51100000000E-03 0.  1.
         11   -1    0    0    0    0 -0.00000000000E+00 -0.00000000000E+00 -0.45593999997E+02  0.45594000000E+02  0.51100000000E-03 0. -1.
    9900012    2    1    2    0    0  0.15827899993E+02 -0.37056687325E+02  0.54264181311E+01  0.50528849646E+02  0.29999968985E+02 0.  0.
         12    1    1    2    0    0 -0.15827899993E+02  0.37056687325E+02 -0.54264181311E+01  0.40659150354E+02  0.00000000000E+00 0. -1.
         11    1    3    3    0    0  0.34103477947E+01 -0.12330329769E+01  0.19844597241E+01  0.41338750659E+01  0.51100000000E-03 0. -1.
        -11    1    3    3    0    0  0.18514918535E+02 -0.34970410997E+02  0.53959829188E+01  0.39935554154E+02  0.51100000000E-03 0.  1.
        -12    1    3    3    0    0 -0.60973663362E+01 -0.85324335143E+00 -0.19540245118E+01  0.64594204266E+01  0.00000000000E+00 0.  1.
</event>
<event>
 7    1  0.6073302E-013  0.5052886E+02  0.7816164E-02  0.1300439E+00
        -11   -1    0    0    0    0  0.00000000000E+00  0.00000000000E+00  0.45593999997E+02  0.45594000000E+02  0.51100000000E-03 0. -1.
         11   -1    0    0    0    0 -0.00000000000E+00 -0.00000000000E+00 -0.45593999997E+02  0.45594000000E+02  0.51100000000E-03 0.  1.
    9900012    2    1    2    0    0  0.12410964409E+02  0.14801761396E+02 -0.35777665402E+02  0.50528861794E+02  0.30000005911E+02 0.  0.
         12    1    1    2    0    0 -0.12410964409E+02 -0.14801761396E+02  0.35777665402E+02  0.40659138206E+02  0.00000000000E+00 0. -1.
         11    1    3    3    0    0  0.16706294353E+01  0.11274417011E+02 -0.10314996952E+02  0.15372138565E+02  0.51100000000E-03 0. -1.
        -11    1    3    3    0    0  0.14905536614E+02  0.28026752899E+01 -0.26738633623E+02  0.30740600821E+02  0.51100000000E-03 0.  1.
        -12    1    3    3    0    0 -0.41652016410E+01  0.72466909439E+00  0.12759651733E+01  0.44161224088E+01  0.00000000000E+00 0.  1.
</event>
<event>
 7    1  0.6073302E-013  0.5052886E+02  0.7816164E-02  0.1300439E+00
        -11   -1    0    0    0    0  0.00000000000E+00  0.00000000000E+00  0.45593999997E+02  0.45594000000E+02  0.51100000000E-03 0. -1.
         11   -1    0    0    0    0 -0.00000000000E+00 -0.00000000000E+00 -0.45593999997E+02  0.45594000000E+02  0.51100000000E-03 0.  1.
    9900012    2    1    2    0    0  0.27020089220E+02 -0.17538883806E+01 -0.30331576491E+02  0.50528857383E+02  0.29999992502E+02 0.  0.
         12    1    1    2    0    0 -0.27020089220E+02  0.17538883806E+01  0.30331576491E+02  0.40659142617E+02  0.00000000000E+00 0. -1.
         11    1    3    3    0    0  0.17561143753E+02  0.35742739533E+01 -0.15433217923E+02  0.23650653689E+02  0.51100000000E-03 0. -1.
        -11    1    3    3    0    0  0.18670876723E+01 -0.65289789750E+01 -0.17493811915E+02  0.18765581217E+02  0.51100000000E-03 0.  1.
         12    1    3    3    0    0  0.75918577947E+01  0.12008166411E+01  0.25954533470E+01  0.81126224771E+01  0.00000000000E+00 0. -1.
</event>
<event>
 7    1  0.6073302E-013  0.5052885E+02  0.7816164E-02  0.1300439E+00
        -11   -1    0    0    0    0  0.00000000000E+00  0.00000000000E+00  0.45593999997E+02  0.45594000000E+02  0.51100000000E-03 0. -1.
         11   -1    0    0    0    0 -0.00000000000E+00 -0.00000000000E+00 -0.45593999997E+02  0.45594000000E+02  0.51100000000E-03 0.  1.
    9900012    2    1    2    0    0  0.28121473195E+02  0.18697482508E+02 -0.22644057545E+02  0.50528850367E+02  0.29999971174E+02 0.  0.
         12    1    1    2    0    0 -0.28121473195E+02 -0.18697482508E+02  0.22644057545E+02  0.40659149633E+02  0.00000000000E+00 0. -1.
         11    1    3    3    0    0  0.96946933566E+00  0.27102364480E+01 -0.59761130815E+01  0.66331877873E+01  0.51100000000E-03 0. -1.
        -11    1    3    3    0    0  0.18539345212E+01  0.14515971534E+01  0.63242826452E+01  0.67483893443E+01  0.51100000000E-03 0.  1.
        -12    1    3    3    0    0  0.25298069338E+02  0.14535648907E+02 -0.22992227109E+02  0.37147273235E+02  0.00000000000E+00 0.  1.
</event>
<event>
 7    1  0.6073302E-013  0.5052884E+02  0.7816164E-02  0.1300439E+00
        -11   -1    0    0    0    0  0.00000000000E+00  0.00000000000E+00  0.45593999997E+02  0.45594000000E+02  0.51100000000E-03 0.  1.
         11   -1    0    0    0    0 -0.00000000000E+00 -0.00000000000E+00 -0.45593999997E+02  0.45594000000E+02  0.51100000000E-03 0. -1.
    9900012    2    1    2    0    0 -0.29935337474E+02 -0.24326594389E+02  0.12855327112E+02  0.50528842859E+02  0.29999948355E+02 0.  0.
         12    1    1    2    0    0  0.29935337474E+02  0.24326594389E+02 -0.12855327112E+02  0.40659157141E+02  0.00000000000E+00 0. -1.
         11    1    3    3    0    0 -0.20357502181E+02 -0.22498416147E+02  0.52232000084E+01  0.30787796978E+02  0.51100000000E-03 0. -1.
        -11    1    3    3    0    0  0.23499731203E+01  0.54702822825E+00  0.71756973360E+01  0.75704851937E+01  0.51100000000E-03 0.  1.
         12    1    3    3    0    0 -0.11927808413E+02 -0.23752064704E+01  0.45642976729E+00  0.12170560687E+02  0.00000000000E+00 0. -1.
</event>
<event>
 7    1  0.6073302E-013  0.5052887E+02  0.7816164E-02  0.1300439E+00
        -11   -1    0    0    0    0  0.00000000000E+00  0.00000000000E+00  0.45593999997E+02  0.45594000000E+02  0.51100000000E-03 0.  1.
         11   -1    0    0    0    0 -0.00000000000E+00 -0.00000000000E+00 -0.45593999997E+02  0.45594000000E+02  0.51100000000E-03 0. -1.
    9900012    2    1    2    0    0 -0.25979651834E+02  0.59369666881E+01  0.30707902175E+02  0.50528866477E+02  0.30000020143E+02 0.  0.
         12    1    1    2    0    0  0.25979651834E+02 -0.59369666881E+01 -0.30707902175E+02  0.40659133523E+02  0.00000000000E+00 0. -1.
         11    1    3    3    0    0 -0.55319794550E+01  0.11203501857E+02  0.28620307359E+01  0.12818442602E+02  0.51100000000E-03 0. -1.
        -11    1    3    3    0    0 -0.42537454794E+01 -0.77109073895E+01  0.73191892362E+01  0.11450894057E+02  0.51100000000E-03 0.  1.
        -12    1    3    3    0    0 -0.16193926899E+02  0.24443722209E+01  0.20526682203E+02  0.26259529818E+02  0.00000000000E+00 0.  1.
</event>
<event>
 7    1  0.6073302E-013  0.5052886E+02  0.7816164E-02  0.1300439E+00
        -11   -1    0    0    0    0  0.00000000000E+00  0.00000000000E+00  0.45593999997E+02  0.45594000000E+02  0.51100000000E-03 0.  1.
         11   -1    0    0    0    0 -0.00000000000E+00 -0.00000000000E+00 -0.45593999997E+02  0.45594000000E+02  0.51100000000E-03 0. -1.
    9900012    2    1    2    0    0  0.23294695051E+02  0.18906109250E+02  0.27442333873E+02  0.50528862369E+02  0.30000007657E+02 0.  0.
         12    1    1    2    0    0 -0.23294695051E+02 -0.18906109250E+02 -0.27442333873E+02  0.40659137631E+02  0.00000000000E+00 0. -1.
         11    1    3    3    0    0  0.39011962073E+01  0.97833589979E+01  0.11130929166E+01  0.10591148249E+02  0.51100000000E-03 0. -1.
        -11    1    3    3    0    0  0.14782030511E+02 -0.33288063843E-01  0.25723215580E+02  0.29668052753E+02  0.51100000000E-03 0.  1.
        -12    1    3    3    0    0  0.46114683326E+01  0.91560383160E+01  0.60602537595E+00  0.10269661367E+02  0.00000000000E+00 0.  1.
</event>
<event>
 7    1  0.6073302E-013  0.5052886E+02  0.7816164E-02  0.1300439E+00
        -11   -1    0    0    0    0  0.00000000000E+00  0.00000000000E+00  0.45593999997E+02  0.45594000000E+02  0.51100000000E-03 0.  1.
         11   -1    0    0    0    0 -0.00000000000E+00 -0.00000000000E+00 -0.45593999997E+02  0.45594000000E+02  0.51100000000E-03 0. -1.
    9900012    2    1    2    0    0 -0.23820694725E+02 -0.23952867134E+02  0.22627416530E+02  0.50528864251E+02  0.30000013376E+02 0.  0.
         12    1    1    2    0    0  0.23820694725E+02  0.23952867134E+02 -0.22627416530E+02  0.40659135749E+02  0.00000000000E+00 0. -1.
         11    1    3    3    0    0 -0.45862238740E+01 -0.19314986917E+01  0.57114637683E+00  0.50090263588E+01  0.51100000000E-03 0. -1.
        -11    1    3    3    0    0 -0.25136274205E+02 -0.11853131058E+02  0.17867655176E+02  0.33039099542E+02  0.51100000000E-03 0.  1.
        -12    1    3    3    0    0  0.59018033545E+01 -0.10168237384E+02  0.41886149763E+01  0.12480738350E+02  0.00000000000E+00 0.  1.
</event>
<event>
 7    1  0.6073302E-013  0.5052886E+02  0.7816164E-02  0.1300439E+00
        -11   -1    0    0    0    0  0.00000000000E+00  0.00000000000E+00  0.45593999997E+02  0.45594000000E+02  0.51100000000E-03 0. -1.
         11   -1    0    0    0    0 -0.00000000000E+00 -0.00000000000E+00 -0.45593999997E+02  0.45594000000E+02  0.51100000000E-03 0.  1.
    9900012    2    1    2    0    0 -0.21772414174E+02 -0.21294593510E+02 -0.26938217567E+02  0.50528864527E+02  0.30000014216E+02 0.  0.
         12    1    1    2    0    0  0.21772414174E+02  0.21294593510E+02  0.26938217567E+02  0.40659135473E+02  0.00000000000E+00 0. -1.
         11    1    3    3    0    0 -0.35240423845E+01 -0.19717133470E+01 -0.22221921261E+02  0.22585843200E+02  0.51100000000E-03 0. -1.
        -11    1    3    3    0    0 -0.35460065180E+01 -0.13629830628E+01 -0.26686551238E+01  0.46425860774E+01  0.51100000000E-03 0.  1.
         12    1    3    3    0    0 -0.14702365271E+02 -0.17959897100E+02 -0.20476411829E+01  0.23300435250E+02  0.00000000000E+00 0. -1.
</event>
